-4.500000 2.9010686E-18
-4.372967 2.9056404E-18
-4.245934 2.9142286E-18
-4.118902 2.9258838E-18
-3.991869 2.9393842E-18
-3.864837 2.9533882E-18
-3.737804 2.9666030E-18
-3.610771 2.9779466E-18
-3.483739 2.9866754E-18
-3.356706 2.9924735E-18
-3.229674 2.9954783E-18
-3.102641 2.9962508E-18
-2.975608 2.9956890E-18
-2.848576 2.9948974E-18
-2.721543 2.9950307E-18
-2.594510 2.9971347E-18
-2.467478 3.0019987E-18
-2.340445 3.0100484E-18
-2.213412 3.0212822E-18
-2.086380 3.0352687E-18
-1.959347 3.0511986E-18
-1.832314 3.0679860E-18
-1.705282 3.0844091E-18
-1.578249 3.0992650E-18
-1.451216 3.1115290E-18
-1.324184 3.1204803E-18
-1.197151 3.1258030E-18
-1.070119 3.1276235E-18
-0.9430859 3.1264964E-18
-0.8160533 3.1233356E-18
-0.6890206 3.1192962E-18
-0.5619880 3.1156277E-18
-0.4349554 3.1135155E-18
-0.3079227 3.1139299E-18
-0.1808901 3.1175097E-18
-5.3857423E-02 3.1244872E-18
7.3175222E-02 3.1346683E-18
0.2002079 3.1474646E-18
0.3272405 3.1619692E-18
0.4542732 3.1770630E-18
0.5813058 3.1915250E-18
0.7083384 3.2041430E-18
0.8353711 3.2138115E-18
0.9624037 3.2196274E-18
1.089436 3.2209981E-18
1.216469 3.2177795E-18
1.343502 3.2104546E-18
1.470534 3.2003316E-18
1.597567 3.1896996E-18
1.724600 3.1818485E-18
1.851632 3.1808333E-18
1.978665 3.1908713E-18
2.105698 3.2153414E-18
2.232730 3.2554700E-18
2.359763 3.3089452E-18
2.486795 3.3688767E-18
2.613828 3.4235922E-18
2.740861 3.4577562E-18
2.867893 3.4550819E-18
2.994926 3.4025404E-18
3.121959 3.2954648E-18
3.248991 3.1424306E-18
3.376024 2.9684251E-18
3.503057 2.8147600E-18
3.630089 2.7345615E-18
3.757122 2.7835296E-18
3.884155 3.0068565E-18
4.011187 3.4245319E-18
4.138220 4.0182978E-18
4.265253 4.7239933E-18
4.392285 5.4325670E-18
4.519318 6.0016189E-18
4.646350 6.2771660E-18
4.773383 6.1227988E-18
4.900416 5.4512555E-18
5.027448 4.2521298E-18
5.154481 2.6095313E-18
5.281514 7.0496302E-19
5.408546 -1.1967782E-18
5.535579 -2.7779397E-18
5.662611 -3.7109800E-18
5.789644 -3.7094054E-18
5.916677 -2.5803579E-18
6.043710 -2.7310050E-19
6.170742 3.0821928E-18
6.297775 7.1509880E-18
6.424808 1.1392470E-17
6.551840 1.5085837E-17
6.678873 1.7390913E-17
6.805905 1.7446037E-17
6.932938 1.4499803E-17
7.059971 8.0635138E-18
7.187003 -1.9394941E-18
7.314036 -1.5060160E-17
7.441069 -3.0280240E-17
7.568101 -4.6066032E-17
7.695134 -6.0527380E-17
7.822166 -7.1663057E-17
7.949199 -7.7644486E-17
8.076232 -7.7067835E-17
8.203264 -6.9099849E-17
8.330297 -5.3461467E-17
8.457330 -3.0236201E-17
8.584362 4.4988167E-19
8.711395 3.8768145E-17
8.838428 8.5395089E-17
8.965461 1.4142896E-16
9.092493 2.0790032E-16
9.219525 2.8485723E-16
9.346559 3.7013998E-16
9.473591 4.5810491E-16
9.600623 5.3867685E-16
9.727656 5.9716326E-16
9.854689 6.1522147E-16
9.981722 5.7321907E-16
10.10875 4.5397033E-16
10.23579 2.4751142E-16
10.36282 -4.3764349E-17
10.48985 -4.0057371E-16
10.61689 -7.8393677E-16
10.74392 -1.1352021E-15
10.87095 -1.3797748E-15
10.99798 -1.4349691E-15
11.12502 -1.2217837E-15
11.25205 -6.7967083E-16
11.37908 2.1735188E-16
11.50611 1.4454894E-15
11.63315 2.9194488E-15
11.76018 4.4868059E-15
11.88721 5.9306536E-15
12.01424 6.9819329E-15
12.14128 7.3417208E-15
12.26831 6.7124197E-15
12.39534 4.8354464E-15
12.52237 1.5318281E-15
12.64941 -3.2586704E-15
12.77644 -9.4445944E-15
12.90347 -1.6760410E-14
13.03051 -2.4758250E-14
13.15754 -3.2816076E-14
13.28457 -4.0162985E-14
13.41160 -4.5920841E-14
13.53864 -4.9160047E-14
13.66567 -4.8966263E-14
13.79270 -4.4514380E-14
13.91973 -3.5145748E-14
14.04677 -2.0445000E-14
14.17380 -3.1276821E-16
14.30083 2.4969337E-14
14.42786 5.4685457E-14
14.55490 8.7648686E-14
14.68193 1.2218649E-13
14.80896 1.5615535E-13
14.93600 1.8699174E-13
15.06303 2.1180720E-13
15.19006 2.2753278E-13
15.31709 2.3111531E-13
15.44413 2.1976315E-13
15.57116 1.9123180E-13
15.69819 1.4413304E-13
15.82522 7.8242893E-14
15.95226 -5.2226548E-15
16.07929 -1.0340010E-13
16.20632 -2.1167626E-13
16.33335 -3.2372659E-13
16.46039 -4.3172169E-13
16.58742 -5.2671864E-13
16.71445 -5.9923827E-13
16.84148 -6.4001110E-13
16.96852 -6.4085467E-13
17.09555 -5.9562544E-13
17.22258 -5.0116947E-13
17.34962 -3.5818353E-13
17.47665 -1.7188715E-13
17.60368 4.7592938E-14
17.73071 2.8521985E-13
17.85775 5.2150179E-13
17.98478 7.3345594E-13
18.11181 8.9609602E-13
18.23884 9.8441426E-13
18.36588 9.7577632E-13
18.49291 8.5259387E-13
18.61994 6.0508456E-13
18.74697 2.3388331E-13
18.87401 -2.4776901E-13
19.00104 -8.1254610E-13
19.12807 -1.4185490E-12
19.25510 -2.0100521E-12
19.38214 -2.5196670E-12
19.50917 -2.8720006E-12
19.63620 -2.9887804E-12
19.76324 -2.7952759E-12
19.89027 -2.2277037E-12
20.01730 -1.2411782E-12
20.14433 1.8236153E-13
20.27137 2.0268943E-12
20.39840 4.2364406E-12
20.52543 6.7112730E-12
20.65246 9.3068773E-12
20.77950 1.1836234E-11
20.90653 1.4075837E-11
21.03356 1.5775660E-11
21.16059 1.6673028E-11
21.28763 1.6510080E-11
21.41466 1.5054182E-11
21.54169 1.2120313E-11
21.66872 7.5941597E-12
21.79576 1.4543553E-12
21.92279 -6.2079231E-12
22.04982 -1.5173878E-11
22.17686 -2.5088457E-11
22.30389 -3.5459920E-11
22.43092 -4.5669066E-11
22.55795 -5.4989124E-11
22.68499 -6.2616717E-11
22.81202 -6.7713529E-11
22.93905 -6.9457468E-11
23.06608 -6.7101422E-11
23.19312 -6.0036552E-11
23.32015 -4.7856427E-11
23.44718 -3.0417946E-11
23.57421 -7.8940682E-12
23.70125 1.9186243E-11
23.82828 4.9915624E-11
23.95531 8.3007448E-11
24.08235 1.1681972E-10
24.20938 1.4940560E-10
24.33641 1.7859088E-10
24.46344 2.0207701E-10
24.59048 2.1756635E-10
24.71751 2.2290442E-10
24.84454 2.1623198E-10
24.97157 1.9613873E-10
25.09861 1.6180900E-10
25.22564 1.1314930E-10
25.35267 5.0887804E-11
25.47970 -2.3363388E-11
25.60674 -1.0709125E-10
25.73377 -1.9691582E-10
25.86080 -2.8867878E-10
25.98783 -3.7758691E-10
26.11487 -4.5840806E-10
26.24190 -5.2571375E-10
26.36893 -5.7415905E-10
26.49597 -5.9878852E-10
26.62300 -5.9535293E-10
26.75003 -5.6062083E-10
26.87706 -4.9266741E-10
27.00410 -3.9112164E-10
27.13113 -2.5735464E-10
27.25816 -9.4592417E-11
27.38519 9.2060262E-11
27.51223 2.9569674E-10
27.63926 5.0779092E-10
27.76629 7.1848655E-10
27.89332 9.1698887E-10
28.02036 1.0920477E-09
28.14739 1.2325134E-09
28.27442 1.3279436E-09
28.40145 1.3692310E-09
28.52849 1.3492192E-09
28.65552 1.2632723E-09
28.78255 1.1097581E-09
28.90959 8.9041102E-10
29.03662 6.1054256E-10
29.16365 2.7906963E-10
29.29068 -9.1658098E-11
29.41772 -4.8623849E-10
29.54475 -8.8680774E-10
29.67178 -1.2738217E-09
29.79881 -1.6270041E-09
29.92585 -1.9264195E-09
30.05288 -2.1536157E-09
30.17991 -2.2927791E-09
30.30694 -2.3318283E-09
30.43398 -2.2633793E-09
30.56101 -2.0855118E-09
30.68804 -1.8022697E-09
30.81507 -1.4238456E-09
30.94211 -9.6641362E-10
31.06914 -4.5158757E-10
31.19617 9.4490367E-11
31.32321 6.4239919E-10
31.45024 1.1609865E-09
31.57727 1.6191312E-09
31.70430 1.9876352E-09
31.83134 2.2411382E-09
31.95837 2.3599396E-09
32.08540 2.3316038E-09
32.21243 2.1522439E-09
32.33947 1.8273777E-09
32.46650 1.3722762E-09
32.59353 8.1174489E-10
32.72057 1.7931663E-10
32.84760 -4.8413895E-10
32.97463 -1.1323432E-09
33.10166 -1.7159976E-09
33.22869 -2.1855213E-09
33.35573 -2.4940030E-09
33.48276 -2.6002009E-09
33.60979 -2.4714402E-09
33.73683 -2.0862092E-09
33.86386 -1.4363271E-09
33.99089 -5.2850890E-10
34.11792 6.1477601E-10
34.24496 1.9552322E-09
34.37199 3.4395098E-09
34.49902 5.0008029E-09
34.62605 6.5612387E-09
34.75309 8.0349656E-09
34.88012 9.3318100E-09
35.00715 1.0361337E-08
35.13419 1.1037144E-08
35.26122 1.1281152E-08
35.38825 1.1027728E-08
35.51528 1.0227400E-08
35.64231 8.8500061E-09
35.76935 6.8870927E-09
35.89638 4.3534762E-09
36.02341 1.2878347E-09
36.15045 -2.2476707E-09
36.27748 -6.1687389E-09
36.40451 -1.0371228E-08
36.53154 -1.4734242E-08
36.65858 -1.9123949E-08
36.78561 -2.3397931E-08
36.91264 -2.7409879E-08
37.03968 -3.1014498E-08
37.16671 -3.4072364E-08
37.29374 -3.6454594E-08
37.42077 -3.8047155E-08
37.54781 -3.8754681E-08
37.67484 -3.8503650E-08
37.80187 -3.7244856E-08
37.92890 -3.4955164E-08
38.05593 -3.1638436E-08
38.18297 -2.7325736E-08
38.31000 -2.2074770E-08
38.43703 -1.5968672E-08
38.56407 -9.1141521E-09
38.69110 -1.6391660E-09
38.81813 6.3099002E-09
38.94516 1.4571376E-08
39.07220 2.2971708E-08
39.19923 3.1329098E-08
39.32626 3.9457223E-08
39.45330 4.7169035E-08
39.58033 5.4280580E-08
39.70736 6.0614781E-08
39.83439 6.6005157E-08
39.96143 7.0299436E-08
40.08846 7.3363012E-08
40.21549 7.5082269E-08
40.34253 7.5367673E-08
40.46955 7.4156510E-08
40.59659 7.1415414E-08
40.72362 6.7142395E-08
40.85065 6.1368397E-08
40.97769 5.4158285E-08
41.10472 4.5611092E-08
41.23175 3.5859447E-08
41.35878 2.5068138E-08
41.48582 1.3431529E-08
41.61285 1.1699058E-09
41.73988 -1.1475461E-08
41.86692 -2.4248559E-08
41.99395 -3.6886217E-08
42.12098 -4.9127035E-08
42.24801 -6.0721618E-08
42.37505 -7.1444049E-08
42.50208 -8.1104417E-08
42.62911 -8.9562270E-08
42.75615 -9.6740699E-08
42.88317 -1.0264081E-07
43.01021 -1.0735632E-07
43.13724 -1.1108782E-07
43.26427 -1.1415644E-07
43.39131 -1.1701646E-07
43.51834 -1.2026653E-07
43.64537 -1.2465914E-07
43.77240 -1.3110773E-07
43.89944 -1.4069163E-07
44.02647 -1.5465773E-07
44.15350 -1.7441931E-07
44.28054 -2.0155130E-07
44.40757 -2.3778195E-07
44.53460 -2.8498022E-07
44.66163 -3.4513994E-07
44.78867 -4.2035910E-07
44.91570 -5.1281529E-07
45.04273 -6.2473669E-07
45.16977 -7.5836954E-07
45.29680 -9.1594086E-07
45.42383 -1.0996183E-06
45.55086 -1.3114657E-06
45.67789 -1.5533969E-06
45.80493 -1.8271271E-06
45.93196 -2.1341218E-06
46.05899 -2.4755457E-06
46.18602 -2.8522140E-06
46.31306 -3.2645419E-06
46.44009 -3.7124996E-06
46.56712 -4.1955723E-06
46.69416 -4.7127237E-06
46.82119 -5.2623682E-06
46.94822 -5.8423525E-06
47.07525 -6.4499482E-06
47.20229 -7.0818528E-06
47.32932 -7.7342092E-06
47.45635 -8.4026333E-06
47.58339 -9.0822596E-06
47.71042 -9.7678039E-06
47.83745 -1.0453629E-05
47.96448 -1.1133842E-05
48.09151 -1.1802386E-05
48.21855 -1.2453156E-05
48.34558 -1.3080117E-05
48.47261 -1.3677437E-05
48.59965 -1.4239605E-05
48.72668 -1.4761573E-05
48.85371 -1.5238878E-05
48.98074 -1.5667763E-05
49.10778 -1.6045282E-05
49.23481 -1.6369408E-05
49.36184 -1.6639093E-05
49.48887 -1.6854343E-05
49.61591 -1.7016238E-05
49.74294 -1.7126951E-05
49.86997 -1.7189723E-05
49.99701 -1.7208826E-05
50.12404 -1.7189484E-05
50.25107 -1.7137789E-05
50.37810 -1.7060562E-05
50.50513 -1.6965225E-05
50.63217 -1.6859642E-05
50.75920 -1.6751939E-05
50.88623 -1.6650320E-05
51.01327 -1.6562888E-05
51.14030 -1.6497446E-05
51.26733 -1.6461321E-05
51.39436 -1.6461192E-05
51.52140 -1.6502921E-05
51.64843 -1.6591432E-05
51.77546 -1.6730573E-05
51.90249 -1.6923046E-05
52.02953 -1.7170321E-05
52.15656 -1.7472616E-05
52.28359 -1.7828888E-05
52.41063 -1.8236857E-05
52.53766 -1.8693048E-05
52.66469 -1.9192887E-05
52.79172 -1.9730780E-05
52.91875 -2.0300260E-05
53.04579 -2.0894106E-05
53.17282 -2.1504504E-05
53.29985 -2.2123215E-05
53.42689 -2.2741729E-05
53.55392 -2.3351453E-05
53.68095 -2.3943863E-05
53.80798 -2.4510677E-05
53.93502 -2.5043999E-05
54.06205 -2.5536479E-05
54.18908 -2.5981431E-05
54.31612 -2.6372947E-05
54.44315 -2.6706004E-05
54.57018 -2.6976548E-05
54.69721 -2.7181555E-05
54.82425 -2.7319085E-05
54.95128 -2.7388312E-05
55.07831 -2.7389542E-05
55.20534 -2.7324208E-05
55.33237 -2.7194856E-05
55.45941 -2.7005113E-05
55.58644 -2.6759644E-05
55.71347 -2.6464077E-05
55.84051 -2.6124935E-05
55.96754 -2.5749545E-05
56.09457 -2.5345929E-05
56.22160 -2.4922690E-05
56.34864 -2.4488882E-05
56.47567 -2.4053856E-05
56.60270 -2.3627123E-05
56.72974 -2.3218183E-05
56.85677 -2.2836370E-05
56.98380 -2.2490665E-05
57.11083 -2.2189548E-05
57.23787 -2.1940812E-05
57.36490 -2.1751421E-05
57.49193 -2.1627347E-05
57.61897 -2.1573462E-05
57.74599 -2.1593401E-05
57.87303 -2.1689499E-05
58.00006 -2.1862716E-05
58.12709 -2.2112619E-05
58.25413 -2.2437382E-05
58.38116 -2.2833821E-05
58.50819 -2.3297474E-05
58.63522 -2.3822698E-05
58.76226 -2.4402803E-05
58.88929 -2.5030215E-05
59.01632 -2.5696665E-05
59.14336 -2.6393374E-05
59.27039 -2.7111277E-05
59.39742 -2.7841228E-05
59.52445 -2.8574210E-05
59.65149 -2.9301533E-05
59.77852 -3.0015010E-05
59.90555 -3.0707106E-05
60.03259 -3.1371073E-05
60.15961 -3.2001019E-05
60.28665 -3.2591972E-05
60.41368 -3.3139870E-05
60.54071 -3.3641543E-05
60.66775 -3.4094650E-05
60.79478 -3.4497552E-05
60.92181 -3.4849207E-05
61.04884 -3.5148998E-05
61.17588 -3.5396581E-05
61.30291 -3.5591711E-05
61.42994 -3.5734080E-05
61.55698 -3.5823163E-05
61.68401 -3.5858095E-05
61.81104 -3.5837576E-05
61.93807 -3.5759826E-05
62.06511 -3.5622565E-05
62.19214 -3.5423051E-05
62.31917 -3.5158173E-05
62.44621 -3.4824578E-05
62.57324 -3.4418859E-05
62.70027 -3.3937766E-05
62.82730 -3.3378452E-05
62.95433 -3.2738753E-05
63.08137 -3.2017459E-05
63.20840 -3.1214589E-05
63.33543 -3.0331663E-05
63.46246 -2.9371928E-05
63.58950 -2.8340559E-05
63.71653 -2.7244809E-05
63.84356 -2.6094078E-05
63.97060 -2.4899948E-05
64.09763 -2.3676124E-05
64.22466 -2.2438307E-05
64.35169 -2.1203987E-05
64.47873 -1.9992174E-05
64.60576 -1.8823064E-05
64.73279 -1.7717641E-05
64.85983 -1.6697240E-05
64.98685 -1.5783080E-05
65.11389 -1.4995780E-05
65.24092 -1.4354863E-05
65.36796 -1.3878290E-05
65.49499 -1.3582003E-05
65.62202 -1.3479525E-05
65.74905 -1.3581614E-05
65.87608 -1.3895973E-05
66.00312 -1.4427046E-05
66.13015 -1.5175891E-05
66.25719 -1.6140137E-05
66.38422 -1.7314023E-05
66.51125 -1.8688541E-05
66.63828 -2.0251618E-05
66.76531 -2.1988406E-05
66.89235 -2.3881616E-05
67.01938 -2.5911901E-05
67.14641 -2.8058283E-05
67.27345 -3.0298597E-05
67.40047 -3.2609951E-05
67.52751 -3.4969165E-05
67.65454 -3.7353220E-05
67.78158 -3.9739654E-05
67.90861 -4.2106920E-05
68.03564 -4.4434710E-05
68.16267 -4.6704201E-05
68.28970 -4.8898266E-05
68.41674 -5.1001585E-05
68.54377 -5.3000749E-05
68.67081 -5.4884236E-05
68.79784 -5.6642388E-05
68.92487 -5.8267309E-05
69.05190 -5.9752718E-05
69.17893 -6.1093786E-05
69.30597 -6.2286934E-05
69.43300 -6.3329637E-05
69.56004 -6.4220199E-05
69.68707 -6.4957538E-05
69.81409 -6.5541019E-05
69.94113 -6.5970256E-05
70.06816 -6.6245026E-05
70.19520 -6.6365130E-05
70.32223 -6.6330329E-05
70.44926 -6.6140383E-05
70.57629 -6.5795022E-05
70.70332 -6.5294073E-05
70.83036 -6.4637541E-05
70.95739 -6.3825748E-05
71.08443 -6.2859566E-05
71.21146 -6.1740539E-05
71.33849 -6.0471160E-05
71.46552 -5.9055063E-05
71.59255 -5.7497233E-05
71.71959 -5.5804237E-05
71.84662 -5.3984371E-05
71.97366 -5.2047824E-05
72.10069 -5.0006816E-05
72.22771 -4.7875656E-05
72.35475 -4.5670764E-05
72.48178 -4.3410677E-05
72.60882 -4.1115949E-05
72.73585 -3.8809052E-05
72.86288 -3.6514182E-05
72.98991 -3.4257053E-05
73.11694 -3.2064618E-05
73.24398 -2.9964775E-05
73.37101 -2.7986020E-05
73.49805 -2.6157079E-05
73.62508 -2.4506513E-05
73.75211 -2.3062326E-05
73.87914 -2.1851545E-05
74.00617 -2.0899806E-05
74.13321 -2.0230953E-05
74.26024 -1.9866640E-05
74.38728 -1.9825959E-05
74.51431 -2.0125070E-05
74.64133 -2.0776892E-05
74.76837 -2.1790793E-05
74.89540 -2.3172333E-05
75.02244 -2.4923049E-05
75.14947 -2.7040263E-05
75.27650 -2.9516967E-05
75.40353 -3.2341726E-05
75.53056 -3.5498662E-05
75.65760 -3.8967475E-05
75.78463 -4.2723521E-05
75.91167 -4.6737954E-05
76.03870 -5.0977953E-05
76.16573 -5.5406963E-05
76.29276 -5.9985028E-05
76.41979 -6.4669177E-05
76.54683 -6.9413843E-05
76.67386 -7.4171374E-05
76.80090 -7.8892539E-05
76.92793 -8.3527091E-05
77.05495 -8.8024368E-05
77.18199 -9.2333874E-05
77.30902 -9.6405864E-05
77.43606 -1.0019197E-04
77.56309 -1.0364570E-04
77.69012 -1.0672308E-04
77.81715 -1.0938302E-04
77.94418 -1.1158785E-04
78.07122 -1.1330360E-04
78.19825 -1.1450039E-04
78.32529 -1.1515263E-04
78.45232 -1.1523919E-04
78.57935 -1.1474355E-04
78.70638 -1.1365373E-04
78.83341 -1.1196241E-04
78.96045 -1.0966677E-04
79.08748 -1.0676841E-04
79.21452 -1.0327327E-04
79.34155 -9.9191384E-05
79.46858 -9.4536816E-05
79.59561 -8.9327434E-05
79.72264 -8.3584811E-05
79.84968 -7.7334036E-05
79.97671 -7.0603623E-05
80.10374 -6.3425381E-05
80.23077 -5.5834309E-05
80.35780 -4.7868532E-05
80.48484 -3.9569175E-05
80.61187 -3.0980245E-05
80.73891 -2.2148524E-05
80.86594 -1.3123366E-05
80.99297 -3.9565039E-06
81.12000 5.2982532E-06
81.24703 1.4585359E-05
81.37407 2.3847953E-05
81.50110 3.3028373E-05
81.62814 4.2068739E-05
81.75517 5.0911622E-05
81.88220 5.9500759E-05
82.00923 6.7781861E-05
82.13626 7.5703436E-05
82.26330 8.3217630E-05
82.39033 9.0281079E-05
82.51736 9.6855736E-05
82.64439 1.0290961E-04
82.77143 1.0841746E-04
82.89846 1.1336134E-04
83.02549 1.1773105E-04
83.15253 1.2152434E-04
83.27956 1.2474709E-04
83.40659 1.2741316E-04
83.53362 1.2954409E-04
83.66065 1.3116861E-04
83.78769 1.3232193E-04
83.91472 1.3304497E-04
84.04176 1.3338323E-04
84.16879 1.3338572E-04
84.29582 1.3310368E-04
84.42285 1.3258928E-04
84.54988 1.3189430E-04
84.67692 1.3106881E-04
84.80395 1.3015994E-04
84.93098 1.2921068E-04
85.05801 1.2825892E-04
85.18505 1.2733655E-04
85.31208 1.2646885E-04
85.43911 1.2567399E-04
85.56615 1.2496290E-04
85.69318 1.2433915E-04
85.82021 1.2379933E-04
85.94724 1.2333342E-04
86.07427 1.2292544E-04
86.20131 1.2255432E-04
86.32834 1.2219488E-04
86.45538 1.2181880E-04
86.58241 1.2139586E-04
86.70944 1.2089511E-04
86.83647 1.2028601E-04
86.96350 1.1953955E-04
87.09054 1.1862932E-04
87.21757 1.1753252E-04
87.34460 1.1623065E-04
87.47163 1.1471024E-04
87.59867 1.1296335E-04
87.72570 1.1098786E-04
87.85273 1.0878765E-04
87.97977 1.0637256E-04
88.10680 1.0375814E-04
88.23383 1.0096539E-04
88.36086 9.8020253E-05
88.48790 9.4952957E-05
88.61493 9.1797425E-05
88.74196 8.8590408E-05
88.86900 8.5370732E-05
88.99603 8.2178398E-05
89.12306 7.9053745E-05
89.25009 7.6036595E-05
89.37712 7.3165407E-05
89.50416 7.0476490E-05
89.63119 6.8003304E-05
89.75822 6.5775763E-05
89.88525 6.3819716E-05
90.01229 6.2156418E-05
90.13932 6.0802195E-05
90.26635 5.9768139E-05
90.39339 5.9059992E-05
90.52042 5.8678081E-05
90.64745 5.8617421E-05
90.77448 5.8867889E-05
90.90152 5.9414535E-05
91.02855 6.0238002E-05
91.15558 6.1315019E-05
91.28262 6.2618994E-05
91.40965 6.4120672E-05
91.53668 6.5788845E-05
91.66371 6.7591107E-05
91.79075 6.9494592E-05
91.91778 7.1466726E-05
92.04481 7.3475952E-05
92.17184 7.5492397E-05
92.29887 7.7488447E-05
92.42591 7.9439284E-05
92.55294 8.1323255E-05
92.67997 8.3122155E-05
92.80701 8.4821375E-05
92.93404 8.6409935E-05
93.06107 8.7880348E-05
93.18810 8.9228393E-05
93.31514 9.0452784E-05
93.44217 9.1554699E-05
93.56920 9.2537302E-05
93.69624 9.3405120E-05
93.82327 9.4163479E-05
93.95030 9.4817879E-05
94.07733 9.5373412E-05
94.20437 9.5834272E-05
94.33140 9.6203228E-05
94.45843 9.6481330E-05
94.58546 9.6667602E-05
94.71249 9.6758937E-05
94.83953 9.6750067E-05
94.96656 9.6633696E-05
95.09360 9.6400727E-05
95.22063 9.6040625E-05
95.34766 9.5541844E-05
95.47469 9.4892326E-05
95.60172 9.4080118E-05
95.72876 9.3093950E-05
95.85579 9.1923808E-05
95.98282 9.0561531E-05
96.10986 8.9001340E-05
96.23689 8.7240238E-05
96.36392 8.5278385E-05
96.49095 8.3119303E-05
96.61799 8.0770034E-05
96.74502 7.8241057E-05
96.87205 7.5546188E-05
96.99908 7.2702263E-05
97.12611 6.9728812E-05
97.25315 6.6647510E-05
97.38018 6.3481675E-05
97.50722 6.0255636E-05
97.63425 5.6994071E-05
97.76128 5.3721407E-05
97.88831 5.0461178E-05
98.01534 4.7235444E-05
98.14238 4.4064316E-05
98.26941 4.0965519E-05
98.39645 3.7954098E-05
98.52348 3.5042201E-05
98.65051 3.2239026E-05
98.77754 2.9550831E-05
98.90457 2.6981088E-05
99.03161 2.4530731E-05
99.15864 2.2198477E-05
99.28567 1.9981226E-05
99.41270 1.7874490E-05
99.53973 1.5872858E-05
99.66677 1.3970451E-05
99.79380 1.2161352E-05
99.92084 1.0440005E-05
100.0479 8.8015304E-06
100.1749 7.2419853E-06
100.3019 5.7585244E-06
100.4290 4.3494842E-06
100.5560 3.0143456E-06
100.6830 1.7536445E-06
100.8101 5.6877934E-07
100.9371 -5.3824192E-07
101.0641 -1.5651100E-06
101.1912 -2.5095590E-06
101.3182 -3.3697133E-06
101.4452 -4.1444378E-06
101.5723 -4.8336624E-06
101.6993 -5.4386505E-06
101.8263 -5.9622148E-06
101.9534 -6.4088549E-06
102.0804 -6.7848023E-06
102.2074 -7.0979836E-06
102.3345 -7.3578908E-06
102.4615 -7.5753683E-06
102.5885 -7.7623181E-06
102.7156 -7.9313340E-06
102.8426 -8.0953023E-06
102.9696 -8.2669603E-06
103.0966 -8.4584335E-06
103.2237 -8.6807795E-06
103.3507 -8.9435716E-06
103.4777 -9.2544951E-06
103.6048 -9.6190233E-06
103.7318 -1.0040167E-05
103.8588 -1.0518284E-05
103.9859 -1.1050994E-05
104.1129 -1.1633170E-05
104.2399 -1.2257025E-05
104.3670 -1.2912272E-05
104.4940 -1.3586363E-05
104.6210 -1.4264794E-05
104.7481 -1.4931455E-05
104.8751 -1.5569009E-05
105.0021 -1.6159325E-05
105.1292 -1.6683893E-05
105.2562 -1.7124254E-05
105.3832 -1.7462427E-05
105.5103 -1.7681317E-05
105.6373 -1.7765098E-05
105.7643 -1.7699578E-05
105.8914 -1.7472550E-05
106.0184 -1.7074100E-05
106.1454 -1.6496922E-05
106.2725 -1.5736576E-05
106.3995 -1.4791767E-05
106.5265 -1.3664579E-05
106.6536 -1.2360699E-05
106.7806 -1.0889616E-05
106.9076 -9.2647933E-06
107.0347 -7.5038047E-06
107.1617 -5.6284116E-06
107.2887 -3.6645938E-06
107.4158 -1.6424900E-06
107.5428 4.0373928E-07
107.6698 2.4361614E-06
107.7969 4.4134395E-06
107.9239 6.2913282E-06
108.0509 8.0232958E-06
108.1780 9.5613032E-06
108.3050 1.0856690E-05
108.4320 1.1861202E-05
108.5591 1.2528110E-05
108.6861 1.2813430E-05
108.8131 1.2677172E-05
108.9402 1.2084626E-05
109.0672 1.1007614E-05
109.1942 9.4256866E-06
109.3213 7.3272040E-06
109.4483 4.7102717E-06
109.5753 1.5834743E-06
109.7023 -2.0336222E-06
109.8294 -6.1102351E-06
109.9564 -1.0604424E-05
110.0834 -1.5463465E-05
110.2105 -2.0624524E-05
110.3375 -2.6015665E-05
110.4645 -3.1557131E-05
110.5916 -3.7162910E-05
110.7186 -4.2742518E-05
110.8456 -4.8202957E-05
110.9727 -5.3450818E-05
111.0997 -5.8394395E-05
111.2267 -6.2945845E-05
111.3538 -6.7023211E-05
111.4808 -7.0552385E-05
111.6078 -7.3468764E-05
111.7349 -7.5718694E-05
111.8619 -7.7260658E-05
111.9889 -7.8065983E-05
112.1160 -7.8119323E-05
112.2430 -7.7418670E-05
112.3700 -7.5975011E-05
112.4971 -7.3811672E-05
112.6241 -7.0963251E-05
112.7511 -6.7474371E-05
112.8782 -6.3398140E-05
113.0052 -5.8794460E-05
113.1322 -5.3728236E-05
113.2593 -4.8267564E-05
113.3863 -4.2481970E-05
113.5133 -3.6440728E-05
113.6404 -3.0211377E-05
113.7674 -2.3858420E-05
113.8944 -1.7442320E-05
114.0215 -1.1018756E-05
114.1485 -4.6381815E-06
114.2755 1.6543061E-06
114.4026 7.8188223E-06
114.5296 1.3820303E-05
114.6566 1.9627872E-05
114.7837 2.5214073E-05
114.9107 3.0553958E-05
115.0377 3.5624165E-05
115.1647 4.0401988E-05
115.2918 4.4864530E-05
115.4188 4.8987982E-05
115.5459 5.2747131E-05
115.6729 5.6115037E-05
115.7999 5.9063012E-05
115.9269 6.1560851E-05
116.0540 6.3577332E-05
116.1810 6.5080989E-05
116.3080 6.6041095E-05
116.4351 6.6428882E-05
116.5621 6.6218832E-05
116.6891 6.5390108E-05
116.8162 6.3927982E-05
116.9432 6.1825180E-05
117.0702 5.9083115E-05
117.1973 5.5712979E-05
117.3243 5.1736497E-05
117.4513 4.7186448E-05
117.5784 4.2106825E-05
117.7054 3.6552636E-05
117.8324 3.0589326E-05
117.9595 2.4291870E-05
118.0865 1.7743474E-05
118.2135 1.1034009E-05
118.3406 4.2581828E-06
118.4676 -2.4864894E-06
118.5946 -9.1018383E-06
118.7217 -1.5491241E-05
118.8487 -2.1561798E-05
118.9757 -2.7226419E-05
119.1028 -3.2405726E-05
119.2298 -3.7029728E-05
119.3568 -4.1039217E-05
119.4839 -4.4386816E-05
119.6109 -4.7037694E-05
119.7379 -4.8969901E-05
119.8650 -5.0174327E-05
119.9920 -5.0654322E-05
120.1190 -5.0425002E-05
120.2461 -4.9512233E-05
120.3731 -4.7951446E-05
120.5001 -4.5786208E-05
120.6272 -4.3066742E-05
120.7542 -3.9848361E-05
120.8812 -3.6189922E-05
121.0083 -3.2152358E-05
121.1353 -2.7797312E-05
121.2623 -2.3185959E-05
121.3894 -1.8377990E-05
121.5164 -1.3430832E-05
121.6434 -8.3990844E-06
121.7704 -3.3341719E-06
121.8975 1.7157872E-06
122.0245 6.7059373E-06
122.1516 1.1594484E-05
122.2786 1.6342379E-05
122.4056 2.0912938E-05
122.5326 2.5271409E-05
122.6597 2.9384584E-05
122.7867 3.3220433E-05
122.9137 3.6747839E-05
123.0408 3.9936458E-05
123.1678 4.2756703E-05
123.2948 4.5179866E-05
123.4219 4.7178433E-05
123.5489 4.8726495E-05
123.6759 4.9800310E-05
123.8030 5.0378971E-05
123.9300 5.0445145E-05
124.0570 4.9985862E-05
124.1841 4.8993286E-05
124.3111 4.7465473E-05
124.4381 4.5407050E-05
124.5652 4.2829779E-05
124.6922 3.9752962E-05
124.8192 3.6203721E-05
124.9463 3.2217027E-05
125.0733 2.7835571E-05
125.2003 2.3109393E-05
125.3274 1.8095301E-05
125.4544 1.2856094E-05
125.5814 7.4595901E-06
125.7085 1.9774848E-06
125.8355 -3.5159267E-06
125.9625 -8.9451314E-06
126.0896 -1.4234851E-05
126.2166 -1.9311517E-05
126.3436 -2.4104753E-05
126.4707 -2.8548775E-05
126.5977 -3.2583739E-05
126.7247 -3.6156922E-05
126.8518 -3.9223782E-05
126.9788 -4.1748790E-05
127.1058 -4.3706095E-05
127.2329 -4.5079934E-05
127.3599 -4.5864836E-05
127.4869 -4.6065543E-05
127.6140 -4.5696746E-05
127.7410 -4.4782581E-05
127.8680 -4.3355914E-05
127.9950 -4.1457464E-05
128.1221 -3.9134742E-05
128.2491 -3.6440881E-05
128.3761 -3.3433396E-05
128.5032 -3.0172860E-05
128.6302 -2.6721580E-05
128.7572 -2.3142289E-05
128.8843 -1.9496894E-05
129.0113 -1.5845302E-05
129.1383 -1.2244365E-05
129.2654 -8.7469634E-06
129.3924 -5.4012439E-06
129.5194 -2.2500235E-06
129.6465 6.6963361E-07
129.7735 3.3266606E-06
129.9005 5.6960721E-06
130.0276 7.7588857E-06
130.1546 9.5019086E-06
130.2816 1.0917403E-05
130.4087 1.2002663E-05
130.5357 1.2759515E-05
130.6627 1.3193780E-05
130.7898 1.3314727E-05
130.9168 1.3134522E-05
131.0438 1.2667719E-05
131.1709 1.1930787E-05
131.2979 1.0941721E-05
131.4249 9.7197026E-06
131.5520 8.2848501E-06
131.6790 6.6580442E-06
131.8060 4.8608222E-06
131.9331 2.9153346E-06
132.0601 8.4435209E-07
132.1871 -1.3286940E-06
132.3142 -3.5796559E-06
132.4412 -5.8836149E-06
132.5682 -8.2148481E-06
132.6953 -1.0546829E-05
132.8223 -1.2852284E-05
132.9493 -1.5103305E-05
133.0764 -1.7271535E-05
133.2034 -1.9328440E-05
133.3304 -2.1245629E-05
133.4575 -2.2995284E-05
133.5845 -2.4550614E-05
133.7115 -2.5886389E-05
133.8385 -2.6979487E-05
133.9656 -2.7809492E-05
134.0926 -2.8359245E-05
134.2197 -2.8615405E-05
134.3467 -2.8568935E-05
134.4737 -2.8215543E-05
134.6008 -2.7555994E-05
134.7278 -2.6596350E-05
134.8548 -2.5348028E-05
134.9818 -2.3827775E-05
135.1089 -2.2057451E-05
135.2359 -2.0063679E-05
135.3629 -1.7877363E-05
135.4900 -1.5533042E-05
135.6170 -1.3068153E-05
135.7440 -1.0522190E-05
135.8711 -7.9357760E-06
135.9981 -5.3497038E-06
136.1251 -2.8039588E-06
136.2522 -3.3675536E-07
136.3792 2.0163657E-06
136.5062 4.2233664E-06
136.6333 6.2564222E-06
136.7603 8.0924874E-06
136.8873 9.7137054E-06
137.0144 1.1107632E-05
137.1414 1.2267274E-05
137.2684 1.3190934E-05
137.3955 1.3881862E-05
137.5225 1.4347751E-05
137.6495 1.4600058E-05
137.7766 1.4653228E-05
137.9036 1.4523806E-05
138.0306 1.4229518E-05
138.1577 1.3788328E-05
138.2847 1.3217544E-05
138.4117 1.2532993E-05
138.5388 1.1748311E-05
138.6658 1.0874393E-05
138.7928 9.9190056E-06
138.9199 8.8866154E-06
139.0469 7.7784252E-06
139.1739 6.5926192E-06
139.3009 5.3248182E-06
139.4280 3.9687270E-06
139.5550 2.5169429E-06
139.6821 9.6188751E-07
139.8091 -7.0317651E-07
139.9361 -2.4830892E-06
140.0632 -4.3797568E-06
140.1902 -6.3911843E-06
140.3172 -8.5106230E-06
140.4442 -1.0725887E-05
140.5713 -1.3018866E-05
140.6983 -1.5365289E-05
140.8253 -1.7734736E-05
140.9524 -2.0090918E-05
141.0794 -2.2392253E-05
141.2065 -2.4592668E-05
141.3335 -2.6642665E-05
141.4605 -2.8490585E-05
141.5875 -3.0084044E-05
141.7146 -3.1371463E-05
141.8416 -3.2303691E-05
141.9686 -3.2835618E-05
142.0957 -3.2927732E-05
142.2227 -3.2547563E-05
142.3497 -3.1670999E-05
142.4768 -3.0283318E-05
142.6038 -2.8380058E-05
142.7308 -2.5967562E-05
142.8579 -2.3063223E-05
142.9849 -1.9695442E-05
143.1119 -1.5903277E-05
143.2390 -1.1735799E-05
143.3660 -7.2511830E-06
143.4930 -2.5155689E-06
143.6201 2.3982939E-06
143.7471 7.4125383E-06
143.8741 1.2445789E-05
144.0012 1.7414843E-05
144.1282 2.2236349E-05
144.2552 2.6828478E-05
144.3823 3.1112511E-05
144.5093 3.5014331E-05
144.6363 3.8465776E-05
144.7634 4.1405845E-05
144.8904 4.3781707E-05
145.0174 4.5549583E-05
145.1445 4.6675370E-05
145.2715 4.7135163E-05
145.3985 4.6915527E-05
145.5256 4.6013662E-05
145.6526 4.4437355E-05
145.7796 4.2204843E-05
145.9066 3.9344486E-05
146.0337 3.5894347E-05
146.1607 3.1901633E-05
146.2878 2.7422042E-05
146.4148 2.2518965E-05
146.5418 1.7262621E-05
146.6689 1.1729065E-05
146.7959 5.9991066E-06
146.9229 1.5713530E-07
147.0499 -5.7101497E-06
147.1770 -1.1515075E-05
147.3040 -1.7170394E-05
147.4310 -2.2590737E-05
147.5581 -2.7694083E-05
147.6851 -3.2403201E-05
147.8121 -3.6647110E-05
