-4.500000 7.8527052E-19
-4.372967 7.7846867E-19
-4.245934 7.6568035E-19
-4.118902 7.4829529E-19
-3.991869 7.2810733E-19
-3.864837 7.0709508E-19
-3.737804 6.8717393E-19
-3.610771 6.6996775E-19
-3.483739 6.5661240E-19
-3.356706 6.4762431E-19
-3.229674 6.4285086E-19
-3.102641 6.4150845E-19
-2.975608 6.4229815E-19
-2.848576 6.4359232E-19
-2.721543 6.4366005E-19
-2.594510 6.4090481E-19
-2.467478 6.3408688E-19
-2.340445 6.2249508E-19
-2.213412 6.0604861E-19
-2.086380 5.8532065E-19
-1.959347 5.6146843E-19
-1.832314 5.3609291E-19
-1.705282 5.1103363E-19
-1.578249 4.8813479E-19
-1.451216 4.6900769E-19
-1.324184 4.5482154E-19
-1.197151 4.4615088E-19
-1.070119 4.4290073E-19
-0.9430859 4.4431464E-19
-0.8160533 4.4906710E-19
-0.6890206 4.5543453E-19
-0.5619880 4.6151348E-19
-0.4349554 4.6546146E-19
-0.3079227 4.6573267E-19
-0.1808901 4.6127106E-19
-5.3857423E-02 4.5164584E-19
7.3175222E-02 4.3710018E-19
0.2002079 4.1851609E-19
0.3272405 3.9729668E-19
0.4542732 3.7518100E-19
0.5813058 3.5401490E-19
0.7083384 3.3551288E-19
0.8353711 3.2103156E-19
0.9624037 3.1139592E-19
1.089436 3.0679152E-19
1.216469 3.0674238E-19
1.343502 3.1017383E-19
1.470534 3.1555353E-19
1.597567 3.2108983E-19
1.724600 3.2496747E-19
1.851632 3.2558367E-19
1.978665 3.2175594E-19
2.105698 3.1287931E-19
2.232730 2.9900242E-19
2.359763 2.8082534E-19
2.486795 2.5960978E-19
2.613828 2.3701881E-19
2.740861 2.1490310E-19
2.867893 1.9506382E-19
2.994926 1.7902143E-19
3.121959 1.6782269E-19
3.248991 1.6190709E-19
3.376024 1.6105054E-19
3.503057 1.6439894E-19
3.630089 1.7057549E-19
3.757122 1.7786355E-19
3.884155 1.8442767E-19
4.011187 1.8855145E-19
4.138220 1.8886069E-19
4.265253 1.8450055E-19
4.392285 1.7524716E-19
4.519318 1.6153589E-19
4.646350 1.4440705E-19
4.773383 1.2536863E-19
4.900416 1.0620204E-19
5.027448 8.8731677E-20
5.154481 7.4584704E-20
5.281514 6.4981021E-20
5.408546 6.0573616E-20
5.535579 6.1361634E-20
5.662611 6.6689951E-20
5.789644 7.5331778E-20
5.916677 8.5647024E-20
6.043710 9.5794197E-20
6.170742 1.0396657E-19
6.297775 1.0862662E-19
6.424808 1.0870441E-19
6.551840 1.0373289E-19
6.678873 9.3908781E-20
6.805905 8.0065164E-20
6.932938 6.3559841E-20
7.059971 4.6100585E-20
7.187003 2.9520732E-20
7.314036 1.5540326E-20
7.441069 5.5432620E-21
7.568101 3.9741315E-22
7.695134 3.4130174E-22
7.822166 4.9526151E-21
7.949199 1.3201882E-20
8.076232 2.3585885E-20
8.203264 3.4321960E-20
8.330297 4.3576059E-20
8.457330 4.9701315E-20
8.584362 5.1449636E-20
8.711395 4.8134557E-20
8.838428 3.9720114E-20
8.965461 2.6827076E-20
9.092493 1.0656192E-20
9.219525 -7.1661241E-21
9.346559 -2.4793538E-20
9.473591 -4.0394464E-20
9.600623 -5.2387804E-20
9.727656 -5.9640704E-20
9.854689 -6.1613420E-20
9.981722 -5.8424213E-20
10.10875 -5.0830562E-20
10.23579 -4.0129414E-20
10.36282 -2.7982570E-20
10.48985 -1.6201825E-20
10.61689 -6.5113957E-21
10.74392 -3.2122936E-22
10.87095 1.4544176E-21
10.99798 -1.4837811E-21
11.12502 -8.7825070E-21
11.25205 -1.9484331E-20
11.37908 -3.2154213E-20
11.50611 -4.5071181E-20
11.63315 -5.6455368E-20
11.76018 -6.4705531E-20
11.88721 -6.8612318E-20
12.01424 -6.7524039E-20
12.14128 -6.1436055E-20
12.26831 -5.1001582E-20
12.39534 -3.7453226E-20
12.52237 -2.2451633E-20
12.64941 -7.8762256E-21
12.77644 4.4097394E-21
12.90347 1.2796874E-20
13.03051 1.6131470E-20
13.15754 1.3861264E-20
13.28457 6.1049451E-21
13.41160 -6.3633853E-21
13.53864 -2.2215947E-20
13.66567 -3.9740338E-20
13.79270 -5.7056120E-20
13.91973 -7.2356390E-20
14.04677 -8.4132450E-20
14.17380 -9.1365188E-20
14.30083 -9.3646959E-20
14.42786 -9.1226441E-20
14.55490 -8.4968949E-20
14.68193 -7.6234574E-20
14.80896 -6.6693757E-20
14.93600 -5.8104940E-20
15.06303 -5.2074823E-20
15.19006 -4.9848744E-20
15.31709 -5.2139424E-20
15.44413 -5.9032016E-20
15.57116 -6.9968972E-20
15.69819 -8.3819930E-20
15.82522 -9.9026386E-20
15.95226 -1.1380333E-19
16.07929 -1.2637347E-19
16.20632 -1.3519810E-19
16.33335 -1.3918122E-19
16.46039 -1.3781581E-19
16.58742 -1.3125610E-19
16.71445 -1.2030519E-19
16.84148 -1.0631749E-19
16.96852 -9.1032273E-20
17.09555 -7.6356616E-20
17.22258 -6.4126893E-20
17.34962 -5.5875637E-20
17.47665 -5.2642256E-20
17.60368 -5.4839587E-20
17.73071 -6.2208551E-20
17.85775 -7.3851073E-20
17.98478 -8.8351775E-20
18.11181 -1.0395919E-19
18.23884 -1.1881824E-19
18.36588 -1.3120922E-19
18.49291 -1.3977339E-19
18.61994 -1.4369031E-19
18.74697 -1.4278466E-19
18.87401 -1.3754852E-19
19.00104 -1.2907600E-19
19.12807 -1.1892117E-19
19.25510 -1.0889128E-19
19.38214 -1.0080751E-19
19.50917 -9.6264546E-20
19.63620 -9.6417251E-20
19.76324 -1.0182577E-19
19.89027 -1.1237536E-19
20.01730 -1.2728887E-19
20.14433 -1.4522049E-19
20.27137 -1.6442765E-19
20.39840 -1.8299291E-19
20.52543 -1.9906965E-19
20.65246 -2.1111823E-19
20.77950 -2.1810217E-19
20.90653 -2.1961989E-19
21.03356 -2.1595531E-19
21.16059 -2.0803600E-19
21.28763 -1.9731288E-19
21.41466 -1.8556984E-19
21.54169 -1.7469249E-19
21.66872 -1.6642322E-19
21.79576 -1.6213809E-19
21.92279 -1.6266847E-19
22.04982 -1.6819764E-19
22.17686 -1.7823813E-19
22.30389 -1.9169863E-19
22.43092 -2.0702985E-19
22.55795 -2.2242512E-19
22.68499 -2.3606124E-19
22.81202 -2.4633364E-19
22.93905 -2.5207006E-19
23.06608 -2.5268339E-19
23.19312 -2.4824975E-19
23.32015 -2.3950213E-19
23.44718 -2.2773471E-19
23.57421 -2.1463776E-19
23.70125 -2.0207725E-19
23.82828 -1.9185498E-19
23.95531 -1.8547257E-19
24.08235 -1.8393673E-19
24.20938 -1.8762749E-19
24.33641 -1.9624901E-19
24.46344 -2.0886672E-19
24.59048 -2.2402900E-19
24.71751 -2.3995574E-19
24.84454 -2.5476935E-19
24.97157 -2.6673910E-19
25.09861 -2.7450433E-19
25.22564 -2.7725181E-19
25.35267 -2.7481858E-19
25.47970 -2.6771160E-19
25.60674 -2.5703885E-19
25.73377 -2.4436433E-19
25.86080 -2.3150203E-19
25.98783 -2.2028236E-19
26.11487 -2.1231238E-19
26.24190 -2.0877174E-19
26.36893 -2.1025997E-19
26.49597 -2.1672571E-19
26.62300 -2.2747208E-19
26.75003 -2.4125286E-19
26.87706 -2.5643134E-19
27.00410 -2.7119158E-19
27.13113 -2.8377108E-19
27.25816 -2.9267819E-19
27.38519 -2.9688151E-19
27.51223 -2.9593074E-19
27.63926 -2.9001019E-19
27.76629 -2.7990316E-19
27.89332 -2.6688892E-19
28.02036 -2.5257179E-19
28.14739 -2.3867374E-19
28.27442 -2.2681339E-19
28.40145 -2.1829981E-19
28.52849 -2.1396672E-19
28.65552 -2.1406929E-19
28.78255 -2.1825553E-19
28.90959 -2.2561349E-19
29.03662 -2.3479431E-19
29.16365 -2.4418956E-19
29.29068 -2.5214138E-19
29.41772 -2.5716192E-19
29.54475 -2.5813321E-19
29.67178 -2.5445764E-19
29.79881 -2.4614597E-19
29.92585 -2.3382372E-19
30.05288 -2.1865964E-19
30.17991 -2.0222340E-19
30.30694 -1.8628809E-19
30.43398 -1.7260479E-19
30.56101 -1.6267532E-19
30.68804 -1.5755873E-19
30.81507 -1.5773011E-19
30.94211 -1.6301303E-19
31.06914 -1.7259780E-19
31.19617 -1.8514100E-19
31.32321 -1.9893285E-19
31.45024 -2.1211285E-19
31.57727 -2.2290486E-19
31.70430 -2.2984092E-19
31.83134 -2.3194248E-19
31.95837 -2.2883768E-19
32.08540 -2.2079886E-19
32.21243 -2.0869829E-19
32.33947 -1.9388182E-19
32.46650 -1.7798492E-19
32.59353 -1.6271475E-19
32.72057 -1.4962356E-19
32.84760 -1.3990541E-19
32.97463 -1.3424326E-19
33.10166 -1.3272499E-19
33.22869 -1.3483725E-19
33.35573 -1.3954103E-19
33.48276 -1.4541066E-19
33.60979 -1.5082774E-19
33.73683 -1.5419373E-19
33.86386 -1.5414728E-19
33.99089 -1.4974320E-19
34.11792 -1.4058357E-19
34.24496 -1.2687955E-19
34.37199 -1.0943337E-19
34.49902 -8.9550224E-20
34.62605 -6.8882037E-20
34.75309 -4.9231076E-20
34.88012 -3.2332135E-20
35.00715 -1.9638917E-20
35.13419 -1.2148799E-20
35.26122 -1.0277858E-20
35.38825 -1.3811078E-20
35.51528 -2.1929739E-20
35.64231 -3.3311345E-20
35.76935 -4.6296439E-20
35.89638 -5.9095483E-20
36.02341 -7.0015805E-20
36.15045 -7.7673655E-20
36.27748 -8.1167938E-20
36.40451 -8.0193092E-20
36.53154 -7.5073361E-20
36.65858 -6.6714204E-20
36.78561 -5.6477585E-20
36.91264 -4.5996034E-20
37.03968 -3.6947088E-20
37.16671 -3.0820181E-20
37.29374 -2.8707335E-20
37.42077 -3.1142397E-20
37.54781 -3.8015990E-20
37.67484 -4.8572614E-20
37.80187 -6.1493234E-20
37.92890 -7.5056533E-20
38.05593 -8.7353381E-20
38.18297 -9.6528617E-20
38.31000 -1.0101932E-19
38.43703 -9.9758260E-20
38.56407 -9.2313285E-20
38.69110 -7.8947100E-20
38.81813 -6.0589461E-20
38.94516 -3.8723210E-20
39.07220 -1.5202256E-20
39.19923 7.9784195E-21
39.32626 2.8929540E-20
39.45330 4.6100717E-20
39.58033 5.8466696E-20
39.70736 6.5649874E-20
39.83439 6.7956442E-20
39.96143 6.6328188E-20
40.08846 6.2210884E-20
40.21549 5.7360872E-20
40.34253 5.3609724E-20
40.46955 5.2621709E-20
40.59659 5.5668254E-20
40.72362 6.3458395E-20
40.85065 7.6034435E-20
40.97769 9.2756654E-20
41.10472 1.1237287E-19
41.23175 1.3317254E-19
41.35878 1.5319854E-19
41.48582 1.7049456E-19
41.61285 1.8335827E-19
41.73988 1.9056179E-19
41.86692 1.9151462E-19
41.99395 1.8635180E-19
42.12098 1.7592024E-19
42.24801 1.6168067E-19
42.37505 1.4552193E-19
42.50208 1.2952106E-19
42.62911 1.1567689E-19
42.75615 1.0564717E-19
42.88317 1.0053080E-19
43.01021 1.0072421E-19
43.13724 1.0586678E-19
43.26427 1.1488768E-19
43.39131 1.2615034E-19
43.51834 1.3767020E-19
43.64537 1.4738276E-19
43.77240 1.5342667E-19
43.89944 1.5439648E-19
44.02647 1.4953891E-19
44.15350 1.3886358E-19
44.28054 1.2314813E-19
44.40757 1.0384343E-19
44.53460 8.2888984E-20
44.66163 6.2461578E-20
44.78867 4.4692197E-20
44.91570 3.1390386E-20
45.04273 2.3809856E-20
45.16977 2.2490212E-20
45.29680 2.7191113E-20
45.42383 3.6929527E-20
45.55086 5.0115358E-20
45.67789 6.4761263E-20
45.80493 7.8748867E-20
45.93196 9.0102432E-20
46.05899 9.7247191E-20
46.18602 9.9211778E-20
46.31306 9.5750667E-20
46.44009 8.7370215E-20
46.56712 7.5261119E-20
46.69416 6.1139911E-20
46.82119 4.7021709E-20
46.94822 3.4957367E-20
47.07525 2.6766149E-20
47.20229 2.3794416E-20
47.32932 2.6737150E-20
47.45635 3.5542765E-20
47.58339 4.9410858E-20
47.71042 6.6889101E-20
47.83745 8.6050959E-20
47.96448 1.0474144E-19
48.09151 1.2084768E-19
48.21855 1.3257206E-19
48.34558 1.3866300E-19
48.47261 1.3858204E-19
48.59965 1.3257151E-19
48.72668 1.2163023E-19
48.85371 1.0738299E-19
48.98074 9.1871946E-20
49.10778 7.7288816E-20
49.23481 6.5689385E-20
49.36184 5.8722624E-20
49.48887 5.7416939E-20
49.61591 6.2046863E-20
49.74294 7.2100442E-20
49.86997 8.6356415E-20
49.99701 1.0305410E-19
50.12404 1.2013708E-19
50.25107 1.3553407E-19
50.37810 1.4744408E-19
50.50513 1.5458137E-19
50.63217 1.5634908E-19
50.75920 1.5291734E-19
50.88623 1.4519965E-19
51.01327 1.3472594E-19
51.14030 1.2343548E-19
51.26733 1.1341252E-19
51.39436 1.0660785E-19
51.52140 1.0457694E-19
51.64843 1.0827235E-19
51.77546 1.1791863E-19
51.90249 1.3297958E-19
52.02953 1.5222888E-19
52.15656 1.7390269E-19
52.28359 1.9592537E-19
52.41063 2.1616936E-19
52.53766 2.3271863E-19
52.66469 2.4410415E-19
52.79172 2.4947855E-19
52.91875 2.4870827E-19
53.04579 2.4238031E-19
53.17282 2.3171389E-19
53.29985 2.1839556E-19
53.42689 2.0435646E-19
53.55392 1.9152380E-19
53.68095 1.8157236E-19
53.80798 1.7571405E-19
53.93502 1.7454555E-19
54.06205 1.7798008E-19
54.18908 1.8526501E-19
54.31612 1.9508800E-19
54.44315 2.0575746E-19
54.57018 2.1542919E-19
54.69721 2.2235827E-19
54.82425 2.2513713E-19
54.95128 2.2289152E-19
55.07831 2.1540402E-19
55.20534 2.0315851E-19
55.33237 1.8728433E-19
55.45941 1.6942105E-19
55.58644 1.5151012E-19
55.71347 1.3554792E-19
55.84051 1.2333019E-19
55.96754 1.1621770E-19
56.09457 1.1496483E-19
56.22160 1.1962104E-19
56.34864 1.2952775E-19
56.47567 1.4340686E-19
56.60270 1.5952987E-19
56.72974 1.7594340E-19
56.85677 1.9071909E-19
56.98380 2.0219995E-19
57.11083 2.0920388E-19
57.23787 2.1116112E-19
57.36490 2.0816803E-19
57.49193 2.0095280E-19
57.61897 1.9075585E-19
57.74599 1.7914680E-19
57.87303 1.6780359E-19
58.00006 1.5827615E-19
58.12709 1.5177959E-19
58.25413 1.4903258E-19
58.38116 1.5016623E-19
58.50819 1.5471127E-19
58.63522 1.6167043E-19
58.76226 1.6965835E-19
58.88929 1.7709508E-19
59.01632 1.8242591E-19
59.14336 1.8434455E-19
59.27039 1.8198441E-19
59.39742 1.7505849E-19
59.52445 1.6393144E-19
59.65149 1.4961147E-19
59.77852 1.3365799E-19
59.90555 1.1802303E-19
60.03259 1.0483302E-19
60.15961 9.6143972E-20
60.28665 9.3691646E-20
60.41368 9.8666019E-20
60.54071 1.1154400E-19
60.66775 1.3198726E-19
60.79478 1.5883128E-19
60.92181 1.9016239E-19
61.04884 2.2347458E-19
61.17588 2.5588998E-19
61.30291 2.8442065E-19
61.42994 3.0623798E-19
61.55698 3.1892067E-19
61.68401 3.2065967E-19
61.81104 3.1038704E-19
61.93807 2.8783298E-19
62.06511 2.5349893E-19
62.19214 2.0856027E-19
62.31917 1.5472563E-19
62.44621 9.4064633E-20
62.57324 2.8840476E-20
62.70027 -3.8625050E-20
62.82730 -1.0604909E-19
62.95433 -1.7122393E-19
63.08137 -2.3200234E-19
63.20840 -2.8623631E-19
63.33543 -3.3170105E-19
63.46246 -3.6601672E-19
63.58950 -3.8660951E-19
63.71653 -3.9072189E-19
63.84356 -3.7550572E-19
63.97060 -3.3819331E-19
64.09763 -2.7635169E-19
64.22466 -1.8819724E-19
64.35169 -7.2950874E-20
64.47873 6.8807688E-20
64.60576 2.3482249E-19
64.73279 4.2092104E-19
64.85983 6.2089138E-19
64.98685 8.2650160E-19
65.11389 1.0276832E-18
65.24092 1.2128813E-18
65.36796 1.3695695E-18
65.49499 1.4849001E-18
65.62202 1.5464623E-18
65.74905 1.5431015E-18
65.87608 1.4657481E-18
66.00312 1.3082031E-18
66.13015 1.0678268E-18
66.25719 7.4608057E-19
66.38422 3.4888436E-19
66.51125 -1.1324702E-19
66.63828 -6.2529746E-19
66.76531 -1.1680875E-18
66.89235 -1.7188409E-18
67.01938 -2.2519645E-18
67.14641 -2.7400130E-18
67.27345 -3.1548013E-18
67.40047 -3.4686318E-18
67.52751 -3.6555841E-18
67.65454 -3.6928382E-18
67.78158 -3.5619787E-18
67.90861 -3.2502383E-18
68.03564 -2.7516432E-18
68.16267 -2.0680001E-18
68.28970 -1.2096828E-18
68.41674 -1.9615506E-19
68.54377 9.4382352E-19
68.67081 2.1723705E-18
68.79784 3.4430845E-18
68.92487 4.7021285E-18
69.05190 5.8898126E-18
69.17893 6.9426857E-18
69.30597 7.7961020E-18
69.43300 8.3872086E-18
69.56004 8.6582459E-18
69.68707 8.5600265E-18
69.81409 8.0554347E-18
69.94113 7.1227298E-18
70.06816 5.7584745E-18
70.19520 3.9798451E-18
70.32223 1.8261549E-18
70.44926 -6.4061003E-19
70.57629 -3.3363625E-18
70.70332 -6.1567024E-18
70.83036 -8.9799157E-18
70.95739 -1.1671198E-17
71.08443 -1.4087958E-17
71.21146 -1.6086062E-17
71.33849 -1.7526804E-17
71.46552 -1.8284273E-17
71.59255 -1.8252832E-17
71.71959 -1.7354342E-17
71.84662 -1.5544732E-17
71.97366 -1.2819563E-17
72.10069 -9.2181843E-18
72.22771 -4.8261828E-18
72.35475 2.2416504E-19
72.48178 5.7556646E-18
72.60882 1.1550305E-17
72.73585 1.7355735E-17
72.86288 2.2894025E-17
72.98991 2.7872522E-17
73.11694 3.1996484E-17
73.24398 3.4983083E-17
73.37101 3.6576209E-17
73.49805 3.6561496E-17
73.62508 3.4780854E-17
73.75211 3.1145762E-17
73.87914 2.5648528E-17
74.00617 1.8370864E-17
74.13321 9.4889610E-18
74.26024 -7.2546506E-19
74.38728 -1.1908644E-17
74.51431 -2.3613020E-17
74.64133 -3.5320483E-17
74.76837 -4.6460330E-17
74.89540 -5.6431638E-17
75.02244 -6.4629401E-17
75.14947 -7.0473499E-17
75.27650 -7.3439351E-17
75.40353 -7.3089030E-17
75.53056 -6.9101186E-17
75.65760 -6.1298345E-17
75.78463 -4.9669943E-17
75.91167 -3.4389465E-17
76.03870 -1.5824501E-17
76.16573 5.4617152E-18
76.29276 2.8717944E-17
76.41979 5.3022380E-17
76.54683 7.7309928E-17
76.67386 1.0040899E-16
76.80090 1.2108675E-16
76.92793 1.3810180E-16
77.05495 1.5026211E-16
77.18199 1.5648620E-16
77.30902 1.5586481E-16
77.43606 1.4772036E-16
77.56309 1.3166112E-16
77.69012 1.0762707E-16
77.81715 7.5924645E-17
77.94418 3.7247506E-17
78.07122 -7.3184581E-18
78.19825 -5.6308024E-17
78.32529 -1.0790809E-16
78.45232 -1.6000812E-16
78.57935 -2.1026885E-16
78.70638 -2.5620764E-16
78.83341 -2.9529824E-16
78.96045 -3.2508148E-16
79.08748 -3.4328302E-16
79.21452 -3.4793305E-16
79.34155 -3.3748313E-16
79.46858 -3.1091416E-16
79.59561 -2.6783023E-16
79.72264 -2.0853229E-16
79.84968 -1.3406754E-16
79.97671 -4.6249078E-17
80.10374 5.2356701E-17
80.23077 1.5847736E-16
80.35780 2.6821727E-16
80.48484 3.7717501E-16
80.61187 4.8059299E-16
80.73891 5.7353543E-16
80.86594 6.5108871E-16
80.99297 7.0857673E-16
81.12000 7.4178402E-16
81.24703 7.4717570E-16
81.37407 7.2210549E-16
81.50110 6.6500154E-16
81.62814 5.7551892E-16
81.75517 4.5465155E-16
81.88220 3.0479435E-16
82.00923 1.2974845E-16
82.13626 -6.5332578E-17
82.26330 -2.7406037E-16
82.39033 -4.8899011E-16
82.51736 -7.0185828E-16
82.64439 -9.0387193E-16
82.77143 -1.0860420E-15
82.89846 -1.2395487E-15
83.02549 -1.3561236E-15
83.15253 -1.4284370E-15
83.27956 -1.4504696E-15
83.40659 -1.4178539E-15
83.53362 -1.3281678E-15
83.66065 -1.1811647E-15
83.78769 -9.7892455E-16
83.91472 -7.2591666E-16
84.04176 -4.2896239E-16
84.16879 -9.7095691E-17
84.29582 2.5868061E-16
84.42285 6.2573823E-16
84.54988 9.9025796E-16
84.67692 1.3377422E-15
84.80395 1.6535885E-15
84.93098 1.9237010E-15
85.05801 2.1351174E-15
85.18505 2.2766245E-15
85.31208 2.3393292E-15
85.43911 2.3171690E-15
85.56615 2.2073189E-15
85.69318 2.0104880E-15
85.82021 1.7310697E-15
85.94724 1.3771405E-15
86.07427 9.6029449E-16
86.20131 4.9530940E-16
86.32834 -3.4803247E-19
86.45538 -5.0716855E-16
86.58241 -1.0043746E-15
86.70944 -1.4708003E-15
86.83647 -1.8858375E-15
86.96350 -2.2304127E-15
87.09054 -2.4879507E-15
87.21757 -2.6452814E-15
87.34460 -2.6934369E-15
87.47163 -2.6283047E-15
87.59867 -2.4510895E-15
87.72570 -2.1685471E-15
87.85273 -1.7929735E-15
87.97977 -1.3419202E-15
88.10680 -8.3763697E-16
88.23383 -3.0624635E-16
88.36086 2.2333194E-16
88.48790 7.2067273E-16
88.61493 1.1553107E-15
88.74196 1.4983216E-15
88.86900 1.7239528E-15
88.99603 1.8112315E-15
89.12306 1.7454664E-15
89.25009 1.5195729E-15
89.37712 1.1351333E-15
89.50416 6.0311890E-16
89.63119 -5.5781904E-17
89.75822 -8.1129027E-16
89.88525 -1.6241463E-15
90.01229 -2.4472239E-15
90.13932 -3.2271369E-15
90.26635 -3.9063190E-15
90.39339 -4.4255121E-15
90.52042 -4.7266022E-15
90.64745 -4.7556847E-15
90.77448 -4.4662620E-15
90.90152 -3.8224251E-15
91.02855 -2.8018736E-15
91.15558 -1.3986285E-15
91.28262 3.7473031E-16
91.40965 2.4854329E-15
91.53668 4.8796374E-15
91.66371 7.4824172E-15
91.79075 1.0198703E-14
91.91778 1.2915224E-14
92.04481 1.5503474E-14
92.17184 1.7823682E-14
92.29887 1.9729711E-14
92.42591 2.1074757E-14
92.55294 2.1717699E-14
92.67997 2.1529900E-14
92.80701 2.0402196E-14
92.93404 1.8251810E-14
93.06107 1.5028897E-14
93.18810 1.0722394E-14
93.31514 5.3648890E-15
93.44217 -9.6382121E-16
93.56920 -8.1347316E-15
93.69624 -1.5969429E-14
93.82327 -2.4241888E-14
93.95030 -3.2682377E-14
94.07733 -4.0983493E-14
94.20437 -4.8808329E-14
94.33140 -5.5800637E-14
94.45843 -6.1596744E-14
94.58546 -6.5838943E-14
94.71249 -6.8189961E-14
94.83953 -6.8348030E-14
94.96656 -6.6062044E-14
95.09360 -6.1146150E-14
95.22063 -5.3493312E-14
95.34766 -4.3087048E-14
95.47469 -3.0010821E-14
95.60172 -1.4454519E-14
95.72876 3.2824759E-15
95.85579 2.2792103E-14
95.98282 4.3562569E-14
96.10986 6.4987586E-14
96.23689 8.6379946E-14
96.36392 1.0698926E-13
96.49095 1.2602361E-13
96.61799 1.4267446E-13
96.74502 1.5614441E-13
96.87205 1.6567668E-13
96.99908 1.7058570E-13
97.12611 1.7028754E-13
97.25315 1.6432905E-13
97.38018 1.5241466E-13
97.50722 1.3442960E-13
97.63425 1.1045846E-13
97.76128 8.0797863E-14
97.88831 4.5962827E-14
98.01534 6.6855256E-15
98.14238 -3.6093609E-14
98.26941 -8.1242833E-14
98.39645 -1.2746408E-13
98.52348 -1.7332552E-13
98.65051 -2.1730119E-13
98.77754 -2.5781669E-13
98.90457 -2.9329959E-13
99.03161 -3.2223321E-13
99.15864 -3.4321225E-13
99.28567 -3.5499766E-13
99.41270 -3.5656984E-13
99.53973 -3.4717723E-13
99.66677 -3.2637868E-13
99.79380 -2.9407783E-13
99.92084 -2.5054755E-13
100.0479 -1.9644310E-13
100.1749 -1.3280284E-13
100.3019 -6.1035941E-14
100.4290 1.7103340E-14
100.5560 9.9554859E-14
100.6830 1.8400404E-13
100.8101 2.6794512E-13
100.9371 3.4875382E-13
101.0641 4.2376812E-13
101.1912 4.9037402E-13
101.3182 5.4609393E-13
101.4452 5.8867478E-13
101.5723 6.1617226E-13
101.6993 6.2702843E-13
101.8263 6.2013957E-13
101.9534 5.9491187E-13
102.0804 5.5130114E-13
102.2074 4.8983658E-13
102.3345 4.1162511E-13
102.4615 3.1833672E-13
102.5885 2.1216983E-13
102.7156 9.5797820E-14
102.8426 -2.7702748E-14
102.9696 -1.5493963E-13
103.0966 -2.8230600E-13
103.2237 -4.0609175E-13
103.3507 -5.2260128E-13
103.4777 -6.2827402E-13
103.6048 -7.1980323E-13
103.7318 -7.9424856E-13
103.8588 -8.4913858E-13
103.9859 -8.8255905E-13
104.1129 -8.9322348E-13
104.2399 -8.8052243E-13
104.3670 -8.4455067E-13
104.4940 -7.8610930E-13
104.6210 -7.0668319E-13
104.7481 -6.0839365E-13
104.8751 -4.9392836E-13
105.0021 -3.6645022E-13
105.1292 -2.2948863E-13
105.2562 -8.6817638E-14
105.3832 5.7675469E-14
105.5103 2.0012502E-13
105.6373 3.3682047E-13
105.7643 4.6433305E-13
105.8914 5.7963036E-13
106.0184 6.8017418E-13
106.1454 7.6399710E-13
106.2725 8.2975488E-13
106.3995 8.7675174E-13
106.5265 9.0493796E-13
106.6536 9.1487885E-13
106.7806 9.0769715E-13
106.9076 8.8499124E-13
107.0347 8.4873157E-13
107.1617 8.0114176E-13
107.2887 7.4456836E-13
107.4158 6.8134674E-13
107.5428 6.1366840E-13
107.6698 5.4345786E-13
107.7969 4.7226437E-13
107.9239 4.0117511E-13
108.0509 3.3075536E-13
108.1780 2.6101885E-13
108.3050 1.9143256E-13
108.4320 1.2095557E-13
108.5591 4.8113362E-14
108.6861 -2.8895601E-14
108.8131 -1.1206493E-13
108.9402 -2.0342102E-13
109.0672 -3.0484792E-13
109.1942 -4.1790340E-13
109.3213 -5.4363539E-13
109.4483 -6.8240867E-13
109.5753 -8.3375104E-13
109.7023 -9.9622871E-13
109.8294 -1.1673596E-12
109.9564 -1.3435715E-12
110.0834 -1.5202116E-12
110.2105 -1.6916109E-12
110.3375 -1.8512054E-12
110.4645 -1.9917126E-12
110.5916 -2.1053608E-12
110.7186 -2.1841645E-12
110.8456 -2.2202385E-12
110.9727 -2.2061365E-12
111.0997 -2.1352080E-12
111.2267 -2.0019529E-12
111.3538 -1.8023613E-12
111.4808 -1.5342252E-12
111.6078 -1.1974026E-12
111.7349 -7.9402245E-13
111.8619 -3.2861897E-13
111.9889 1.9181751E-13
112.1160 7.5787873E-13
112.2430 1.3578699E-12
112.3700 1.9780375E-12
112.4971 2.6028856E-12
112.6241 3.2155758E-12
112.7511 3.7984008E-12
112.8782 4.3333167E-12
113.0052 4.8025113E-12
113.1322 5.1889981E-12
113.2593 5.4772042E-12
113.3863 5.6535367E-12
113.5133 5.7068998E-12
113.6404 5.6291456E-12
113.7674 5.4154381E-12
113.8944 5.0645057E-12
114.0215 4.5787874E-12
114.1485 3.9644451E-12
114.2755 3.2312477E-12
114.4026 2.3923307E-12
114.5296 1.4638353E-12
114.6566 4.6443996E-13
114.7837 -5.8520083E-13
114.9107 -1.6630791E-12
115.0377 -2.7465014E-12
115.1647 -3.8127760E-12
115.2918 -4.8398789E-12
115.4188 -5.8070827E-12
115.5459 -6.6955083E-12
115.6729 -7.4885913E-12
115.7999 -8.1724193E-12
115.9269 -8.7359555E-12
116.0540 -9.1711031E-12
116.1810 -9.4726458E-12
116.3080 -9.6380334E-12
116.4351 -9.6670580E-12
116.5621 -9.5614098E-12
116.6891 -9.3241673E-12
116.8162 -8.9592257E-12
116.9432 -8.4707302E-12
117.0702 -7.8625171E-12
117.1973 -7.1376329E-12
117.3243 -6.2979496E-12
117.4513 -5.3439323E-12
117.5784 -4.2745555E-12
117.7054 -3.0874274E-12
117.8324 -1.7791066E-12
117.9595 -3.4563376E-13
118.0865 1.2167344E-12
118.2135 2.9106112E-12
118.3406 4.7364231E-12
118.4676 6.6912413E-12
118.5946 8.7675483E-12
118.7217 1.0952036E-11
118.8487 1.3224459E-11
118.9757 1.5556646E-11
119.1028 1.7911733E-11
119.2298 2.0243683E-11
119.3568 2.2497173E-11
119.4839 2.4607883E-11
119.6109 2.6503260E-11
119.7379 2.8103731E-11
119.8650 2.9324463E-11
119.9920 3.0077558E-11
120.1190 3.0274720E-11
120.2461 2.9830340E-11
120.3731 2.8664859E-11
120.5001 2.6708403E-11
120.6272 2.3904505E-11
120.7542 2.0213813E-11
120.8812 1.5617655E-11
121.0083 1.0121278E-11
121.1353 3.7566456E-12
121.2623 -3.4153539E-12
121.3894 -1.1303456E-11
121.5164 -1.9785415E-11
121.6434 -2.8708352E-11
121.7704 -3.7890129E-11
121.8975 -4.7121800E-11
122.0245 -5.6171151E-11
122.1516 -6.4787273E-11
122.2786 -7.2706167E-11
122.4056 -7.9657149E-11
122.5326 -8.5370114E-11
122.6597 -8.9583285E-11
122.7867 -9.2051360E-11
122.9137 -9.2553833E-11
123.0408 -9.0903167E-11
123.1678 -8.6952612E-11
123.2948 -8.0603434E-11
123.4219 -7.1811251E-11
123.5489 -6.0591233E-11
123.6759 -4.7022039E-11
123.8030 -3.1248136E-11
123.9300 -1.3480535E-11
124.0570 6.0042899E-12
124.1841 2.6867343E-11
124.3111 4.8711851E-11
124.4381 7.1089828E-11
124.5652 9.3510359E-11
124.6922 1.1544941E-10
124.8192 1.3636101E-10
124.9463 1.5568946E-10
125.0733 1.7288257E-10
125.2003 1.8740513E-10
125.3274 1.9875275E-10
125.4544 2.0646555E-10
125.5814 2.1014120E-10
125.7085 2.0944718E-10
125.8355 2.0413193E-10
125.9625 1.9403437E-10
126.0896 1.7909174E-10
126.2166 1.5934554E-10
126.3436 1.3494517E-10
126.4707 1.0614945E-10
126.5977 7.3325554E-11
126.7247 3.6945790E-11
126.8518 -2.4181698E-12
126.9788 -4.4103228E-11
127.1058 -8.7365018E-11
127.2329 -1.3139000E-10
127.3599 -1.7530931E-10
127.4869 -2.1821424E-10
127.6140 -2.5917279E-10
127.7410 -2.9724731E-10
127.8680 -3.3151273E-10
127.9950 -3.6107506E-10
128.1221 -3.8509002E-10
128.2491 -4.0278131E-10
128.3761 -4.1345810E-10
128.5032 -4.1653189E-10
128.6302 -4.1153181E-10
128.7572 -3.9811879E-10
128.8843 -3.7609763E-10
129.0113 -3.4542733E-10
129.1383 -3.0622910E-10
129.2654 -2.5879193E-10
129.3924 -2.0357563E-10
129.5194 -1.4121103E-10
129.6465 -7.2497425E-11
129.7735 1.6031718E-12
129.9005 7.9974791E-11
130.0276 1.6135925E-10
130.1546 2.4437122E-10
130.2816 3.2751632E-10
130.4087 4.0921219E-10
130.5357 4.8781246E-10
130.6627 5.6163330E-10
130.7898 6.2898248E-10
130.9168 6.8819056E-10
131.0438 7.3764339E-10
131.1709 7.7581608E-10
131.2979 8.0130758E-10
131.4249 8.1287510E-10
131.5520 8.0946799E-10
131.6790 7.9026036E-10
131.8060 7.5468126E-10
131.9331 7.0244194E-10
132.0601 6.3355982E-10
132.1871 5.4837762E-10
132.3142 4.4757711E-10
132.4412 3.3218711E-10
132.5682 2.0358527E-10
132.6953 6.3492045E-11
132.8223 -8.6042028E-11
132.9493 -2.4265709E-10
133.0764 -4.0371245E-10
133.2034 -5.6632282E-10
133.3304 -7.2740158E-10
133.4575 -8.8371149E-10
133.5845 -1.0319208E-09
133.7115 -1.1686658E-09
133.8385 -1.2906168E-09
133.9656 -1.3945476E-09
134.0926 -1.4774064E-09
134.2197 -1.5363883E-09
134.3467 -1.5690045E-09
134.4737 -1.5731503E-09
134.6008 -1.5471686E-09
134.7278 -1.4899062E-09
134.8548 -1.4007639E-09
134.9818 -1.2797372E-09
135.1089 -1.1274461E-09
135.2359 -9.4515507E-10
135.3629 -7.3477902E-10
135.4900 -4.9887844E-10
135.6170 -2.4063940E-10
135.7440 3.6158822E-11
135.8711 3.2718911E-10
135.9981 6.2763539E-10
136.1251 9.3226293E-10
136.2522 1.2354997E-09
136.3792 1.5315277E-09
136.5062 1.8143829E-09
136.6333 2.0780608E-09
136.7603 2.3166282E-09
136.8873 2.5243365E-09
137.0144 2.6957363E-09
137.1414 2.8257916E-09
137.2684 2.9099889E-09
137.3955 2.9444422E-09
137.5225 2.9259906E-09
137.6495 2.8522840E-09
137.7766 2.7218621E-09
137.9036 2.5342168E-09
138.0306 2.2898423E-09
138.1577 1.9902684E-09
138.2847 1.6380799E-09
138.4117 1.2369158E-09
138.5388 7.9145340E-10
138.6658 3.0737318E-10
138.7928 -2.0869440E-10
138.9199 -7.4923856E-10
139.0469 -1.3059565E-09
139.1739 -1.8698567E-09
139.3009 -2.4313791E-09
139.4280 -2.9805283E-09
139.5550 -3.5070189E-09
139.6821 -4.0004351E-09
139.8091 -4.4503952E-09
139.9361 -4.8467252E-09
140.0632 -5.1796385E-09
140.1902 -5.4399139E-09
140.3172 -5.6190785E-09
140.4442 -5.7095808E-09
140.5713 -5.7049649E-09
140.6983 -5.6000289E-09
140.8253 -5.3909766E-09
140.9524 -5.0755498E-09
141.0794 -4.6531476E-09
141.2065 -4.1249182E-09
141.3335 -3.4938334E-09
141.4605 -2.7647324E-09
141.5875 -1.9443407E-09
141.7146 -1.0412567E-09
141.8416 -6.5908085E-11
141.9686 9.6952646E-10
142.0957 2.0512256E-09
142.2227 3.1638689E-09
142.3497 4.2908126E-09
142.4768 5.4142957E-09
142.6038 6.5156742E-09
142.7308 7.5756859E-09
142.8579 8.5747347E-09
142.9849 9.4931938E-09
143.1119 1.0311728E-08
143.2390 1.1011626E-08
143.3660 1.1575132E-08
143.4930 1.1985781E-08
143.6201 1.2228732E-08
143.7471 1.2291077E-08
143.8741 1.2162148E-08
144.0012 1.1833776E-08
144.1282 1.1300547E-08
144.2552 1.0560001E-08
144.3823 9.6128003E-09
144.5093 8.4628509E-09
144.6363 7.1173734E-09
144.7634 5.5869265E-09
144.8904 3.8853725E-09
145.0174 2.0297877E-09
145.1445 4.0322908E-11
145.2715 -2.0599982E-09
145.3985 -4.2455253E-09
145.5256 -6.4882868E-09
145.6526 -8.7583318E-09
145.7796 -1.1024123E-08
145.9066 -1.3252964E-08
146.0337 -1.5411453E-08
146.1607 -1.7465972E-08
146.2878 -1.9383176E-08
146.4148 -2.1130511E-08
146.5418 -2.2676719E-08
146.6689 -2.3992351E-08
146.7959 -2.5050248E-08
146.9229 -2.5826017E-08
147.0499 -2.6298467E-08
147.1770 -2.6450017E-08
147.3040 -2.6267040E-08
147.4310 -2.5740189E-08
147.5581 -2.4864626E-08
147.6851 -2.3640233E-08
147.8121 -2.2071719E-08
