-4.500000 1.0444062E-17
-4.372967 1.0448521E-17
-4.245934 1.0456720E-17
-4.118902 1.0467457E-17
-3.991869 1.0479296E-17
-3.864837 1.0491220E-17
-3.737804 1.0503002E-17
-3.610771 1.0511890E-17
-3.483739 1.0504397E-17
-3.356706 1.0455278E-17
-3.229674 1.0361653E-17
-3.102641 1.0332169E-17
-2.975608 1.0700004E-17
-2.848576 1.2054952E-17
-2.721543 1.5052925E-17
-2.594510 1.9912843E-17
-2.467478 2.5650374E-17
-2.340445 2.9282194E-17
-2.213412 2.5434011E-17
-2.086380 6.9890674E-18
-1.959347 -3.2480531E-17
-1.832314 -9.4061308E-17
-1.705282 -1.6732049E-16
-1.578249 -2.2533093E-16
-1.451216 -2.2570170E-16
-1.324184 -1.2268182E-16
-1.197151 1.0806235E-16
-1.070119 4.3789065E-16
-0.9430859 7.6157071E-16
-0.8160533 9.0112871E-16
-0.6890206 6.5213601E-16
-0.5619880 -1.2827564E-16
-0.4349554 -1.4147442E-15
-0.3079227 -2.9308107E-15
-0.1808901 -4.1380664E-15
-5.3857423E-02 -4.3315960E-15
7.3175222E-02 -2.8444696E-15
0.2002079 6.7551391E-16
0.3272405 5.9882866E-15
0.4542732 1.2073430E-14
0.5813058 1.7118582E-14
0.7083384 1.8744839E-14
0.8353711 1.4481841E-14
0.9624037 2.4406005E-15
1.089436 -1.7940043E-14
1.216469 -4.5261426E-14
1.343502 -7.5868416E-14
1.470534 -1.0408615E-13
1.597567 -1.2309582E-13
1.724600 -1.2639839E-13
1.851632 -1.0962854E-13
1.978665 -7.2317322E-14
2.105698 -1.9122336E-14
2.232730 3.9911593E-14
2.359763 9.0324293E-14
2.486795 1.1544314E-13
2.613828 9.9532497E-14
2.740861 3.1381764E-14
2.867893 -9.2280289E-14
2.994926 -2.6413290E-13
3.121959 -4.6483921E-13
3.248991 -6.6316305E-13
3.376024 -8.1780725E-13
3.503057 -8.8106502E-13
3.630089 -8.0429722E-13
3.757122 -5.4511923E-13
3.884155 -7.5924882E-14
4.011187 6.0701693E-13
4.138220 1.4751315E-12
4.265253 2.4614241E-12
4.392285 3.4585134E-12
4.519318 4.3224326E-12
4.646350 4.8831317E-12
4.773383 4.9615472E-12
4.900416 4.3918003E-12
5.027448 3.0458097E-12
5.154481 8.5667638E-13
5.281514 -2.1632162E-12
5.408546 -5.9132048E-12
5.535579 -1.0207324E-11
5.662611 -1.4790663E-11
5.789644 -1.9368524E-11
5.916677 -2.3645660E-11
6.043710 -2.7370732E-11
6.170742 -3.0379321E-11
6.297775 -3.2627775E-11
6.424808 -3.4210395E-11
6.551840 -3.5354168E-11
6.678873 -3.6388725E-11
6.805905 -3.7694077E-11
6.932938 -3.9634421E-11
7.059971 -4.2491441E-11
7.187003 -4.6413949E-11
7.314036 -5.1400981E-11
7.441069 -5.7332188E-11
7.568101 -6.4052624E-11
7.695134 -7.1510214E-11
7.822166 -7.9936134E-11
7.949199 -9.0052472E-11
8.076232 -1.0329158E-10
8.203264 -1.2201631E-10
8.330297 -1.4974090E-10
8.457330 -1.9136343E-10
8.584362 -2.5342892E-10
8.711395 -3.4444148E-10
8.838428 -4.7522786E-10
8.965461 -6.5932487E-10
9.092493 -9.1331326E-10
9.219525 -1.2569636E-09
9.346559 -1.7130020E-09
9.473591 -2.3062514E-09
9.600623 -3.0618905E-09
9.727656 -4.0025818E-09
9.854689 -5.1442961E-09
9.981722 -6.4907684E-09
10.10875 -8.0267002E-09
10.23579 -9.7099981E-09
10.36282 -1.1463579E-08
10.48985 -1.3167442E-08
10.61689 -1.4651913E-08
10.74392 -1.5693038E-08
10.87095 -1.6011171E-08
10.99798 -1.5273738E-08
11.12502 -1.3102995E-08
11.25205 -9.0894137E-09
11.37908 -2.8109399E-09
11.50611 6.1419514E-09
11.63315 1.8136067E-08
11.76018 3.3461315E-08
11.88721 5.2294354E-08
12.01424 7.4662573E-08
12.14128 1.0041164E-07
12.26831 1.2918063E-07
12.39534 1.6038933E-07
12.52237 1.9324293E-07
12.64941 2.2675960E-07
12.77644 2.5982663E-07
12.90347 2.9129023E-07
13.03051 3.2008333E-07
13.15754 3.4539477E-07
13.28457 3.6688081E-07
13.41160 3.8491868E-07
13.53864 4.0089822E-07
13.66567 4.1754592E-07
13.79270 4.3927227E-07
13.91973 4.7253073E-07
14.04677 5.2617463E-07
14.17380 6.1179486E-07
14.30083 7.4402288E-07
14.42786 9.4077774E-07
14.55490 1.2234407E-06
14.68193 1.6169404E-06
14.80896 2.1497285E-06
14.93600 2.8536413E-06
15.06303 3.7636255E-06
15.19006 4.9173341E-06
15.31709 6.3545854E-06
15.44413 8.1166936E-06
15.57116 1.0245673E-05
15.69819 1.2783346E-05
15.82522 1.5770365E-05
15.95226 1.9245166E-05
16.07929 2.3242892E-05
16.20632 2.7794320E-05
16.33335 3.2924800E-05
16.46039 3.8653241E-05
16.58742 4.4991182E-05
16.71445 5.1941966E-05
16.84148 5.9500009E-05
16.96852 6.7650246E-05
17.09555 7.6367658E-05
17.22258 8.5617045E-05
17.34962 9.5352858E-05
17.47665 1.0551926E-04
17.60368 1.1605035E-04
17.73071 1.2687057E-04
17.85775 1.3789517E-04
17.98478 1.4903102E-04
18.11181 1.6017746E-04
18.23884 1.7122732E-04
18.36588 1.8206822E-04
18.49291 1.9258389E-04
18.61994 2.0265578E-04
18.74697 2.1216480E-04
18.87401 2.2099318E-04
19.00104 2.2902644E-04
19.12807 2.3615560E-04
19.25510 2.4227939E-04
19.38214 2.4730654E-04
19.50917 2.5115797E-04
19.63620 2.5376907E-04
19.76324 2.5509176E-04
19.89027 2.5509633E-04
20.01730 2.5377303E-04
20.14433 2.5113332E-04
20.27137 2.4721050E-04
20.39840 2.4206021E-04
20.52543 2.3575993E-04
20.65246 2.2840824E-04
20.77950 2.2012321E-04
20.90653 2.1104043E-04
21.03356 2.0131031E-04
21.16059 1.9109492E-04
21.28763 1.8056434E-04
21.41466 1.6989277E-04
21.54169 1.5925437E-04
21.66872 1.4881902E-04
21.79576 1.3874819E-04
21.92279 1.2919086E-04
22.04982 1.2028001E-04
22.17686 1.1212950E-04
22.30389 1.0483152E-04
22.43092 9.8454824E-05
22.55795 9.3043614E-05
22.68499 8.8617337E-05
22.81202 8.5171232E-05
22.93905 8.2677594E-05
23.06608 8.1087914E-05
23.19312 8.0335456E-05
23.32015 8.0338505E-05
23.44718 8.1003818E-05
23.57421 8.2230552E-05
23.70125 8.3913976E-05
23.82828 8.5949388E-05
23.95531 8.8235669E-05
24.08235 9.0678521E-05
24.20938 9.3193288E-05
24.33641 9.5707248E-05
24.46344 9.8161217E-05
24.59048 1.0051073E-04
24.71751 1.0272628E-04
24.84454 1.0479322E-04
24.97157 1.0671100E-04
25.09861 1.0849172E-04
25.22564 1.1015864E-04
25.35267 1.1174402E-04
25.47970 1.1328694E-04
25.60674 1.1483095E-04
25.73377 1.1642170E-04
25.86080 1.1810457E-04
25.98783 1.1992266E-04
26.11487 1.2191483E-04
26.24190 1.2411406E-04
26.36893 1.2654607E-04
26.49597 1.2922840E-04
26.62300 1.3216965E-04
26.75003 1.3536910E-04
26.87706 1.3881674E-04
27.00410 1.4249349E-04
27.13113 1.4637157E-04
27.25816 1.5041546E-04
27.38519 1.5458274E-04
27.51223 1.5882521E-04
27.63926 1.6309011E-04
27.76629 1.6732162E-04
27.89332 1.7146225E-04
28.02036 1.7545454E-04
28.14739 1.7924240E-04
28.27442 1.8277294E-04
28.40145 1.8599791E-04
28.52849 1.8887539E-04
28.65552 1.9137112E-04
28.78255 1.9346007E-04
28.90959 1.9512752E-04
29.03662 1.9637009E-04
29.16365 1.9719636E-04
29.29068 1.9762763E-04
29.41772 1.9769791E-04
29.54475 1.9745356E-04
29.67178 1.9695291E-04
29.79881 1.9626519E-04
29.92585 1.9546918E-04
30.05288 1.9465176E-04
30.17991 1.9390564E-04
30.30694 1.9332724E-04
30.43398 1.9301451E-04
30.56101 1.9306407E-04
30.68804 1.9356883E-04
30.81507 1.9461547E-04
30.94211 1.9628188E-04
31.06914 1.9863503E-04
31.19617 2.0172910E-04
31.32321 2.0560375E-04
31.45024 2.1028297E-04
31.57727 2.1577434E-04
31.70430 2.2206873E-04
31.83134 2.2914041E-04
31.95837 2.3694774E-04
32.08540 2.4543423E-04
32.21243 2.5452994E-04
32.33947 2.6415312E-04
32.46650 2.7421257E-04
32.59353 2.8460941E-04
32.72057 2.9523956E-04
32.84760 3.0599613E-04
32.97463 3.1677159E-04
33.10166 3.2745980E-04
33.22869 3.3795845E-04
33.35573 3.4817043E-04
33.48276 3.5800546E-04
33.60979 3.6738129E-04
33.73683 3.7622481E-04
33.86386 3.8447257E-04
33.99089 3.9207123E-04
34.11792 3.9897763E-04
34.24496 4.0515864E-04
34.37199 4.1059084E-04
34.49902 4.1525986E-04
34.62605 4.1915983E-04
34.75309 4.2229248E-04
34.88012 4.2466659E-04
35.00715 4.2629679E-04
35.13419 4.2720287E-04
35.26122 4.2740876E-04
35.38825 4.2694199E-04
35.51528 4.2583246E-04
35.64231 4.2411199E-04
35.76935 4.2181363E-04
35.89638 4.1897057E-04
36.02341 4.1561588E-04
36.15045 4.1178160E-04
36.27748 4.0749833E-04
36.40451 4.0279457E-04
36.53154 3.9769642E-04
36.65858 3.9222691E-04
36.78561 3.8640606E-04
36.91264 3.8025013E-04
37.03968 3.7377211E-04
37.16671 3.6698123E-04
37.29374 3.5988339E-04
37.42077 3.5248123E-04
37.54781 3.4477492E-04
37.67484 3.3676228E-04
37.80187 3.2843990E-04
37.92890 3.1980369E-04
38.05593 3.1085018E-04
38.18297 3.0157733E-04
38.31000 2.9198558E-04
38.43703 2.8207889E-04
38.56407 2.7186575E-04
38.69110 2.6136011E-04
38.81813 2.5058171E-04
38.94516 2.3955696E-04
39.07220 2.2831892E-04
39.19923 2.1690733E-04
39.32626 2.0536839E-04
39.45330 1.9375423E-04
39.58033 1.8212227E-04
39.70736 1.7053419E-04
39.83439 1.5905501E-04
39.96143 1.4775194E-04
40.08846 1.3669317E-04
40.21549 1.2594671E-04
40.34253 1.1557929E-04
40.46955 1.0565518E-04
40.59659 9.6235482E-05
40.72362 8.7377128E-05
40.85065 7.9132384E-05
40.97769 7.1548318E-05
41.10472 6.4666579E-05
41.23175 5.8523179E-05
41.35878 5.3148553E-05
41.48582 4.8567483E-05
41.61285 4.4799301E-05
41.73988 4.1857915E-05
41.86692 3.9751834E-05
41.99395 3.8484199E-05
42.12098 3.8052574E-05
42.24801 3.8448758E-05
42.37505 3.9658396E-05
42.50208 4.1660496E-05
42.62911 4.4426939E-05
42.75615 4.7921945E-05
42.88317 5.2101499E-05
43.01021 5.6912861E-05
43.13724 6.2294297E-05
43.26427 6.8174813E-05
43.39131 7.4474323E-05
43.51834 8.1103855E-05
43.64537 8.7966298E-05
43.77240 9.4957293E-05
43.89944 1.0196659E-04
44.02647 1.0887970E-04
44.15350 1.1557982E-04
44.28054 1.2195013E-04
44.40757 1.2787624E-04
44.53460 1.3324872E-04
44.66163 1.3796589E-04
44.78867 1.4193641E-04
44.91570 1.4508168E-04
45.04273 1.4733835E-04
45.16977 1.4866007E-04
45.29680 1.4901927E-04
45.42383 1.4840817E-04
45.55086 1.4683958E-04
45.67789 1.4434686E-04
45.80493 1.4098367E-04
45.93196 1.3682297E-04
46.05899 1.3195563E-04
46.18602 1.2648846E-04
46.31306 1.2054195E-04
46.44009 1.1424757E-04
46.56712 1.0774486E-04
46.69416 1.0117825E-04
46.82119 9.4693816E-05
46.94822 8.8435969E-05
47.07525 8.2544291E-05
47.20229 7.7150435E-05
47.32932 7.2375326E-05
47.45635 6.8326590E-05
47.58339 6.5096378E-05
47.71042 6.2759515E-05
47.83745 6.1372142E-05
47.96448 6.0970706E-05
48.09151 6.1571445E-05
48.21855 6.3170279E-05
48.34558 6.5743159E-05
48.47261 6.9246744E-05
48.59965 7.3619558E-05
48.72668 7.8783429E-05
48.85371 8.4645297E-05
48.98074 9.1099268E-05
49.10778 9.8028919E-05
49.23481 1.0530974E-04
49.36184 1.1281177E-04
49.48887 1.2040220E-04
49.61591 1.2794806E-04
49.74294 1.3531884E-04
49.86997 1.4238898E-04
49.99701 1.4904022E-04
50.12404 1.5516389E-04
50.25107 1.6066275E-04
50.37810 1.6545280E-04
50.50513 1.6946479E-04
50.63217 1.7264528E-04
50.75920 1.7495759E-04
50.88623 1.7638238E-04
51.01327 1.7691785E-04
51.14030 1.7657960E-04
51.26733 1.7540013E-04
51.39436 1.7342808E-04
51.52140 1.7072704E-04
51.64843 1.6737408E-04
51.77546 1.6345797E-04
51.90249 1.5907720E-04
52.02953 1.5433786E-04
52.15656 1.4935106E-04
52.28359 1.4423070E-04
52.41063 1.3909076E-04
52.53766 1.3404292E-04
52.66469 1.2919407E-04
52.79172 1.2464401E-04
52.91875 1.2048334E-04
53.04579 1.1679155E-04
53.17282 1.1363554E-04
53.29985 1.1106833E-04
53.42689 1.0912825E-04
53.55392 1.0783855E-04
53.68095 1.0720727E-04
53.80798 1.0722777E-04
53.93502 1.0787939E-04
54.06205 1.0912853E-04
54.18908 1.1093006E-04
54.31612 1.1322882E-04
54.44315 1.1596141E-04
54.57018 1.1905799E-04
54.69721 1.2244409E-04
54.82425 1.2604240E-04
54.95128 1.2977461E-04
55.07831 1.3356291E-04
55.20534 1.3733149E-04
55.33237 1.4100787E-04
55.45941 1.4452399E-04
55.58644 1.4781712E-04
55.71347 1.5083059E-04
55.84051 1.5351438E-04
55.96754 1.5582543E-04
56.09457 1.5772789E-04
56.22160 1.5919319E-04
56.34864 1.6020004E-04
56.47567 1.6073429E-04
56.60270 1.6078878E-04
56.72974 1.6036314E-04
56.85677 1.5946350E-04
56.98380 1.5810221E-04
57.11083 1.5629764E-04
57.23787 1.5407379E-04
57.36490 1.5145999E-04
57.49193 1.4849044E-04
57.61897 1.4520391E-04
57.74599 1.4164310E-04
57.87303 1.3785412E-04
58.00006 1.3388589E-04
58.12709 1.2978930E-04
58.25413 1.2561660E-04
58.38116 1.2142039E-04
58.50819 1.1725282E-04
58.63522 1.1316473E-04
58.76226 1.0920466E-04
58.88929 1.0541797E-04
59.01632 1.0184592E-04
59.14336 9.8524855E-05
59.27039 9.5485317E-05
59.39742 9.2751543E-05
59.52445 9.0340698E-05
59.65149 8.8262597E-05
59.77852 8.6519387E-05
59.90555 8.5105530E-05
60.03259 8.4008025E-05
60.15961 8.3206847E-05
60.28665 8.2675659E-05
60.41368 8.2382670E-05
60.54071 8.2291845E-05
60.66775 8.2364131E-05
60.79478 8.2559010E-05
60.92181 8.2835955E-05
61.04884 8.3156112E-05
61.17588 8.3483836E-05
61.30291 8.3788080E-05
61.42994 8.4043859E-05
61.55698 8.4233230E-05
61.68401 8.4346262E-05
61.81104 8.4381492E-05
61.93807 8.4346124E-05
62.06511 8.4255844E-05
62.19214 8.4134270E-05
62.31917 8.4011961E-05
62.44621 8.3925101E-05
62.57324 8.3913910E-05
62.70027 8.4020787E-05
62.82730 8.4288222E-05
62.95433 8.4756692E-05
63.08137 8.5462591E-05
63.20840 8.6436201E-05
63.33543 8.7699933E-05
63.46246 8.9266839E-05
63.58950 9.1139555E-05
63.71653 9.3309653E-05
63.84356 9.5757408E-05
63.97060 9.8452219E-05
64.09763 1.0135330E-04
64.22466 1.0441100E-04
64.35169 1.0756839E-04
64.47873 1.1076327E-04
64.60576 1.1393039E-04
64.73279 1.1700382E-04
64.85983 1.1991941E-04
64.98685 1.2261719E-04
65.11389 1.2504359E-04
65.24092 1.2715340E-04
65.36796 1.2891150E-04
65.49499 1.3029409E-04
65.62202 1.3128943E-04
65.74905 1.3189814E-04
65.87608 1.3213306E-04
66.00312 1.3201853E-04
66.13015 1.3158926E-04
66.25719 1.3088887E-04
66.38422 1.2996803E-04
66.51125 1.2888244E-04
66.63828 1.2769070E-04
66.76531 1.2645211E-04
66.89235 1.2522456E-04
67.01938 1.2406260E-04
67.14641 1.2301571E-04
67.27345 1.2212686E-04
67.40047 1.2143135E-04
67.52751 1.2095625E-04
67.65454 1.2071982E-04
67.78158 1.2073175E-04
67.90861 1.2099334E-04
68.03564 1.2149833E-04
68.16267 1.2223373E-04
68.28970 1.2318094E-04
68.41674 1.2431706E-04
68.54377 1.2561608E-04
68.67081 1.2705017E-04
68.79784 1.2859079E-04
68.92487 1.3020962E-04
69.05190 1.3187919E-04
69.17893 1.3357351E-04
69.30597 1.3526814E-04
69.43300 1.3694026E-04
69.56004 1.3856843E-04
69.68707 1.4013224E-04
69.81409 1.4161189E-04
69.94113 1.4298760E-04
70.06816 1.4423919E-04
70.19520 1.4534561E-04
70.32223 1.4628460E-04
70.44926 1.4703254E-04
70.57629 1.4756441E-04
70.70332 1.4785405E-04
70.83036 1.4787447E-04
70.95739 1.4759859E-04
71.08443 1.4700007E-04
71.21146 1.4605421E-04
71.33849 1.4473930E-04
71.46552 1.4303776E-04
71.59255 1.4093753E-04
71.71959 1.3843327E-04
71.84662 1.3552753E-04
71.97366 1.3223165E-04
72.10069 1.2856656E-04
72.22771 1.2456310E-04
72.35475 1.2026216E-04
72.48178 1.1571430E-04
72.60882 1.1097913E-04
72.73585 1.0612424E-04
72.86288 1.0122379E-04
72.98991 9.6356867E-05
73.11694 9.1605434E-05
73.24398 8.7052227E-05
73.37101 8.2778359E-05
73.49805 7.8860889E-05
73.62508 7.5370423E-05
73.75211 7.2368712E-05
73.87914 6.9906513E-05
74.00617 6.8021669E-05
74.13321 6.6737615E-05
74.26024 6.6062326E-05
74.38728 6.5987690E-05
74.51431 6.6489658E-05
74.64133 6.7528817E-05
74.76837 6.9051704E-05
74.89540 7.0992530E-05
75.02244 7.3275529E-05
75.14947 7.5817632E-05
75.27650 7.8531411E-05
75.40353 8.1328304E-05
75.53056 8.4121733E-05
75.65760 8.6830347E-05
75.78463 8.9380897E-05
75.91167 9.1710885E-05
76.03870 9.3770745E-05
76.16573 9.5525560E-05
76.29276 9.6956181E-05
76.41979 9.8059638E-05
76.54683 9.8848919E-05
76.67386 9.9352073E-05
76.80090 9.9610617E-05
76.92793 9.9677411E-05
77.05495 9.9614030E-05
77.18199 9.9487719E-05
77.30902 9.9368175E-05
77.43606 9.9324301E-05
77.56309 9.9420911E-05
77.69012 9.9715813E-05
77.81715 1.0025722E-04
77.94418 1.0108156E-04
78.07122 1.0221195E-04
78.19825 1.0365715E-04
78.32529 1.0541125E-04
78.45232 1.0745389E-04
78.57935 1.0975118E-04
78.70638 1.1225707E-04
78.83341 1.1491529E-04
78.96045 1.1766170E-04
79.08748 1.2042693E-04
79.21452 1.2313919E-04
79.34155 1.2572731E-04
79.46858 1.2812356E-04
79.59561 1.3026639E-04
79.72264 1.3210291E-04
79.84968 1.3359090E-04
79.97671 1.3470040E-04
80.10374 1.3541470E-04
80.23077 1.3573081E-04
80.35780 1.3565936E-04
80.48484 1.3522391E-04
80.61187 1.3445984E-04
80.73891 1.3341277E-04
80.86594 1.3213661E-04
80.99297 1.3069141E-04
81.12000 1.2914088E-04
81.24703 1.2755004E-04
81.37407 1.2598270E-04
81.50110 1.2449901E-04
81.62814 1.2315334E-04
81.75517 1.2199217E-04
81.88220 1.2105252E-04
82.00923 1.2036069E-04
82.13626 1.1993146E-04
82.26330 1.1976784E-04
82.39033 1.1986132E-04
82.51736 1.2019262E-04
82.64439 1.2073288E-04
82.77143 1.2144532E-04
82.89846 1.2228722E-04
83.02549 1.2321198E-04
83.15253 1.2417142E-04
83.27956 1.2511805E-04
83.40659 1.2600714E-04
83.53362 1.2679871E-04
83.66065 1.2745910E-04
83.78769 1.2796235E-04
83.91472 1.2829101E-04
84.04176 1.2843666E-04
84.16879 1.2839994E-04
84.29582 1.2819015E-04
84.42285 1.2782436E-04
84.54988 1.2732620E-04
84.67692 1.2672434E-04
84.80395 1.2605060E-04
84.93098 1.2533799E-04
85.05801 1.2461876E-04
85.18505 1.2392245E-04
85.31208 1.2327411E-04
85.43911 1.2269284E-04
85.56615 1.2219083E-04
85.69318 1.2177259E-04
85.82021 1.2143482E-04
85.94724 1.2116667E-04
86.07427 1.2095043E-04
86.20131 1.2076254E-04
86.32834 1.2057495E-04
86.45538 1.2035665E-04
86.58241 1.2007534E-04
86.70944 1.1969916E-04
86.83647 1.1919829E-04
86.96350 1.1854657E-04
87.09054 1.1772284E-04
87.21757 1.1671200E-04
87.34460 1.1550591E-04
87.47163 1.1410378E-04
87.59867 1.1251228E-04
87.72570 1.1074534E-04
87.85273 1.0882339E-04
87.97977 1.0677251E-04
88.10680 1.0462322E-04
88.23383 1.0240908E-04
88.36086 1.0016526E-04
88.48790 9.7927070E-05
88.61493 9.5728588E-05
88.74196 9.3601571E-05
88.86900 9.1574409E-05
88.99603 8.9671499E-05
89.12306 8.7912871E-05
89.25009 8.6314052E-05
89.37712 8.4886145E-05
89.50416 8.3636245E-05
89.63119 8.2567880E-05
89.75822 8.1681726E-05
89.88525 8.0976257E-05
90.01229 8.0448437E-05
90.13932 8.0094440E-05
90.26635 7.9910234E-05
90.39339 7.9892001E-05
90.52042 8.0036531E-05
90.64745 8.0341269E-05
90.77448 8.0804253E-05
90.90152 8.1423830E-05
91.02855 8.2198218E-05
91.15558 8.3124898E-05
91.28262 8.4199994E-05
91.40965 8.5417516E-05
91.53668 8.6768880E-05
91.66371 8.8242363E-05
91.79075 8.9822941E-05
91.91778 9.1492300E-05
92.04481 9.3229130E-05
92.17184 9.5009746E-05
92.29887 9.6808995E-05
92.42591 9.8601318E-05
92.55294 1.0036201E-04
92.67997 1.0206856E-04
92.80701 1.0370193E-04
92.93404 1.0524783E-04
93.06107 1.0669780E-04
93.18810 1.0804994E-04
93.31514 1.0930948E-04
93.44217 1.1048889E-04
93.56920 1.1160765E-04
93.69624 1.1269152E-04
93.82327 1.1377152E-04
93.95030 1.1488238E-04
94.07733 1.1606076E-04
94.20437 1.1734314E-04
94.33140 1.1876359E-04
94.45843 1.2035143E-04
94.58546 1.2212899E-04
94.71249 1.2410962E-04
94.83953 1.2629594E-04
94.96656 1.2867860E-04
95.09360 1.3123560E-04
95.22063 1.3393218E-04
95.34766 1.3672130E-04
95.47469 1.3954483E-04
95.60172 1.4233535E-04
95.72876 1.4501830E-04
95.85579 1.4751476E-04
95.98282 1.4974437E-04
96.10986 1.5162869E-04
96.23689 1.5309424E-04
96.36392 1.5407581E-04
96.49095 1.5451932E-04
96.61799 1.5438444E-04
96.74502 1.5364662E-04
96.87205 1.5229867E-04
96.99908 1.5035155E-04
97.12611 1.4783452E-04
97.25315 1.4479445E-04
97.38018 1.4129453E-04
97.50722 1.3741212E-04
97.63425 1.3323619E-04
97.76128 1.2886403E-04
97.88831 1.2439785E-04
98.01534 1.1994096E-04
98.14238 1.1559412E-04
98.26941 1.1145190E-04
98.39645 1.0759934E-04
98.52348 1.0410907E-04
98.65051 1.0103903E-04
98.77754 9.8430661E-05
98.90457 9.6307980E-05
99.03161 9.4677256E-05
99.15864 9.3527495E-05
99.28567 9.2831586E-05
99.41270 9.2548114E-05
99.53973 9.2623755E-05
99.66677 9.2996081E-05
99.79380 9.3596733E-05
99.92084 9.4354764E-05
100.0479 9.5199983E-05
100.1749 9.6066171E-05
100.3019 9.6893949E-05
100.4290 9.7633339E-05
100.5560 9.8245670E-05
100.6830 9.8704950E-05
100.8101 9.8998535E-05
100.9371 9.9127152E-05
101.0641 9.9104313E-05
101.1912 9.8955075E-05
101.3182 9.8714401E-05
101.4452 9.8425058E-05
101.5723 9.8135184E-05
101.6993 9.7895761E-05
101.8263 9.7757984E-05
101.9534 9.7770702E-05
102.0804 9.7977987E-05
102.2074 9.8417069E-05
102.3345 9.9116580E-05
102.4615 1.0009522E-04
102.5885 1.0136091E-04
102.7156 1.0291054E-04
102.8426 1.0473008E-04
102.9696 1.0679529E-04
103.0966 1.0907280E-04
103.2237 1.1152145E-04
103.3507 1.1409408E-04
103.4777 1.1673927E-04
103.6048 1.1940322E-04
103.7318 1.2203159E-04
103.8588 1.2457115E-04
103.9859 1.2697128E-04
104.1129 1.2918533E-04
104.2399 1.3117140E-04
104.3670 1.3289336E-04
104.4940 1.3432100E-04
104.6210 1.3543038E-04
104.7481 1.3620370E-04
104.8751 1.3662901E-04
105.0021 1.3669983E-04
105.1292 1.3641456E-04
105.2562 1.3577584E-04
105.3832 1.3479000E-04
105.5103 1.3346627E-04
105.6373 1.3181638E-04
105.7643 1.2985418E-04
105.8914 1.2759524E-04
106.0184 1.2505682E-04
106.1454 1.2225796E-04
106.2725 1.1921964E-04
106.3995 1.1596501E-04
106.5265 1.1251996E-04
106.6536 1.0891333E-04
106.7806 1.0517753E-04
106.9076 1.0134868E-04
107.0347 9.7467004E-05
107.1617 9.3576840E-05
107.2887 8.9726673E-05
107.4158 8.5968852E-05
107.5428 8.2359198E-05
107.6698 7.8956429E-05
107.7969 7.5821263E-05
107.9239 7.3015450E-05
108.0509 7.0600589E-05
108.1780 6.8636735E-05
108.3050 6.7180954E-05
108.4320 6.6285706E-05
108.5591 6.5997192E-05
108.6861 6.6353794E-05
108.8131 6.7384470E-05
108.9402 6.9107366E-05
109.0672 7.1528593E-05
109.1942 7.4641204E-05
109.3213 7.8424462E-05
109.4483 8.2843544E-05
109.5753 8.7849425E-05
109.7023 9.3379262E-05
109.8294 9.9357094E-05
109.9564 1.0569490E-04
110.0834 1.1229405E-04
110.2105 1.1904710E-04
110.3375 1.2583987E-04
110.4645 1.3255380E-04
110.5916 1.3906864E-04
110.7186 1.4526515E-04
110.8456 1.5102806E-04
110.9727 1.5624893E-04
111.0997 1.6082909E-04
111.2267 1.6468228E-04
111.3538 1.6773713E-04
111.4808 1.6993932E-04
111.6078 1.7125325E-04
111.7349 1.7166324E-04
111.8619 1.7117422E-04
111.9889 1.6981189E-04
112.1160 1.6762210E-04
112.2430 1.6466991E-04
112.3700 1.6103777E-04
112.4971 1.5682343E-04
112.6241 1.5213725E-04
112.7511 1.4709907E-04
112.8782 1.4183491E-04
113.0052 1.3647329E-04
113.1322 1.3114151E-04
113.2593 1.2596197E-04
113.3863 1.2104875E-04
113.5133 1.1650427E-04
113.6404 1.1241643E-04
113.7674 1.0885635E-04
113.8944 1.0587651E-04
114.0215 1.0350974E-04
114.1485 1.0176880E-04
114.2755 1.0064663E-04
114.4026 1.0011740E-04
114.5296 1.0013801E-04
114.6566 1.0065032E-04
114.7837 1.0158369E-04
114.9107 1.0285802E-04
115.0377 1.0438691E-04
115.1647 1.0608089E-04
115.2918 1.0785076E-04
115.4188 1.0961066E-04
115.5459 1.1128096E-04
115.6729 1.1279069E-04
115.7999 1.1407973E-04
115.9269 1.1510029E-04
116.0540 1.1581792E-04
116.1810 1.1621199E-04
116.3080 1.1627551E-04
116.4351 1.1601458E-04
116.5621 1.1544720E-04
116.6891 1.1460179E-04
116.8162 1.1351529E-04
116.9432 1.1223112E-04
117.0702 1.1079707E-04
117.1973 1.0926310E-04
117.3243 1.0767929E-04
117.4513 1.0609392E-04
117.5784 1.0455187E-04
117.7054 1.0309324E-04
117.8324 1.0175232E-04
117.9595 1.0055702E-04
118.0865 9.9528508E-05
118.2135 9.8681230E-05
118.3406 9.8023294E-05
118.4676 9.7557022E-05
118.5946 9.7279808E-05
118.7217 9.7185119E-05
118.8487 9.7263561E-05
118.9757 9.7504002E-05
119.1028 9.7894641E-05
119.2298 9.8423952E-05
119.3568 9.9081488E-05
119.4839 9.9858466E-05
119.6109 1.0074813E-04
119.7379 1.0174582E-04
119.8650 1.0284867E-04
119.9920 1.0405528E-04
120.1190 1.0536500E-04
120.2461 1.0677707E-04
120.3731 1.0828983E-04
120.5001 1.0989966E-04
120.6272 1.1160009E-04
120.7542 1.1338107E-04
120.8812 1.1522834E-04
121.0083 1.1712310E-04
121.1353 1.1904190E-04
121.2623 1.2095691E-04
121.3894 1.2283640E-04
121.5164 1.2464556E-04
121.6434 1.2634772E-04
121.7704 1.2790554E-04
121.8975 1.2928269E-04
122.0245 1.3044533E-04
122.1516 1.3136367E-04
122.2786 1.3201356E-04
122.4056 1.3237771E-04
122.5326 1.3244674E-04
122.6597 1.3221997E-04
122.7867 1.3170554E-04
122.9137 1.3092048E-04
123.0408 1.2989000E-04
123.1678 1.2864658E-04
123.2948 1.2722876E-04
123.4219 1.2567951E-04
123.5489 1.2404443E-04
123.6759 1.2236991E-04
123.8030 1.2070133E-04
123.9300 1.1908123E-04
124.0570 1.1754782E-04
124.1841 1.1613356E-04
124.3111 1.1486434E-04
124.4381 1.1375869E-04
124.5652 1.1282767E-04
124.6922 1.1207494E-04
124.8192 1.1149728E-04
124.9463 1.1108549E-04
125.0733 1.1082531E-04
125.2003 1.1069881E-04
125.3274 1.1068569E-04
125.4544 1.1076470E-04
125.5814 1.1091499E-04
125.7085 1.1111726E-04
125.8355 1.1135478E-04
125.9625 1.1161410E-04
126.0896 1.1188554E-04
126.2166 1.1216338E-04
126.3436 1.1244578E-04
126.4707 1.1273449E-04
126.5977 1.1303432E-04
126.7247 1.1335249E-04
126.8518 1.1369792E-04
126.9788 1.1408041E-04
127.1058 1.1450983E-04
127.2329 1.1499544E-04
127.3599 1.1554517E-04
127.4869 1.1616499E-04
127.6140 1.1685854E-04
127.7410 1.1762680E-04
127.8680 1.1846781E-04
127.9950 1.1937678E-04
128.1221 1.2034602E-04
128.2491 1.2136521E-04
128.3761 1.2242164E-04
128.5032 1.2350055E-04
128.6302 1.2458555E-04
128.7572 1.2565900E-04
128.8843 1.2670242E-04
129.0113 1.2769684E-04
129.1383 1.2862310E-04
129.2654 1.2946223E-04
129.3924 1.3019565E-04
129.5194 1.3080548E-04
129.6465 1.3127459E-04
129.7735 1.3158696E-04
129.9005 1.3172776E-04
130.0276 1.3168350E-04
130.1546 1.3144242E-04
130.2816 1.3099457E-04
130.4087 1.3033218E-04
130.5357 1.2944991E-04
130.6627 1.2834516E-04
130.7898 1.2701844E-04
130.9168 1.2547379E-04
131.0438 1.2371903E-04
131.1709 1.2176616E-04
131.2979 1.1963160E-04
131.4249 1.1733636E-04
131.5520 1.1490620E-04
131.6790 1.1237149E-04
131.8060 1.0976702E-04
131.9331 1.0713153E-04
132.0601 1.0450708E-04
132.1871 1.0193817E-04
132.3142 9.9470708E-05
132.4412 9.7150813E-05
132.5682 9.5023475E-05
132.6953 9.3131130E-05
132.8223 9.1512222E-05
132.9493 9.0199945E-05
133.0764 8.9220906E-05
133.2034 8.8594192E-05
133.3304 8.8330547E-05
133.4575 8.8431821E-05
133.5845 8.8890883E-05
133.7115 8.9691675E-05
133.8385 9.0809772E-05
133.9656 9.2213166E-05
134.0926 9.3863389E-05
134.2197 9.5716838E-05
134.3467 9.7726319E-05
134.4737 9.9842720E-05
134.6008 1.0201672E-04
134.7278 1.0420048E-04
134.8548 1.0634929E-04
134.9818 1.0842296E-04
135.1089 1.1038702E-04
135.2359 1.1221370E-04
135.3629 1.1388250E-04
135.4900 1.1538054E-04
135.6170 1.1670258E-04
135.7440 1.1785069E-04
135.8711 1.1883367E-04
135.9981 1.1966623E-04
136.1251 1.2036806E-04
136.2522 1.2096271E-04
136.3792 1.2147637E-04
136.5062 1.2193672E-04
136.6333 1.2237170E-04
136.7603 1.2280839E-04
136.8873 1.2327197E-04
137.0144 1.2378488E-04
137.1414 1.2436602E-04
137.2684 1.2503008E-04
137.3955 1.2578718E-04
137.5225 1.2664248E-04
137.6495 1.2759618E-04
137.7766 1.2864341E-04
137.9036 1.2977455E-04
138.0306 1.3097537E-04
138.1577 1.3222758E-04
138.2847 1.3350918E-04
138.4117 1.3479516E-04
138.5388 1.3605812E-04
138.6658 1.3726887E-04
138.7928 1.3839715E-04
138.9199 1.3941232E-04
139.0469 1.4028403E-04
139.1739 1.4098290E-04
139.3009 1.4148121E-04
139.4280 1.4175357E-04
139.5550 1.4177746E-04
139.6821 1.4153388E-04
139.8091 1.4100784E-04
139.9361 1.4018883E-04
140.0632 1.3907133E-04
140.1902 1.3765501E-04
140.3172 1.3594501E-04
140.4442 1.3395213E-04
140.5713 1.3169274E-04
140.6983 1.2918882E-04
140.8253 1.2646774E-04
140.9524 1.2356199E-04
141.0794 1.2050877E-04
141.2065 1.1734953E-04
141.3335 1.1412928E-04
141.4605 1.1089601E-04
141.5875 1.0769972E-04
141.7146 1.0459165E-04
141.8416 1.0162320E-04
141.9686 9.8844866E-05
142.0957 9.6305172E-05
142.2227 9.4049530E-05
142.3497 9.2119219E-05
142.4768 9.0550340E-05
142.6038 8.9372879E-05
142.7308 8.8609959E-05
142.8579 8.8277164E-05
142.9849 8.8382149E-05
143.1119 8.8924338E-05
143.2390 8.9894915E-05
143.3660 9.1276903E-05
143.4930 9.3045484E-05
143.6201 9.5168500E-05
143.7471 9.7607051E-05
143.8741 1.0031644E-04
144.0012 1.0324701E-04
144.1282 1.0634527E-04
144.2552 1.0955505E-04
144.3823 1.1281871E-04
144.5093 1.1607835E-04
144.6363 1.1927713E-04
144.7634 1.2236039E-04
144.8904 1.2527675E-04
145.0174 1.2797916E-04
145.1445 1.3042563E-04
145.2715 1.3258014E-04
145.3985 1.3441304E-04
145.5256 1.3590165E-04
145.6526 1.3703035E-04
145.7796 1.3779076E-04
145.9066 1.3818174E-04
146.0337 1.3820901E-04
146.1607 1.3788496E-04
146.2878 1.3722798E-04
146.4148 1.3626195E-04
146.5418 1.3501527E-04
146.6689 1.3352005E-04
146.7959 1.3181112E-04
146.9229 1.2992506E-04
147.0499 1.2789915E-04
147.1770 1.2577041E-04
147.3040 1.2357472E-04
147.4310 1.2134595E-04
147.5581 1.1911537E-04
147.6851 1.1691114E-04
147.8121 1.1475795E-04
