-4.500000 1.0858416E-17
-4.372967 1.0862460E-17
-4.245934 1.0869937E-17
-4.118902 1.0879832E-17
-3.991869 1.0890930E-17
-3.864837 1.0902055E-17
-3.737804 1.0912292E-17
-3.610771 1.0921151E-17
-3.483739 1.0928619E-17
-3.356706 1.0935121E-17
-3.229674 1.0941362E-17
-3.102641 1.0948129E-17
-2.975608 1.0956073E-17
-2.848576 1.0965532E-17
-2.721543 1.0976442E-17
-2.594510 1.0988336E-17
-2.467478 1.1000460E-17
-2.340445 1.1011944E-17
-2.213412 1.1022020E-17
-2.086380 1.1030192E-17
-1.959347 1.1036377E-17
-1.832314 1.1040916E-17
-1.705282 1.1044511E-17
-1.578249 1.1048059E-17
-1.451216 1.1052455E-17
-1.324184 1.1058382E-17
-1.197151 1.1066160E-17
-1.070119 1.1075672E-17
-0.9430859 1.1086399E-17
-0.8160533 1.1097537E-17
-0.6890206 1.1108187E-17
-0.5619880 1.1117563E-17
-0.4349554 1.1125172E-17
-0.3079227 1.1130924E-17
-0.1808901 1.1135146E-17
-5.3857423E-02 1.1138501E-17
7.3175222E-02 1.1141822E-17
0.2002079 1.1145917E-17
0.3272405 1.1151372E-17
0.4542732 1.1158409E-17
0.5813058 1.1166832E-17
0.7083384 1.1176070E-17
0.8353711 1.1185305E-17
0.9624037 1.1193669E-17
1.089436 1.1200436E-17
1.216469 1.1205199E-17
1.343502 1.1207962E-17
1.470534 1.1209141E-17
1.597567 1.1209469E-17
1.724600 1.1209833E-17
1.851632 1.1211068E-17
1.978665 1.1213777E-17
2.105698 1.1218195E-17
2.232730 1.1224147E-17
2.359763 1.1231097E-17
2.486795 1.1238281E-17
2.613828 1.1244888E-17
2.740861 1.1250252E-17
2.867893 1.1254001E-17
2.994926 1.1256136E-17
3.121959 1.1257020E-17
3.248991 1.1257280E-17
3.376024 1.1257642E-17
3.503057 1.1258756E-17
3.630089 1.1261031E-17
3.757122 1.1264532E-17
3.884155 1.1268966E-17
4.011187 1.1273759E-17
4.138220 1.1278188E-17
4.265253 1.1281567E-17
4.392285 1.1283415E-17
4.519318 1.1283577E-17
4.646350 1.1282270E-17
4.773383 1.1280043E-17
4.900416 1.1277647E-17
5.027448 1.1275866E-17
5.154481 1.1275337E-17
5.281514 1.1276400E-17
5.408546 1.1279021E-17
5.535579 1.1282805E-17
5.662611 1.1287088E-17
5.789644 1.1291098E-17
5.916677 1.1294139E-17
6.043710 1.1295759E-17
6.170742 1.1295855E-17
6.297775 1.1294704E-17
6.424808 1.1292892E-17
6.551840 1.1291184E-17
6.678873 1.1290335E-17
6.805905 1.1290914E-17
6.932938 1.1293169E-17
7.059971 1.1296963E-17
7.187003 1.1301805E-17
7.314036 1.1306963E-17
7.441069 1.1311627E-17
7.568101 1.1315106E-17
7.695134 1.1316983E-17
7.822166 1.1317212E-17
7.949199 1.1316129E-17
8.076232 1.1314371E-17
8.203264 1.1312731E-17
8.330297 1.1311973E-17
8.457330 1.1312649E-17
8.584362 1.1314984E-17
8.711395 1.1318815E-17
8.838428 1.1323647E-17
8.965461 1.1328762E-17
9.092493 1.1333399E-17
9.219525 1.1336931E-17
9.346559 1.1339013E-17
9.473591 1.1339668E-17
9.600623 1.1339265E-17
9.727656 1.1338443E-17
9.854689 1.1337949E-17
9.981722 1.1338457E-17
10.10875 1.1340410E-17
10.23579 1.1343909E-17
10.36282 1.1348690E-17
10.48985 1.1354185E-17
10.61689 1.1359655E-17
10.74392 1.1364363E-17
10.87095 1.1367751E-17
10.99798 1.1369569E-17
11.12502 1.1369928E-17
11.25205 1.1369285E-17
11.37908 1.1368320E-17
11.50611 1.1367786E-17
11.63315 1.1368326E-17
11.76018 1.1370327E-17
11.88721 1.1373827E-17
12.01424 1.1378511E-17
12.14128 1.1383791E-17
12.26831 1.1388945E-17
12.39534 1.1393295E-17
12.52237 1.1396365E-17
12.64941 1.1397998E-17
12.77644 1.1398394E-17
12.90347 1.1398062E-17
13.03051 1.1397698E-17
13.15754 1.1398019E-17
13.28457 1.1399592E-17
13.41160 1.1402697E-17
13.53864 1.1407258E-17
13.66567 1.1412855E-17
13.79270 1.1418821E-17
13.91973 1.1424400E-17
14.04677 1.1428914E-17
14.17380 1.1431927E-17
14.30083 1.1433343E-17
14.42786 1.1433425E-17
14.55490 1.1432735E-17
14.68193 1.1432003E-17
14.80896 1.1431951E-17
14.93600 1.1433127E-17
15.06303 1.1435781E-17
15.19006 1.1439804E-17
15.31709 1.1444758E-17
15.44413 1.1449984E-17
15.57116 1.1454758E-17
15.69819 1.1458462E-17
15.82522 1.1460731E-17
15.95226 1.1461537E-17
16.07929 1.1461195E-17
16.20632 1.1460285E-17
16.33335 1.1459507E-17
16.46039 1.1459524E-17
16.58742 1.1460791E-17
16.71445 1.1463450E-17
16.84148 1.1467302E-17
16.96852 1.1471848E-17
17.09555 1.1476421E-17
17.22258 1.1480348E-17
17.34962 1.1483116E-17
17.47665 1.1484513E-17
17.60368 1.1484682E-17
17.73071 1.1484112E-17
17.85775 1.1483519E-17
17.98478 1.1483702E-17
18.11181 1.1485350E-17
18.23884 1.1488883E-17
18.36588 1.1494352E-17
18.49291 1.1501415E-17
18.61994 1.1509405E-17
18.74697 1.1517463E-17
18.87401 1.1524720E-17
19.00104 1.1530474E-17
19.12807 1.1534324E-17
19.25510 1.1536233E-17
19.38214 1.1536513E-17
19.50917 1.1535726E-17
19.63620 1.1534526E-17
19.76324 1.1533500E-17
19.89027 1.1533023E-17
20.01730 1.1533167E-17
20.14433 1.1533699E-17
20.27137 1.1534158E-17
20.39840 1.1533981E-17
20.52543 1.1532675E-17
20.65246 1.1529963E-17
20.77950 1.1525891E-17
20.90653 1.1520852E-17
21.03356 1.1515535E-17
21.16059 1.1510793E-17
21.28763 1.1507475E-17
21.41466 1.1506252E-17
21.54169 1.1507471E-17
21.66872 1.1511091E-17
21.79576 1.1516693E-17
21.92279 1.1523580E-17
22.04982 1.1530924E-17
22.17686 1.1537958E-17
22.30389 1.1544129E-17
22.43092 1.1549214E-17
22.55795 1.1553340E-17
22.68499 1.1556937E-17
22.81202 1.1560602E-17
22.93905 1.1564935E-17
23.06608 1.1570367E-17
23.19312 1.1577035E-17
23.32015 1.1584723E-17
23.44718 1.1592887E-17
23.57421 1.1600770E-17
23.70125 1.1607557E-17
23.82828 1.1612562E-17
23.95531 1.1615384E-17
24.08235 1.1615997E-17
24.20938 1.1614767E-17
24.33641 1.1612369E-17
24.46344 1.1609647E-17
24.59048 1.1607428E-17
24.71751 1.1606347E-17
24.84454 1.1606708E-17
24.97157 1.1608438E-17
25.09861 1.1611115E-17
25.22564 1.1614077E-17
25.35267 1.1616593E-17
25.47970 1.1618040E-17
25.60674 1.1618060E-17
25.73377 1.1616639E-17
25.86080 1.1614121E-17
25.98783 1.1611122E-17
26.11487 1.1608390E-17
26.24190 1.1606621E-17
26.36893 1.1606305E-17
26.49597 1.1607598E-17
26.62300 1.1610291E-17
26.75003 1.1613858E-17
26.87706 1.1617571E-17
27.00410 1.1620678E-17
27.13113 1.1622571E-17
27.25816 1.1622935E-17
27.38519 1.1621820E-17
27.51223 1.1619632E-17
27.63926 1.1617044E-17
27.76629 1.1614846E-17
27.89332 1.1613767E-17
28.02036 1.1614316E-17
28.14739 1.1616674E-17
28.27442 1.1620660E-17
28.40145 1.1625785E-17
28.52849 1.1631373E-17
28.65552 1.1636718E-17
28.78255 1.1641255E-17
28.90959 1.1644683E-17
29.03662 1.1647023E-17
29.16365 1.1648609E-17
29.29068 1.1649984E-17
29.41772 1.1651765E-17
29.54475 1.1654476E-17
29.67178 1.1658412E-17
29.79881 1.1663553E-17
29.92585 1.1669559E-17
30.05288 1.1675839E-17
30.17991 1.1681682E-17
30.30694 1.1686421E-17
30.43398 1.1689582E-17
30.56101 1.1691000E-17
30.68804 1.1690854E-17
30.81507 1.1689629E-17
30.94211 1.1688004E-17
31.06914 1.1686698E-17
31.19617 1.1686305E-17
31.32321 1.1687164E-17
31.45024 1.1689280E-17
31.57727 1.1692344E-17
31.70430 1.1695799E-17
31.83134 1.1698992E-17
31.95837 1.1701337E-17
32.08540 1.1702458E-17
32.21243 1.1702288E-17
32.33947 1.1701096E-17
32.46650 1.1699428E-17
32.59353 1.1697985E-17
32.72057 1.1697460E-17
32.84760 1.1698375E-17
32.97463 1.1700963E-17
33.10166 1.1705097E-17
33.22869 1.1710323E-17
33.35573 1.1715956E-17
33.48276 1.1721228E-17
33.60979 1.1725462E-17
33.73683 1.1728217E-17
33.86386 1.1729384E-17
33.99089 1.1729202E-17
34.11792 1.1728194E-17
34.24496 1.1727045E-17
34.37199 1.1726433E-17
34.49902 1.1726878E-17
34.62605 1.1728622E-17
34.75309 1.1731579E-17
34.88012 1.1735368E-17
35.00715 1.1739406E-17
35.13419 1.1743065E-17
35.26122 1.1745822E-17
35.38825 1.1747392E-17
35.51528 1.1747805E-17
35.64231 1.1747403E-17
35.76935 1.1746760E-17
35.89638 1.1746543E-17
36.02341 1.1747362E-17
36.15045 1.1749611E-17
36.27748 1.1753373E-17
36.40451 1.1758386E-17
36.53154 1.1764101E-17
36.65858 1.1769787E-17
36.78561 1.1774704E-17
36.91264 1.1778254E-17
37.03968 1.1780118E-17
37.16671 1.1780324E-17
37.29374 1.1779228E-17
37.42077 1.1777433E-17
37.54781 1.1775646E-17
37.67484 1.1774512E-17
37.80187 1.1774474E-17
37.92890 1.1775672E-17
38.05593 1.1777921E-17
38.18297 1.1780765E-17
38.31000 1.1783597E-17
38.43703 1.1785810E-17
38.56407 1.1786951E-17
38.69110 1.1786837E-17
38.81813 1.1785600E-17
38.94516 1.1783669E-17
39.07220 1.1781669E-17
39.19923 1.1780281E-17
39.32626 1.1780082E-17
39.45330 1.1781412E-17
39.58033 1.1784296E-17
39.70736 1.1788439E-17
39.83439 1.1793289E-17
39.96143 1.1798169E-17
40.08846 1.1802430E-17
40.21549 1.1805597E-17
40.34253 1.1807476E-17
40.46955 1.1808191E-17
40.59659 1.1808150E-17
40.72362 1.1807942E-17
40.85065 1.1808193E-17
40.97769 1.1809419E-17
41.10472 1.1811898E-17
41.23175 1.1815604E-17
41.35878 1.1820212E-17
41.48582 1.1825171E-17
41.61285 1.1829828E-17
41.73988 1.1833580E-17
41.86692 1.1836007E-17
41.99395 1.1836964E-17
42.12098 1.1836611E-17
42.24801 1.1835371E-17
42.37505 1.1833827E-17
42.50208 1.1832591E-17
42.62911 1.1832165E-17
42.75615 1.1832833E-17
42.88317 1.1834605E-17
43.01021 1.1837232E-17
43.13724 1.1840277E-17
43.26427 1.1843224E-17
43.39131 1.1845612E-17
43.51834 1.1847137E-17
43.64537 1.1847722E-17
43.77240 1.1847517E-17
43.89944 1.1846847E-17
44.02647 1.1846112E-17
44.15350 1.1845667E-17
44.28054 1.1845709E-17
44.40757 1.1846206E-17
44.53460 1.1846888E-17
44.66163 1.1847298E-17
44.78867 1.1846895E-17
44.91570 1.1845188E-17
45.04273 1.1841884E-17
45.16977 1.1836985E-17
45.29680 1.1830850E-17
45.42383 1.1824172E-17
45.55086 1.1817903E-17
45.67789 1.1813122E-17
45.80493 1.1810879E-17
45.93196 1.1812056E-17
46.05899 1.1817249E-17
46.18602 1.1826716E-17
46.31306 1.1840379E-17
46.44009 1.1857871E-17
46.56712 1.1878619E-17
46.69416 1.1901926E-17
46.82119 1.1927035E-17
46.94822 1.1953152E-17
47.07525 1.1979419E-17
47.20229 1.2004865E-17
47.32932 1.2028322E-17
47.45635 1.2048369E-17
47.58339 1.2063301E-17
47.71042 1.2071173E-17
47.83745 1.2069908E-17
47.96448 1.2057474E-17
48.09151 1.2032108E-17
48.21855 1.1992567E-17
48.34558 1.1938355E-17
48.47261 1.1869908E-17
48.59965 1.1788703E-17
48.72668 1.1697285E-17
48.85371 1.1599213E-17
48.98074 1.1498935E-17
49.10778 1.1401616E-17
49.23481 1.1312948E-17
49.36184 1.1238941E-17
49.48887 1.1185724E-17
49.61591 1.1159327E-17
49.74294 1.1165471E-17
49.86997 1.1209294E-17
49.99701 1.1295062E-17
50.12404 1.1425799E-17
50.25107 1.1602890E-17
50.37810 1.1825652E-17
50.50513 1.2090925E-17
50.63217 1.2392736E-17
50.75920 1.2722068E-17
50.88623 1.3066822E-17
51.01327 1.3411969E-17
51.14030 1.3739927E-17
51.26733 1.4031169E-17
51.39436 1.4265022E-17
51.52140 1.4420635E-17
51.64843 1.4478045E-17
51.77546 1.4419310E-17
51.90249 1.4229664E-17
52.02953 1.3898613E-17
52.15656 1.3420980E-17
52.28359 1.2797832E-17
52.41063 1.2037271E-17
52.53766 1.1155040E-17
52.66469 1.0174899E-17
52.79172 9.1287181E-18
52.91875 8.0562238E-18
53.04579 7.0043313E-18
53.17282 6.0260199E-18
53.29985 5.1787152E-18
53.42689 4.5221737E-18
53.55392 4.1159051E-18
53.68095 4.0162088E-18
53.80798 4.2729264E-18
53.93502 4.9260661E-18
54.06205 6.0024589E-18
54.18908 7.5126346E-18
54.31612 9.4480991E-18
54.44315 1.1779188E-17
54.57018 1.4453658E-17
54.69721 1.7396164E-17
54.82425 2.0508706E-17
54.95128 2.3672179E-17
55.07831 2.6749036E-17
55.20534 2.9587116E-17
55.33237 3.2024605E-17
55.45941 3.3896081E-17
55.58644 3.5039506E-17
55.71347 3.5304012E-17
55.84051 3.4558220E-17
55.96754 3.2698771E-17
56.09457 2.9658749E-17
56.22160 2.5415521E-17
56.34864 1.9997556E-17
56.47567 1.3489809E-17
56.60270 6.0371616E-18
56.72974 -2.1544347E-18
56.85677 -1.0819468E-17
56.98380 -1.9637245E-17
57.11083 -2.8239308E-17
57.23787 -3.6219867E-17
57.36490 -4.3149129E-17
57.49193 -4.8589277E-17
57.61897 -5.2112719E-17
57.74599 -5.3322031E-17
57.87303 -5.1870971E-17
58.00006 -4.7485795E-17
58.12709 -3.9985957E-17
58.25413 -2.9303270E-17
58.38116 -1.5498483E-17
58.50819 1.2257191E-18
58.63522 2.0516321E-17
58.76226 4.1867092E-17
58.88929 6.4621977E-17
59.01632 8.7985422E-17
59.14336 1.1103988E-16
59.27039 1.3277071E-16
59.39742 1.5209812E-16
59.52445 1.6791563E-16
59.65149 1.7913396E-16
59.77852 1.8472949E-16
59.90555 1.8379512E-16
60.03259 1.7559218E-16
60.15961 1.5960079E-16
60.28665 1.3556703E-16
60.41368 1.0354386E-16
60.54071 6.3923949E-17
60.66775 1.7461951E-17
60.79478 -3.4716059E-17
60.92181 -9.1117352E-17
61.04884 -1.4990336E-16
61.17588 -2.0892708E-16
61.30291 -2.6578758E-16
61.42994 -3.1790107E-16
61.55698 -3.6258743E-16
61.68401 -3.9717044E-16
61.81104 -4.1908861E-16
61.93807 -4.2601374E-16
62.06511 -4.1597232E-16
62.19214 -3.8746601E-16
62.31917 -3.3958522E-16
62.44621 -2.7211095E-16
62.57324 -1.8559883E-16
62.70027 -8.1440822E-17
62.82730 3.8101034E-17
62.95433 1.6989289E-16
63.08137 3.0996273E-16
63.20840 4.5357190E-16
63.33543 5.9532567E-16
63.46246 7.2932205E-16
63.58950 8.4933709E-16
63.71653 9.4904324E-16
63.84356 1.0222548E-15
63.97060 1.0631930E-15
64.09763 1.0667631E-15
64.22466 1.0288326E-15
64.35169 9.4649929E-16
64.47873 8.1833785E-16
64.60576 6.4461145E-16
64.73279 4.2743763E-16
64.85983 1.7089557E-16
64.98685 -1.1893420E-16
65.11389 -4.3400790E-16
65.24092 -7.6443929E-16
65.36796 -1.0987073E-15
65.49499 -1.4239515E-15
65.62202 -1.7263520E-15
65.74905 -1.9915852E-15
65.87608 -2.2053475E-15
66.00312 -2.3539319E-15
66.13015 -2.4248368E-15
66.25719 -2.4073890E-15
66.38422 -2.2933544E-15
66.51125 -2.0775137E-15
66.63828 -1.7581721E-15
66.76531 -1.3375789E-15
66.89235 -8.2223008E-16
67.01938 -2.2302812E-16
67.14641 4.4471755E-16
67.27345 1.1614688E-15
67.40047 1.9038260E-15
67.52751 2.6450840E-15
67.65454 3.3559782E-15
67.78158 4.0056048E-15
67.90861 4.5624972E-15
68.03564 4.9958287E-15
68.16267 5.2767048E-15
68.28970 5.3795037E-15
68.41674 5.2832117E-15
68.54377 4.9727009E-15
68.67081 4.4398930E-15
68.79784 3.6847462E-15
68.92487 2.7160164E-15
69.05190 1.5517311E-15
69.17893 2.1933746E-16
69.30597 -1.2445152E-15
69.43300 -2.7945872E-15
69.56004 -4.3780575E-15
69.68707 -5.9359362E-15
69.81409 -7.4048535E-15
69.94113 -8.7191894E-15
70.06816 -9.8134883E-15
70.19520 -1.0625088E-14
70.32223 -1.1096870E-14
70.44926 -1.1180043E-14
70.57629 -1.0836826E-14
70.70332 -1.0042947E-14
70.83036 -8.7898007E-15
70.95739 -7.0861785E-15
71.08443 -4.9594423E-15
71.21146 -2.4560580E-15
71.33849 3.5859730E-16
71.46552 3.4012081E-15
71.59255 6.5722980E-15
71.71959 9.7588182E-15
71.84662 1.2837497E-14
71.97366 1.5678900E-14
72.10069 1.8152065E-14
72.22771 2.0129621E-14
72.35475 2.1493151E-14
72.48178 2.2138688E-14
72.60882 2.1982045E-14
72.73585 2.0963820E-14
72.86288 1.9053786E-14
72.98991 1.6254491E-14
73.11694 1.2603802E-14
73.24398 8.1762405E-15
73.37101 3.0829526E-15
73.49805 -2.5298198E-15
73.62508 -8.4837931E-15
73.75211 -1.4573237E-14
73.87914 -2.0571049E-14
74.00617 -2.6236154E-14
74.13321 -3.1322055E-14
74.26024 -3.5586270E-14
74.38728 -3.8800319E-14
74.51431 -4.0759920E-14
74.64133 -4.1294984E-14
74.76837 -4.0278978E-14
74.89540 -3.7637231E-14
75.02244 -3.3353762E-14
75.14947 -2.7476233E-14
75.27650 -2.0118718E-14
75.40353 -1.1461945E-14
75.53056 -1.7508852E-15
75.65760 8.7104438E-15
75.78463 1.9566932E-14
75.91167 3.0422984E-14
76.03870 4.0855533E-14
76.16573 5.0429028E-14
76.29276 5.8712048E-14
76.41979 6.5294843E-14
76.54683 6.9807245E-14
76.67386 7.1936177E-14
76.80090 7.1442066E-14
76.92793 6.8173304E-14
77.05495 6.2078225E-14
77.18199 5.3213676E-14
77.30902 4.1749847E-14
77.43606 2.7970752E-14
77.56309 1.2270118E-14
77.69012 -4.8574760E-15
77.81715 -2.2830128E-14
77.94418 -4.0996578E-14
78.07122 -5.8658136E-14
78.19825 -7.5093957E-14
78.32529 -8.9588750E-14
78.45232 -1.0146203E-13
78.57935 -1.1009771E-13
78.70638 -1.1497292E-13
78.83341 -1.1568466E-13
78.96045 -1.1197325E-13
79.08748 -1.0374118E-13
79.21452 -9.1066504E-14
79.34155 -7.4209729E-14
79.46858 -5.3613648E-14
79.59561 -2.9895601E-14
79.72264 -3.8320347E-15
79.84968 2.3664288E-14
79.97671 5.1574149E-14
80.10374 7.8807823E-14
80.23077 1.0424589E-13
80.35780 1.2678376E-13
80.48484 1.4537790E-13
80.61187 1.5909222E-13
80.73891 1.6714249E-13
80.86594 1.6893689E-13
80.99297 1.6411067E-13
81.12000 1.5255332E-13
81.24703 1.3442634E-13
81.37407 1.1017080E-13
81.50110 8.0503346E-14
81.62814 4.6400424E-14
81.75517 9.0706929E-15
81.88220 -3.0083940E-14
82.00923 -6.9517437E-14
82.13626 -1.0759763E-13
82.26330 -1.4267100E-13
82.39033 -1.7313168E-13
82.51736 -1.9749232E-13
82.64439 -2.1445358E-13
82.77143 -2.2296940E-13
82.89846 -2.2230476E-13
83.02549 -2.1208346E-13
83.15253 -1.9232283E-13
83.27956 -1.6345364E-13
83.40659 -1.2632297E-13
83.53362 -8.2179726E-14
83.66065 -3.2641699E-14
83.78769 2.0354984E-14
83.91472 7.4622979E-14
84.04176 1.2780524E-13
84.16879 1.7746866E-13
84.29582 2.2120597E-13
84.42285 2.5674249E-13
84.54988 2.8204256E-13
84.67692 2.9541248E-13
84.80395 2.9559333E-13
84.93098 2.8184147E-13
85.05801 2.5399032E-13
85.18505 2.1249118E-13
85.31208 1.5842963E-13
85.43911 9.3515114E-14
85.56615 2.0043439E-14
85.69318 -5.9168639E-14
85.82021 -1.4087500E-13
85.94724 -2.2151551E-13
86.07427 -2.9735201E-13
86.20131 -3.6461985E-13
86.32834 -4.1968929E-13
86.45538 -4.5923139E-13
86.58241 -4.8038022E-13
86.70944 -4.8088551E-13
86.83647 -4.5924771E-13
86.96350 -4.1482974E-13
87.09054 -3.4793845E-13
87.21757 -2.5987079E-13
87.34460 -1.5292162E-13
87.47163 -3.0348750E-14
87.59867 1.0370357E-13
87.72570 2.4432385E-13
87.85273 3.8599126E-13
87.97977 5.2276879E-13
88.10680 6.4852512E-13
88.23383 7.5717790E-13
88.36086 8.4294957E-13
88.48790 9.0062533E-13
88.61493 9.2580316E-13
88.74196 9.1512529E-13
88.86900 8.6647941E-13
88.99603 7.7916178E-13
89.12306 6.5399064E-13
89.25009 4.9336490E-13
89.37712 3.0126097E-13
89.50416 8.3166411E-14
89.63119 -1.5405316E-13
89.75822 -4.0234938E-13
89.88525 -6.5274533E-13
90.01229 -8.9564153E-13
90.13932 -1.1211639E-12
90.26635 -1.3195425E-12
90.39339 -1.4815039E-12
90.52042 -1.5986681E-12
90.64745 -1.6639288E-12
90.77448 -1.6718027E-12
90.90152 -1.6187337E-12
91.02855 -1.5033336E-12
91.15558 -1.3265508E-12
91.28262 -1.0917530E-12
91.40965 -8.0471702E-13
91.53668 -4.7352530E-13
91.66371 -1.0836038E-13
91.79075 2.7878980E-13
91.91778 6.7451573E-13
92.04481 1.0644446E-12
92.17184 1.4337587E-12
92.29887 1.7677575E-12
92.42591 2.0524394E-12
92.55294 2.2750870E-12
92.67997 2.4248240E-12
92.80701 2.4931288E-12
92.93404 2.4742738E-12
93.06107 2.3656773E-12
93.18810 2.1681415E-12
93.31514 1.8859714E-12
93.44217 1.5269523E-12
93.56920 1.1021910E-12
93.69624 6.2581635E-13
93.82327 1.1454233E-13
93.95030 -4.1288994E-13
94.07733 -9.3637880E-13
94.20437 -1.4352114E-12
94.33140 -1.8888727E-12
94.45843 -2.2778827E-12
94.58546 -2.5846289E-12
94.71249 -2.7941605E-12
94.83953 -2.8949122E-12
94.96656 -2.8793211E-12
95.09360 -2.7443115E-12
95.22063 -2.4916193E-12
95.34766 -2.1279350E-12
95.47469 -1.6648558E-12
95.60172 -1.1186308E-12
95.72876 -5.0971109E-13
95.85579 1.3789450E-13
95.98282 7.9743720E-13
96.10986 1.4403958E-12
96.23689 2.0375624E-12
96.36392 2.5602023E-12
96.49095 2.9812600E-12
96.61799 3.2765481E-12
96.74502 3.4258776E-12
96.87205 3.4140895E-12
96.99908 3.2319280E-12
97.12611 2.8767266E-12
97.25315 2.3528605E-12
97.38018 1.6719469E-12
97.50722 8.5276496E-13
97.63425 -7.9105539E-14
97.76128 -1.0919320E-12
97.88831 -2.1487484E-12
98.01534 -3.2085183E-12
98.14238 -4.2275142E-12
98.26941 -5.1608600E-12
98.39645 -5.9641957E-12
98.52348 -6.5953961E-12
98.65051 -7.0162830E-12
98.77754 -7.1942630E-12
98.90457 -7.1038275E-12
99.03161 -6.7278652E-12
99.15864 -6.0586904E-12
99.28567 -5.0987942E-12
99.41270 -3.8612416E-12
99.53973 -2.3696873E-12
99.66677 -6.5802013E-13
99.79380 1.2303816E-12
99.92084 3.2437720E-12
100.0479 5.3234782E-12
100.1749 7.4056533E-12
100.3019 9.4232573E-12
100.4290 1.1308211E-11
100.5560 1.2993651E-11
100.6830 1.4416190E-11
100.8101 1.5518118E-11
100.9371 1.6249443E-11
101.0641 1.6569704E-11
101.1912 1.6449508E-11
101.3182 1.5871667E-11
101.4452 1.4831938E-11
101.5723 1.3339349E-11
101.6993 1.1416037E-11
101.8263 9.0966453E-12
101.9534 6.4272910E-12
102.0804 3.4641181E-12
102.2074 2.7154711E-13
102.3345 -3.0797916E-12
102.4615 -6.5152627E-12
102.5885 -9.9585678E-12
102.7156 -1.3334086E-11
102.8426 -1.6569083E-11
102.9696 -1.9595785E-11
103.0966 -2.2353126E-11
103.2237 -2.4788199E-11
103.3507 -2.6857240E-11
103.4777 -2.8526218E-11
103.6048 -2.9770887E-11
103.7318 -3.0576427E-11
103.8588 -3.0936597E-11
103.9859 -3.0852480E-11
104.1129 -3.0330922E-11
104.2399 -2.9382694E-11
104.3670 -2.8020520E-11
104.4940 -2.6257090E-11
104.6210 -2.4103127E-11
104.7481 -2.1565741E-11
104.8751 -1.8647079E-11
105.0021 -1.5343444E-11
105.1292 -1.1645026E-11
105.2562 -7.5361913E-12
105.3832 -2.9965316E-12
105.5103 1.9973951E-12
105.6373 7.4695979E-12
105.7643 1.3441541E-11
105.8914 1.9928399E-11
106.0184 2.6934928E-11
106.1454 3.4450900E-11
106.2725 4.2446501E-11
106.3995 5.0867713E-11
106.5265 5.9632056E-11
106.6536 6.8624779E-11
106.7806 7.7695940E-11
106.9076 8.6658333E-11
107.0347 9.5286772E-11
107.1617 1.0331882E-10
107.2887 1.1045696E-10
107.4158 1.1637274E-10
107.5428 1.2071247E-10
107.6698 1.2310489E-10
107.7969 1.2317061E-10
107.9239 1.2053315E-10
108.0509 1.1483155E-10
108.1780 1.0573412E-10
108.3050 9.2953277E-11
108.4320 7.6260741E-11
108.5591 5.5502984E-11
108.6861 3.0616308E-11
108.8131 1.6410247E-12
108.9402 -3.1265716E-11
109.0672 -6.7819056E-11
109.1942 -1.0759803E-10
109.3213 -1.5004016E-10
109.4483 -1.9443942E-10
109.5753 -2.3994820E-10
109.7023 -2.8558328E-10
109.8294 -3.3023639E-10
109.9564 -3.7268946E-10
110.0834 -4.1163414E-10
110.2105 -4.4569617E-10
110.3375 -4.7346405E-10
110.4645 -4.9352133E-10
110.5916 -5.0448296E-10
110.7186 -5.0503352E-10
110.8456 -4.9396870E-10
110.9727 -4.7023696E-10
111.0997 -4.3298201E-10
111.2267 -3.8158413E-10
111.3538 -3.1569983E-10
111.4808 -2.3529806E-10
111.6078 -1.4069250E-10
111.7349 -3.2568059E-11
111.8619 8.7999052E-11
111.9889 2.1952896E-10
112.1160 3.6013442E-10
112.2430 5.0752635E-10
112.3700 6.5902950E-10
112.4971 8.1160911E-10
112.6241 9.6190755E-10
112.7511 1.1062928E-09
112.8782 1.2409166E-09
113.0052 1.3617831E-09
113.1322 1.4648278E-09
113.2593 1.5460028E-09
113.3863 1.6013707E-09
113.5133 1.6272043E-09
113.6404 1.6200878E-09
113.7674 1.5770227E-09
113.8944 1.4955299E-09
114.0215 1.3737517E-09
114.1485 1.2105460E-09
114.2755 1.0055751E-09
114.4026 7.5938106E-10
114.5296 4.7345072E-10
114.6566 1.5026311E-10
114.7837 -2.0667933E-10
114.9107 -5.9284000E-10
115.0377 -1.0026592E-09
115.1647 -1.4295870E-09
115.2918 -1.8661412E-09
115.4188 -2.3039897E-09
115.5459 -2.7340561E-09
115.6729 -3.1466516E-09
115.7999 -3.5316292E-09
115.9269 -3.8785579E-09
116.0540 -4.1769193E-09
116.1810 -4.4163202E-09
116.3080 -4.5867172E-09
116.4351 -4.6786526E-09
116.5621 -4.6834967E-09
116.6891 -4.5936908E-09
116.8162 -4.4029846E-09
116.9432 -4.1066683E-09
117.0702 -3.7017840E-09
117.1973 -3.1873262E-09
117.3243 -2.5644096E-09
117.4513 -1.8364100E-09
117.5784 -1.0090692E-09
117.7054 -9.0560351E-11
117.8324 9.0849117E-10
117.9595 1.9750330E-09
118.0865 3.0936638E-09
118.2135 4.2467589E-09
118.3406 5.4146523E-09
118.4676 6.5758701E-09
118.5946 7.7074160E-09
118.7217 8.7851051E-09
118.8487 9.7839479E-09
118.9757 1.0678568E-08
119.1028 1.1443667E-08
119.2298 1.2054512E-08
119.3568 1.2487443E-08
119.4839 1.2720406E-08
119.6109 1.2733476E-08
119.7379 1.2509387E-08
119.8650 1.2034037E-08
119.9920 1.1296975E-08
120.1190 1.0291843E-08
120.2461 9.0167784E-09
120.3731 7.4747453E-09
120.5001 5.6738148E-09
120.6272 3.6273484E-09
120.7542 1.3541080E-09
120.8812 -1.1217336E-09
121.0083 -3.7706802E-09
121.1353 -6.5581047E-09
121.2623 -9.4445474E-09
121.3894 -1.2386120E-08
121.5164 -1.5335017E-08
121.6434 -1.8240131E-08
121.7704 -2.1047761E-08
121.8975 -2.3702400E-08
122.0245 -2.6147630E-08
122.1516 -2.8327046E-08
122.2786 -3.0185262E-08
122.4056 -3.1668932E-08
122.5326 -3.2727801E-08
122.6597 -3.3315754E-08
122.7867 -3.3391853E-08
122.9137 -3.2921303E-08
123.0408 -3.1876411E-08
123.1678 -3.0237423E-08
123.2948 -2.7993272E-08
123.4219 -2.5142219E-08
123.5489 -2.1692356E-08
123.6759 -1.7661961E-08
123.8030 -1.3079682E-08
123.9300 -7.9845677E-09
124.0570 -2.4259139E-09
124.1841 3.5370760E-09
124.3111 9.8357988E-09
124.4381 1.6392955E-08
124.5652 2.3123398E-08
124.6922 2.9935180E-08
124.8192 3.6730690E-08
124.9463 4.3407990E-08
125.0733 4.9862216E-08
125.2003 5.5987062E-08
125.3274 6.1676374E-08
125.4544 6.6825756E-08
125.5814 7.1334149E-08
125.7085 7.5105497E-08
125.8355 7.8050256E-08
125.9625 8.0086949E-08
126.0896 8.1143497E-08
126.2166 8.1158568E-08
126.3436 8.0082707E-08
126.4707 7.7879292E-08
126.5977 7.4525396E-08
126.7247 7.0012376E-08
126.8518 6.4346338E-08
126.9788 5.7548352E-08
127.1058 4.9654510E-08
127.2329 4.0715733E-08
127.3599 3.0797452E-08
127.4869 1.9979042E-08
127.6140 8.3531466E-09
127.7410 -3.9751864E-09
127.8680 -1.6889466E-08
127.9950 -3.0262850E-08
128.1221 -4.3959329E-08
128.2491 -5.7834921E-08
128.3761 -7.1738953E-08
128.5032 -8.5515325E-08
128.6302 -9.9003778E-08
128.7572 -1.1204106E-07
128.8843 -1.2446209E-07
129.0113 -1.3610108E-07
129.1383 -1.4679242E-07
129.2654 -1.5637156E-07
129.3924 -1.6467575E-07
129.5194 -1.7154470E-07
129.6465 -1.7682088E-07
129.7735 -1.8035003E-07
129.9005 -1.8198128E-07
130.0276 -1.8156723E-07
130.1546 -1.7896397E-07
130.2816 -1.7403092E-07
130.4087 -1.6663067E-07
130.5357 -1.5662866E-07
130.6627 -1.4389299E-07
130.7898 -1.2829396E-07
130.9168 -1.0970390E-07
131.0438 -8.7996746E-08
131.1709 -6.3047906E-08
131.2979 -3.4734001E-08
131.4249 -2.9327807E-09
131.5520 3.2476880E-08
131.6790 7.1614927E-08
131.8060 1.1459991E-07
131.9331 1.6154870E-07
132.0601 2.1257610E-07
132.1871 2.6779429E-07
132.3142 3.2731222E-07
132.4412 3.9123501E-07
132.5682 4.5966311E-07
132.6953 5.3269144E-07
132.8223 6.1040885E-07
132.9493 6.9289689E-07
133.0764 7.8022924E-07
133.2034 8.7247099E-07
133.3304 9.6967756E-07
133.4575 1.0718945E-06
133.5845 1.1791565E-06
133.7115 1.2914876E-06
133.8385 1.4088999E-06
133.9656 1.5313943E-06
134.0926 1.6589599E-06
134.2197 1.7915739E-06
134.3467 1.9292022E-06
134.4737 2.0717987E-06
134.6008 2.2193062E-06
134.7278 2.3716568E-06
134.8548 2.5287716E-06
134.9818 2.6905609E-06
135.1089 2.8569241E-06
135.2359 3.0277506E-06
135.3629 3.2029182E-06
135.4900 3.3822935E-06
135.6170 3.5657313E-06
135.7440 3.7530733E-06
135.8711 3.9441479E-06
135.9981 4.1387671E-06
136.1251 4.3367259E-06
136.2522 4.5378006E-06
136.3792 4.7417452E-06
136.5062 4.9482901E-06
136.6333 5.1571396E-06
136.7603 5.3679673E-06
136.8873 5.5804157E-06
137.0144 5.7940933E-06
137.1414 6.0085686E-06
137.2684 6.2233712E-06
137.3955 6.4379888E-06
137.5225 6.6518637E-06
137.6495 6.8643940E-06
137.7766 7.0749302E-06
137.9036 7.2827770E-06
138.0306 7.4871928E-06
138.1577 7.6873930E-06
138.2847 7.8825478E-06
138.4117 8.0717937E-06
138.5388 8.2542283E-06
138.6658 8.4289231E-06
138.7928 8.5949214E-06
138.9199 8.7512562E-06
139.0469 8.8969482E-06
139.1739 9.0310205E-06
139.3009 9.1525035E-06
139.4280 9.2604496E-06
139.5550 9.3539411E-06
139.6821 9.4320994E-06
139.8091 9.4940988E-06
139.9361 9.5391724E-06
140.0632 9.5666283E-06
140.1902 9.5758560E-06
140.3172 9.5663345E-06
140.4442 9.5376454E-06
140.5713 9.4894749E-06
140.6983 9.4216257E-06
140.8253 9.3340177E-06
140.9524 9.2266955E-06
141.0794 9.0998292E-06
141.2065 8.9537152E-06
141.3335 8.7887756E-06
141.4605 8.6055561E-06
141.5875 8.4047242E-06
141.7146 8.1870603E-06
141.8416 7.9534557E-06
141.9686 7.7049026E-06
142.0957 7.4424865E-06
142.2227 7.1673776E-06
142.3497 6.8808176E-06
142.4768 6.5841132E-06
142.6038 6.2786203E-06
142.7308 5.9657364E-06
142.8579 5.6468871E-06
142.9849 5.3235158E-06
143.1119 4.9970722E-06
143.2390 4.6690020E-06
143.3660 4.3407385E-06
143.4930 4.0136920E-06
143.6201 3.6892436E-06
143.7471 3.3687356E-06
143.8741 3.0534663E-06
144.0012 2.7446845E-06
144.1282 2.4435851E-06
144.2552 2.1513040E-06
144.3823 1.8689161E-06
144.5093 1.5974307E-06
144.6363 1.3377904E-06
144.7634 1.0908699E-06
144.8904 8.5747308E-07
145.0174 6.3833119E-07
145.1445 4.3410267E-07
145.2715 2.4536985E-07
145.3985 7.2638741E-08
145.5256 -8.3664055E-08
145.6526 -2.2319276E-07
145.7796 -3.4568512E-07
145.9066 -4.5096547E-07
146.0337 -5.3894655E-07
146.1607 -6.0963362E-07
146.2878 -6.6312651E-07
146.4148 -6.9962283E-07
146.5418 -7.1942037E-07
146.6689 -7.2291772E-07
146.7959 -7.1061726E-07
146.9229 -6.8312454E-07
147.0499 -6.4114766E-07
147.1770 -5.8549585E-07
147.3040 -5.1707667E-07
147.4310 -4.3689155E-07
147.5581 -3.4602976E-07
147.6851 -2.4566171E-07
147.8121 -1.3703040E-07
