-4.500000 -1.0228143E-18
-4.372967 -1.0342036E-18
-4.245934 -1.0555960E-18
-4.118902 -1.0846240E-18
-3.991869 -1.1182309E-18
-3.864837 -1.1530454E-18
-3.737804 -1.1857981E-18
-3.610771 -1.2137187E-18
-3.483739 -1.2348694E-18
-3.356706 -1.2483689E-18
-3.229674 -1.2544815E-18
-3.102641 -1.2545569E-18
-2.975608 -1.2508305E-18
-2.848576 -1.2461120E-18
-2.721543 -1.2433992E-18
-2.594510 -1.2454711E-18
-2.467478 -1.2545091E-18
-2.340445 -1.2717971E-18
-2.213412 -1.2975405E-18
-2.086380 -1.3308250E-18
-1.959347 -1.3697211E-18
-1.832314 -1.4115254E-18
-1.705282 -1.4530988E-18
-1.578249 -1.4912657E-18
-1.451216 -1.5232220E-18
-1.324184 -1.5468927E-18
-1.197151 -1.5612001E-18
-1.070119 -1.5662071E-18
-0.9430859 -1.5631089E-18
-0.8160533 -1.5540869E-18
-0.6890206 -1.5420314E-18
-0.5619880 -1.5301777E-18
-0.4349554 -1.5216953E-18
-0.3079227 -1.5192880E-18
-0.1808901 -1.5248522E-18
-5.3857423E-02 -1.5392443E-18
7.3175222E-02 -1.5621736E-18
0.2002079 -1.5922495E-18
0.3272405 -1.6271660E-18
0.4542732 -1.6640038E-18
0.5813058 -1.6996085E-18
0.7083384 -1.7310010E-18
0.8353711 -1.7557601E-18
0.9624037 -1.7723343E-18
1.089436 -1.7802395E-18
1.216469 -1.7801216E-18
1.343502 -1.7736673E-18
1.470534 -1.7633882E-18
1.597567 -1.7522938E-18
1.724600 -1.7435063E-18
1.851632 -1.7398549E-18
1.978665 -1.7435135E-18
2.105698 -1.7557190E-18
2.232730 -1.7766111E-18
2.359763 -1.8052111E-18
2.486795 -1.8395455E-18
2.613828 -1.8768916E-18
2.740861 -1.9141243E-18
2.867893 -1.9481106E-18
2.994926 -1.9761072E-18
3.121959 -1.9961094E-18
3.248991 -2.0071054E-18
3.376024 -2.0092064E-18
3.503057 -2.0036324E-18
3.630089 -1.9925557E-18
3.757122 -1.9788251E-18
3.884155 -1.9655991E-18
4.011187 -1.9559416E-18
4.138220 -1.9524236E-18
4.265253 -1.9567923E-18
4.392285 -1.9697420E-18
4.519318 -1.9908196E-18
4.646350 -2.0184818E-18
4.773383 -2.0502912E-18
4.900416 -2.0832304E-18
5.027448 -2.1140923E-18
5.154481 -2.1398968E-18
5.281514 -2.1582813E-18
5.408546 -2.1678071E-18
5.535579 -2.1681492E-18
5.662611 -2.1601423E-18
5.789644 -2.1456728E-18
5.916677 -2.1274347E-18
6.043710 -2.1085835E-18
6.170742 -2.0923265E-18
6.297775 -2.0815096E-18
6.424808 -2.0782530E-18
6.551840 -2.0836814E-18
6.678873 -2.0977836E-18
6.805905 -2.1194220E-18
6.932938 -2.1464851E-18
7.059971 -2.1761672E-18
7.187003 -2.2053344E-18
7.314036 -2.2309328E-18
7.441069 -2.2503817E-18
7.568101 -2.2619043E-18
7.695134 -2.2647556E-18
7.822166 -2.2593144E-18
7.949199 -2.2470303E-18
8.076232 -2.2302365E-18
8.203264 -2.2118456E-18
8.330297 -2.1949773E-18
8.457330 -2.1825537E-18
8.584362 -2.1769253E-18
8.711395 -2.1795661E-18
8.838428 -2.1908807E-18
8.965461 -2.2101490E-18
9.092493 -2.2356095E-18
9.219525 -2.2646793E-18
9.346559 -2.2942764E-18
9.473591 -2.3212082E-18
9.600623 -2.3425761E-18
9.727656 -2.3561419E-18
9.854689 -2.3606144E-18
9.981722 -2.3558180E-18
10.10875 -2.3427159E-18
10.23579 -2.3232943E-18
10.36282 -2.3003090E-18
10.48985 -2.2769408E-18
10.61689 -2.2563897E-18
10.74392 -2.2414671E-18
10.87095 -2.2342396E-18
10.99798 -2.2357668E-18
11.12502 -2.2459680E-18
11.25205 -2.2636387E-18
11.37908 -2.2866080E-18
11.50611 -2.3120285E-18
11.63315 -2.3367449E-18
11.76018 -2.3577067E-18
11.88721 -2.3723643E-18
12.01424 -2.3789994E-18
12.14128 -2.3769451E-18
12.26831 -2.3666675E-18
12.39534 -2.3497031E-18
12.52237 -2.3284520E-18
12.64941 -2.3058658E-18
12.77644 -2.2850622E-18
12.90347 -2.2689244E-18
13.03051 -2.2597305E-18
13.15754 -2.2588659E-18
13.28457 -2.2666490E-18
13.41160 -2.2822993E-18
13.53864 -2.3040415E-18
13.66567 -2.3293398E-18
13.79270 -2.3552235E-18
13.91973 -2.3786664E-18
14.04677 -2.3969709E-18
14.17380 -2.4081091E-18
14.30083 -2.4109765E-18
14.42786 -2.4055299E-18
14.55490 -2.3927920E-18
14.68193 -2.3747204E-18
14.80896 -2.3539631E-18
14.93600 -2.3335286E-18
15.06303 -2.3164031E-18
15.19006 -2.3051795E-18
15.31709 -2.3017268E-18
15.44413 -2.3069515E-18
15.57116 -2.3206759E-18
15.69819 -2.3416528E-18
15.82522 -2.3677150E-18
15.95226 -2.3960424E-18
16.07929 -2.4235133E-18
16.20632 -2.4470995E-18
16.33335 -2.4642521E-18
16.46039 -2.4732314E-18
16.58742 -2.4733343E-18
16.71445 -2.4649933E-18
16.84148 -2.4497245E-18
16.96852 -2.4299369E-18
17.09555 -2.4086230E-18
17.22258 -2.3889669E-18
17.34962 -2.3739275E-18
17.47665 -2.3658466E-18
17.60368 -2.3661394E-18
17.73071 -2.3751031E-18
17.85775 -2.3918792E-18
17.98478 -2.4145667E-18
18.11181 -2.4404771E-18
18.23884 -2.4664927E-18
18.36588 -2.4894855E-18
18.49291 -2.5067334E-18
18.61994 -2.5162847E-18
18.74697 -2.5172130E-18
18.87401 -2.5097390E-18
19.00104 -2.4951984E-18
19.12807 -2.4758608E-18
19.25510 -2.4546277E-18
19.38214 -2.4346535E-18
19.50917 -2.4189321E-18
19.63620 -2.4099134E-18
19.76324 -2.4091939E-18
19.89027 -2.4173175E-18
20.01730 -2.4337194E-18
20.14433 -2.4568056E-18
20.27137 -2.4841654E-18
20.39840 -2.5128831E-18
20.52543 -2.5399106E-18
20.65246 -2.5624475E-18
20.77950 -2.5782907E-18
20.90653 -2.5861045E-18
21.03356 -2.5855790E-18
21.16059 -2.5774617E-18
21.28763 -2.5634584E-18
21.41466 -2.5460144E-18
21.54169 -2.5280060E-18
21.66872 -2.5123781E-18
21.79576 -2.5017707E-18
21.92279 -2.4981860E-18
22.04982 -2.5027274E-18
22.17686 -2.5154556E-18
22.30389 -2.5353681E-18
22.43092 -2.5605188E-18
22.55795 -2.5882537E-18
22.68499 -2.6155457E-18
22.81202 -2.6393780E-18
22.93905 -2.6571347E-18
23.06608 -2.6669469E-18
23.19312 -2.6679447E-18
23.32015 -2.6603837E-18
23.44718 -2.6456272E-18
23.57421 -2.6259823E-18
23.70125 -2.6044071E-18
23.82828 -2.5841321E-18
23.95531 -2.5682353E-18
24.08235 -2.5592404E-18
24.20938 -2.5587794E-18
24.33641 -2.5673728E-18
24.46344 -2.5843604E-18
24.59048 -2.6079834E-18
24.71751 -2.6356170E-18
24.84454 -2.6641159E-18
24.97157 -2.6902314E-18
25.09861 -2.7110377E-18
25.22564 -2.7243150E-18
25.35267 -2.7288409E-18
25.47970 -2.7245435E-18
25.60674 -2.7125043E-18
25.73377 -2.6948122E-18
25.86080 -2.6742869E-18
25.98783 -2.6541093E-18
26.11487 -2.6374112E-18
26.24190 -2.6268752E-18
26.36893 -2.6243928E-18
26.49597 -2.6308322E-18
26.62300 -2.6459324E-18
26.75003 -2.6683442E-18
26.87706 -2.6958027E-18
27.00410 -2.7254168E-18
27.13113 -2.7540329E-18
27.25816 -2.7786281E-18
27.38519 -2.7966865E-18
27.51223 -2.8065093E-18
27.63926 -2.8074266E-18
27.76629 -2.7998794E-18
27.89332 -2.7853640E-18
28.02036 -2.7662454E-18
28.14739 -2.7454606E-18
28.27442 -2.7261499E-18
28.40145 -2.7112580E-18
28.52849 -2.7031607E-18
28.65552 -2.7033549E-18
28.78255 -2.7122657E-18
28.90959 -2.7291801E-18
29.03662 -2.7523347E-18
29.16365 -2.7791385E-18
29.29068 -2.8065037E-18
29.41772 -2.8312475E-18
29.54475 -2.8505103E-18
29.67178 -2.8621353E-18
29.79881 -2.8649591E-18
29.92585 -2.8589719E-18
30.05288 -2.8453293E-18
30.17991 -2.8262042E-18
30.30694 -2.8045062E-18
30.43398 -2.7835045E-18
30.56101 -2.7663976E-18
30.68804 -2.7558955E-18
30.81507 -2.7538652E-18
30.94211 -2.7610904E-18
31.06914 -2.7771706E-18
31.19617 -2.8005821E-18
31.32321 -2.8288783E-18
31.45024 -2.8590112E-18
31.57727 -2.8877268E-18
31.70430 -2.9119810E-18
31.83134 -2.9293226E-18
31.95837 -2.9381962E-18
32.08540 -2.9381234E-18
32.21243 -2.9297455E-18
32.33947 -2.9147229E-18
32.46650 -2.8955093E-18
32.59353 -2.8750269E-18
32.72057 -2.8562898E-18
32.84760 -2.8420205E-18
32.97463 -2.8343098E-18
33.10166 -2.8343559E-18
33.22869 -2.8423214E-18
33.35573 -2.8573201E-18
33.48276 -2.8775320E-18
33.60979 -2.9004410E-18
33.73683 -2.9231535E-18
33.86386 -2.9427693E-18
33.99089 -2.9567563E-18
34.11792 -2.9632817E-18
34.24496 -2.9614559E-18
34.37199 -2.9514679E-18
34.49902 -2.9345791E-18
34.62605 -2.9129858E-18
34.75309 -2.8895584E-18
34.88012 -2.8674923E-18
35.00715 -2.8499096E-18
35.13419 -2.8394614E-18
35.26122 -2.8379897E-18
35.38825 -2.8462822E-18
35.51528 -2.8639600E-18
35.64231 -2.8895216E-18
35.76935 -2.9205245E-18
35.89638 -2.9538990E-18
36.02341 -2.9863410E-18
36.15045 -3.0147408E-18
36.27748 -3.0365850E-18
36.40451 -3.0502821E-18
36.53154 -3.0553614E-18
36.65858 -3.0525221E-18
36.78561 -3.0435259E-18
36.91264 -3.0309442E-18
37.03968 -3.0177997E-18
37.16671 -3.0071458E-18
37.29374 -3.0016484E-18
37.42077 -3.0032163E-18
37.54781 -3.0127436E-18
37.67484 -3.0299835E-18
37.80187 -3.0535780E-18
37.92890 -3.0812317E-18
38.05593 -3.1100136E-18
38.18297 -3.1367340E-18
38.31000 -3.1583536E-18
38.43703 -3.1723750E-18
38.56407 -3.1771569E-18
38.69110 -3.1721198E-18
38.81813 -3.1578178E-18
38.94516 -3.1358686E-18
39.07220 -3.1087507E-18
39.19923 -3.0794971E-18
39.32626 -3.0513196E-18
39.45330 -3.0272168E-18
39.58033 -3.0096082E-18
39.70736 -3.0000406E-18
39.83439 -2.9990022E-18
39.96143 -3.0058738E-18
40.08846 -3.0190086E-18
40.21549 -3.0359508E-18
40.34253 -3.0537550E-18
40.46955 -3.0693693E-18
40.59659 -3.0800384E-18
40.72362 -3.0836751E-18
40.85065 -3.0791482E-18
40.97769 -3.0664497E-18
41.10472 -3.0467229E-18
41.23175 -3.0221319E-18
41.35878 -2.9955984E-18
41.48582 -2.9704329E-18
41.61285 -2.9499058E-18
41.73988 -2.9368146E-18
41.86692 -2.9331097E-18
41.99395 -2.9396297E-18
42.12098 -2.9559744E-18
42.24801 -2.9805497E-18
42.37505 -3.0107693E-18
42.50208 -3.0433894E-18
42.62911 -3.0749372E-18
42.75615 -3.1021655E-18
42.88317 -3.1224794E-18
43.01021 -3.1342761E-18
43.13724 -3.1371472E-18
43.26427 -3.1319194E-18
43.39131 -3.1205339E-18
43.51834 -3.1057735E-18
43.64537 -3.0908859E-18
43.77240 -3.0791455E-18
43.89944 -3.0734229E-18
44.02647 -3.0758101E-18
44.15350 -3.0873542E-18
44.28054 -3.1079287E-18
44.40757 -3.1362615E-18
44.53460 -3.1701050E-18
44.66163 -3.2065249E-18
44.78867 -3.2422736E-18
44.91570 -3.2741918E-18
45.04273 -3.2995939E-18
45.16977 -3.3165896E-18
45.29680 -3.3243018E-18
45.42383 -3.3229574E-18
45.55086 -3.3138450E-18
45.67789 -3.2991427E-18
45.80493 -3.2816383E-18
45.93196 -3.2643802E-18
46.05899 -3.2502952E-18
46.18602 -3.2418186E-18
46.31306 -3.2405878E-18
46.44009 -3.2472282E-18
46.56712 -3.2612650E-18
46.69416 -3.2811720E-18
46.82119 -3.3045526E-18
46.94822 -3.3284377E-18
47.07525 -3.3496627E-18
47.20229 -3.3652768E-18
47.32932 -3.3729396E-18
47.45635 -3.3712418E-18
47.58339 -3.3599214E-18
47.71042 -3.3399289E-18
47.83745 -3.3133348E-18
47.96448 -3.2830931E-18
48.09151 -3.2526787E-18
48.21855 -3.2256524E-18
48.34558 -3.2052084E-18
48.47261 -3.1937659E-18
48.59965 -3.1926589E-18
48.72668 -3.2019725E-18
48.85371 -3.2205446E-18
48.98074 -3.2461400E-18
49.10778 -3.2757653E-18
49.23481 -3.3060910E-18
49.36184 -3.3339167E-18
49.48887 -3.3566193E-18
49.61591 -3.3725171E-18
49.74294 -3.3811105E-18
49.86997 -3.3831555E-18
49.99701 -3.3805697E-18
50.12404 -3.3761784E-18
50.25107 -3.3733319E-18
50.37810 -3.3754486E-18
50.50513 -3.3855378E-18
50.63217 -3.4057576E-18
50.75920 -3.4370630E-18
50.88623 -3.4789814E-18
51.01327 -3.5295362E-18
51.14030 -3.5853267E-18
51.26733 -3.6417532E-18
51.39436 -3.6933507E-18
51.52140 -3.7342084E-18
51.64843 -3.7584175E-18
51.77546 -3.7605128E-18
51.90249 -3.7358727E-18
52.02953 -3.6810352E-18
52.15656 -3.5939269E-18
52.28359 -3.4739923E-18
52.41063 -3.3222291E-18
52.53766 -3.1411551E-18
52.66469 -2.9347254E-18
52.79172 -2.7082340E-18
52.91875 -2.4682290E-18
53.04579 -2.2224569E-18
53.17282 -1.9798520E-18
53.29985 -1.7505646E-18
53.42689 -1.5460042E-18
53.55392 -1.3788641E-18
53.68095 -1.2630802E-18
53.80798 -1.2136590E-18
53.93502 -1.2463293E-18
54.06205 -1.3769615E-18
54.18908 -1.6207324E-18
54.31612 -1.9910295E-18
54.44315 -2.4981204E-18
54.57018 -3.1476462E-18
54.69721 -3.9390423E-18
54.82425 -4.8639912E-18
54.95128 -5.9050530E-18
55.07831 -7.0346334E-18
55.20534 -8.2143998E-18
55.33237 -9.3952985E-18
55.45941 -1.0518262E-17
55.58644 -1.1515657E-17
55.71347 -1.2313498E-17
55.84051 -1.2834390E-17
55.96754 -1.3001126E-17
56.09457 -1.2740833E-17
56.22160 -1.1989480E-17
56.34864 -1.0696598E-17
56.47567 -8.8299843E-18
56.60270 -6.3801624E-18
56.72974 -3.3643861E-18
56.85677 1.7007358E-19
56.98380 4.1435685E-18
57.11083 8.4428894E-18
57.23787 1.2921432E-17
57.36490 1.7400911E-17
57.49193 2.1674754E-17
57.61897 2.5513304E-17
57.74599 2.8670795E-17
57.87303 3.0894150E-17
58.00006 3.1933440E-17
58.12709 3.1553767E-17
58.25413 2.9548334E-17
58.38116 2.5752190E-17
58.50819 2.0056218E-17
58.63522 1.2420645E-17
58.76226 2.8874594E-18
58.88929 -8.4090643E-18
59.01632 -2.1234580E-17
59.14336 -3.5250308E-17
59.27039 -5.0012968E-17
59.39742 -6.4979484E-17
59.52445 -7.9517197E-17
59.65149 -9.2919594E-17
59.77852 -1.0442793E-16
59.90555 -1.1325828E-16
60.03259 -1.1863371E-16
60.15961 -1.1982043E-16
60.28665 -1.1616721E-16
60.41368 -1.0714614E-16
60.54071 -9.2393513E-17
60.66775 -7.1748382E-17
60.79478 -4.5287126E-17
60.92181 -1.3351814E-17
61.04884 2.3429891E-17
61.17588 6.4134886E-17
61.30291 1.0754700E-16
61.42994 1.5217249E-16
61.55698 1.9626990E-16
61.68401 2.3789463E-16
61.81104 2.7495783E-16
61.93807 3.0529902E-16
62.06511 3.2677046E-16
62.19214 3.3733156E-16
62.31917 3.3514981E-16
62.44621 3.1870507E-16
62.57324 2.8689255E-16
62.70027 2.3912026E-16
62.82730 1.7539614E-16
62.95433 9.6399159E-17
63.08137 3.5304267E-18
63.20840 -1.0106121E-16
63.33543 -2.1448215E-16
63.46246 -3.3312969E-16
63.58950 -4.5276172E-16
63.71653 -5.6860189E-16
63.84356 -6.7547934E-16
63.97060 -7.6800075E-16
64.09763 -8.4075114E-16
64.22466 -8.8851776E-16
64.35169 -9.0653024E-16
64.47873 -8.9070745E-16
64.60576 -8.3790251E-16
64.73279 -7.4613481E-16
64.85983 -6.1479674E-16
64.98685 -4.4482560E-16
65.11389 -2.3882764E-16
65.24092 -1.1459550E-18
65.36796 2.6213774E-16
65.49499 5.4327359E-16
65.62202 8.3299073E-16
65.74905 1.1207222E-15
65.87608 1.3949061E-15
66.00312 1.6433581E-15
66.13015 1.8537056E-15
66.25719 2.0138723E-15
66.38422 2.1125955E-15
66.51125 2.1399627E-15
66.63828 2.0879396E-15
66.76531 1.9508742E-15
66.89235 1.7259465E-15
67.01938 1.4135466E-15
67.14641 1.0175550E-15
67.27345 5.4550595E-16
67.40047 8.6160588E-18
67.52751 -5.7833419E-16
67.65454 -1.1972750E-15
67.78158 -1.8272800E-15
67.90861 -2.4451525E-15
68.03564 -3.0261552E-15
68.16267 -3.5448661E-15
68.28970 -3.9761315E-15
68.41674 -4.2960939E-15
68.54377 -4.4832484E-15
68.67081 -4.5194938E-15
68.79784 -4.3911310E-15
68.92487 -4.0897643E-15
69.05190 -3.6130593E-15
69.17893 -2.9653164E-15
69.30597 -2.1578215E-15
69.43300 -1.2089357E-15
69.56004 -1.4391095E-16
69.68707 1.0055936E-15
69.81409 2.2022895E-15
69.94113 3.4043271E-15
70.06816 4.5666295E-15
70.19520 5.6424541E-15
70.32223 6.5851395E-15
70.44926 7.3499802E-15
70.57629 7.8961487E-15
70.70332 8.1886072E-15
70.83036 8.1999057E-15
70.95739 7.9118120E-15
71.08443 7.3166570E-15
71.21146 6.4183579E-15
71.33849 5.2330204E-15
71.46552 3.7890842E-15
71.59255 2.1269658E-15
71.71959 2.9817601E-16
71.84662 -1.6360759E-15
71.97366 -3.6067904E-15
72.10069 -5.5395231E-15
72.22771 -7.3571283E-15
72.35475 -8.9827912E-15
72.48178 -1.0343248E-14
72.60882 -1.1372066E-14
72.73585 -1.2012848E-14
72.86288 -1.2222225E-14
72.98991 -1.1972472E-14
73.11694 -1.1253636E-14
73.24398 -1.0075030E-14
73.37101 -8.4659901E-15
73.49805 -6.4758091E-15
73.62508 -4.1727892E-15
73.75211 -1.6424092E-15
73.87914 1.0154061E-15
74.00617 3.6898339E-15
74.13321 6.2634211E-15
74.26024 8.6169568E-15
74.38728 1.0634754E-14
74.51431 1.2210146E-14
74.64133 1.3250966E-14
74.76837 1.3684768E-14
74.89540 1.3463532E-14
75.02244 1.2567607E-14
75.14947 1.1008637E-14
75.27650 8.8313078E-15
75.40353 6.1136809E-15
75.53056 2.9660385E-15
75.65760 -4.7184997E-16
75.78463 -4.0350282E-15
75.91167 -7.5391904E-15
76.03870 -1.0787877E-14
76.16573 -1.3580829E-14
76.29276 -1.5723234E-14
76.41979 -1.7035528E-14
76.54683 -1.7363330E-14
76.67386 -1.6587109E-14
76.80090 -1.4631141E-14
76.92793 -1.1471218E-14
77.05495 -7.1407698E-15
77.18199 -1.7348980E-15
77.30902 4.5879815E-15
77.43606 1.1607222E-14
77.56309 1.9043901E-14
77.69012 2.6567746E-14
77.81715 3.3807033E-14
77.94418 4.0361225E-14
78.07122 4.5816100E-14
78.19825 4.9760929E-14
78.32529 5.1807164E-14
78.45232 5.1607922E-14
78.57935 4.8877582E-14
78.70638 4.3410635E-14
78.83341 3.5098931E-14
78.96045 2.3946414E-14
79.08748 1.0080620E-14
79.21452 -6.2399697E-15
79.34155 -2.4623277E-14
79.46858 -4.4546259E-14
79.59561 -6.5363262E-14
79.72264 -8.6320037E-14
79.84968 -1.0657356E-13
79.97671 -1.2521731E-13
80.10374 -1.4131144E-13
80.23077 -1.5391692E-13
80.35780 -1.6213298E-13
80.48484 -1.6513622E-13
80.61187 -1.6222043E-13
80.73891 -1.5283524E-13
80.86594 -1.3662215E-13
80.99297 -1.1344636E-13
81.12000 -8.3422784E-14
81.24703 -4.6934675E-14
81.37407 -4.6436908E-15
81.50110 4.2509680E-14
81.62814 9.3316292E-14
81.75517 1.4631930E-13
81.88220 1.9984624E-13
82.00923 2.5205155E-13
82.13626 3.0096902E-13
82.26330 3.4457292E-13
82.39033 3.8084599E-13
82.51736 4.0785252E-13
82.64439 4.2381395E-13
82.77143 4.2718487E-13
82.89846 4.1672587E-13
83.02549 3.9157113E-13
83.15253 3.5128768E-13
83.27956 2.9592325E-13
83.40659 2.2604069E-13
83.53362 1.4273682E-13
83.66065 4.7643421E-14
83.78769 -5.7090027E-14
83.91472 -1.6883303E-13
84.04176 -2.8452986E-13
84.16879 -4.0077352E-13
84.29582 -5.1389681E-13
84.42285 -6.2007777E-13
84.54988 -7.1545710E-13
84.67692 -7.9626377E-13
84.80395 -8.5894518E-13
84.93098 -9.0029779E-13
85.05801 -9.1759272E-13
85.18505 -9.0869310E-13
85.31208 -8.7215733E-13
85.43911 -8.0732529E-13
85.56615 -7.1438211E-13
85.69318 -5.9439790E-13
85.82021 -4.4933940E-13
85.94724 -2.8205292E-13
86.07427 -9.6217237E-14
86.20131 1.0373287E-13
86.32834 3.1271166E-13
86.45538 5.2511305E-13
86.58241 7.3496374E-13
86.70944 9.3609419E-13
86.83647 1.1223234E-12
86.96350 1.2876496E-12
87.09054 1.4264433E-12
87.21757 1.5336331E-12
87.34460 1.6048816E-12
87.47163 1.6367408E-12
87.59867 1.6267840E-12
87.72570 1.5737092E-12
87.85273 1.4774070E-12
87.97977 1.3389933E-12
88.10680 1.1608020E-12
88.23383 9.4633936E-13
88.36086 7.0019815E-13
88.48790 4.2793717E-13
88.61493 1.3592649E-13
88.74196 -1.6883394E-13
88.86900 -4.7891850E-13
88.99603 -7.8669439E-13
89.12306 -1.0845477E-12
89.25009 -1.3651089E-12
89.37712 -1.6214684E-12
89.50416 -1.8473766E-12
89.63119 -2.0374199E-12
89.75822 -2.1871643E-12
89.88525 -2.2932635E-12
90.01229 -2.3535295E-12
90.13932 -2.3669569E-12
90.26635 -2.3337055E-12
90.39339 -2.2550416E-12
90.52042 -2.1332398E-12
90.64745 -1.9714467E-12
90.77448 -1.7735228E-12
90.90152 -1.5438572E-12
91.02855 -1.2871734E-12
91.15558 -1.0083313E-12
91.28262 -7.1213668E-13
91.40965 -4.0316546E-13
91.53668 -8.5615102E-14
91.66371 2.3681090E-13
91.79075 5.6097851E-13
91.91778 8.8435232E-13
92.04481 1.2049778E-12
92.17184 1.5214137E-12
92.29887 1.8326172E-12
92.42591 2.1377876E-12
92.55294 2.4361743E-12
92.67997 2.7268567E-12
92.80701 3.0085118E-12
92.93404 3.2791773E-12
93.06107 3.5360282E-12
93.18810 3.7751807E-12
93.31514 3.9915380E-12
93.44217 4.1786895E-12
93.56920 4.3288836E-12
93.69624 4.4330759E-12
93.82327 4.4810670E-12
93.95030 4.4617322E-12
94.07733 4.3633461E-12
94.20437 4.1739940E-12
94.33140 3.8820700E-12
94.45843 3.4768412E-12
94.58546 2.9490718E-12
94.71249 2.2916762E-12
94.83953 1.5003850E-12
94.96656 5.7439416E-13
95.09360 -4.8303337E-13
95.22063 -1.6640367E-12
95.34766 -2.9557364E-12
95.47469 -4.3399412E-12
95.60172 -5.7930223E-12
95.72876 -7.2859618E-12
95.85579 -8.7846059E-12
95.98282 -1.0250130E-11
96.10986 -1.1639719E-11
96.23689 -1.2907461E-11
96.36392 -1.4005447E-11
96.49095 -1.4885055E-11
96.61799 -1.5498392E-11
96.74502 -1.5799861E-11
96.87205 -1.5747802E-11
96.99908 -1.5306176E-11
97.12611 -1.4446217E-11
97.25315 -1.3148016E-11
97.38018 -1.1401959E-11
97.50722 -9.2099791E-12
97.63425 -6.5865447E-12
97.76128 -3.5593592E-12
97.88831 -1.6969924E-13
98.01534 3.5276274E-12
98.14238 7.4647346E-12
98.26941 1.1561545E-11
98.39645 1.5727102E-11
98.52348 1.9861305E-11
98.65051 2.3857034E-11
98.77754 2.7602634E-11
98.90457 3.0984684E-11
99.03161 3.3891018E-11
99.15864 3.6213896E-11
99.28567 3.7853231E-11
99.41270 3.8719819E-11
99.53973 3.8738426E-11
99.66677 3.7850671E-11
99.79380 3.6017581E-11
99.92084 3.3221752E-11
100.0479 2.9469000E-11
100.1749 2.4789488E-11
100.3019 1.9238187E-11
100.4290 1.2894734E-11
100.5560 5.8625531E-12
100.6830 -1.7326660E-12
100.8101 -9.7451699E-12
100.9371 -1.8011967E-11
101.0641 -2.6356223E-11
101.1912 -3.4591136E-11
101.3182 -4.2524220E-11
101.4452 -4.9961868E-11
101.5723 -5.6714067E-11
101.6993 -6.2599190E-11
101.8263 -6.7448637E-11
101.9534 -7.1111304E-11
102.0804 -7.3457664E-11
102.2074 -7.4383381E-11
102.3345 -7.3812401E-11
102.4615 -7.1699299E-11
102.5885 -6.8030928E-11
102.7156 -6.2827320E-11
102.8426 -5.6141720E-11
102.9696 -4.8059817E-11
103.0966 -3.8698253E-11
103.2237 -2.8202296E-11
103.3507 -1.6742916E-11
103.4777 -4.5132348E-12
103.6048 8.2754819E-12
103.7318 2.1398210E-11
103.8588 3.4620778E-11
103.9859 4.7704597E-11
104.1129 6.0411356E-11
104.2399 7.2507576E-11
104.3670 8.3768902E-11
104.4940 9.3984057E-11
104.6210 1.0295826E-10
104.7481 1.1051626E-10
104.8751 1.1650469E-10
105.0021 1.2079394E-10
105.1292 1.2327941E-10
105.2562 1.2388215E-10
105.3832 1.2254915E-10
105.5103 1.1925304E-10
105.6373 1.1399142E-10
105.7643 1.0678608E-10
105.8914 9.7681835E-11
106.0184 8.6745333E-11
106.1454 7.4063901E-11
106.2725 5.9744411E-11
106.3995 4.3912329E-11
106.5265 2.6710911E-11
106.6536 8.3006553E-12
106.7806 -1.1141027E-11
106.9076 -3.1419953E-11
107.0347 -5.2325068E-11
107.1617 -7.3628374E-11
107.2887 -9.5084676E-11
107.4158 -1.1643157E-10
107.5428 -1.3738953E-10
107.6698 -1.5766234E-10
107.7969 -1.7693805E-10
107.9239 -1.9489040E-10
108.0509 -2.1118109E-10
108.1780 -2.2546272E-10
108.3050 -2.3738264E-10
108.4320 -2.4658775E-10
108.5591 -2.5273014E-10
108.6861 -2.5547370E-10
108.8131 -2.5450156E-10
108.9402 -2.4952423E-10
109.0672 -2.4028829E-10
109.1942 -2.2658551E-10
109.3213 -2.0826213E-10
109.4483 -1.8522804E-10
109.5753 -1.5746557E-10
109.7023 -1.2503762E-10
109.8294 -8.8094872E-11
109.9564 -4.6881676E-11
110.0834 -1.7404882E-12
110.2105 4.6885527E-11
110.3375 9.8452003E-11
110.4645 1.5231502E-10
110.5916 2.0773504E-10
110.7186 2.6388336E-10
110.8456 3.1985103E-10
110.9727 3.7466025E-10
111.0997 4.2727777E-10
111.2267 4.7663079E-10
111.3538 5.2162452E-10
111.4808 5.6116128E-10
111.6078 5.9416122E-10
111.7349 6.1958355E-10
111.8619 6.3644817E-10
111.9889 6.4385786E-10
112.1160 6.4101935E-10
112.2430 6.2726391E-10
112.3700 6.0206667E-10
112.4971 5.6506400E-10
112.6241 5.1606902E-10
112.7511 4.5508453E-10
112.8782 3.8231329E-10
113.0052 2.9816535E-10
113.1322 2.0326259E-10
113.2593 9.8439215E-11
113.3863 -1.5260132E-11
113.5133 -1.3658580E-10
113.6404 -2.6409183E-10
113.7674 -3.9614831E-10
113.8944 -5.3095561E-10
114.0215 -6.6656258E-10
114.1485 -8.0088658E-10
114.2755 -9.3173658E-10
114.4026 -1.0568382E-09
114.5296 -1.1738611E-09
114.6566 -1.2804483E-09
114.7837 -1.3742467E-09
114.9107 -1.4529398E-09
115.0377 -1.5142815E-09
115.1647 -1.5561312E-09
115.2918 -1.5764895E-09
115.4188 -1.5735350E-09
115.5459 -1.5456615E-09
115.6729 -1.4915151E-09
115.7999 -1.4100319E-09
115.9269 -1.3004740E-09
116.0540 -1.1624652E-09
116.1810 -9.9602515E-10
116.3080 -8.0160095E-10
116.4351 -5.8009553E-10
116.5621 -3.3289296E-10
116.6891 -6.1878412E-11
116.8162 2.3054744E-10
116.9432 5.4146021E-10
117.0702 8.6741125E-10
117.1973 1.2044354E-09
117.3243 1.5480695E-09
117.4513 1.8933788E-09
117.5784 2.2349957E-09
117.7054 2.5671711E-09
117.8324 2.8838345E-09
117.9595 3.1786684E-09
118.0865 3.4451952E-09
118.2135 3.6768719E-09
118.3406 3.8671981E-09
118.4676 4.0098338E-09
118.5946 4.0987227E-09
118.7217 4.1282244E-09
118.8487 4.0932484E-09
118.9757 3.9893902E-09
119.1028 3.8130659E-09
119.2298 3.5616452E-09
119.3568 3.2335732E-09
119.4839 2.8284841E-09
119.6109 2.3473024E-09
119.7379 1.7923252E-09
119.8650 1.1672812E-09
119.9920 4.7737481E-10
120.1190 -2.7070146E-10
120.2461 -1.0687815E-09
120.3731 -1.9072670E-09
120.5001 -2.7752027E-09
120.6272 -3.6603800E-09
120.7542 -4.5494750E-09
120.8812 -5.4282143E-09
121.0083 -6.2815722E-09
121.1353 -7.0939916E-09
121.2623 -7.8496338E-09
121.3894 -8.5326430E-09
121.5164 -9.1274321E-09
121.6434 -9.6189723E-09
121.7704 -9.9930997E-09
121.8975 -1.0236809E-08
122.0245 -1.0338550E-08
122.1516 -1.0288510E-08
122.2786 -1.0078870E-08
122.4056 -9.7040473E-09
122.5326 -9.1608996E-09
122.6597 -8.4488914E-09
122.7867 -7.5702191E-09
122.9137 -6.5298922E-09
123.0408 -5.3357634E-09
123.1678 -3.9985064E-09
123.2948 -2.5315376E-09
123.4219 -9.5088759E-10
123.5489 7.2498718E-10
123.6759 2.4754463E-09
123.8030 4.2779429E-09
123.9300 6.1083600E-09
124.0570 7.9413773E-09
124.1841 9.7508748E-09
124.3111 1.1510354E-08
124.4381 1.3193393E-08
124.5652 1.4774080E-08
124.6922 1.6227474E-08
124.8192 1.7530033E-08
124.9463 1.8660032E-08
125.0733 1.9597959E-08
125.2003 2.0326841E-08
125.3274 2.0832564E-08
125.4544 2.1104103E-08
125.5814 2.1133713E-08
125.7085 2.0917039E-08
125.8355 2.0453177E-08
125.9625 1.9744657E-08
126.0896 1.8797342E-08
126.2166 1.7620270E-08
126.3436 1.6225449E-08
126.4707 1.4627554E-08
126.5977 1.2843606E-08
126.7247 1.0892581E-08
126.8518 8.7950109E-09
126.9788 6.5725483E-09
127.1058 4.2475095E-09
127.2329 1.8424421E-09
127.3599 -6.2031680E-10
127.4869 -3.1190410E-09
127.6140 -5.6329714E-09
127.7410 -8.1426395E-09
127.8680 -1.0630099E-08
127.9950 -1.3079113E-08
128.1221 -1.5475244E-08
128.2491 -1.7805847E-08
128.3761 -2.0059982E-08
128.5032 -2.2228203E-08
128.6302 -2.4302302E-08
128.7572 -2.6274877E-08
128.8843 -2.8138867E-08
129.0113 -2.9886973E-08
129.1383 -3.1511004E-08
129.2654 -3.3001122E-08
129.3924 -3.4345121E-08
129.5194 -3.5527535E-08
129.6465 -3.6528814E-08
129.7735 -3.7324448E-08
129.9005 -3.7884085E-08
130.0276 -3.8170732E-08
130.1546 -3.8139895E-08
130.2816 -3.7738896E-08
130.4087 -3.6906233E-08
130.5357 -3.5570974E-08
130.6627 -3.3652363E-08
130.7898 -3.1059486E-08
130.9168 -2.7691145E-08
131.0438 -2.3435810E-08
131.1709 -1.8171797E-08
131.2979 -1.1767611E-08
131.4249 -4.0824411E-09
131.5520 5.0331428E-09
131.6790 1.5736363E-08
131.8060 2.8191160E-08
131.9331 4.2567034E-08
132.0601 5.9037756E-08
132.1871 7.7779731E-08
132.3142 9.8970631E-08
132.4412 1.2278747E-07
132.5682 1.4940501E-07
132.6953 1.7899382E-07
132.8223 2.1171847E-07
132.9493 2.4773573E-07
133.0764 2.8719265E-07
133.2034 3.3022485E-07
133.3304 3.7695474E-07
133.4575 4.2748997E-07
133.5845 4.8192203E-07
133.7115 5.4032506E-07
133.8385 6.0275437E-07
133.9656 6.6924605E-07
134.0926 7.3981562E-07
134.2197 8.1445802E-07
134.3467 8.9314733E-07
134.4737 9.7583677E-07
134.6008 1.0624586E-06
134.7278 1.1529253E-06
134.8548 1.2471293E-06
134.9818 1.3449442E-06
135.1089 1.4462270E-06
135.2359 1.5508181E-06
135.3629 1.6585426E-06
135.4900 1.7692128E-06
135.6170 1.8826288E-06
135.7440 1.9985810E-06
135.8711 2.1168514E-06
135.9981 2.2372155E-06
136.1251 2.3594439E-06
136.2522 2.4833039E-06
136.3792 2.6085615E-06
136.5062 2.7349813E-06
136.6333 2.8623297E-06
136.7603 2.9903745E-06
136.8873 3.1188874E-06
137.0144 3.2476428E-06
137.1414 3.3764184E-06
137.2684 3.5049982E-06
137.3955 3.6331689E-06
137.5225 3.7607240E-06
137.6495 3.8874591E-06
137.7766 4.0131745E-06
137.9036 4.1376738E-06
138.0306 4.2607644E-06
138.1577 4.3822561E-06
138.2847 4.5019588E-06
138.4117 4.6196842E-06
138.5388 4.7352441E-06
138.6658 4.8484490E-06
138.7928 4.9591076E-06
138.9199 5.0670269E-06
139.0469 5.1720108E-06
139.1739 5.2738619E-06
139.3009 5.3723779E-06
139.4280 5.4673546E-06
139.5550 5.5585838E-06
139.6821 5.6458553E-06
139.8091 5.7289540E-06
139.9361 5.8076653E-06
140.0632 5.8817714E-06
140.1902 5.9510562E-06
140.3172 6.0153011E-06
140.4442 6.0742918E-06
140.5713 6.1278147E-06
140.6983 6.1756627E-06
140.8253 6.2176318E-06
140.9524 6.2535273E-06
141.0794 6.2831627E-06
141.2065 6.3063626E-06
141.3335 6.3229641E-06
141.4605 6.3328189E-06
141.5875 6.3357938E-06
141.7146 6.3317743E-06
141.8416 6.3206680E-06
141.9686 6.3024022E-06
142.0957 6.2769291E-06
142.2227 6.2442277E-06
142.3497 6.2043050E-06
142.4768 6.1571991E-06
142.6038 6.1029773E-06
142.7308 6.0417456E-06
142.8579 5.9736421E-06
142.9849 5.8988467E-06
143.1119 5.8175747E-06
143.2390 5.7300863E-06
143.3660 5.6366807E-06
143.4930 5.5377031E-06
143.6201 5.4335405E-06
143.7471 5.3246258E-06
143.8741 5.2114347E-06
144.0012 5.0944864E-06
144.1282 4.9743435E-06
144.2552 4.8516076E-06
144.3823 4.7269205E-06
144.5093 4.6009568E-06
144.6363 4.4744247E-06
144.7634 4.3480577E-06
144.8904 4.2226116E-06
145.0174 4.0988580E-06
145.1445 3.9775759E-06
145.2715 3.8595467E-06
145.3985 3.7455445E-06
145.5256 3.6363285E-06
145.6526 3.5326336E-06
145.7796 3.4351610E-06
145.9066 3.3445701E-06
146.0337 3.2614664E-06
146.1607 3.1863954E-06
146.2878 3.1198310E-06
146.4148 3.0621702E-06
146.5418 3.0137219E-06
146.6689 2.9747011E-06
146.7959 2.9452235E-06
146.9229 2.9253004E-06
147.0499 2.9148343E-06
147.1770 2.9136172E-06
147.3040 2.9213313E-06
147.4310 2.9375492E-06
147.5581 2.9617368E-06
147.6851 2.9932578E-06
147.8121 3.0313818E-06
