  -30.00000        4.8965759E-18
  -29.85750        4.9019232E-18
  -29.71500        4.9116976E-18
  -29.57250        4.9243096E-18
  -29.43000        4.9378079E-18
  -29.28750        4.9502591E-18
  -29.14500        4.9601220E-18
  -29.00250        4.9665330E-18
  -28.86000        4.9694625E-18
  -28.71750        4.9696928E-18
  -28.57500        4.9686386E-18
  -28.43250        4.9680385E-18
  -28.29000        4.9695824E-18
  -28.14750        4.9745529E-18
  -28.00500        4.9835481E-18
  -27.86250        4.9963438E-18
  -27.72000        5.0119279E-18
  -27.57750        5.0286919E-18
  -27.43500        5.0447500E-18
  -27.29250        5.0583141E-18
  -27.15000        5.0680525E-18
  -27.00750        5.0733588E-18
  -26.86500        5.0744751E-18
  -26.72250        5.0724444E-18
  -26.58000        5.0689037E-18
  -26.43750        5.0657595E-18
  -26.29500        5.0648083E-18
  -26.15250        5.0673833E-18
  -26.01000        5.0740950E-18
  -25.86750        5.0847123E-18
  -25.72500        5.0982210E-18
  -25.58250        5.1130313E-18
  -25.44000        5.1273005E-18
  -25.29750        5.1393104E-18
  -25.15500        5.1478125E-18
  -25.01250        5.1522781E-18
  -24.87000        5.1530056E-18
  -24.72750        5.1510559E-18
  -24.58500        5.1480313E-18
  -24.44250        5.1457462E-18
  -24.30000        5.1458575E-18
  -24.15750        5.1495236E-18
  -24.01500        5.1571667E-18
  -23.87250        5.1683916E-18
  -23.73000        5.1820632E-18
  -23.58750        5.1965393E-18
  -23.44500        5.2100037E-18
  -23.30250        5.2208344E-18
  -23.16000        5.2279333E-18
  -23.01750        5.2309492E-18
  -22.87500        5.2303490E-18
  -22.73250        5.2273257E-18
  -22.59000        5.2235575E-18
  -22.44750        5.2208687E-18
  -22.30500        5.2208605E-18
  -22.16250        5.2245832E-18
  -22.02000        5.2323239E-18
  -21.87750        5.2435484E-18
  -21.73500        5.2570095E-18
  -21.59250        5.2710029E-18
  -21.45000        5.2837125E-18
  -21.30750        5.2935824E-18
  -21.16500        5.2996283E-18
  -21.02250        5.3016342E-18
  -20.88000        5.3001978E-18
  -20.73750        5.2965992E-18
  -20.59500        5.2925423E-18
  -20.45250        5.2898064E-18
  -20.31000        5.2898833E-18
  -20.16750        5.2936747E-18
  -20.02500        5.3013071E-18
  -19.88250        5.3121076E-18
  -19.74000        5.3247432E-18
  -19.59750        5.3374971E-18
  -19.45500        5.3486255E-18
  -19.31250        5.3567232E-18
  -19.17000        5.3610200E-18
  -19.02750        5.3615453E-18
  -18.88500        5.3591320E-18
  -18.74250        5.3552459E-18
  -18.60000        5.3516935E-18
  -18.45750        5.3502476E-18
  -18.31500        5.3522825E-18
  -18.17250        5.3584884E-18
  -18.03000        5.3687153E-18
  -17.88750        5.3819911E-18
  -17.74500        5.3967000E-18
  -17.60250        5.4108949E-18
  -17.46000        5.4226785E-18
  -17.31750        5.4305764E-18
  -17.17500        5.4338371E-18
  -17.03250        5.4325815E-18
  -16.89000        5.4277867E-18
  -16.74750        5.4210969E-18
  -16.60500        5.4144964E-18
  -16.46250        5.4099209E-18
  -16.32000        5.4088761E-18
  -16.17750        5.4121427E-18
  -16.03500        5.4196307E-18
  -15.89250        5.4304076E-18
  -15.75000        5.4428931E-18
  -15.60750        5.4551813E-18
  -15.46500        5.4654263E-18
  -15.32250        5.4722133E-18
  -15.18000        5.4748388E-18
  -15.03750        5.4734516E-18
  -14.89500        5.4690184E-18
  -14.75250        5.4631268E-18
  -14.61000        5.4576574E-18
  -14.46750        5.4544021E-18
  -14.32500        5.4546908E-18
  -14.18250        5.4591178E-18
  -14.04000        5.4674128E-18
  -13.89750        5.4784921E-18
  -13.75500        5.4906731E-18
  -13.61250        5.5020117E-18
  -13.47000        5.5106917E-18
  -13.32750        5.5153868E-18
  -13.18500        5.5155278E-18
  -13.04250        5.5114138E-18
  -12.90000        5.5041566E-18
  -12.75750        5.4954637E-18
  -12.61500        5.4873048E-18
  -12.47250        5.4815274E-18
  -12.33000        5.4794991E-18
  -12.18750        5.4818496E-18
  -12.04500        5.4883549E-18
  -11.90250        5.4980019E-18
  -11.76000        5.5092069E-18
  -11.61750        5.5201518E-18
  -11.47500        5.5291647E-18
  -11.33250        5.5350679E-18
  -11.19000        5.5374150E-18
  -11.04750        5.5365796E-18
  -10.90500        5.5336679E-18
  -10.76250        5.5302777E-18
  -10.62000        5.5281605E-18
  -10.47750        5.5288492E-18
  -10.33500        5.5333242E-18
  -10.19250        5.5417974E-18
  -10.05000        5.5536422E-18
  -9.907500        5.5674954E-18
  -9.765000        5.5815095E-18
  -9.622500        5.5937034E-18
  -9.480000        5.6023499E-18
  -9.337500        5.6063183E-18
  -9.195000        5.6053009E-18
  -9.052500        5.5998767E-18
  -8.910000        5.5914026E-18
  -8.767500        5.5817469E-18
  -8.625000        5.5729222E-18
  -8.482500        5.5666976E-18
  -8.340000        5.5642566E-18
  -8.197500        5.5659846E-18
  -8.055000        5.5714122E-18
  -7.912500        5.5793316E-18
  -7.770000        5.5880521E-18
  -7.627500        5.5957557E-18
  -7.485000        5.6008660E-18
  -7.342500        5.6023743E-18
  -7.200000        5.6000442E-18
  -7.057500        5.5944640E-18
  -6.915000        5.5869309E-18
  -6.772500        5.5791901E-18
  -6.630000        5.5730806E-18
  -6.487500        5.5701581E-18
  -6.345000        5.5713807E-18
  -6.202500        5.5769141E-18
  -6.060000        5.5860992E-18
  -5.917500        5.5975912E-18
  -5.775000        5.6096329E-18
  -5.632500        5.6204102E-18
  -5.490000        5.6284132E-18
  -5.347500        5.6327290E-18
  -5.205000        5.6332174E-18
  -5.062500        5.6305200E-18
  -4.920000        5.6259254E-18
  -4.777500        5.6210943E-18
  -4.635000        5.6177157E-18
  -4.492500        5.6171577E-18
  -4.350000        5.6201823E-18
  -4.207500        5.6267861E-18
  -4.065000        5.6361973E-18
  -3.922500        5.6470413E-18
  -3.780000        5.6576255E-18
  -3.637500        5.6663009E-18
  -3.495000        5.6718075E-18
  -3.352500        5.6735437E-18
  -3.210000        5.6716950E-18
  -3.067500        5.6672005E-18
  -2.925000        5.6615649E-18
  -2.782500        5.6565522E-18
  -2.640000        5.6538299E-18
  -2.497500        5.6546278E-18
  -2.355000        5.6594825E-18
  -2.212500        5.6681182E-18
  -2.070000        5.6794903E-18
  -1.927500        5.6919824E-18
  -1.785000        5.7037209E-18
  -1.642500        5.7129523E-18
  -1.500000        5.7183947E-18
  -1.357500        5.7195031E-18
  -1.215000        5.7165811E-18
  -1.072500        5.7107243E-18
 -0.9300000        5.7035985E-18
 -0.7875000        5.6971068E-18
 -0.6450000        5.6930023E-18
 -0.5025000        5.6925441E-18
 -0.3600000        5.6962420E-18
 -0.2175000        5.7037652E-18
 -7.5000003E-02    5.7140028E-18
  6.7500003E-02    5.7252872E-18
  0.2100000        5.7357208E-18
  0.3525000        5.7435534E-18
  0.4950000        5.7475297E-18
  0.6375000        5.7471442E-18
  0.7800000        5.7427452E-18
  0.9225000        5.7354747E-18
   1.065000        5.7270400E-18
   1.207500        5.7193762E-18
   1.350000        5.7142584E-18
   1.492500        5.7129448E-18
   1.635000        5.7159293E-18
   1.777500        5.7228532E-18
   1.920000        5.7325825E-18
   2.062500        5.7434455E-18
   2.205000        5.7535672E-18
   2.347500        5.7612443E-18
   2.490000        5.7652781E-18
   2.632500        5.7652028E-18
   2.775000        5.7613775E-18
   2.917500        5.7549081E-18
   3.060000        5.7474279E-18
   3.202500        5.7407720E-18
   3.345000        5.7366117E-18
   3.487500        5.7361199E-18
   3.630000        5.7397380E-18
   3.772500        5.7470954E-18
   3.915000        5.7570956E-18
   4.057500        5.7681521E-18
   4.200000        5.7785262E-18
   4.342500        5.7866892E-18
   4.485000        5.7916312E-18
   4.627500        5.7930635E-18
   4.770000        5.7914620E-18
   4.912500        5.7879565E-18
   5.055000        5.7840898E-18
   5.197500        5.7814862E-18
   5.340000        5.7815140E-18
   5.482500        5.7849927E-18
   5.625000        5.7920084E-18
   5.767500        5.8018775E-18
   5.910000        5.8132707E-18
   6.052500        5.8244703E-18
   6.195000        5.8337215E-18
   6.337500        5.8395920E-18
   6.480000        5.8412765E-18
   6.622500        5.8387751E-18
   6.765000        5.8329046E-18
   6.907500        5.8251436E-18
   7.050000        5.8173437E-18
   7.192500        5.8113661E-18
   7.335000        5.8087174E-18
   7.477500        5.8102630E-18
   7.620000        5.8160620E-18
   7.762500        5.8253636E-18
   7.905000        5.8367609E-18
   8.047500        5.8484672E-18
   8.190000        5.8586709E-18
   8.332500        5.8658942E-18
   8.475000        5.8692861E-18
   8.617500        5.8687923E-18
   8.760000        5.8651605E-18
   8.902500        5.8597789E-18
   9.045000        5.8543832E-18
   9.187500        5.8506898E-18
   9.330000        5.8500343E-18
   9.472500        5.8530932E-18
   9.615000        5.8597446E-18
   9.757500        5.8690963E-18
   9.900000        5.8796668E-18
   10.04250        5.8896868E-18
   10.18500        5.8974549E-18
   10.32750        5.9016739E-18
   10.47000        5.9017165E-18
   10.61250        5.8977490E-18
   10.75500        5.8907109E-18
   10.89750        5.8821318E-18
   11.04000        5.8738372E-18
   11.18250        5.8675825E-18
   11.32500        5.8647048E-18
   11.46750        5.8658533E-18
   11.61000        5.8708689E-18
   11.75250        5.8788260E-18
   11.89500        5.8882372E-18
   12.03750        5.8973730E-18
   12.18000        5.9046257E-18
   12.32250        5.9088373E-18
   12.46500        5.9095363E-18
   12.60750        5.9070250E-18
   12.75000        5.9023100E-18
   12.89250        5.8968941E-18
   13.03500        5.8924691E-18
   13.17750        5.8905670E-18
   13.32000        5.8922416E-18
   13.46250        5.8978400E-18
   13.60500        5.9069141E-18
   13.74750        5.9182932E-18
   13.89000        5.9303089E-18
   14.03250        5.9411321E-18
   14.17500        5.9491462E-18
   14.31750        5.9532846E-18
   14.46000        5.9532553E-18
   14.60250        5.9496062E-18
   14.74500        5.9436141E-18
   14.88750        5.9370309E-18
   15.03000        5.9317337E-18
   15.17250        5.9293514E-18
   15.31500        5.9309495E-18
   15.45750        5.9368175E-18
   15.60000        5.9464120E-18
   15.74250        5.9584582E-18
   15.88500        5.9711906E-18
   16.02750        5.9826992E-18
   16.17000        5.9912998E-18
   16.31250        5.9958745E-18
   16.45500        5.9960974E-18
   16.59750        5.9925029E-18
   16.74000        5.9863801E-18
   16.88250        5.9795083E-18
   17.02500        5.9737913E-18
   17.16750        5.9708692E-18
   17.31000        5.9717891E-18
   17.45250        5.9767981E-18
   17.59500        5.9853027E-18
   17.73750        5.9959936E-18
   17.88000        6.0071105E-18
   18.02250        6.0167894E-18
   18.16500        6.0234291E-18
   18.30750        6.0260079E-18
   18.45000        6.0242853E-18
   18.59250        6.0188561E-18
   18.73500        6.0110425E-18
   18.87750        6.0026342E-18
   19.02000        5.9955366E-18
   19.16250        5.9913887E-18
   19.30500        5.9912336E-18
   19.44750        5.9953170E-18
   19.59000        6.0030466E-18
   19.73250        6.0131270E-18
   19.87500        6.0238373E-18
   20.01750        6.0333876E-18
   20.16000        6.0402771E-18
   20.30250        6.0435921E-18
   20.44500        6.0431715E-18
   20.58750        6.0396286E-18
   20.73000        6.0342160E-18
   20.87250        6.0285668E-18
   21.01500        6.0243630E-18
   21.15750        6.0229882E-18
   21.30000        6.0252394E-18
   21.44250        6.0311558E-18
   21.58500        6.0400017E-18
   21.72750        6.0504122E-18
   21.87000        6.0606791E-18
   22.01250        6.0691081E-18
   22.15500        6.0743752E-18
   22.29750        6.0758033E-18
   22.44000        6.0734992E-18
   22.58250        6.0683268E-18
   22.72500        6.0617264E-18
   22.86750        6.0554174E-18
   23.01000        6.0510532E-18
   23.15250        6.0498944E-18
   23.29500        6.0525542E-18
   23.43750        6.0588813E-18
   23.58000        6.0679798E-18
   23.72250        6.0783845E-18
   23.86500        6.0883492E-18
   24.00750        6.0961983E-18
   24.15000        6.1006733E-18
   24.29250        6.1011957E-18
   24.43500        6.0979941E-18
   24.57750        6.0920570E-18
   24.72000        6.0849304E-18
   24.86250        6.0783928E-18
   25.00500        6.0740890E-18
   25.14750        6.0731948E-18
   25.29000        6.0761855E-18
   25.43250        6.0827479E-18
   25.57500        6.0918548E-18
   25.71750        6.1019732E-18
   25.86000        6.1113704E-18
   26.00250        6.1184581E-18
   26.14500        6.1221072E-18
   26.28750        6.1218826E-18
   26.43000        6.1181347E-18
   26.57250        6.1119466E-18
   26.71500        6.1049217E-18
   26.85750        6.0988630E-18
   27.00000        6.0954075E-18
   27.14250        6.0956871E-18
   27.28500        6.1000960E-18
   27.42750        6.1082151E-18
   27.57000        6.1189040E-18
   27.71250        6.1305391E-18
   27.85500        6.1413475E-18
   27.99750        6.1497624E-18
   28.14000        6.1547230E-18
   28.28250        6.1558789E-18
   28.42500        6.1536447E-18
   28.56750        6.1491130E-18
   28.71000        6.1438311E-18
   28.85250        6.1394946E-18
   28.99500        6.1376020E-18
   29.13750        6.1391418E-18
   29.28000        6.1443832E-18
   29.42250        6.1528064E-18
   29.56500        6.1631987E-18
   29.70750        6.1739024E-18
   29.85000        6.1831573E-18
   29.99250        6.1894617E-18
   30.13500        6.1918807E-18
   30.27750        6.1902326E-18
   30.42000        6.1851169E-18
   30.56250        6.1777860E-18
   30.70500        6.1698877E-18
   30.84750        6.1631420E-18
   30.99000        6.1590061E-18
   31.13250        6.1583932E-18
   31.27500        6.1614980E-18
   31.41750        6.1677618E-18
   31.56000        6.1759869E-18
   31.70250        6.1845800E-18
   31.84500        6.1918820E-18
   31.98750        6.1965237E-18
   32.13000        6.1977186E-18
   32.27250        6.1954397E-18
   32.41500        6.1904323E-18
   32.55750        6.1840569E-18
   32.70000        6.1780027E-18
   32.84250        6.1739330E-18
   32.98500        6.1731372E-18
   33.12750        6.1762669E-18
   33.27000        6.1832015E-18
   33.41250        6.1930665E-18
   33.55500        6.2044014E-18
   33.69750        6.2154326E-18
   33.84000        6.2244113E-18
   33.98250        6.2299555E-18
   34.12500        6.2313182E-18
   34.26750        6.2285476E-18
   34.41000        6.2224856E-18
   34.55250        6.2146100E-18
   34.69500        6.2067377E-18
   34.83750        6.2006580E-18
   34.98000        6.1977678E-18
   35.12250        6.1987931E-18
   35.26500        6.2036511E-18
   35.40750        6.2114882E-18
   35.55000        6.2208726E-18
   35.69250        6.2300969E-18
   35.83500        6.2375304E-18
   35.97750        6.2419396E-18
   36.12000        6.2427288E-18
   36.26250        6.2400533E-18
   36.40500        6.2347862E-18
   36.54750        6.2283532E-18
   36.69000        6.2224513E-18
   36.83250        6.2187128E-18
   36.97500        6.2183708E-18
   37.11750        6.2220054E-18
   37.26000        6.2294128E-18
   37.40250        6.2396442E-18
   37.54500        6.2511974E-18
   37.68750        6.2623325E-18
   37.83000        6.2714262E-18
   37.97250        6.2773008E-18
   38.11500        6.2794486E-18
   38.25750        6.2781147E-18
   38.40000        6.2742282E-18
   38.54250        6.2691981E-18
   38.68500        6.2646284E-18
   38.82750        6.2619992E-18
   38.97000        6.2623801E-18
   39.11250        6.2662211E-18
   39.25500        6.2732629E-18
   39.39750        6.2825844E-18
   39.54000        6.2927889E-18
   39.68250        6.3022874E-18
   39.82500        6.3096316E-18
   39.96750        6.3138200E-18
   40.11000        6.3145090E-18
   40.25250        6.3120792E-18
   40.39500        6.3075438E-18
   40.53750        6.3023218E-18
   40.68000        6.2979253E-18
   40.82250        6.2956357E-18
   40.96500        6.2962395E-18
   41.10750        6.2998654E-18
   41.25000        6.3059614E-18
   41.39250        6.3133981E-18
   41.53500        6.3206943E-18
   41.67750        6.3263063E-18
   41.82000        6.3289458E-18
   41.96250        6.3278531E-18
   42.10500        6.3229794E-18
   42.24750        6.3150318E-18
   42.39000        6.3053629E-18
   42.53250        6.2957200E-18
   42.67500        6.2879040E-18
   42.81750        6.2834070E-18
   42.96000        6.2831196E-18
   43.10250        6.2871558E-18
   43.24500        6.2948436E-18
   43.38750        6.3048757E-18
   43.53000        6.3155748E-18
   43.67250        6.3252268E-18
   43.81500        6.3324096E-18
   43.95750        6.3362568E-18
   44.10000        6.3366220E-18
   44.24250        6.3340938E-18
   44.38500        6.3298834E-18
   44.52750        6.3255825E-18
   44.67000        6.3228325E-18
   44.81250        6.3229856E-18
   44.95500        6.3268013E-18
   45.09750        6.3342695E-18
   45.24000        6.3445911E-18
   45.38250        6.3563321E-18
   45.52500        6.3677096E-18
   45.66750        6.3769574E-18
   45.81000        6.3826778E-18
   45.95250        6.3841146E-18
   46.09500        6.3812915E-18
   46.23750        6.3749962E-18
   46.38000        6.3666231E-18
   46.52250        6.3579095E-18
   46.66500        6.3506163E-18
   46.80750        6.3462025E-18
   46.95000        6.3455639E-18
   47.09250        6.3488680E-18
   47.23500        6.3555318E-18
   47.37750        6.3643450E-18
   47.52000        6.3737298E-18
   47.66250        6.3820740E-18
   47.80500        6.3880727E-18
   47.94750        6.3910021E-18
   48.09000        6.3908586E-18
   48.23250        6.3883357E-18
   48.37500        6.3846494E-18
   48.51750        6.3812580E-18
   48.66000        6.3795411E-18
   48.80250        6.3805065E-18
   48.94500        6.3845795E-18
   49.08750        6.3915175E-18
   49.23000        6.4004465E-18
   49.37250        6.4100215E-18
   49.51500        6.4186825E-18
   49.65750        6.4249558E-18
   49.80000        6.4277563E-18
   49.94250        6.4266226E-18
   50.08500        6.4218353E-18
   50.22750        6.4143845E-18
   50.37000        6.4057868E-18
   50.51250        6.3977834E-18
   50.65500        6.3919935E-18
   50.79750        6.3895877E-18
   50.94000        6.3910683E-18
   51.08250        6.3961877E-18
   51.22500        6.4040240E-18
   51.36750        6.4131809E-18
   51.51000        6.4220768E-18
   51.65250        6.4292485E-18
   51.79500        6.4336354E-18
   51.93750        6.4347811E-18
   52.08000        6.4329241E-18
   52.22250        6.4289553E-18
   52.36500        6.4242503E-18
   52.50750        6.4203931E-18
   52.65000        6.4188463E-18
   52.79250        6.4206342E-18
   52.93500        6.4261160E-18
   53.07750        6.4348890E-18
   53.22000        6.4458637E-18
   53.36250        6.4574847E-18
   53.50500        6.4680457E-18
   53.64750        6.4760276E-18
   53.79000        6.4803906E-18
   53.93250        6.4807612E-18
   54.07500        6.4774868E-18
   54.21750        6.4715563E-18
   54.36000        6.4644066E-18
   54.50250        6.4576506E-18
   54.64500        6.4527752E-18
   54.78750        6.4508573E-18
   54.93000        6.4523545E-18
   55.07250        6.4570149E-18
   55.21500        6.4639276E-18
   55.35750        6.4717221E-18
   55.50000        6.4788628E-18
   55.64250        6.4839868E-18
   55.78500        6.4861995E-18
   55.92750        6.4852590E-18
   56.07000        6.4816111E-18
   56.21250        6.4762749E-18
   56.35500        6.4706092E-18
   56.49750        6.4660220E-18
   56.64000        6.4636824E-18
   56.78250        6.4642899E-18
   56.92500        6.4679419E-18
   57.06750        6.4741144E-18
   57.21000        6.4817625E-18
   57.35250        6.4895231E-18
   57.49500        6.4959883E-18
   57.63750        6.5000035E-18
   57.78000        6.5009237E-18
   57.92250        6.4987730E-18
   58.06500        6.4942603E-18
   58.20750        6.4886413E-18
   58.35000        6.4834532E-18
   58.49250        6.4801797E-18
   58.63500        6.4799352E-18
   58.77750        6.4832299E-18
   58.92000        6.4898697E-18
   59.06250        6.4990046E-18
   59.20500        6.5093051E-18
   59.34750        6.5192205E-18
   59.49000        6.5272760E-18
   59.63250        6.5323470E-18
   59.77500        6.5338695E-18
   59.91750        6.5319558E-18
   60.06000        6.5273827E-18
   60.20250        6.5214473E-18
   60.34500        6.5157186E-18
   60.48750        6.5117126E-18
   60.63000        6.5105740E-18
   60.77250        6.5128223E-18
   60.91500        6.5182424E-18
   61.05750        6.5259277E-18
   61.20000        6.5344849E-18
   61.34250        6.5423328E-18
   61.48500        6.5480366E-18
   61.62750        6.5506013E-18
   61.77000        6.5496645E-18
   61.91250        6.5455650E-18
   62.05500        6.5392763E-18
   62.19750        6.5322341E-18
   62.34000        6.5260712E-18
   62.48250        6.5223187E-18
   62.62500        6.5221123E-18
   62.76750        6.5259633E-18
   62.91000        6.5336345E-18
   63.05250        6.5441724E-18
   63.19500        6.5560805E-18
   63.33750        6.5676197E-18
   63.48000        6.5771596E-18
   63.62250        6.5835044E-18
   63.76500        6.5861249E-18
   63.90750        6.5852332E-18
   64.05000        6.5817090E-18
   64.19250        6.5768862E-18
   64.33500        6.5722701E-18
   64.47750        6.5692302E-18
   64.62000        6.5687380E-18
   64.76250        6.5711778E-18
   64.90500        6.5762761E-18
   65.04750        6.5831463E-18
   65.19000        6.5904606E-18
   65.33250        6.5967129E-18
   65.47500        6.6005382E-18
   65.61750        6.6010175E-18
   65.76000        6.5978994E-18
   65.90250        6.5916828E-18
   66.04500        6.5835338E-18
   66.18750        6.5750473E-18
   66.33000        6.5679158E-18
   66.47250        6.5635797E-18
   66.61500        6.5629403E-18
   66.75750        6.5661878E-18
   66.90000        6.5727846E-18
   67.04250        6.5815792E-18
   67.18500        6.5910351E-18
   67.32750        6.5995224E-18
   67.47000        6.6056204E-18
   67.61250        6.6083910E-18
   67.75500        6.6075659E-18
   67.89750        6.6036087E-18
   68.04000        6.5976393E-18
   68.18250        6.5912133E-18
   68.32500        6.5859951E-18
   68.46750        6.5834035E-18
   68.61000        6.5843023E-18
   68.75250        6.5888137E-18
   68.89500        6.5962993E-18
   69.03750        6.6055079E-18
   69.18000        6.6148529E-18
   69.32250        6.6227459E-18
   69.46500        6.6279116E-18
   69.60750        6.6296330E-18
   69.75000        6.6278756E-18
   69.89250        6.6232877E-18
   70.03500        6.6170739E-18
   70.17750        6.6107712E-18
   70.32000        6.6059574E-18
   70.46250        6.6039375E-18
   70.60500        6.6054768E-18
   70.74750        6.6106260E-18
   70.89000        6.6186981E-18
   71.03250        6.6283988E-18
   71.17500        6.6381046E-18
   71.31750        6.6462068E-18
   71.46000        6.6514553E-18
   71.60250        6.6532138E-18
   71.74500        6.6515752E-18
   71.88750        6.6473173E-18
   72.03000        6.6417243E-18
   72.17250        6.6363232E-18
   72.31500        6.6325856E-18
   72.45750        6.6316501E-18
   72.60000        6.6341118E-18
   72.74250        6.6399066E-18
   72.88500        6.6483161E-18
   73.02750        6.6580884E-18
   73.17000        6.6676788E-18
   73.31250        6.6755548E-18
   73.45500        6.6805166E-18
   73.59750        6.6819555E-18
   73.74000        6.6799843E-18
   73.88250        6.6754108E-18
   74.02500        6.6695511E-18
   74.16750        6.6639387E-18
   74.31000        6.6599963E-18
   74.45250        6.6587489E-18
   74.59500        6.6606291E-18
   74.73750        6.6654160E-18
   74.88000        6.6722907E-18
   75.02250        6.6800042E-18
   75.16500        6.6871138E-18
   75.30750        6.6922568E-18
   75.45000        6.6944161E-18
   75.59250        6.6931307E-18
   75.73500        6.6886110E-18
   75.87750        6.6817235E-18
   76.02000        6.6738305E-18
   76.16250        6.6665174E-18
   76.30500        6.6612611E-18
   76.44750        6.6591178E-18
   76.59000        6.6605071E-18
   76.73250        6.6651405E-18
   76.87500        6.6721079E-18
   77.01750        6.6800889E-18
   77.16000        6.6876337E-18
   77.30250        6.6934529E-18
   77.44500        6.6966586E-18
   77.58750        6.6969208E-18
   77.73000        6.6945228E-18
   77.87250        6.6903063E-18
   78.01500        6.6855144E-18
   78.15750        6.6815576E-18
   78.30000        6.6797262E-18
   78.44250        6.6809165E-18
   78.58500        6.6854226E-18
   78.72750        6.6928528E-18
   78.87000        6.7022028E-18
   79.01250        6.7120624E-18
   79.15500        6.7209223E-18
   79.29750        6.7274942E-18
   79.44000        6.7309738E-18
   79.58250        6.7311868E-18
   79.72500        6.7285965E-18
   79.86750        6.7241888E-18
   80.01000        6.7192593E-18
   80.15250        6.7151643E-18
   80.29500        6.7130624E-18
   80.43750        6.7136965E-18
   80.58000        6.7172451E-18
   80.72250        6.7232731E-18
   80.86500        6.7307984E-18
   81.00750        6.7384751E-18
   81.15000        6.7448642E-18
   81.29250        6.7487449E-18
   81.43500        6.7493827E-18
   81.57750        6.7466997E-18
   81.72000        6.7412949E-18
   81.86250        6.7343123E-18
   82.00500        6.7271965E-18
   82.14750        6.7213926E-18
   82.29000        6.7180644E-18
   82.43250        6.7178828E-18
   82.57500        6.7209223E-18
   82.71750        6.7266600E-18
   82.86000        6.7340844E-18
   83.00250        6.7418793E-18
   83.14500        6.7486643E-18
   83.28750        6.7532535E-18
   83.43000        6.7548884E-18
   83.57250        6.7533995E-18
   83.71500        6.7492487E-18
   83.85750        6.7434361E-18
   84.00000        6.7372815E-18
   84.14250        6.7321306E-18
   84.28500        6.7290556E-18
   84.42750        6.7286234E-18
   84.57000        6.7307914E-18
   84.71250        6.7349372E-18
   84.85500        6.7400107E-18
   84.99750        6.7447654E-18
   85.14000        6.7480075E-18
   85.28250        6.7488305E-18
   85.42500        6.7467820E-18
   85.56750        6.7419608E-18
   85.71000        6.7350100E-18
   85.85250        6.7270199E-18
   85.99500        6.7193258E-18
   86.13750        6.7132568E-18
   86.28000        6.7098526E-18
   86.42250        6.7096391E-18
   86.56500        6.7125012E-18
   86.70750        6.7177070E-18
   86.85000        6.7240697E-18
   86.99250        6.7302177E-18
   87.13500        6.7348967E-18
   87.27750        6.7372302E-18
   87.42000        6.7368898E-18
   87.56250        6.7341402E-18
   87.70500        6.7297698E-18
   87.84750        6.7249213E-18
   87.99000        6.7208768E-18
   88.13250        6.7188134E-18
   88.27500        6.7195773E-18
   88.41750        6.7235097E-18
   88.56000        6.7303513E-18
   88.70250        6.7392667E-18
   88.84500        6.7489873E-18
   88.98750        6.7580586E-18
   89.13000        6.7651438E-18
   89.27250        6.7693099E-18
   89.41500        6.7702305E-18
   89.55750        6.7682449E-18
   89.70000        6.7642699E-18
   89.84250        6.7595922E-18
   89.98500        6.7555923E-18
   90.12750        6.7534690E-18
   90.27000        6.7540219E-18
   90.41250        6.7575168E-18
   90.55500        6.7636578E-18
   90.69750        6.7716487E-18
   90.84000        6.7803436E-18
   90.98250        6.7884612E-18
   91.12500        6.7948284E-18
   91.26750        6.7986206E-18
   91.41000        6.7995450E-18
   91.55250        6.7979150E-18
   91.69500        6.7945918E-18
   91.83750        6.7908038E-18
   91.98000        6.7878685E-18
   92.12250        6.7869057E-18
   92.26500        6.7885960E-18
   92.40750        6.7930508E-18
   92.55000        6.7998118E-18
   92.69250        6.8079690E-18
   92.83500        6.8163624E-18
   92.97750        6.8238095E-18
   93.12000        6.8293338E-18
   93.26250        6.8323419E-18
   93.40500        6.8327356E-18
   93.54750        6.8309402E-18
   93.69000        6.8278346E-18
   93.83250        6.8245871E-18
   93.97500        6.8224153E-18
   94.11750        6.8223210E-18
   94.26000        6.8248530E-18
   94.40250        6.8299650E-18
   94.54500        6.8370030E-18
   94.68750        6.8448418E-18
   94.83000        6.8521227E-18
   94.97250        6.8575407E-18
   95.11500        6.8601124E-18
   95.25750        6.8593663E-18
   95.40000        6.8554239E-18
   95.54250        6.8489703E-18
   95.68500        6.8411245E-18
   95.82750        6.8332472E-18
   95.97000        6.8266997E-18
   96.11250        6.8226026E-18
   96.25500        6.8216257E-18
   96.39750        6.8238438E-18
   96.54000        6.8287106E-18
   96.68250        6.8351535E-18
   96.82500        6.8417891E-18
   96.96750        6.8472187E-18
   97.11000        6.8503264E-18
   97.25250        6.8505130E-18
   97.39500        6.8478122E-18
   97.53750        6.8428574E-18
   97.68000        6.8367251E-18
   97.82250        6.8306970E-18
   97.96500        6.8259995E-18
   98.10750        6.8235684E-18
   98.25000        6.8238798E-18
   98.39250        6.8268651E-18
   98.53500        6.8319221E-18
   98.67750        6.8380134E-18
   98.82000        6.8438513E-18
   98.96250        6.8481435E-18
   99.10500        6.8498529E-18
   99.24750        6.8484247E-18
   99.39000        6.8439191E-18