   -30.00000         9.7844703E-19
   -29.85750         9.8019993E-19
   -29.71500         9.8339729E-19
   -29.57250         9.8751024E-19
   -29.43000         9.9189729E-19
   -29.28750         9.9593197E-19
   -29.14500         9.9912334E-19
   -29.00250         1.0012031E-18
   -28.86000         1.0021690E-18
   -28.71750         1.0022736E-18
   -28.57500         1.0019649E-18
   -28.43250         1.0017944E-18
   -28.29000         1.0023019E-18
   -28.14750         1.0039045E-18
   -28.00500         1.0068055E-18
   -27.86250         1.0109432E-18
   -27.72000         1.0159963E-18
   -27.57750         1.0214395E-18
   -27.43500         1.0266510E-18
   -27.29250         1.0310399E-18
   -27.15000         1.0341698E-18
   -27.00750         1.0358496E-18
   -26.86500         1.0361709E-18
   -26.72250         1.0354850E-18
   -26.58000         1.0343313E-18
   -26.43750         1.0333243E-18
   -26.29500         1.0330335E-18
   -26.15250         1.0338774E-18
   -26.01000         1.0360444E-18
   -25.86750         1.0394594E-18
   -25.72500         1.0438014E-18
   -25.58250         1.0485649E-18
   -25.44000         1.0531574E-18
   -25.29750         1.0570207E-18
   -25.15500         1.0597449E-18
   -25.01250         1.0611524E-18
   -24.87000         1.0613422E-18
   -24.72750         1.0606658E-18
   -24.58500         1.0596543E-18
   -24.44250         1.0589043E-18
   -24.30000         1.0589486E-18
   -24.15750         1.0601488E-18
   -24.01500         1.0626233E-18
   -23.87250         1.0662270E-18
   -23.73000         1.0705879E-18
   -23.58750         1.0751838E-18
   -23.44500         1.0794470E-18
   -23.30250         1.0828757E-18
   -23.16000         1.0851336E-18
   -23.01750         1.0861163E-18
   -22.87500         1.0859739E-18
   -22.73250         1.0850853E-18
   -22.59000         1.0839837E-18
   -22.44750         1.0832462E-18
   -22.30500         1.0833711E-18
   -22.16250         1.0846718E-18
   -22.02000         1.0872084E-18
   -21.87750         1.0907740E-18
   -21.73500         1.0949423E-18
   -21.59250         1.0991617E-18
   -21.45000         1.1028735E-18
   -21.30750         1.1056285E-18
   -21.16500         1.1071795E-18
   -21.02250         1.1075285E-18
   -20.88000         1.1069258E-18
   -20.73750         1.1058200E-18
   -20.59500         1.1047711E-18
   -20.45250         1.1043409E-18
   -20.31000         1.1049816E-18
   -20.16750         1.1069397E-18
   -20.02500         1.1102031E-18
   -19.88250         1.1144929E-18
   -19.74000         1.1193190E-18
   -19.59750         1.1240794E-18
   -19.45500         1.1281891E-18
   -19.31250         1.1312057E-18
   -19.17000         1.1329260E-18
   -19.02750         1.1334308E-18
   -18.88500         1.1330685E-18
   -18.74250         1.1323804E-18
   -18.60000         1.1319920E-18
   -18.45750         1.1324854E-18
   -18.31500         1.1342844E-18
   -18.17250         1.1375663E-18
   -18.03000         1.1422219E-18
   -17.88750         1.1478669E-18
   -17.74500         1.1539050E-18
   -17.60250         1.1596292E-18
   -17.46000         1.1643569E-18
   -17.31750         1.1675588E-18
   -17.17500         1.1689654E-18
   -17.03250         1.1686249E-18
   -16.89000         1.1668983E-18
   -16.74750         1.1643886E-18
   -16.60500         1.1618196E-18
   -16.46250         1.1598963E-18
   -16.32000         1.1591672E-18
   -16.17750         1.1599274E-18
   -16.03500         1.1621719E-18
   -15.89250         1.1656103E-18
   -15.75000         1.1697316E-18
   -15.60750         1.1739096E-18
   -15.46500         1.1775236E-18
   -15.32250         1.1800776E-18
   -15.18000         1.1812929E-18
   -15.03750         1.1811616E-18
   -14.89500         1.1799452E-18
   -14.75250         1.1781217E-18
   -14.61000         1.1762843E-18
   -14.46750         1.1750123E-18
   -14.32500         1.1747468E-18
   -14.18250         1.1756949E-18
   -14.04000         1.1777833E-18
   -13.89750         1.1806776E-18
   -13.75500         1.1838554E-18
   -13.61250         1.1867219E-18
   -13.47000         1.1887309E-18
   -13.32750         1.1895021E-18
   -13.18500         1.1888960E-18
   -13.04250         1.1870441E-18
   -12.90000         1.1843269E-18
   -12.75750         1.1813073E-18
   -12.61500         1.1786266E-18
   -12.47250         1.1768864E-18
   -12.33000         1.1765320E-18
   -12.18750         1.1777650E-18
   -12.04500         1.1805007E-18
   -11.90250         1.1843840E-18
   -11.76000         1.1888602E-18
   -11.61750         1.1932886E-18
   -11.47500         1.1970728E-18
   -11.33250         1.1997801E-18
   -11.19000         1.2012213E-18
   -11.04750         1.2014818E-18
   -10.90500         1.2008885E-18
   -10.76250         1.1999374E-18
   -10.62000         1.1991845E-18
   -10.47750         1.1991339E-18
   -10.33500         1.2001354E-18
   -10.19250         1.2023134E-18
   -10.05000         1.2055400E-18
   -9.907500         1.2094538E-18
   -9.765000         1.2135251E-18
   -9.622500         1.2171612E-18
   -9.480000         1.2198219E-18
   -9.337500         1.2211330E-18
   -9.195000         1.2209630E-18
   -9.052500         1.2194521E-18
   -8.910000         1.2169804E-18
   -8.767500         1.2140878E-18
   -8.625000         1.2113609E-18
   -8.482500         1.2093150E-18
   -8.340000         1.2082967E-18
   -8.197500         1.2084245E-18
   -8.055000         1.2095776E-18
   -7.912500         1.2114304E-18
   -7.770000         1.2135267E-18
   -7.627500         1.2153710E-18
   -7.485000         1.2165340E-18
   -7.342500         1.2167400E-18
   -7.200000         1.2159287E-18
   -7.057500         1.2142752E-18
   -6.915000         1.2121584E-18
   -6.772500         1.2100863E-18
   -6.630000         1.2085887E-18
   -6.487500         1.2081032E-18
   -6.345000         1.2088762E-18
   -6.202500         1.2109119E-18
   -6.060000         1.2139718E-18
   -5.917500         1.2176267E-18
   -5.775000         1.2213521E-18
   -5.632500         1.2246355E-18
   -5.490000         1.2270785E-18
   -5.347500         1.2284752E-18
   -5.205000         1.2288452E-18
   -5.062500         1.2284276E-18
   -4.920000         1.2276288E-18
   -4.777500         1.2269420E-18
   -4.635000         1.2268424E-18
   -4.492500         1.2276866E-18
   -4.350000         1.2296261E-18
   -4.207500         1.2325663E-18
   -4.065000         1.2361676E-18
   -3.922500         1.2399100E-18
   -3.780000         1.2431965E-18
   -3.637500         1.2454763E-18
   -3.495000         1.2463640E-18
   -3.352500         1.2457220E-18
   -3.210000         1.2436923E-18
   -3.067500         1.2406671E-18
   -2.925000         1.2372172E-18
   -2.782500         1.2339804E-18
   -2.640000         1.2315466E-18
   -2.497500         1.2303511E-18
   -2.355000         1.2306006E-18
   -2.212500         1.2322391E-18
   -2.070000         1.2349643E-18
   -1.927500         1.2382877E-18
   -1.785000         1.2416345E-18
   -1.642500         1.2444609E-18
   -1.500000         1.2463675E-18
   -1.357500         1.2471846E-18
   -1.215000         1.2470048E-18
   -1.072500         1.2461638E-18
  -0.9300000         1.2451616E-18
  -0.7875000         1.2445512E-18
  -0.6450000         1.2448167E-18
  -0.5025000         1.2462693E-18
  -0.3600000         1.2489814E-18
  -0.2175000         1.2527692E-18
  -7.5000003E-02     1.2572313E-18
   6.7500003E-02     1.2618203E-18
   0.2100000         1.2659505E-18
   0.3525000         1.2691074E-18
   0.4950000         1.2709487E-18
   0.6375000         1.2713721E-18
   0.7800000         1.2705433E-18
   0.9225000         1.2688648E-18
    1.065000         1.2669019E-18
    1.207500         1.2652647E-18
    1.350000         1.2644832E-18
    1.492500         1.2648953E-18
    1.635000         1.2665747E-18
    1.777500         1.2693186E-18
    1.920000         1.2726874E-18
    2.062500         1.2760987E-18
    2.205000         1.2789442E-18
    2.347500         1.2807067E-18
    2.490000         1.2810617E-18
    2.632500         1.2799375E-18
    2.775000         1.2775308E-18
    2.917500         1.2742778E-18
    3.060000         1.2707760E-18
    3.202500         1.2676792E-18
    3.345000         1.2655786E-18
    3.487500         1.2648875E-18
    3.630000         1.2657636E-18
    3.772500         1.2680790E-18
    3.915000         1.2714501E-18
    4.057500         1.2753180E-18
    4.200000         1.2790678E-18
    4.342500         1.2821530E-18
    4.485000         1.2841988E-18
    4.627500         1.2850657E-18
    4.770000         1.2848585E-18
    4.912500         1.2838879E-18
    5.055000         1.2825927E-18
    5.197500         1.2814441E-18
    5.340000         1.2808474E-18
    5.482500         1.2810605E-18
    5.625000         1.2821403E-18
    5.767500         1.2839277E-18
    5.910000         1.2860786E-18
    6.052500         1.2881334E-18
    6.195000         1.2896165E-18
    6.337500         1.2901438E-18
    6.480000         1.2895191E-18
    6.622500         1.2877871E-18
    6.765000         1.2852376E-18
    6.907500         1.2823493E-18
    7.050000         1.2796955E-18
    7.192500         1.2778291E-18
    7.335000         1.2771729E-18
    7.477500         1.2779409E-18
    7.620000         1.2801033E-18
    7.762500         1.2834005E-18
    7.905000         1.2873950E-18
    8.047500         1.2915569E-18
    8.190000         1.2953631E-18
    8.332500         1.2983960E-18
    8.475000         1.3004218E-18
    8.617500         1.3014329E-18
    8.760000         1.3016511E-18
    8.902500         1.3014752E-18
    9.045000         1.3013931E-18
    9.187500         1.3018693E-18
    9.330000         1.3032336E-18
    9.472500         1.3056014E-18
    9.615000         1.3088393E-18
    9.757500         1.3125877E-18
    9.900000         1.3163310E-18
    10.04250         1.3195030E-18
    10.18500         1.3215979E-18
    10.32750         1.3222706E-18
    10.47000         1.3214049E-18
    10.61250         1.3191409E-18
    10.75500         1.3158565E-18
    10.89750         1.3121027E-18
    11.04000         1.3085114E-18
    11.18250         1.3056771E-18
    11.32500         1.3040488E-18
    11.46750         1.3038428E-18
    11.61000         1.3050028E-18
    11.75250         1.3072148E-18
    11.89500         1.3099762E-18
    12.03750         1.3127043E-18
    12.18000         1.3148590E-18
    12.32250         1.3160529E-18
    12.46500         1.3161275E-18
    12.60750         1.3151768E-18
    12.75000         1.3135246E-18
    12.89250         1.3116545E-18
    13.03500         1.3101166E-18
    13.17750         1.3094168E-18
    13.32000         1.3099214E-18
    13.46250         1.3117814E-18
    13.60500         1.3148946E-18
    13.74750         1.3189185E-18
    13.89000         1.3233315E-18
    14.03250         1.3275314E-18
    14.17500         1.3309583E-18
    14.31750         1.3332076E-18
    14.46000         1.3341111E-18
    14.60250         1.3337694E-18
    14.74500         1.3325210E-18
    14.88750         1.3308664E-18
    15.03000         1.3293594E-18
    15.17250         1.3284923E-18
    15.31500         1.3286028E-18
    15.45750         1.3298144E-18
    15.60000         1.3320182E-18
    15.74250         1.3349012E-18
    15.88500         1.3380060E-18
    16.02750         1.3408220E-18
    16.17000         1.3428895E-18
    16.31250         1.3438936E-18
    16.45500         1.3437420E-18
    16.59750         1.3425923E-18
    16.74000         1.3408311E-18
    16.88250         1.3389972E-18
    17.02500         1.3376718E-18
    17.16750         1.3373513E-18
    17.31000         1.3383404E-18
    17.45250         1.3406842E-18
    17.59500         1.3441600E-18
    17.73750         1.3483179E-18
    17.88000         1.3525714E-18
    18.02250         1.3563051E-18
    18.16500         1.3589857E-18
    18.30750         1.3602547E-18
    18.45000         1.3599880E-18
    18.59250         1.3583174E-18
    18.73500         1.3556061E-18
    18.87750         1.3523843E-18
    19.02000         1.3492513E-18
    19.16250         1.3467644E-18
    19.30500         1.3453277E-18
    19.44750         1.3451185E-18
    19.59000         1.3460551E-18
    19.73250         1.3478239E-18
    19.87500         1.3499556E-18
    20.01750         1.3519310E-18
    20.16000         1.3532934E-18
    20.30250         1.3537412E-18
    20.44500         1.3531820E-18
    20.58750         1.3517431E-18
    20.73000         1.3497370E-18
    20.87250         1.3475963E-18
    21.01500         1.3457858E-18
    21.15750         1.3447145E-18
    21.30000         1.3446554E-18
    21.44250         1.3456937E-18
    21.58500         1.3477115E-18
    21.72750         1.3504125E-18
    21.87000         1.3533894E-18
    22.01250         1.3562131E-18
    22.15500         1.3585328E-18
    22.29750         1.3601512E-18
    22.44000         1.3610690E-18
    22.58250         1.3614800E-18
    22.72500         1.3617204E-18
    22.86750         1.3621908E-18
    23.01000         1.3632623E-18
    23.15250         1.3651935E-18
    23.29500         1.3680722E-18
    23.43750         1.3717897E-18
    23.58000         1.3760533E-18
    23.72250         1.3804324E-18
    23.86500         1.3844319E-18
    24.00750         1.3875833E-18
    24.15000         1.3895340E-18
    24.29250         1.3901198E-18
    24.43500         1.3894030E-18
    24.57750         1.3876602E-18
    24.72000         1.3853264E-18
    24.86250         1.3829028E-18
    25.00500         1.3808513E-18
    25.14750         1.3794994E-18
    25.29000         1.3789786E-18
    25.43250         1.3792108E-18
    25.57500         1.3799374E-18
    25.71750         1.3807866E-18
    25.86000         1.3813581E-18
    26.00250         1.3813129E-18
    26.14500         1.3804476E-18
    26.28750         1.3787456E-18
    26.43000         1.3763942E-18
    26.57250         1.3737661E-18
    26.71500         1.3713583E-18
    26.85750         1.3697065E-18
    27.00000         1.3692779E-18
    27.14250         1.3703741E-18
    27.28500         1.3730584E-18
    27.42750         1.3771326E-18
    27.57000         1.3821684E-18
    27.71250         1.3875885E-18
    27.85500         1.3927785E-18
    27.99750         1.3972002E-18
    28.14000         1.4004844E-18
    28.28250         1.4024862E-18
    28.42500         1.4032913E-18
    28.56750         1.4031845E-18
    28.71000         1.4025802E-18
    28.85250         1.4019349E-18
    28.99500         1.4016573E-18
    29.13750         1.4020244E-18
    29.28000         1.4031223E-18
    29.42250         1.4048241E-18
    29.56500         1.4068110E-18
    29.70750         1.4086370E-18
    29.85000         1.4098278E-18
    29.99250         1.4099921E-18
    30.13500         1.4089175E-18
    30.27750         1.4066337E-18
    30.42000         1.4034147E-18
    30.56250         1.3997361E-18
    30.70500         1.3961801E-18
    30.84750         1.3933271E-18
    30.99000         1.3916428E-18
    31.13250         1.3913946E-18
    31.27500         1.3926041E-18
    31.41750         1.3950447E-18
    31.56000         1.3982824E-18
    31.70250         1.4017573E-18
    31.84500         1.4048878E-18
    31.98750         1.4071828E-18
    32.13000         1.4083397E-18
    32.27250         1.4083100E-18
    32.41500         1.4073147E-18
    32.55750         1.4058015E-18
    32.70000         1.4043529E-18
    32.84250         1.4035664E-18
    32.98500         1.4039280E-18
    33.12750         1.4057108E-18
    33.27000         1.4089192E-18
    33.41250         1.4132871E-18
    33.55500         1.4183280E-18
    33.69750         1.4234270E-18
    33.84000         1.4279490E-18
    33.98250         1.4313554E-18
    34.12500         1.4332962E-18
    34.26750         1.4336711E-18
    34.41000         1.4326465E-18
    34.55250         1.4306180E-18
    34.69500         1.4281309E-18
    34.83750         1.4257684E-18
    34.98000         1.4240295E-18
    35.12250         1.4232284E-18
    35.26500         1.4234355E-18
    35.40750         1.4244688E-18
    35.55000         1.4259512E-18
    35.69250         1.4274000E-18
    35.83500         1.4283417E-18
    35.97750         1.4284158E-18
    36.12000         1.4274546E-18
    36.26250         1.4255202E-18
    36.40500         1.4228950E-18
    36.54750         1.4200393E-18
    36.69000         1.4175066E-18
    36.83250         1.4158486E-18
    36.97500         1.4155086E-18
    37.11750         1.4167365E-18
    37.26000         1.4195313E-18
    37.40250         1.4236326E-18
    37.54500         1.4285631E-18
    37.68750         1.4337183E-18
    37.83000         1.4384845E-18
    37.97250         1.4423531E-18
    38.11500         1.4450135E-18
    38.25750         1.4463949E-18
    38.40000         1.4466621E-18
    38.54250         1.4461565E-18
    38.68500         1.4453147E-18
    38.82750         1.4445732E-18
    38.97000         1.4442852E-18
    39.11250         1.4446552E-18
    39.25500         1.4457091E-18
    39.39750         1.4472931E-18
    39.54000         1.4491101E-18
    39.68250         1.4507798E-18
    39.82500         1.4519230E-18
    39.96750         1.4522506E-18
    40.11000         1.4516345E-18
    40.25250         1.4501514E-18
    40.39500         1.4480774E-18
    40.53750         1.4458356E-18
    40.68000         1.4439106E-18
    40.82250         1.4427461E-18
    40.96500         1.4426515E-18
    41.10750         1.4437398E-18
    41.25000         1.4459093E-18
    41.39250         1.4488665E-18
    41.53500         1.4521849E-18
    41.67750         1.4553830E-18
    41.82000         1.4580108E-18
    41.96250         1.4597271E-18
    42.10500         1.4603598E-18
    42.24750         1.4599330E-18
    42.39000         1.4586641E-18
    42.53250         1.4569200E-18
    42.67500         1.4551460E-18
    42.81750         1.4537700E-18
    42.96000         1.4531151E-18
    43.10250         1.4533298E-18
    43.24500         1.4543598E-18
    43.38750         1.4559671E-18
    43.53000         1.4577862E-18
    43.67250         1.4594096E-18
    43.81500         1.4604777E-18
    43.95750         1.4607534E-18
    44.10000         1.4601686E-18
    44.24250         1.4588389E-18
    44.38500         1.4570386E-18
    44.52750         1.4551510E-18
    44.67000         1.4535933E-18
    44.81250         1.4527364E-18
    44.95500         1.4528262E-18
    45.09750         1.4539285E-18
    45.24000         1.4559105E-18
    45.38250         1.4584604E-18
    45.52500         1.4611544E-18
    45.66750         1.4635458E-18
    45.81000         1.4652659E-18
    45.95250         1.4661027E-18
    46.09500         1.4660482E-18
    46.23750         1.4652965E-18
    46.38000         1.4642023E-18
    46.52250         1.4632079E-18
    46.66500         1.4627566E-18
    46.80750         1.4632098E-18
    46.95000         1.4647795E-18
    47.09250         1.4674859E-18
    47.23500         1.4711502E-18
    47.37750         1.4754161E-18
    47.52000         1.4798091E-18
    47.66250         1.4838198E-18
    47.80500         1.4869999E-18
    47.94750         1.4890498E-18
    48.09000         1.4898759E-18
    48.23250         1.4896026E-18
    48.37500         1.4885358E-18
    48.51750         1.4870866E-18
    48.66000         1.4856742E-18
    48.80250         1.4846333E-18
    48.94500         1.4841512E-18
    49.08750         1.4842404E-18
    49.23000         1.4847478E-18
    49.37250         1.4854011E-18
    49.51500         1.4858701E-18
    49.65750         1.4858363E-18
    49.80000         1.4850615E-18
    49.94250         1.4834428E-18
    50.08500         1.4810470E-18
    50.22750         1.4781176E-18
    50.37000         1.4750449E-18
    50.51250         1.4723020E-18
    50.65500         1.4703570E-18
    50.79750         1.4695770E-18
    50.94000         1.4701496E-18
    51.08250         1.4720457E-18
    51.22500         1.4750259E-18
    51.36750         1.4786933E-18
    51.51000         1.4825777E-18
    51.65250         1.4862262E-18
    51.79500         1.4892834E-18
    51.93750         1.4915435E-18
    52.08000         1.4929708E-18
    52.22250         1.4936890E-18
    52.36500         1.4939448E-18
    52.50750         1.4940498E-18
    52.65000         1.4943151E-18
    52.79250         1.4949816E-18
    52.93500         1.4961609E-18
    53.07750         1.4978021E-18
    53.22000         1.4996938E-18
    53.36250         1.5015033E-18
    53.50500         1.5028553E-18
    53.64750         1.5034176E-18
    53.79000         1.5029891E-18
    53.93250         1.5015519E-18
    54.07500         1.4992862E-18
    54.21750         1.4965401E-18
    54.36000         1.4937651E-18
    54.50250         1.4914324E-18
    54.64500         1.4899476E-18
    54.78750         1.4895812E-18
    54.93000         1.4904182E-18
    55.07250         1.4923415E-18
    55.21500         1.4950494E-18
    55.35750         1.4981074E-18
    55.50000         1.5010246E-18
    55.64250         1.5033530E-18
    55.78500         1.5047780E-18
    55.92750         1.5051841E-18
    56.07000         1.5046824E-18
    56.21250         1.5035834E-18
    56.35500         1.5023288E-18
    56.49750         1.5013908E-18
    56.64000         1.5011730E-18
    56.78250         1.5019266E-18
    56.92500         1.5037049E-18
    57.06750         1.5063536E-18
    57.21000         1.5095438E-18
    57.35250         1.5128296E-18
    57.49500         1.5157263E-18
    57.63750         1.5177975E-18
    57.78000         1.5187379E-18
    57.92250         1.5184358E-18
    58.06500         1.5170046E-18
    58.20750         1.5147708E-18
    58.35000         1.5122128E-18
    58.49250         1.5098657E-18
    58.63500         1.5082095E-18
    58.77750         1.5075691E-18
    58.92000         1.5080541E-18
    59.06250         1.5095435E-18
    59.20500         1.5117292E-18
    59.34750         1.5141894E-18
    59.49000         1.5164813E-18
    59.63250         1.5182271E-18
    59.77500         1.5191832E-18
    59.91750         1.5192742E-18
    60.06000         1.5186084E-18
    60.20250         1.5174529E-18
    60.34500         1.5161887E-18
    60.48750         1.5152393E-18
    60.63000         1.5149827E-18
    60.77250         1.5156654E-18
    60.91500         1.5173365E-18
    61.05750         1.5198232E-18
    61.20000         1.5227577E-18
    61.34250         1.5256534E-18
    61.48500         1.5280101E-18
    61.62750         1.5294269E-18
    61.77000         1.5296865E-18
    61.91250         1.5288029E-18
    62.05500         1.5270113E-18
    62.19750         1.5247192E-18
    62.34000         1.5224294E-18
    62.48250         1.5206501E-18
    62.62500         1.5198051E-18
    62.76750         1.5201617E-18
    62.91000         1.5217783E-18
    63.05250         1.5244832E-18
    63.19500         1.5278948E-18
    63.33750         1.5314823E-18
    63.48000         1.5346627E-18
    63.62250         1.5369171E-18
    63.76500         1.5378968E-18
    63.90750         1.5375040E-18
    64.05000         1.5359125E-18
    64.19250         1.5335313E-18
    64.33500         1.5309242E-18
    64.47750         1.5286954E-18
    64.62000         1.5273776E-18
    64.76250         1.5273389E-18
    64.90500         1.5287226E-18
    65.04750         1.5314269E-18
    65.19000         1.5351263E-18
    65.33250         1.5393264E-18
    65.47500         1.5434479E-18
    65.61750         1.5469300E-18
    65.76000         1.5493334E-18
    65.90250         1.5504219E-18
    66.04500         1.5502100E-18
    66.18750         1.5489512E-18
    66.33000         1.5470800E-18
    66.47250         1.5451095E-18
    66.61500         1.5435206E-18
    66.75750         1.5426613E-18
    66.90000         1.5426847E-18
    67.04250         1.5435302E-18
    67.18500         1.5449507E-18
    67.32750         1.5465740E-18
    67.47000         1.5479796E-18
    67.61250         1.5487806E-18
    67.75500         1.5487017E-18
    67.89750         1.5476345E-18
    68.04000         1.5456699E-18
    68.18250         1.5430911E-18
    68.32500         1.5403257E-18
    68.46750         1.5378620E-18
    68.61000         1.5361448E-18
    68.75250         1.5354758E-18
    68.89500         1.5359447E-18
    69.03750         1.5374116E-18
    69.18000         1.5395434E-18
    69.32250         1.5418931E-18
    69.46500         1.5440019E-18
    69.60750         1.5454924E-18
    69.75000         1.5461389E-18
    69.89250         1.5459017E-18
    70.03500         1.5449260E-18
    70.17750         1.5435109E-18
    70.32000         1.5420570E-18
    70.46250         1.5409956E-18
    70.60500         1.5407091E-18
    70.74750         1.5414518E-18
    70.89000         1.5432894E-18
    71.03250         1.5460670E-18
    71.17500         1.5494300E-18
    71.31750         1.5528903E-18
    71.46000         1.5559285E-18
    71.60250         1.5581090E-18
    71.74500         1.5591737E-18
    71.88750         1.5590918E-18
    72.03000         1.5580574E-18
    72.17250         1.5564393E-18
    72.31500         1.5546993E-18
    72.45750         1.5533005E-18
    72.60000         1.5526293E-18
    72.74250         1.5529322E-18
    72.88500         1.5542785E-18
    73.02750         1.5565535E-18
    73.17000         1.5594752E-18
    73.31250         1.5626439E-18
    73.45500         1.5656165E-18
    73.59750         1.5679936E-18
    73.74000         1.5695060E-18
    73.88250         1.5700751E-18
    74.02500         1.5698269E-18
    74.16750         1.5690574E-18
    74.31000         1.5681575E-18
    74.45250         1.5675120E-18
    74.59500         1.5674102E-18
    74.73750         1.5679818E-18
    74.88000         1.5691739E-18
    75.02250         1.5707726E-18
    75.16500         1.5724480E-18
    75.30750         1.5738232E-18
    75.45000         1.5745471E-18
    75.59250         1.5743623E-18
    75.73500         1.5731623E-18
    75.87750         1.5710208E-18
    76.02000         1.5681950E-18
    76.16250         1.5650859E-18
    76.30500         1.5621659E-18
    76.44750         1.5598824E-18
    76.59000         1.5585611E-18
    76.73250         1.5583351E-18
    76.87500         1.5591194E-18
    77.01750         1.5606355E-18
    77.16000         1.5624789E-18
    77.30250         1.5642121E-18
    77.44500         1.5654537E-18
    77.58750         1.5659536E-18
    77.73000         1.5656349E-18
    77.87250         1.5646044E-18
    78.01500         1.5631361E-18
    78.15750         1.5616274E-18
    78.30000         1.5605296E-18
    78.44250         1.5602682E-18
    78.58500         1.5611562E-18
    78.72750         1.5633217E-18
    78.87000         1.5666682E-18
    79.01250         1.5708833E-18
    79.15500         1.5754997E-18
    79.29750         1.5799877E-18
    79.44000         1.5838685E-18
    79.58250         1.5868052E-18
    79.72500         1.5886561E-18
    79.86750         1.5894816E-18
    80.01000         1.5895066E-18
    80.15250         1.5890580E-18
    80.29500         1.5884930E-18
    80.43750         1.5881309E-18
    80.58000         1.5881952E-18
    80.72250         1.5887768E-18
    80.86500         1.5898122E-18
    81.00750         1.5910890E-18
    81.15000         1.5922810E-18
    81.29250         1.5930147E-18
    81.43500         1.5929566E-18
    81.57750         1.5919028E-18
    81.72000         1.5898407E-18
    81.86250         1.5869698E-18
    82.00500         1.5836677E-18
    82.14750         1.5804085E-18
    82.29000         1.5776630E-18
    82.43250         1.5757979E-18
    82.57500         1.5750102E-18
    82.71750         1.5752974E-18
    82.86000         1.5764703E-18
    83.00250         1.5781973E-18
    83.14500         1.5800636E-18
    83.28750         1.5816448E-18
    83.43000         1.5825778E-18
    83.57250         1.5826273E-18
    83.71500         1.5817341E-18
    83.85750         1.5800378E-18
    84.00000         1.5778536E-18
    84.14250         1.5756135E-18
    84.28500         1.5737725E-18
    84.42750         1.5727015E-18
    84.57000         1.5726056E-18
    84.71250         1.5734712E-18
    84.85500         1.5750787E-18
    84.99750         1.5770544E-18
    85.14000         1.5789570E-18
    85.28250         1.5803741E-18
    85.42500         1.5810052E-18
    85.56750         1.5807187E-18
    85.71000         1.5795760E-18
    85.85250         1.5778259E-18
    85.99500         1.5758604E-18
    86.13750         1.5741511E-18
    86.28000         1.5731589E-18
    86.42250         1.5732436E-18
    86.56500         1.5745799E-18
    86.70750         1.5771108E-18
    86.85000         1.5805489E-18
    86.99250         1.5844327E-18
    87.13500         1.5882203E-18
    87.27750         1.5914055E-18
    87.42000         1.5936186E-18
    87.56250         1.5946901E-18
    87.70500         1.5946719E-18
    87.84750         1.5938109E-18
    87.99000         1.5924887E-18
    88.13250         1.5911430E-18
    88.27500         1.5901873E-18
    88.41750         1.5899343E-18
    88.56000         1.5905369E-18
    88.70250         1.5919535E-18
    88.84500         1.5939488E-18
    88.98750         1.5961358E-18
    89.13000         1.5980541E-18
    89.27250         1.5992782E-18
    89.41500         1.5995205E-18
    89.55750         1.5987074E-18
    89.70000         1.5970030E-18
    89.84250         1.5947746E-18
    89.98500         1.5925087E-18
    90.12750         1.5907024E-18
    90.27000         1.5897603E-18
    90.41250         1.5899193E-18
    90.55500         1.5912114E-18
    90.69750         1.5934693E-18
    90.84000         1.5963600E-18
    90.98250         1.5994426E-18
    91.12500         1.6022415E-18
    91.26750         1.6043295E-18
    91.41000         1.6054110E-18
    91.55250         1.6053877E-18
    91.69500         1.6043938E-18
    91.83750         1.6027821E-18
    91.98000         1.6010593E-18