 0.   2.901068612E-18
 0.169056863   -5.671447271E-16
 0.338113725   -1.361943217E-15
 0.507170618   -2.331493551E-15
 0.67622745   -4.395512308E-15
 0.845284343   -9.452022871E-15
 1.01434124   -1.946513222E-14
 1.18339813   -3.500127502E-14
 1.3524549   -5.404730889E-14
 1.52151179   -7.194980424E-14
 1.69056869   -8.281155845E-14
 1.85962558   -8.189987317E-14
 2.02868247   -6.798817016E-14
 2.19773936   -4.444441167E-14
 2.36679626   -1.840418111E-14
 2.53585315   1.741031436E-15
 2.7049098   9.498198025E-15
 2.87396669   2.713717592E-15
 3.04302359   -1.572311176E-14
 3.21208048   -3.91231203E-14
 3.38113737   -5.950804899E-14
 3.55019426   -7.020429295E-14
 3.71925116   -6.745235745E-14
 3.88830805   -5.05937184E-14
 4.05736494   -2.115233715E-14
 4.22642183   1.841138089E-14
 4.39547873   6.553525084E-14
 4.56453562   1.176949299E-13
 4.73359251   1.721340084E-13
 4.9026494   2.257875961E-13
 5.0717063   2.758618529E-13
 5.24076319   3.210113111E-13
 5.4098196   3.625007467E-13
 5.5788765   4.045277297E-13
 5.74793339   4.531968334E-13
 5.91699028   5.143219292E-13
 6.08604717   5.909223848E-13
 6.25510406   6.815746426E-13
 6.42416096   7.804878163E-13
 6.59321785   8.793873832E-13
 6.76227474   9.704189492E-13
 6.93133163   1.048787034E-12
 7.10038853   1.11399865E-12
 7.26944542   1.169292527E-12
 7.43850231   1.219703375E-12
 7.6075592   1.269788745E-12
 7.7766161   1.322067456E-12
 7.94567299   1.376696608E-12
 8.11472988   1.432184991E-12
 8.28378677   1.486418085E-12
 8.45284367   1.537251012E-12
 8.62190056   1.582386891E-12
 8.79095745   1.618855332E-12
 8.96001434   1.642755593E-12
 9.12907124   1.649792716E-12
 9.29812813   1.636610769E-12
 9.46718502   1.602317129E-12
 9.63624191   1.549298992E-12
 9.80529881   1.482667071E-12
 9.9743557   1.408342735E-12
 10.1434126   1.330569877E-12
 10.3124695   1.250008994E-12
 10.4815264   1.163346004E-12
 10.6505823   1.064623975E-12
 10.8196392   9.476743392E-13
 10.9886961   8.08517153E-13
 11.157753   6.466759636E-13
 11.3268099   4.649531628E-13
 11.4958668   2.680100879E-13
 11.6649237   6.062936476E-14
 11.8339806   -1.534600355E-13
 12.0030375   -3.71793064E-13
 12.1720943   -5.926369421E-13
 12.3411512   -8.143320545E-13
 12.5102081   -1.035072202E-12
 12.679265   -1.253270816E-12
 12.8483219   -1.468163915E-12
 13.0173788   -1.680048787E-12
 13.1864357   -1.889752027E-12
 13.3554926   -2.097441795E-12
 13.5245495   -2.301402775E-12
 13.6936064   -2.497544055E-12
 13.8626633   -2.68007708E-12
 14.0317202   -2.843189226E-12
 14.2007771   -2.982957631E-12
 14.3698339   -3.098571313E-12
 14.5388908   -3.192232503E-12
 14.7079477   -3.267778843E-12
 14.8770046   -3.328710137E-12
 15.0460615   -3.3765614E-12
 15.2151184   -3.410309578E-12
 15.3841753   -3.426916736E-12
 15.5532322   -3.42253721E-12
 15.7222891   -3.393691144E-12
 15.891346   -3.337876633E-12
 16.0604019   -3.253552159E-12
 16.2294598   -3.139837132E-12
 16.3985157   -2.996408026E-12
 16.5675735   -2.823821472E-12
 16.7366295   -2.624081724E-12
 16.9056873   -2.400971783E-12
 17.0747433   -2.159728126E-12
 17.2438011   -1.905988822E-12
 17.4128571   -1.64440087E-12
 17.5819149   -1.377520168E-12
 17.7509708   -1.10554827E-12
 17.9200287   -8.270352719E-13
 18.0890846   -5.401820484E-13
 18.2581425   -2.4409622E-13
 18.4271984   6.05435366E-14
 18.5962563   3.715651647E-13
 18.7653122   6.858501939E-13
 18.93437   9.998968884E-13
 19.103426   1.310077589E-12
 19.2724838   1.612601003E-12
 19.4415398   1.903486266E-12
 19.6105976   2.178891399E-12
 19.7796535   2.435880274E-12
 19.9487114   2.673307973E-12
 20.1177673   2.892267589E-12
 20.2868252   3.095649171E-12
 20.4558811   3.286803989E-12
 20.624939   3.467820432E-12
 20.7939949   3.638184806E-12
 20.9630527   3.79447385E-12
 21.1321087   3.93124899E-12
 21.3011646   4.042727524E-12
 21.4702225   4.12446249E-12
 21.6392784   4.174321912E-12
 21.8083363   4.192509621E-12
 21.9773922   4.180875264E-12
 22.14645   4.142055622E-12
 22.315506   4.078888702E-12
 22.4845638   3.994199502E-12
 22.6536198   3.890711971E-12
 22.8226776   3.770724184E-12
 22.9917336   3.635433534E-12
 23.1607914   3.484177573E-12
 23.3298473   3.314156024E-12
 23.4989052   3.121099299E-12
 23.6679611   2.90087984E-12
 23.837019   2.651487103E-12
 24.0060749   2.374444608E-12
 24.1751328   2.074905569E-12
 24.3441887   1.760248414E-12
 24.5132465   1.437744238E-12
 24.6823025   1.112360204E-12
 24.8513603   7.85717845E-13
 25.0204163   4.566449757E-13
 25.1894741   1.229488245E-13
 25.35853   -2.165333071E-13
 25.5275879   -5.606031589E-13
 25.6966438   -9.056179201E-13
 25.8657017   -1.246496504E-12
 26.0347576   -1.578132265E-12
 26.2038155   -1.896440687E-12
 26.3728714   -2.198632552E-12
 26.5419292   -2.482851381E-12
 26.7109852   -2.747697035E-12
 26.880043   -2.992118706E-12
 27.049099   -3.215773134E-12
 27.2181568   -3.419497541E-12
 27.3872128   -3.60532936E-12
 27.5562706   -3.7757358E-12
 27.7253265   -3.932198317E-12
 27.8943844   -4.073828514E-12
 28.0634403   -4.196850766E-12
 28.2324982   -4.29546676E-12
 28.4015541   -4.36391678E-12
 28.57061   -4.398890974E-12
 28.7396679   -4.401150017E-12
 28.9087238   -4.375547234E-12
 29.0777817   -4.329351981E-12
 29.2468376   -4.269590757E-12
 29.4158955   -4.200557003E-12
 29.5849514   -4.12253608E-12
 29.7540092   -4.032170431E-12
 29.9230652   -3.92411971E-12
 30.092123   -3.793142449E-12
 30.261179   -3.635703934E-12
 30.4302368   -3.450620215E-12
 30.5992928   -3.238820019E-12
 30.7683506   -3.002718083E-12
 30.9374065   -2.745719667E-12
 31.1064644   -2.47208959E-12
 31.2755203   -2.186988004E-12
 31.4445782   -1.89624076E-12
 31.6136341   -1.60554469E-12
 31.782692   -1.3192005E-12
 31.9517479   -1.03889976E-12
 32.1208038   -7.632321424E-13
 32.2898636   -4.883444452E-13
 32.4589195   -2.096491112E-13
 32.6279755   7.606314531E-14
 32.7970314   3.690118957E-13
 32.9660912   6.660281593E-13
 33.1351471   9.615168904E-13
 33.304203   1.249296131E-12
 33.473259   1.524462414E-12
 33.6423187   1.784500499E-12
 33.8113747   2.029296869E-12
 33.9804306   2.26027465E-12
 34.1494865   2.479242723E-12
 34.3185463   2.687573254E-12
 34.4876022   2.885995913E-12
 34.6566582   3.074847234E-12
 34.8257141   3.254342759E-12
 34.9947739   3.424477715E-12
 35.1638298   3.584494463E-12
 35.3328857   3.732212022E-12
 35.5019417   3.863700158E-12
 35.6709976   3.973650402E-12
 35.8400574   4.056451355E-12
 36.0091133   4.107555442E-12
 36.1781693   4.124545757E-12
 36.3472252   4.107434878E-12
 36.5162849   4.058115823E-12
 36.6853409   3.979307769E-12
 36.8543968   3.873545148E-12
 37.0234528   3.742667634E-12
 37.1925125   3.587977138E-12
 37.3615685   3.410829561E-12
 37.5306244   3.213249328E-12
 37.6996803   2.998183082E-12
 37.8687401   2.769278296E-12
 38.037796   2.530360036E-12
 38.206852   2.284929407E-12
 38.3759079   2.035939342E-12
 38.5449677   1.785893699E-12
 38.7140236   1.537121667E-12
 38.8830795   1.291991904E-12
 39.0521355   1.05290711E-12
 39.2211952   8.220903884E-13
 39.3902512   6.013232447E-13
 39.5593071   3.918300959E-13
 39.728363   1.94389711E-13
 39.8974228   9.593758588E-15
 40.0664787   -1.619273969E-13
 40.2355347   -3.194726927E-13
 40.4045906   -4.624731587E-13
 40.5736504   -5.908383591E-13
 40.7427063   -7.052721579E-13
 40.9117622   -8.074009126E-13
 41.0808182   -8.996608254E-13
 41.2498779   -9.850099252E-13
 41.4189339   -1.066575214E-12
 41.5879898   -1.147327676E-12
 41.7570457   -1.229800766E-12
 41.9261055   -1.315856712E-12
 42.0951614   -1.406515963E-12
 42.2642174   -1.501910683E-12
 42.4332733   -1.601434263E-12
 42.6023293   -1.704105173E-12
 42.771389   -1.809068628E-12
 42.9404449   -1.916040243E-12
 43.1095009   -2.02547072E-12
 43.2785568   -2.138309712E-12
 43.4476166   -2.255423496E-12
 43.6166725   -2.376902277E-12
 43.7857285   -2.501543677E-12
 43.9547844   -2.626720022E-12
 44.1238441   -2.748639641E-12
 44.2929001   -2.862850148E-12
 44.461956   -2.964739348E-12
 44.631012   -3.049871553E-12
 44.8000717   -3.114161273E-12
 44.9691277   -3.154034325E-12
 45.1381836   -3.166726213E-12
 45.3072395   -3.150738134E-12
 45.4762993   -3.106269148E-12
 45.6453552   -3.035336956E-12
 45.8144112   -2.941372623E-12
 45.9834671   -2.828287951E-12
 46.1525269   -2.699316031E-12
 46.3215828   -2.556101381E-12
 46.4906387   -2.398465324E-12
 46.6596947   -2.224996446E-12
 46.8287544   -2.034233459E-12
 46.9978104   -1.825937622E-12
 47.1668663   -1.601930177E-12
 47.3359222   -1.366184726E-12
 47.504982   -1.124219533E-12
 47.6740379   -8.82142612E-13
 47.8430939   -6.457848037E-13
 48.0121498   -4.202191709E-13
 48.1812096   -2.096695484E-13
 48.3502655   -1.758666726E-14
 48.5193214   1.533766874E-13
 48.6883774   3.015792368E-13
 48.8574371   4.266637228E-13
 49.0264931   5.29590369E-13
 49.195549   6.122071708E-13
 49.3646049   6.76396981E-13
 49.5336647   7.231409482E-13
 49.7027206   7.520304366E-13
 49.8717766   7.616064897E-13
 50.0408325   7.505451339E-13
 50.2098885   7.192429161E-13
 50.3789482   6.710725183E-13
 50.5480042   6.126727814E-13
 50.7170601   5.530170506E-13
 50.886116   5.01574639E-13
 51.0551758   4.662919898E-13
 51.2242317   4.521867906E-13
 51.3932877   4.61029652E-13
 51.5623436   4.920656981E-13
 51.7314034   5.432639473E-13
 51.9004593   6.124674878E-13
 52.0695152   6.979947219E-13
 52.2385712   7.986564968E-13
 52.4076309   9.134842405E-13
 52.5766869   1.041554972E-12
 52.7457428   1.18210693E-12
 52.9147987   1.334797941E-12
 53.0838585   1.499756916E-12
 53.2529144   1.677138571E-12
 53.4219704   1.866228743E-12
 53.5910263   2.06452043E-12
 53.7600861   2.267347985E-12
 53.929142   2.468481149E-12
 54.0981979   2.66159924E-12
 54.2672539   2.842055367E-12
 54.4363136   3.008093774E-12
 54.6053696   3.160889085E-12
 54.7744255   3.303348046E-12
 54.9434814   3.438232988E-12
 55.1125412   3.566513187E-12
 55.2815971   3.68671196E-12
 55.4506531   3.795492566E-12
 55.619709   3.889106918E-12
 55.7887688   3.964928212E-12
 55.9578247   4.022338018E-12
 56.1268806   4.062669038E-12
 56.2959366   4.088416671E-12
 56.4649963   4.102284051E-12
 56.6340523   4.106536725E-12
 56.8031082   4.102848703E-12
 56.9721642   4.092411306E-12
 57.1412201   4.075953117E-12
 57.3102798   4.053429901E-12
 57.4793358   4.023517196E-12
 57.6483917   3.983299801E-12
 57.8174477   3.92856624E-12
 57.9865074   3.854812303E-12
 58.1555634   3.758621019E-12
 58.3246193   3.638796729E-12
 58.4936752   3.496697723E-12
 58.662735   3.335587665E-12
 58.8317909   3.159295525E-12
 59.0008469   2.970819771E-12
 59.1699028   2.771478576E-12
 59.3389626   2.560874473E-12
 59.5080185   2.337512996E-12
 59.6770744   2.099626029E-12
 59.8461304   1.845783942E-12
 60.0151901   1.575137048E-12
 60.1842461   1.287408656E-12
 60.353302   9.8288413E-13
 60.5223579   6.625256442E-13
 60.6914177   3.281094472E-13
 60.8604736   -1.787402149E-14
 61.0295296   -3.727708246E-13
 61.1985855   -7.346819008E-13
 61.3676453   -1.103365446E-12
 61.5367012   -1.480615543E-12
 61.7057571   -1.86979013E-12
 61.8748131   -2.274580047E-12
 62.0438728   -2.697496957E-12
 62.2129288   -3.138729077E-12
 62.3819847   -3.595824593E-12
 62.5510406   -4.064258478E-12
 62.7201004   -4.538518866E-12
 62.8891563   -5.013185613E-12
 63.0582123   -5.483595782E-12
 63.2272682   -5.946039668E-12
 63.396328   -6.397683164E-12
 63.5653839   -6.836489708E-12
 63.7344398   -7.261233281E-12
 63.9034958   -7.67146676E-12
 64.0725555   -8.067194482E-12
 64.2416077   -8.448125012E-12
 64.4106674   -8.812701437E-12
 64.5797272   -9.157351093E-12
 64.7487793   -9.476456078E-12
 64.9178391   -9.763200665E-12
 65.0868912   -1.001102413E-11
 65.2559509   -1.021500766E-11
 65.4250107   -1.037253356E-11
 65.5940628   -1.048286805E-11
 65.7631226   -1.054588101E-11
 65.9321823   -1.056053335E-11
 66.1012344   -1.05238691E-11
 66.2702942   -1.043095905E-11
 66.4393463   -1.027571084E-11
 66.6084061   -1.005209718E-11
 66.7774658   -9.755213998E-12
 66.9465179   -9.381801759E-12
 67.1155777   -8.930245432E-12
 67.2846375   -8.400308227E-12
 67.4536896   -7.7928922E-12
 67.6227493   -7.109936338E-12
 67.7918015   -6.354291225E-12
 67.9608612   -5.529349981E-12
 68.129921   -4.638336156E-12
 68.2989731   -3.683479303E-12
 68.4680328   -2.665519932E-12
 68.6370926   -1.583949118E-12
 68.8061447   -4.380924334E-13
 68.9752045   7.713052202E-13
 69.1442566   2.040643913E-12
 69.3133163   3.362835184E-12
 69.4823761   4.727782402E-12
 69.6514282   6.123797216E-12
 69.820488   7.539323332E-12
 69.9895477   8.964284176E-12
 70.1585999   1.039056948E-11
 70.3276596   1.181161679E-11
 70.4967117   1.32214439E-11
 70.6657715   1.4613602E-11
 70.8348312   1.59804843E-11
 71.0038834   1.731311101E-11
 71.1729431   1.860127156E-11
 71.3419952   1.983381168E-11
 71.511055   2.099891615E-11
 71.6801147   2.208438293E-11
 71.8491669   2.307799091E-11
 72.0182266   2.396805497E-11
 72.1872864   2.474412862E-11
 72.3563385   2.539764753E-11
 72.5253983   2.592225393E-11
 72.6944504   2.631357632E-11
 72.8635101   2.656845577E-11
 73.0325699   2.668379927E-11
 73.201622   2.665544174E-11
 73.3706818   2.647740881E-11
 73.5397415   2.614185604E-11
 73.7087936   2.563976115E-11
 73.8778534   2.496219204E-11
 74.0469055   2.410182817E-11
 74.2159653   2.305426162E-11
 74.385025   2.18187534E-11
 74.5540771   2.039829416E-11
 74.7231369   1.879899014E-11
 74.8921967   1.702909862E-11
 75.0612488   1.5098027E-11
 75.2303085   1.301561289E-11
 75.3993607   1.079183878E-11
 75.5684204   8.436929107E-12
 75.7374802   5.961636566E-12
 75.9065323   3.377590308E-12
 76.075592   6.975949766E-13
 76.2446518   -2.064046633E-12
 76.4137039   -4.891164296E-12
 76.5827637   -7.765301423E-12
 76.7518158   -1.066543989E-11
 76.9208755   -1.356811798E-11
 77.0899353   -1.644821952E-11
 77.2589874   -1.928035162E-11
 77.4280472   -2.204050657E-11
 77.5971069   -2.470744963E-11
 77.7661591   -2.726330099E-11
 77.9352188   -2.969299806E-11
 78.1042709   -3.198295101E-11
 78.2733307   -3.411941216E-11
 78.4423904   -3.60873241E-11
 78.6114426   -3.787021391E-11
 78.7805023   -3.945108823E-11
 78.9495544   -4.081410557E-11
 79.1186142   -4.194618611E-11
 79.287674   -4.283814276E-11
 79.4567261   -4.348489277E-11
 79.6257858   -4.388494429E-11
 79.7948456   -4.403943529E-11
 79.9638977   -4.395102685E-11
 80.1329575   -4.362289349E-11
 80.3020096   -4.305777609E-11
 80.4710693   -4.225706937E-11
 80.6401291   -4.122008984E-11
 80.8091812   -3.994375317E-11
 80.978241   -3.842302518E-11
 81.1473007   -3.665233742E-11
 81.3163528   -3.462775205E-11
 81.4854126   -3.234938706E-11
 81.6544647   -2.982323763E-11
 81.8235245   -2.706175735E-11
 81.9925842   -2.408297173E-11
 82.1616364   -2.090837919E-11
 82.3306961   -1.756043401E-11
 82.4997559   -1.406044465E-11
 82.668808   -1.042756593E-11
 82.8378677   -6.67903146E-12
 83.0069199   -2.831349521E-12
 83.1759796   1.09813146E-12
 83.3450394   5.089914167E-12
 83.5140915   9.121653953E-12
 83.6831512   1.316824948E-11
 83.852211   1.720255882E-11
 84.0212631   2.119652544E-11
 84.1903229   2.512246487E-11
 84.359375   2.895432852E-11
 84.5284348   3.266875659E-11
 84.6974945   3.624570089E-11
 84.8665466   3.966845602E-11
 85.0356064   4.292298461E-11
 85.2046585   4.599659542E-11
 85.3737183   4.887623639E-11
 85.542778   5.154686747E-11
 85.7118301   5.399041977E-11
 85.8808899   5.618573315E-11
 86.0499496   5.810960046E-11
 86.2190018   5.97386654E-11
 86.3880615   6.105172617E-11
 86.5571136   6.203176861E-11
 86.7261734   6.266722558E-11
 86.8952332   6.295207411E-11
 87.0642853   6.288484317E-11
 87.233345   6.246691359E-11
 87.4024048   6.170054745E-11
 87.5714569   6.058738927E-11
 87.7405167   5.912777212E-11
 87.9095688   5.732105762E-11
 88.0786285   5.516681209E-11
 88.2476883   5.266642331E-11
 88.4167404   4.982470339E-11
 88.5858002   4.665102332E-11
 88.7548599   4.315976049E-11
 88.923912   3.937005236E-11
 89.0929718   3.53049083E-11
 89.2620239   3.099001611E-11
 89.4310837   2.645229695E-11
 89.6001434   2.171856271E-11
 89.7691956   1.681440057E-11
 89.9382553   1.176358663E-11
 90.1073151   6.58820264E-12
 90.2763672   1.309597938E-12
 90.4454269   -4.049963923E-12
 90.6144791   -9.465364256E-12
 90.7835388   -1.490711721E-11
 90.9525986   -2.03408141E-11
 91.1216507   -2.572801E-11
 91.2907104   -3.102842289E-11
 91.4597702   -3.620290526E-11
 91.6288223   -4.121625957E-11
 91.7978821   -4.603917247E-11
 91.9669342   -5.064859296E-11
 92.135994   -5.502668113E-11
 92.3050537   -5.915876122E-11
 92.4741058   -6.303094158E-11
 92.6431656   -6.66281405E-11
 92.8122177   -6.993302465E-11
 92.9812775   -7.292588755E-11
 93.1503372   -7.558532966E-11
 93.3193893   -7.788965306E-11
 93.4884491   -7.981843658E-11
 93.6575089   -8.135427054E-11
 93.826561   -8.248420003E-11
 93.9956207   -8.32006547E-11
 94.1646729   -8.350152514E-11
 94.3337326   -8.338923302E-11
 94.5027924   -8.286889924E-11
 94.6718445   -8.194610268E-11
 94.8409042   -8.062486789E-11
 95.009964   -7.890659653E-11
 95.1790161   -7.679045594E-11
 95.3480759   -7.427509996E-11
 95.517128   -7.136122943E-11
 95.6861877   -6.805426361E-11
 95.8552475   -6.436617211E-11
 96.0242996   -6.031596056E-11
 96.1933594   -5.592869917E-11
 96.3624191   -5.12333613E-11
 96.5314713   -4.626007563E-11
 96.700531   -4.103743734E-11
 96.8695831   -3.559058256E-11
 97.0386429   -2.994022391E-11
 97.2077026   -2.410299911E-11
 97.3767548   -1.809292473E-11
 97.5458145   -1.192361574E-11
 97.7148743   -5.610861602E-12
 97.8839264   8.251164509E-13
 98.0529861   7.358254631E-12
 98.2220383   1.395646012E-11
 98.391098   2.058274384E-11
 98.5601578   2.719741272E-11
 98.7292099   3.376079624E-11
 98.8982697   4.023580774E-11
 99.0673294   4.658955513E-11
 99.2363815   5.279384915E-11
 99.4054413   5.882425103E-11
 99.5744934   6.465797342E-11
 99.7435532   7.027140675E-11
 99.9126129   7.563764892E-11
 100.081665   8.072514879E-11
 100.250725   8.549774777E-11
 100.419777   8.991635908E-11
 100.588837   9.394202083E-11
 100.757896   9.753938629E-11
 100.926949   1.006798603E-10
 101.096008   1.03343438E-10
 101.265068   1.055186633E-10
 101.43412   1.072009218E-10
 101.60318   1.083894988E-10
 101.772232   1.090844845E-10
 101.941292   1.092842136E-10
 102.110352   1.089839052E-10
 102.279404   1.081755727E-10
 102.448463   1.068491406E-10
 102.617523   1.049942147E-10
 102.786575   1.026024335E-10
 102.955635   9.96697308E-11
 103.124687   9.619849362E-11
 103.293747   9.219892211E-11
 103.462807   8.768925169E-11
 103.631859   8.269442769E-11
 103.800919   7.724332979E-11
 103.969978   7.136514296E-11
 104.13903   6.508586725E-11
 104.30809   5.842635403E-11
 104.477142   5.140257317E-11
 104.646202   4.402814224E-11
 104.815262   3.631832682E-11
 104.984314   2.829397133E-11
 105.153374   1.998413934E-11
 105.322433   1.142639889E-11
 105.491486   2.664887842E-12
 105.660545   -6.252946945E-12
 105.829597   -1.52798052E-11
 105.998657   -2.437102603E-11
 106.167717   -3.348606809E-11
 106.336769   -4.258839115E-11
 106.505829   -5.164479608E-11
 106.674881   -6.062388092E-11
 106.843941   -6.949425757E-11
 107.013   -7.822240772E-11
 107.182053   -8.677031316E-11
 107.351112   -9.509349558E-11
 107.520172   -1.031403296E-10
 107.689224   -1.108531184E-10
 107.858284   -1.181714032E-10
 108.027336   -1.250365783E-10
 108.196396   -1.313967546E-10
 108.365456   -1.372100905E-10
 108.534508   -1.42445597E-10
 108.703568   -1.470811389E-10
 108.872627   -1.510994108E-10
 109.041679   -1.544834122E-10
 109.210739   -1.572129926E-10
 109.379791   -1.59263186E-10
 109.548851   -1.606047378E-10
 109.717911   -1.61206451E-10
 109.886963   -1.61038044E-10
 110.056023   -1.600734267E-10
 110.225082   -1.582932951E-10
 110.394135   -1.556871576E-10
 110.563194   -1.522542509E-10
 110.732246   -1.480032624E-10
 110.901306   -1.429504848E-10
 111.070366   -1.371167208E-10
 111.239418   -1.305236197E-10
 111.408478   -1.231904023E-10
 111.577538   -1.151324938E-10
 111.74659   -1.06362405E-10
 111.915649   -9.689330588E-11
 112.084702   -8.674377883E-11
 112.253761   -7.594239126E-11
 112.422821   -6.453053369E-11
 112.591873   -5.256237112E-11
 112.760933   -4.010238669E-11
 112.929993   -2.722098935E-11
 113.099045   -1.398978589E-11
 113.268105   -4.778773948E-13
 113.437157   1.325031578E-11
 113.606216   2.713529228E-11
 113.775276   4.112111693E-11
 113.944328   5.515289961E-11
 114.113388   6.9173757E-11
 114.28244   8.312150274E-11
 114.4515   9.692621011E-11
 114.62056   1.105088451E-10
 114.789612   1.23781943E-10
 114.958672   1.366523422E-10
 115.127731   1.490257362E-10
 115.296783   1.608118777E-10
 115.465843   1.719292347E-10
 115.634895   1.82307891E-10
 115.803955   1.918896847E-10
 115.973015   2.006258909E-10
 116.142067   2.084733219E-10
 116.311127   2.15390053E-10
 116.480186   2.213320083E-10
 116.649239   2.262515592E-10
 116.818298   2.300983293E-10
 116.98735   2.328218729E-10
 117.15641   2.343755745E-10
 117.32547   2.347207428E-10
 117.494522   2.338300387E-10
 117.663582   2.316893205E-10
 117.832642   2.282974781E-10
 118.001694   2.236645452E-10
 118.170753   2.178082714E-10
 118.339806   2.107503755E-10
 118.508865   2.025133256E-10
 118.677925   1.93118882E-10
 118.846977   1.825885693E-10
 119.016037   1.7094616E-10
 119.185097   1.582212E-10
 119.354149   1.444528663E-10
 119.523209   1.296927843E-10
 119.692261   1.140062628E-10
 119.86132   9.747173207E-11
 120.03038   8.017878028E-11
 120.199432   6.222478782E-11
 120.368492   4.371125684E-11
 120.537552   2.474028794E-11
 120.706604   5.412016755E-12
 120.875664   -1.41768949E-11
 121.044716   -3.393308898E-11
 121.213776   -5.376476694E-11
 121.382835   -7.357905951E-11
 121.551888   -9.327905809E-11
 121.720947   -1.127616681E-10
 121.889999   -1.319167831E-10
 122.059059   -1.506288705E-10
 122.228119   -1.687798373E-10
 122.397171   -1.862534432E-10
 122.566231   -2.029392765E-10
 122.735291   -2.187361403E-10
 122.904343   -2.335533433E-10
 123.073402   -2.473103111E-10
 123.242455   -2.599345739E-10
 123.411514   -2.713588243E-10
 123.580574   -2.815179478E-10
 123.749626   -2.903470242E-10
 123.918686   -2.97780467E-10
 124.087746   -3.037528562E-10
 124.256798   -3.082011868E-10
 124.425858   -3.11068421E-10
 124.59491   -3.123071524E-10
 124.763969   -3.11883519E-10
 124.933029   -3.097795909E-10
 125.102081   -3.059945353E-10
 125.271141   -3.005438953E-10
 125.440201   -2.934570087E-10
 125.609253   -2.847734271E-10
 125.778313   -2.745390859E-10
 125.947365   -2.628028628E-10
 126.116425   -2.496147455E-10
 126.285484   -2.350259154E-10
 126.454536   -2.190906068E-10
 126.623596   -2.018694517E-10
 126.792656   -1.834330465E-10
 126.961708   -1.638648106E-10
 127.130768   -1.432620966E-10
 127.29982   -1.217354134E-10
 127.46888   -9.940570589E-11
 127.637939   -7.640033745E-11
 127.806992   -5.284893356E-11
 127.976051   -2.887969031E-11
 128.145111   -4.617082758E-12
 128.314163   1.981879938E-11
 128.483215   4.431138442E-11
 128.652283   6.874534969E-11
 128.821335   9.300372278E-11
 128.990387   1.169647434E-10
 129.159454   1.405001254E-10
 129.328506   1.634744423E-10
 129.497559   1.857471399E-10
 129.666626   2.07176401E-10
 129.835678   2.27624572E-10
 130.00473   2.469636162E-10
 130.173782   2.650793474E-10
 130.34285   2.818734413E-10
 130.511902   2.9726277E-10
 130.680954   3.111764735E-10
 130.850021   3.235520463E-10
 131.019073   3.343318122E-10
 131.188126   3.43460399E-10
 131.357193   3.508845159E-10
 131.526245   3.56553953E-10
 131.695297   3.604241905E-10
 131.864365   3.624594513E-10
 132.033417   3.626356992E-10
 132.202469   3.609433863E-10
 132.371536   3.573891183E-10
 132.540588   3.519962932E-10
 132.709641   3.448037411E-10
 132.878693   3.358628931E-10
 133.04776   3.252337566E-10
 133.216812   3.129805859E-10
 133.385864   2.991686621E-10
 133.554932   2.838628499E-10
 133.723984   2.671288191E-10
 133.893036   2.490360695E-10
 134.062103   2.296619839E-10
 134.231155   2.090948248E-10
 134.400208   1.874357614E-10
 134.569275   1.647982167E-10
 134.738327   1.413053008E-10
 134.907379   1.170861463E-10
 135.076431   9.227198866E-11
 135.245499   6.699273081E-11
 135.414551   4.137470921E-11
 135.583603   1.55397379E-11
 135.75267   -1.039436853E-11
 135.921722   -3.631203671E-11
 136.090775   -6.209717462E-11
 136.259842   -8.763028497E-11
 136.428894   -1.127861485E-10
 136.597946   -1.374328984E-10
 136.767014   -1.614333528E-10
 136.936066   -1.84648255E-10
 137.105118   -2.069412974E-10
 137.274185   -2.281843187E-10
 137.443237   -2.482619665E-10
 137.612289   -2.670738908E-10
 137.781342   -2.84535201E-10
 137.950409   -3.005739269E-10
 138.119461   -3.151275352E-10
 138.288513   -3.281389882E-10
 138.457581   -3.395534409E-10
 138.626633   -3.493164091E-10
 138.795685   -3.573741025E-10
 138.964752   -3.636757007E-10
 139.133804   -3.681767669E-10
 139.302856   -3.708439389E-10
 139.471924   -3.716588426E-10
 139.640976   -3.706208673E-10
 139.810028   -3.677480265E-10
 139.979095   -3.630754031E-10
 140.148148   -3.566514029E-10
 140.3172   -3.485329803E-10
 140.486252   -3.387809477E-10
 140.655319   -3.274560345E-10
 140.824371   -3.146175542E-10
 140.993423   -3.003239324E-10
 141.162491   -2.846357317E-10
 141.331543   -2.676196487E-10
 141.500595   -2.493528162E-10
 141.669662   -2.29925648E-10
 141.838715   -2.094430185E-10
 142.007767   -1.880226252E-10
 142.176834   -1.657911725E-10
 142.345886   -1.428791252E-10
 142.514938   -1.194150057E-10
 142.68399   -9.552073021E-11
 142.853058   -7.130874363E-11
 143.02211   -4.688203298E-11
 143.191162   -2.23365805E-11
 143.360229   2.234422499E-12
 143.529282   2.673567964E-11
 143.698334   5.106545395E-11
 143.867401   7.511327671E-11
 144.036453   9.876031937E-11
 144.205505   1.218822543E-10
 144.374573   1.443542924E-10
 144.543625   1.66057279E-10
 144.712677   1.868830923E-10
 144.881744   2.06738307E-10
 145.050797   2.255452908E-10
 145.219849   2.432403723E-10
 145.388901   2.597699E-10
 145.557968   2.750852601E-10
 145.72702   2.891379636E-10
 145.896072   3.018763572E-10
 146.06514   3.132449855E-10
 146.234192   3.231860335E-10
 146.403244   3.316434349E-10
 146.572311   3.385680625E-10
 146.741364   3.439230289E-10
 146.910416   3.476878785E-10
 147.079483   3.498603351E-10
 147.248535   3.504556367E-10
 147.417587   3.495025935E-10
 147.586655   3.470383148E-10
 147.755707   3.4310213E-10
 147.924759   3.377304825E-10
 148.093811   3.309545415E-10
 148.262878   3.228006751E-10
 148.431931   3.132938353E-10
 148.600983   3.024631379E-10
 148.77005   2.903471075E-10
 148.939102   2.769980911E-10
 149.108154   2.624843121E-10
 149.277222   2.46888926E-10
 149.446274   2.303070928E-10
 149.615326   2.128408283E-10
 149.784393   1.945937578E-10
 149.953445   1.756659262E-10
 150.122498   1.561500096E-10
 150.29155   1.361293717E-10
 150.460617   1.156789733E-10
 150.629669   9.486863378E-11
 150.798721   7.376838029E-11
 150.967789   5.245429091E-11
 151.136841   3.101349386E-11
 151.305893   9.546256147E-12
 151.47496   -1.183585174E-11
 151.644012   -3.301530924E-11
 151.813065   -5.387654212E-11
 151.982132   -7.431386062E-11
 152.151184   -9.423746505E-11
 152.320236   -1.135753297E-10
 152.489304   -1.322711107E-10
 152.658356   -1.502785812E-10
 152.827408   -1.675544287E-10
 152.99646   -1.840512742E-10
 153.165527   -1.99712899E-10
 153.334579   -2.144727312E-10
 153.503632   -2.282556644E-10
 153.672699   -2.409827615E-10
 153.841751   -2.525777365E-10
 154.010803   -2.629742812E-10
 154.179871   -2.721221304E-10
 154.348923   -2.799908916E-10
 154.517975   -2.865703785E-10
 154.687042   -2.918674469E-10
 154.856094   -2.958992218E-10
 155.025146   -2.986853265E-10
 155.194214   -3.002401106E-10
 155.363266   -3.005680427E-10
 155.532318   -2.996629611E-10
 155.70137   -2.975122371E-10
 155.870438   -2.941039912E-10
 156.03949   -2.894356144E-10
 156.208542   -2.8352104E-10
 156.377609   -2.763947959E-10
 156.546661   -2.681112277E-10
 156.715714   -2.587400016E-10
 156.884781   -2.48358667E-10
 157.053833   -2.370443841E-10
 157.222885   -2.248672082E-10
 157.391953   -2.11886092E-10
 157.561005   -1.981485392E-10
 157.730057   -1.836937547E-10
 157.899109   -1.685583062E-10
 158.068176   -1.52783064E-10
 158.237228   -1.364197921E-10
 158.406281   -1.195358951E-10
 158.575348   -1.022159787E-10
 158.7444   -8.455992156E-11
 158.913452   -6.667719155E-11
 159.08252   -4.867859935E-11
 159.251572   -3.06674755E-11
 159.420624   -1.273242622E-11
 159.589691   5.05623798E-12
 159.758743   2.264539771E-11
 159.927795   3.999342177E-11
 160.096863   5.706168524E-11
 160.265915   7.38058295E-11
 160.434967   9.016934421E-11
 160.604019   1.060813937E-10
 160.773087   1.214592454E-10
 160.942139   1.362143731E-10
 161.111191   1.502601932E-10
 161.280258   1.635196284E-10
 161.44931   1.759304091E-10
 161.618362   1.874476269E-10
 161.78743   1.980432068E-10
 161.956482   2.077025912E-10
 162.125534   2.164197155E-10
 162.294601   2.241907215E-10
 162.463654   2.310078795E-10
 162.632706   2.368551466E-10
 162.801773   2.417064604E-10
 162.970825   2.455280701E-10
 163.139877   2.482843653E-10
 163.308929   2.499463969E-10
 163.477997   2.505001484E-10
 163.647049   2.499523921E-10
 163.816101   2.483318273E-10
 163.985168   2.456849446E-10
 164.154221   2.42067727E-10
 164.323273   2.375359354E-10
 164.49234   2.321364906E-10
 164.661392   2.259025744E-10
 164.830444   2.188533521E-10
 164.999512   2.109980107E-10
 165.168564   2.023429757E-10
 165.337616   1.929000987E-10
 165.506668   1.826941654E-10
 165.675735   1.717681275E-10
 165.844788   1.601849209E-10
 166.01384   1.480255363E-10
 166.182907   1.353833712E-10
 166.351959   1.223560142E-10
 166.521011   1.090360302E-10
 166.690079   9.550325114E-11
 166.859131   8.18201687E-11
 167.028183   6.80321216E-11
 167.19725   5.417184756E-11
 167.366302   4.026728603E-11
 167.535355   2.635034552E-11