 0.   3.382550388E-19
 0.169056863   3.134795616E-16
 0.338113725   1.121637852E-15
 0.507170618   2.559168807E-15
 0.67622745   4.355606045E-15
 0.845284343   5.608646871E-15
 1.01434124   4.916449006E-15
 1.18339813   8.906466737E-16
 1.3524549   -7.173632992E-15
 1.52151179   -1.883180569E-14
 1.69056869   -3.252144037E-14
 1.85962558   -4.613976166E-14
 2.02868247   -5.792378567E-14
 2.19773936   -6.721850182E-14
 2.36679626   -7.476890607E-14
 2.53585315   -8.241360881E-14
 2.7049098   -9.235484827E-14
 2.87396669   -1.063713869E-13
 3.04302359   -1.253307489E-13
 3.21208048   -1.491622716E-13
 3.38113737   -1.77193072E-13
 3.55019426   -2.085773774E-13
 3.71925116   -2.425541051E-13
 3.88830805   -2.784375378E-13
 4.05736494   -3.154510073E-13
 4.22642183   -3.526259417E-13
 4.39547873   -3.889316169E-13
 4.56453562   -4.236271978E-13
 4.73359251   -4.566390126E-13
 4.9026494   -4.886960519E-13
 5.0717063   -5.210565594E-13
 5.24076319   -5.548838299E-13
 5.4098196   -5.905477387E-13
 5.5788765   -6.272118241E-13
 5.74793339   -6.629417067E-13
 5.91699028   -6.953116468E-13
 6.08604717   -7.222297847E-13
 6.25510406   -7.425852468E-13
 6.42416096   -7.564146249E-13
 6.59321785   -7.645378471E-13
 6.76227474   -7.678881402E-13
 6.93133163   -7.669107862E-13
 7.10038853   -7.613401012E-13
 7.26944542   -7.504354126E-13
 7.43850231   -7.334833153E-13
 7.6075592   -7.102315155E-13
 7.7766161   -6.809654294E-13
 7.94567299   -6.461659007E-13
 8.11472988   -6.05944277E-13
 8.28378677   -5.596172939E-13
 8.45284367   -5.05732717E-13
 8.62190056   -4.426272716E-13
 8.79095745   -3.692904001E-13
 8.96001434   -2.861194896E-13
 9.12907124   -1.951587085E-13
 9.29812813   -9.965158988E-14
 9.46718502   -3.064537039E-15
 9.63624191   9.199483216E-14
 9.80529881   1.844902676E-13
 9.9743557   2.749965782E-13
 10.1434126   3.650972753E-13
 10.3124695   4.564580051E-13
 10.4815264   5.500163042E-13
 10.6505823   6.456127408E-13
 10.8196392   7.421241356E-13
 10.9886961   8.378920387E-13
 11.157753   9.311169457E-13
 11.3268099   1.019971976E-12
 11.4958668   1.102430538E-12
 11.6649237   1.176040602E-12
 11.8339806   1.237963182E-12
 12.0030375   1.285459261E-12
 12.1720943   1.316716267E-12
 12.3411512   1.331644105E-12
 12.5102081   1.332184905E-12
 12.679265   1.32184888E-12
 12.8483219   1.30455965E-12
 13.0173788   1.283248898E-12
 13.1864357   1.258819004E-12
 13.3554926   1.229946158E-12
 13.5245495   1.193822493E-12
 13.6936064   1.147486836E-12
 13.8626633   1.089135292E-12
 14.0317202   1.018835407E-12
 14.2007771   9.383845697E-13
 14.3698339   8.504788128E-13
 14.5388908   7.576730584E-13
 14.7079477   6.616560598E-13
 14.8770046   5.631265853E-13
 15.0460615   4.621982051E-13
 15.2151184   3.589904524E-13
 15.3841753   2.540174288E-13
 15.5532322   1.481845923E-13
 15.7222891   4.248116886E-14
 15.891346   -6.23404323E-14
 16.0604019   -1.658128794E-13
 16.2294598   -2.674562232E-13
 16.3985157   -3.663246735E-13
 16.5675735   -4.607423926E-13
 16.7366295   -5.484988548E-13
 16.9056873   -6.27509004E-13
 17.0747433   -6.966513954E-13
 17.2438011   -7.563445855E-13
 17.4128571   -8.085076662E-13
 17.5819149   -8.558448004E-13
 17.7509708   -9.007379803E-13
 17.9200287   -9.44243273E-13
 18.0890846   -9.85637353E-13
 18.2581425   -1.022691697E-12
 18.4271984   -1.052510835E-12
 18.5962563   -1.072538217E-12
 18.7653122   -1.081318086E-12
 18.93437   -1.078762622E-12
 19.103426   -1.065928379E-12
 19.2724838   -1.044493918E-12
 19.4415398   -1.016192339E-12
 19.6105976   -9.823653392E-13
 19.7796535   -9.43684692E-13
 19.9487114   -9.000150343E-13
 20.1177673   -8.503992866E-13
 20.2868252   -7.932064836E-13
 20.4558811   -7.264889645E-13
 20.624939   -6.485421466E-13
 20.7939949   -5.585435543E-13
 20.9630527   -4.57047269E-13
 21.1321087   -3.461046825E-13
 21.3011646   -2.289085262E-13
 21.4702225   -1.090735033E-13
 21.6392784   1.016480872E-14
 21.8083363   1.265117975E-13
 21.9773922   2.387526483E-13
 22.14645   3.465007957E-13
 22.315506   4.497619182E-13
 22.4845638   5.485559923E-13
 22.6536198   6.427395508E-13
 22.8226776   7.319903147E-13
 22.9917336   8.158027205E-13
 23.1607914   8.93361665E-13
 23.3298473   9.633176418E-13
 23.4989052   1.023639615E-12
 23.6679611   1.071766374E-12
 23.837019   1.105137683E-12
 24.0060749   1.121948454E-12
 24.1751328   1.121778343E-12
 24.3441887   1.105727922E-12
 24.5132465   1.075905532E-12
 24.6823025   1.034460169E-12
 24.8513603   9.826328119E-13
 25.0204163   9.203416024E-13
 25.1894741   8.465446226E-13
 25.35853   7.602055378E-13
 25.5275879   6.613442975E-13
 25.6966438   5.515904031E-13
 25.8657017   4.339130509E-13
 26.0347576   3.116485748E-13
 26.2038155   1.873363931E-13
 26.3728714   6.198211703E-14
 26.5419292   -6.487805491E-14
 26.7109852   -1.943910663E-13
 26.880043   -3.273511562E-13
 27.049099   -4.634897609E-13
 27.2181568   -6.014438622E-13
 27.3872128   -7.393339955E-13
 27.5562706   -8.755251298E-13
 27.7253265   -1.009050374E-12
 27.8943844   -1.139409964E-12
 28.0634403   -1.265880413E-12
 28.2324982   -1.386801373E-12
 28.4015541   -1.499338631E-12
 28.57061   -1.599941317E-12
 28.7396679   -1.685278111E-12
 28.9087238   -1.753132253E-12
 29.0777817   -1.802728323E-12
 29.2468376   -1.834273402E-12
 29.4158955   -1.847951479E-12
 29.5849514   -1.842947236E-12
 29.7540092   -1.817087713E-12
 29.9230652   -1.767355901E-12
 30.092123   -1.69105333E-12
 30.261179   -1.587024457E-12
 30.4302368   -1.456324536E-12
 30.5992928   -1.30198879E-12
 30.7683506   -1.128028768E-12
 30.9374065   -9.381554778E-13
 31.1064644   -7.348387849E-13
 31.2755203   -5.190879736E-13
 31.4445782   -2.909369794E-13
 31.6136341   -5.028638435E-14
 31.782692   2.023613753E-13
 31.9517479   4.655831927E-13
 32.1208038   7.37170199E-13
 32.2898636   1.014501525E-12
 32.4589195   1.294860161E-12
 32.6279755   1.575493967E-12
 32.7970314   1.853453372E-12
 32.9660912   2.125397731E-12
 33.1351471   2.387589909E-12
 33.304203   2.636167326E-12
 33.473259   2.867585726E-12
 33.6423187   3.079022931E-12
 33.8113747   3.268526292E-12
 33.9804306   3.434820787E-12
 34.1494865   3.576859295E-12
 34.3185463   3.693337736E-12
 34.4876022   3.782395838E-12
 34.6566582   3.841621465E-12
 34.8257141   3.868345314E-12
 34.9947739   3.860097138E-12
 35.1638298   3.815081064E-12
 35.3328857   3.732539017E-12
 35.5019417   3.612918992E-12
 35.6709976   3.457828208E-12
 35.8400574   3.269778762E-12
 36.0091133   3.051787989E-12
 36.1781693   2.806914423E-12
 36.3472252   2.537849271E-12
 36.5162849   2.246691765E-12
 36.6853409   1.934994482E-12
 36.8543968   1.604054238E-12
 37.0234528   1.255318657E-12
 37.1925125   8.907159949E-13
 37.3615685   5.127605697E-13
 37.5306244   1.244001104E-13
 37.6996803   -2.712965486E-13
 37.8687401   -6.714220109E-13
 38.037796   -1.073324372E-12
 38.206852   -1.474490994E-12
 38.3759079   -1.872362942E-12
 38.5449677   -2.26429292E-12
 38.7140236   -2.647776529E-12
 38.8830795   -3.020891263E-12
 39.0521355   -3.382699502E-12
 39.2211952   -3.733294056E-12
 39.3902512   -4.073289015E-12
 39.5593071   -4.402832699E-12
 39.728363   -4.720503502E-12
 39.8974228   -5.02260256E-12
 40.0664787   -5.303234848E-12
 40.2355347   -5.55523726E-12
 40.4045906   -5.771621028E-12
 40.5736504   -5.946939122E-12
 40.7427063   -6.078049522E-12
 40.9117622   -6.163992494E-12
 41.0808182   -6.205140134E-12
 41.2498779   -6.202081383E-12
 41.4189339   -6.154777209E-12
 41.5879898   -6.062305605E-12
 41.7570457   -5.923157798E-12
 41.9261055   -5.735770366E-12
 42.0951614   -5.498922932E-12
 42.2642174   -5.211818824E-12
 42.4332733   -4.873925916E-12
 42.6023293   -4.484897696E-12
 42.771389   -4.044857765E-12
 42.9404449   -3.555109549E-12
 43.1095009   -3.018977212E-12
 43.2785568   -2.442282487E-12
 43.4476166   -1.833040447E-12
 43.6166725   -1.200291927E-12
 43.7857285   -5.524505549E-13
 43.9547844   1.041565922E-13
 44.1238441   7.658820409E-13
 44.2929001   1.431166492E-12
 44.461956   2.098991337E-12
 44.631012   2.767061753E-12
 44.8000717   3.430532768E-12
 44.9691277   4.081834697E-12
 45.1381836   4.711617815E-12
 45.3072395   5.310360224E-12
 45.4762993   5.869911762E-12
 45.6453552   6.384372198E-12
 45.8144112   6.850076929E-12
 45.9834671   7.264914365E-12
 46.1525269   7.627486316E-12
 46.3215828   7.936558528E-12
 46.4906387   8.190975676E-12
 46.6596947   8.389860855E-12
 46.8287544   8.532763038E-12
 46.9978104   8.619462782E-12
 47.1668663   8.6494336E-12
 47.3359222   8.62126863E-12
 47.504982   8.532487217E-12
 47.6740379   8.380012829E-12
 47.8430939   8.161261597E-12
 48.0121498   7.875408659E-12
 48.1812096   7.524254657E-12
 48.3502655   7.112257831E-12
 48.5193214   6.645685304E-12
 48.6883774   6.131232674E-12
 48.8574371   5.574740322E-12
 49.0264931   4.980577149E-12
 49.195549   4.351910325E-12
 49.3646049   3.691660259E-12
 49.5336647   3.003593901E-12
 49.7027206   2.293005195E-12
 49.8717766   1.566653816E-12
 50.0408325   8.32034257E-13
 50.2098885   9.634959795E-14
 50.3789482   -6.343120473E-13
 50.5480042   -1.355265509E-12
 50.7170601   -2.062942265E-12
 50.886116   -2.75428725E-12
 51.0551758   -3.426214173E-12
 51.2242317   -4.075389332E-12
 51.3932877   -4.698400089E-12
 51.5623436   -5.292133919E-12
 51.7314034   -5.854082843E-12
 51.9004593   -6.382339535E-12
 52.0695152   -6.875242129E-12
 52.2385712   -7.330828652E-12
 52.4076309   -7.746387733E-12
 52.5766869   -8.118336732E-12
 52.7457428   -8.44252359E-12
 52.9147987   -8.714830073E-12
 53.0838585   -8.931862194E-12
 53.2529144   -9.091453285E-12
 53.4219704   -9.192807106E-12
 53.5910263   -9.236255857E-12
 53.7600861   -9.222764046E-12
 53.929142   -9.153402862E-12
 54.0981979   -9.028963341E-12
 54.2672539   -8.849843601E-12
 54.4363136   -8.61616941E-12
 54.6053696   -8.328075209E-12
 54.7744255   -7.98596432E-12
 54.9434814   -7.590682423E-12
 55.1125412   -7.143562217E-12
 55.2815971   -6.646449016E-12
 55.4506531   -6.1018148E-12
 55.619709   -5.513004116E-12
 55.7887688   -4.884552398E-12
 55.9578247   -4.222393702E-12
 56.1268806   -3.53375944E-12
 56.2959366   -2.826622833E-12
 56.4649963   -2.108770407E-12
 56.6340523   -1.386794759E-12
 56.8031082   -6.654331491E-13
 56.9721642   5.240545411E-14
 57.1412201   7.648435921E-13
 57.3102798   1.469723431E-12
 57.4793358   2.16331098E-12
 57.6483917   2.839590108E-12
 57.8174477   3.490505194E-12
 57.9865074   4.107115256E-12
 58.1555634   4.68119727E-12
 58.3246193   5.206652384E-12
 58.4936752   5.680156432E-12
 58.662735   6.100851161E-12
 58.8317909   6.469263927E-12
 59.0008469   6.785960249E-12
 59.1699028   7.050464813E-12
 59.3389626   7.260794396E-12
 59.5080185   7.41363481E-12
 59.6770744   7.504910755E-12
 59.8461304   7.530461497E-12
 60.0151901   7.486642382E-12
 60.1842461   7.37085306E-12
 60.353302   7.182102569E-12
 60.5223579   6.921672003E-12
 60.6914177   6.593743346E-12
 60.8604736   6.205693077E-12
 61.0295296   5.767697084E-12
 61.1985855   5.29150725E-12
 61.3676453   4.788619588E-12
 61.5367012   4.268415048E-12
 61.7057571   3.736977741E-12
 61.8748131   3.197098185E-12
 62.0438728   2.649514939E-12
 62.2129288   2.094920374E-12
 62.3819847   1.535913974E-12
 62.5510406   9.781007384E-13
 62.7201004   4.299003102E-13
 62.8891563   -9.878753496E-14
 63.0582123   -5.984408932E-13
 63.2272682   -1.061506677E-12
 63.396328   -1.483128073E-12
 63.5653839   -1.860876904E-12
 63.7344398   -2.193808503E-12
 63.9034958   -2.48143563E-12
 64.0725555   -2.723119473E-12
 64.2416077   -2.918067697E-12
 64.4106674   -3.065726926E-12
 64.5797272   -3.166150935E-12
 64.7487793   -3.220004341E-12
 64.9178391   -3.228139544E-12
 65.0868912   -3.191001933E-12
 65.2559509   -3.108287716E-12
 65.4250107   -2.9791755E-12
 65.5940628   -2.803133593E-12
 65.7631226   -2.580931129E-12
 65.9321823   -2.315345615E-12
 66.1012344   -2.011166407E-12
 66.2702942   -1.67448065E-12
 66.4393463   -1.311609025E-12
 66.6084061   -9.282495562E-13
 66.7774658   -5.29268632E-13
 66.9465179   -1.191964821E-13
 67.1155777   2.969367645E-13
 67.2846375   7.130031158E-13
 67.4536896   1.121840468E-12
 67.6227493   1.516012467E-12
 67.7918015   1.888831539E-12
 67.9608612   2.235011221E-12
 68.129921   2.550494321E-12
 68.2989731   2.83144428E-12
 68.4680328   3.072918872E-12
 68.6370926   3.268009778E-12
 68.8061447   3.408071351E-12
 68.9752045   3.484122713E-12
 69.1442566   3.488884095E-12
 69.3133163   3.418529348E-12
 69.4823761   3.273339932E-12
 69.6514282   3.056940768E-12
 69.820488   2.77446989E-12
 69.9895477   2.430523664E-12
 70.1585999   2.027755351E-12
 70.3276596   1.566636903E-12
 70.4967117   1.046286755E-12
 70.6657715   4.658056167E-13
 70.8348312   -1.745671072E-13
 71.0038834   -8.729042337E-13
 71.1729431   -1.625615875E-12
 71.3419952   -2.427732711E-12
 71.511055   -3.27305869E-12
 71.6801147   -4.154053403E-12
 71.8491669   -5.061674604E-12
 72.0182266   -5.98557098E-12
 72.1872864   -6.9148888E-12
 72.3563385   -7.839551924E-12
 72.5253983   -8.751425799E-12
 72.6944504   -9.644677418E-12
 72.8635101   -1.051489191E-11
 73.0325699   -1.135709669E-11
 73.201622   -1.216350978E-11
 73.3706818   -1.29220341E-11
 73.5397415   -1.361640748E-11
 73.7087936   -1.422812042E-11
 73.8778534   -1.473945618E-11
 74.0469055   -1.513643724E-11
 74.2159653   -1.541051488E-11
 74.385025   -1.55583775E-11
 74.5540771   -1.558006675E-11
 74.7231369   -1.54763459E-11
 74.8921967   -1.524643606E-11
 75.0612488   -1.488699095E-11
 75.2303085   -1.439248547E-11
 75.3993607   -1.375665987E-11
 75.5684204   -1.297422933E-11
 75.7374802   -1.204226649E-11
 75.9065323   -1.096100207E-11
 76.075592   -9.734157924E-12
 76.2446518   -8.369047642E-12
 76.4137039   -6.876571361E-12
 76.5827637   -5.270920853E-12
 76.7518158   -3.568689398E-12
 76.9208755   -1.787202873E-12
 77.0899353   5.76526267E-14
 77.2589874   1.953384936E-12
 77.4280472   3.891721147E-12
 77.5971069   5.86766833E-12
 77.7661591   7.876910062E-12
 77.9352188   9.912359995E-12
 78.1042709   1.196128439E-11
 78.2733307   1.40042266E-11
 78.4423904   1.601629593E-11
 78.6114426   1.797035958E-11
 78.7805023   1.984088935E-11
 78.9495544   2.16069905E-11
 79.1186142   2.325355186E-11
 79.287674   2.477037152E-11
 79.4567261   2.614996587E-11
 79.6257858   2.738514103E-11
 79.7948456   2.846738123E-11
 79.9638977   2.938637875E-11
 80.1329575   3.013053348E-11
 80.3020096   3.068780299E-11
 80.4710693   3.104646401E-11
 80.6401291   3.119566064E-11
 80.8091812   3.112596292E-11
 80.978241   3.083034522E-11
 81.1473007   3.030549423E-11
 81.3163528   2.955310996E-11
 81.4854126   2.858033601E-11
 81.6544647   2.739886963E-11
 81.8235245   2.602260421E-11
 81.9925842   2.446458834E-11
 82.1616364   2.273448443E-11
 82.3306961   2.083761635E-11
 82.4997559   1.877604669E-11
 82.668808   1.655125863E-11
 82.8378677   1.416731402E-11
 83.0069199   1.163311288E-11
 83.1759796   8.962951908E-12
 83.3450394   6.175388759E-12
 83.5140915   3.291118897E-12
 83.6831512   3.309470211E-13
 83.852211   -2.685380781E-12
 84.0212631   -5.739274073E-12
 84.1903229   -8.812785571E-12
 84.359375   -1.188809901E-11
 84.5284348   -1.494745473E-11
 84.6974945   -1.797350116E-11
 84.8665466   -2.094962398E-11
 85.0356064   -2.385975965E-11
 85.2046585   -2.66875029E-11
 85.3737183   -2.941492189E-11
 85.542778   -3.202170473E-11
 85.7118301   -3.44853486E-11
 85.8808899   -3.678255617E-11
 86.0499496   -3.889144909E-11
 86.2190018   -4.079369828E-11
 86.3880615   -4.247566188E-11
 86.5571136   -4.39280938E-11
 86.7261734   -4.514458252E-11
 86.8952332   -4.611946242E-11
 87.0642853   -4.684617277E-11
 87.233345   -4.731659509E-11
 87.4024048   -4.752152838E-11
 87.5714569   -4.745176474E-11
 87.7405167   -4.709921342E-11
 87.9095688   -4.645756002E-11
 88.0786285   -4.552243651E-11
 88.2476883   -4.429136918E-11
 88.4167404   -4.276400067E-11
 88.5858002   -4.094266939E-11
 88.7548599   -3.883323871E-11
 88.923912   -3.644556532E-11
 89.0929718   -3.379324945E-11
 89.2620239   -3.089243791E-11
 89.4310837   -2.776001651E-11
 89.6001434   -2.44120453E-11
 89.7691956   -2.086310985E-11
 89.9382553   -1.7127081E-11
 90.1073151   -1.321903524E-11
 90.2763672   -9.157545382E-12
 90.4454269   -4.966407494E-12
 90.6144791   -6.749410059E-13
 90.7835388   3.683216492E-12
 90.9525986   8.072460235E-12
 91.1216507   1.245778654E-11
 91.2907104   1.680680421E-11
 91.4597702   2.109071598E-11
 91.6288223   2.528425906E-11
 91.7978821   2.936509022E-11
 91.9669342   3.331293227E-11
 92.135994   3.710890276E-11
 92.3050537   4.073484605E-11
 92.4741058   4.417258226E-11
 92.6431656   4.740305717E-11
 92.8122177   5.040562065E-11
 92.9812775   5.315789475E-11
 93.1503372   5.563680419E-11
 93.3193893   5.782065798E-11
 93.4884491   5.969191808E-11
 93.6575089   6.123952734E-11
 93.826561   6.245980122E-11
 93.9956207   6.335533487E-11
 94.1646729   6.393207491E-11
 94.3337326   6.419576676E-11
 94.5027924   6.414891535E-11
 94.6718445   6.378969575E-11
 94.8409042   6.311288991E-11
 95.009964   6.211248876E-11
 95.1790161   6.078466896E-11
 95.3480759   5.913005502E-11
 95.517128   5.715446519E-11
 95.6861877   5.486834251E-11
 95.8552475   5.228528374E-11
 96.0242996   4.942055098E-11
 96.1933594   4.628990247E-11
 96.3624191   4.29088258E-11
 96.5314713   3.929185796E-11
 96.700531   3.545195387E-11
 96.8695831   3.139988963E-11
 97.0386429   2.714440304E-11
 97.2077026   2.269336108E-11
 97.3767548   1.805620237E-11
 97.5458145   1.324679776E-11
 97.7148743   8.285748823E-12
 97.8839264   3.200965751E-12
 98.0529861   -1.974021857E-12
 98.2220383   -7.203548955E-12
 98.391098   -1.245378019E-11
 98.5601578   -1.769567826E-11
 98.7292099   -2.29057693E-11
 98.8982697   -2.806466864E-11
 99.0673294   -3.315426059E-11
 99.2363815   -3.81548404E-11
 99.4054413   -4.304350626E-11
 99.5744934   -4.779416446E-11
 99.7435532   -5.237869513E-11
 99.9126129   -5.676834003E-11
 100.081665   -6.093452826E-11
 100.250725   -6.484888321E-11
 100.419777   -6.84829693E-11
 100.588837   -7.180846195E-11
 100.757896   -7.479832032E-11
 100.926949   -7.742863295E-11
 101.096008   -7.968054688E-11
 101.265068   -8.154092679E-11
 101.43412   -8.300152232E-11
 101.60318   -8.405654645E-11
 101.772232   -8.470001783E-11
 101.941292   -8.492408166E-11
 102.110352   -8.471922469E-11
 102.279404   -8.407641944E-11
 102.448463   -8.299012866E-11
 102.617523   -8.146074787E-11
 102.786575   -7.949540332E-11
 102.955635   -7.710673072E-11
 103.124687   -7.43103773E-11
 103.293747   -7.112241351E-11
 103.462807   -6.755781351E-11
 103.631859   -6.363032323E-11
 103.800919   -5.935330005E-11
 103.969978   -5.474067727E-11
 104.13903   -4.980727983E-11
 104.30809   -4.45683386E-11
 104.477142   -3.903872017E-11
 104.646202   -3.323288519E-11
 104.815262   -2.716607148E-11
 104.984314   -2.08565578E-11
 105.153374   -1.432804656E-11
 105.322433   -7.610909299E-12
 105.491486   -7.415302638E-13
 105.660545   6.240369332E-12
 105.829597   1.329538563E-11
 105.998657   2.038749898E-11
 106.167717   2.74852311E-11
 106.336769   3.456060785E-11
 106.505829   4.158640099E-11
 106.674881   4.853315666E-11
 106.843941   5.536734959E-11
 107.013   6.20513918E-11
 107.182053   6.854530832E-11
 107.351112   7.480912417E-11
 107.520172   8.080489056E-11
 107.689224   8.649753136E-11
 107.858284   9.185462807E-11
 108.027336   9.68457467E-11
 108.196396   1.014419868E-10
 108.365456   1.056160645E-10
 108.534508   1.093428473E-10
 108.703568   1.12599402E-10
 108.872627   1.153643639E-10
 109.041679   1.176163472E-10
 109.210739   1.193322802E-10
 109.379791   1.204864958E-10
 109.548851   1.210517242E-10
 109.717911   1.210019723E-10
 109.886963   1.203165345E-10
 110.056023   1.189835591E-10
 110.225082   1.170019082E-10
 110.394135   1.143802483E-10
 110.563194   1.111338521E-10
 110.732246   1.072801709E-10
 110.901306   1.028353097E-10
 111.070366   9.781230687E-11
 111.239418   9.222202169E-11
 111.408478   8.607575069E-11
 111.577538   7.938828067E-11
 111.74659   7.21804283E-11
 111.915649   6.447972017E-11
 112.084702   5.631987238E-11
 112.253761   4.773948944E-11
 112.422821   3.878071822E-11
 112.591873   2.948854008E-11
 112.760933   1.991037543E-11
 112.929993   1.009567603E-11
 113.099045   9.492263204E-14
 113.268105   -1.004177904E-11
 113.437157   -2.026608915E-11
 113.606216   -3.053193809E-11
 113.775276   -4.079461768E-11
 113.944328   -5.100854808E-11
 114.113388   -6.112466089E-11
 114.28244   -7.108864192E-11
 114.4515   -8.084123648E-11
 114.62056   -9.032057741E-11
 114.789612   -9.946598406E-11
 114.958672   -1.08221529E-10
 115.127731   -1.165379182E-10
 115.296783   -1.243721931E-10
 115.465843   -1.316852599E-10
 115.634895   -1.384388298E-10
 115.803955   -1.445931846E-10
 115.973015   -1.501067187E-10
 116.142067   -1.549373685E-10
 116.311127   -1.590447496E-10
 116.480186   -1.623921692E-10
 116.649239   -1.649475001E-10
 116.818298   -1.666827232E-10
 116.98735   -1.675733025E-10
 117.15641   -1.675979078E-10
 117.32547   -1.667391919E-10
 117.494522   -1.649856918E-10
 117.663582   -1.62333591E-10
 117.832642   -1.587872889E-10
 118.001694   -1.543585815E-10
 118.170753   -1.49064372E-10
 118.339806   -1.429242419E-10
 118.508865   -1.359588137E-10
 118.677925   -1.281899586E-10
 118.846977   -1.196424904E-10
 119.016037   -1.103465097E-10
 119.185097   -1.003390565E-10
 119.354149   -8.966435233E-11
 119.523209   -7.837286375E-11
 119.692261   -6.651965784E-11
 119.86132   -5.41631115E-11
 120.03038   -4.136451598E-11
 120.199432   -2.818879852E-11
 120.368492   -1.470490743E-11
 120.537552   -9.855805408E-13
 120.706604   1.289411113E-11
 120.875664   2.685903236E-11
 121.044716   4.083624064E-11
 121.213776   5.475601222E-11
 121.382835   6.855113005E-11
 121.551888   8.215478992E-11
 121.720947   9.549822738E-11
 121.889999   1.085089865E-10
 122.059059   1.211110656E-10
 122.228119   1.332265548E-10
 122.397171   1.447783837E-10
 122.566231   1.556927642E-10
 122.735291   1.659009874E-10
 122.904343   1.753397705E-10
 123.073402   1.839510072E-10
 123.242455   1.91681046E-10
 123.411514   1.984804682E-10
 123.580574   2.043039765E-10
 123.749626   2.091106593E-10
 123.918686   2.128638238E-10
 124.087746   2.155307044E-10
 124.256798   2.170822549E-10
 124.425858   2.174933011E-10
 124.59491   2.167437479E-10
 124.763969   2.148206196E-10
 124.933029   2.117204467E-10
 125.102081   2.07451209E-10
 125.271141   2.020326129E-10
 125.440201   1.954949536E-10
 125.609253   1.87876506E-10
 125.778313   1.792202636E-10
 125.947365   1.6957169E-10
 126.116425   1.589773591E-10
 126.285484   1.474854683E-10
 126.454536   1.351474072E-10
 126.623596   1.22019686E-10
 126.792656   1.081654141E-10
 126.961708   9.365495185E-11
 127.130768   7.856547357E-11
 127.29982   6.297979499E-11
 127.46888   4.698449269E-11
 127.637939   3.066807572E-11
 127.806992   1.411922489E-11
 127.976051   -2.57484355E-12
 128.145111   -1.932952409E-11
 128.314163   -3.606317675E-11
 128.483215   -5.269664219E-11
 128.652283   -6.915189948E-11
 128.821335   -8.535020607E-11
 128.990387   -1.012101791E-10
 129.159454   -1.166468311E-10
 129.328506   -1.315717674E-10
 129.497559   -1.458950599E-10
 129.666626   -1.595281962E-10
 129.835678   -1.723873405E-10
 130.00473   -1.843962066E-10
 130.173782   -1.95487404E-10
 130.34285   -2.056027154E-10
 130.511902   -2.146917782E-10
 130.680954   -2.227104057E-10
 130.850021   -2.296188517E-10
 131.019073   -2.353808259E-10
 131.188126   -2.39963216E-10
 131.357193   -2.433367952E-10
 131.526245   -2.454770831E-10
 131.695297   -2.463658444E-10
 131.864365   -2.459922821E-10
 132.033417   -2.44354259E-10
 132.202469   -2.414591582E-10
 132.371536   -2.373247154E-10
 132.540588   -2.319784642E-10
 132.709641   -2.254568893E-10
 132.878693   -2.178032893E-10
 133.04776   -2.090652512E-10
 133.216812   -1.992919441E-10
 133.385864   -1.885324674E-10
 133.554932   -1.768355878E-10
 133.723984   -1.642511543E-10
 133.893036   -1.508324576E-10
 134.062103   -1.366392277E-10
 134.231155   -1.217396878E-10
 134.400208   -1.062112967E-10
 134.569275   -9.013943064E-11
 134.738327   -7.361494747E-11
 134.907379   -5.67306653E-11
 135.076431   -3.957872224E-11
 135.245499   -2.224816685E-11
 135.414551   -4.824285502E-12
 135.583603   1.261136855E-11
 135.75267   2.997966458E-11
 135.921722   4.720243293E-11
 136.090775   6.420075582E-11
 136.259842   8.0893299E-11
 136.428894   9.719551552E-11
 136.597946   1.130195867E-10
 136.767014   1.282759454E-10
 136.936066   1.42876086E-10
 137.105118   1.567364433E-10
 137.274185   1.697822299E-10
 137.443237   1.819501078E-10
 137.612289   1.93188715E-10
 137.781342   2.03456807E-10
 137.950409   2.127194809E-10
 138.119461   2.20944027E-10
 138.288513   2.280968747E-10
 138.457581   2.341427052E-10
 138.626633   2.390458942E-10
 138.795685   2.427739121E-10
 138.964752   2.453012515E-10
 139.133804   2.466125637E-10
 139.302856   2.467043236E-10
 139.471924   2.455851078E-10
 139.640976   2.432743174E-10
 139.810028   2.398004018E-10
 139.979095   2.351984441E-10
 140.148148   2.295077323E-10
 140.3172   2.227690671E-10
 140.486252   2.150226108E-10
 140.655319   2.063063748E-10
 140.824371   1.966566771E-10
 140.993423   1.861100718E-10
 141.162491   1.747072625E-10
 141.331543   1.624970158E-10
 141.500595   1.495390201E-10
 141.669662   1.35904385E-10
 141.838715   1.216731021E-10
 142.007767   1.069295555E-10
 142.176834   9.175751131E-11
 142.345886   7.62362326E-11
 142.514938   6.04390496E-11
 142.68399   4.44340606E-11
 142.853058   2.828689019E-11
 143.02211   1.206351165E-11
 143.191162   -4.167299752E-12
 143.360229   -2.033293499E-11
 143.529282   -3.63567787E-11
 143.698334   -5.215902016E-11
 143.867401   -6.765785154E-11
 144.036453   -8.277134533E-11
 144.205505   -9.742000262E-11
 144.374573   -1.115296397E-10
 144.543625   -1.250346077E-10
 144.712677   -1.378797354E-10
 144.881744   -1.500207458E-10
 145.050797   -1.614222367E-10
 145.219849   -1.720541626E-10
 145.388901   -1.818875467E-10
 145.557968   -1.908912195E-10
 145.72702   -1.990306392E-10
 145.896072   -2.062690158E-10
 146.06514   -2.125702669E-10
 146.234192   -2.179023906E-10
 146.403244   -2.222403789E-10
 146.572311   -2.25567745E-10
 146.741364   -2.278768146E-10
 146.910416   -2.291681012E-10
 147.079483   -2.294492374E-10
 147.248535   -2.287338097E-10
 147.417587   -2.270400812E-10
 147.586655   -2.243894098E-10
 147.755707   -2.208043748E-10
 147.924759   -2.163072776E-10
 148.093811   -2.109193514E-10
 148.262878   -2.046614406E-10
 148.431931   -1.975560132E-10
 148.600983   -1.896300061E-10
 148.77005   -1.809178918E-10
 148.939102   -1.714631492E-10
 149.108154   -1.613184447E-10
 149.277222   -1.505435082E-10
 149.446274   -1.392019278E-10
 149.615326   -1.27357791E-10
 149.784393   -1.150725557E-10
 149.953445   -1.02403315E-10
 150.122498   -8.940247848E-11
 150.29155   -7.611873631E-11
 150.460617   -6.259874563E-11
 150.629669   -4.888954172E-11
 150.798721   -3.504072726E-11
 150.967789   -2.110648462E-11
 151.136841   -7.14634428E-12
 151.305893   6.774996796E-12
 151.47496   2.058947804E-11
 151.644012   3.422855749E-11
 151.813065   4.762662834E-11
 151.982132   6.072414099E-11
 152.151184   7.346943193E-11
 152.320236   8.581867161E-11
 152.489304   9.773394594E-11
 152.658356   1.09179922E-10
 152.827408   1.201200805E-10
 152.99646   1.305138497E-10
 153.165527   1.403152317E-10
 153.334579   1.494737667E-10
 153.503632   1.579373715E-10
 153.672699   1.656565857E-10
 153.841751   1.725888599E-10
 154.010803   1.787020809E-10
 154.179871   1.839760982E-10
 154.348923   1.884024603E-10
 154.517975   1.919816528E-10
 154.687042   1.947193934E-10
 154.856094   1.966226071E-10
 155.025146   1.976960817E-10
 155.194214   1.979409137E-10
 155.363266   1.973548824E-10
 155.532318   1.959346158E-10
 155.70137   1.936790034E-10
 155.870438   1.905930413E-10
 156.03949   1.866907184E-10
 156.208542   1.819967094E-10
 156.377609   1.765459307E-10
 156.546661   1.703813479E-10
 156.715714   1.635502705E-10
 156.884781   1.561001467E-10
 157.053833   1.480748996E-10
 157.222885   1.395123739E-10
 157.391953   1.304439612E-10
 157.561005   1.208964318E-10
 157.730057   1.108953693E-10
 157.899109   1.00469813E-10
 158.068176   8.965615056E-11
 158.237228   7.850062961E-11
 158.406281   6.705976746E-11
 158.575348   5.539788767E-11
 158.7444   4.358329669E-11
 158.913452   3.168343712E-11
 159.08252   1.976092727E-11
 159.251572   7.871090932E-12
 159.420624   -3.938442888E-12
 159.589691   -1.562614621E-11
 159.758743   -2.715395964E-11
 159.927795   -3.848418459E-11
 160.096863   -4.957696059E-11
 160.265915   -6.038862466E-11
 160.434967   -7.087131576E-11
 160.604019   -8.097381793E-11
 160.773087   -9.064363843E-11
 160.942139   -9.983003313E-11
 161.111191   -1.084876147E-10
 161.280258   -1.165797181E-10
 161.44931   -1.240805791E-10
 161.618362   -1.309753278E-10
 161.78743   -1.372577052E-10
 161.956482   -1.429254631E-10
 162.125534   -1.479752293E-10
 162.294601   -1.523980386E-10
 162.463654   -1.561774321E-10
 162.632706   -1.592905113E-10
 162.801773   -1.617118106E-10
 162.970825   -1.634184732E-10
 163.139877   -1.643951641E-10
 163.308929   -1.64637165E-10
 163.477997   -1.641512343E-10
 163.647049   -1.629543028E-10
 163.816101   -1.610709205E-10
 163.985168   -1.585304388E-10
 164.154221   -1.553640272E-10
 164.323273   -1.516022863E-10
 164.49234   -1.472732492E-10
 164.661392   -1.424009244E-10
 164.830444   -1.370051433E-10
 164.999512   -1.311029479E-10
 165.168564   -1.247117548E-10
 165.337616   -1.178533937E-10
 165.506668   -1.105580766E-10
 165.675735   -1.028663751E-10
 165.844788   -9.482831881E-11
 166.01384   -8.64995367E-11
 166.182907   -7.793572732E-11
 166.351959   -6.918728784E-11
 166.521011   -6.029595573E-11
 166.690079   -5.129456235E-11
 166.859131   -4.220956223E-11
 167.028183   -3.306522417E-11