 0.   1.064134936E-17
 0.169056863   7.759500101E-14
 0.338113725   2.055275844E-13
 0.507170618   3.405639215E-13
 0.67622745   4.468050008E-13
 0.845284343   5.141596242E-13
 1.01434124   5.616737544E-13
 1.18339813   6.241526393E-13
 1.3524549   7.299988522E-13
 1.52151179   8.831136777E-13
 1.69056869   1.059269426E-12
 1.85962558   1.218987693E-12
 2.02868247   1.329458245E-12
 2.19773936   1.382860406E-12
 2.36679626   1.400548622E-12
 2.53585315   1.420681173E-12
 2.7049098   1.476345738E-12
 2.87396669   1.57663921E-12
 3.04302359   1.701450504E-12
 3.21208048   1.812857807E-12
 3.38113737   1.876587644E-12
 3.55019426   1.881281806E-12
 3.71925116   1.844626014E-12
 3.88830805   1.802911119E-12
 4.05736494   1.790028304E-12
 4.22642183   1.817841992E-12
 4.39547873   1.869053957E-12
 4.56453562   1.906547836E-12
 4.73359251   1.893896498E-12
 4.9026494   1.815452628E-12
 5.0717063   1.684755525E-12
 5.24076319   1.536646027E-12
 5.4098196   1.407667169E-12
 5.5788765   1.315841533E-12
 5.74793339   1.251134829E-12
 5.91699028   1.181793921E-12
 6.08604717   1.072798426E-12
 6.25510406   9.059313087E-13
 6.42416096   6.901945378E-13
 6.59321785   4.568399153E-13
 6.76227474   2.41982866E-13
 6.93133163   6.6690597E-14
 7.10038853   -7.426413542E-14
 7.26944542   -2.087790119E-13
 7.43850231   -3.711063303E-13
 7.6075592   -5.821001775E-13
 7.7766161   -8.3711472E-13
 7.94567299   -1.1082681E-12
 8.11472988   -1.359687211E-12
 8.28378677   -1.567087931E-12
 8.45284367   -1.730662271E-12
 8.62190056   -1.874060802E-12
 8.79095745   -2.030074459E-12
 8.96001434   -2.221068164E-12
 9.12907124   -2.445143263E-12
 9.29812813   -2.675819202E-12
 9.46718502   -2.87550257E-12
 9.63624191   -3.015330173E-12
 9.80529881   -3.090416161E-12
 9.9743557   -3.122065974E-12
 10.1434126   -3.145731722E-12
 10.3124695   -3.191374465E-12
 10.4815264   -3.267073678E-12
 10.6505823   -3.354898607E-12
 10.8196392   -3.421242456E-12
 10.9886961   -3.435777921E-12
 11.157753   -3.388398503E-12
 11.3268099   -3.294632796E-12
 11.4958668   -3.186475606E-12
 11.6649237   -3.093771116E-12
 11.8339806   -3.026634065E-12
 12.0030375   -2.968887939E-12
 12.1720943   -2.886383623E-12
 12.3411512   -2.745722269E-12
 12.5102081   -2.532984022E-12
 12.679265   -2.261932829E-12
 12.8483219   -1.966956546E-12
 13.0173788   -1.684548985E-12
 13.1864357   -1.433658422E-12
 13.3554926   -1.205964256E-12
 13.5245495   -9.716562407E-13
 13.6936064   -6.975629384E-13
 13.8626633   -3.674206935E-13
 14.0317202   7.297108372E-15
 14.2007771   3.923637402E-13
 14.3698339   7.490376592E-13
 14.5388908   1.055348951E-12
 14.7079477   1.318281422E-12
 14.8770046   1.569675921E-12
 15.0460615   1.847854118E-12
 15.2151184   2.175162828E-12
 15.3841753   2.544160846E-12
 15.5532322   2.920450774E-12
 15.7222891   3.260800917E-12
 15.891346   3.53642636E-12
 16.0604019   3.748196632E-12
 16.2294598   3.925003118E-12
 16.3985157   4.106075289E-12
 16.5675735   4.317294786E-12
 16.7366295   4.555115833E-12
 16.9056873   4.787474236E-12
 17.0747433   4.971329338E-12
 17.2438011   5.076829582E-12
 17.4128571   5.104107241E-12
 17.5819149   5.082808306E-12
 17.7509708   5.054422592E-12
 17.9200287   5.047557424E-12
 18.0890846   5.0605878E-12
 18.2581425   5.062039763E-12
 18.4271984   5.008821049E-12
 18.5962563   4.871957438E-12
 18.7653122   4.654859831E-12
 18.93437   4.393217127E-12
 19.103426   4.136137179E-12
 19.2724838   3.919109828E-12
 19.4415398   3.7443308E-12
 19.6105976   3.579901349E-12
 19.7796535   3.378610976E-12
 19.9487114   3.105649635E-12
 20.1177673   2.759318815E-12
 20.2868252   2.372734171E-12
 20.4558811   1.995459787E-12
 20.624939   1.66568094E-12
 20.7939949   1.38908004E-12
 20.9630527   1.136733502E-12
 21.1321087   8.632675195E-13
 21.3011646   5.346712656E-13
 21.4702225   1.49482423E-13
 21.6392784   -2.59101822E-13
 21.8083363   -6.414998198E-13
 21.9773922   -9.59764386E-13
 22.14645   -1.208946788E-12
 22.315506   -1.419245038E-12
 22.4845638   -1.637608452E-12
 22.6536198   -1.899532831E-12
 22.8226776   -2.207567462E-12
 22.9917336   -2.52917587E-12
 23.1607914   -2.815280778E-12
 23.3298473   -3.028728527E-12
 23.4989052   -3.166053574E-12
 23.6679611   -3.259796946E-12
 23.837019   -3.359915861E-12
 24.0060749   -3.504996857E-12
 24.1751328   -3.699908869E-12
 24.3441887   -3.912781991E-12
 24.5132465   -4.092988101E-12
 24.6823025   -4.199684003E-12
 24.8513603   -4.2244706E-12
 25.0204163   -4.195263061E-12
 25.1894741   -4.159376836E-12
 25.35853   -4.155807209E-12
 25.5275879   -4.192754217E-12
 25.6966438   -4.243209516E-12
 25.8657017   -4.260853389E-12
 26.0347576   -4.206815018E-12
 26.2038155   -4.071778938E-12
 26.3728714   -3.880858308E-12
 26.5419292   -3.678764324E-12
 26.7109852   -3.504126026E-12
 26.880043   -3.367877591E-12
 27.049099   -3.248037256E-12
 27.2181568   -3.103607215E-12
 27.3872128   -2.89931924E-12
 27.5562706   -2.626896313E-12
 27.7253265   -2.310710434E-12
 27.8943844   -1.994787148E-12
 28.0634403   -1.718726615E-12
 28.2324982   -1.49624692E-12
 28.4015541   -1.308368778E-12
 28.57061   -1.114833811E-12
 28.7396679   -8.77088983E-13
 28.9087238   -5.798446575E-13
 29.0777817   -2.392862926E-13
 29.2468376   1.062969631E-13
 29.4158955   4.178572907E-13
 29.5849514   6.768256745E-13
 29.7540092   8.945183461E-13
 29.9230652   1.104810254E-12
 30.092123   1.344514994E-12
 30.261179   1.632572766E-12
 30.4302368   1.959548192E-12
 30.5992928   2.292993052E-12
 30.7683506   2.595395036E-12
 30.9374065   2.84460411E-12
 31.1064644   3.045493545E-12
 31.2755203   3.226624046E-12
 31.4445782   3.423991776E-12
 31.6136341   3.660936138E-12
 31.782692   3.935237552E-12
 31.9517479   4.22032808E-12
 32.1208038   4.479746869E-12
 32.2898636   4.686770937E-12
 32.4589195   4.838439979E-12
 32.6279755   4.956399006E-12
 32.7970314   5.074238339E-12
 32.9660912   5.218376946E-12
 33.1351471   5.393001584E-12
 33.304203   5.577303376E-12
 33.473259   5.736493312E-12
 33.6423187   5.840533352E-12
 33.8113747   5.880284541E-12
 33.9804306   5.872205066E-12
 34.1494865   5.848971047E-12
 34.3185463   5.841122724E-12
 34.4876022   5.859753221E-12
 34.6566582   5.889780417E-12
 34.8257141   5.897577565E-12
 34.9947739   5.848906429E-12
 35.1638298   5.727399457E-12
 35.3328857   5.543478003E-12
 35.5019417   5.328775182E-12
 35.6709976   5.119058389E-12
 35.8400574   4.934963029E-12
 36.0091133   4.771094544E-12
 36.1781693   4.59951955E-12
 36.3472252   4.385767357E-12
 36.5162849   4.108548137E-12
 36.6853409   3.772288471E-12
 36.8543968   3.405476639E-12
 37.0234528   3.045639695E-12
 37.1925125   2.719161051E-12
 37.3615685   2.42706224E-12
 37.5306244   2.144651427E-12
 37.6996803   1.835306213E-12
 37.8687401   1.47082574E-12
 38.037796   1.047075512E-12
 38.206852   5.861800303E-13
 38.3759079   1.239528093E-13
 38.5449677   -3.105285668E-13
 38.7140236   -7.118296837E-13
 38.8830795   -1.102009326E-12
 39.0521355   -1.519033814E-12
 39.2211952   -1.995935535E-12
 39.3902512   -2.542149651E-12
 39.5593071   -3.137412639E-12
 39.728363   -3.741760807E-12
 39.8974228   -4.316251349E-12
 40.0664787   -4.843003602E-12
 40.2355347   -5.333403424E-12
 40.4045906   -5.819789095E-12
 40.5736504   -6.335091306E-12
 40.7427063   -6.891698583E-12
 40.9117622   -7.471389826E-12
 41.0808182   -8.032160007E-12
 41.2498779   -8.52835684E-12
 41.4189339   -8.933014051E-12
 41.5879898   -9.249873437E-12
 41.7570457   -9.508240549E-12
 41.9261055   -9.743376245E-12
 42.0951614   -9.97339971E-12
 42.2642174   -1.018580532E-11
 42.4332733   -1.034152278E-11
 42.6023293   -1.039460271E-11
 42.771389   -1.03166746E-11
 42.9404449   -1.011236754E-11
 43.1095009   -9.816709078E-12
 43.2785568   -9.475623411E-12
 43.4476166   -9.120273113E-12
 43.6166725   -8.74972577E-12
 43.7857285   -8.331978336E-12
 43.9547844   -7.823089399E-12
 44.1238441   -7.193830167E-12
 44.2929001   -6.448788985E-12
 44.461956   -5.626887411E-12
 44.631012   -4.78274538E-12
 44.8000717   -3.95926911E-12
 44.9691277   -3.166995312E-12
 45.1381836   -2.382030987E-12
 45.3072395   -1.563859502E-12
 45.4762993   -6.828561154E-13
 45.6453552   2.583858691E-13
 45.8144112   1.22242147E-12
 45.9834671   2.154812787E-12
 46.1525269   3.012394804E-12
 46.3215828   3.785650179E-12
 46.4906387   4.502116995E-12
 46.6596947   5.20858183E-12
 46.8287544   5.942133938E-12
 46.9978104   6.706721116E-12
 47.1668663   7.46887014E-12
 47.3359222   8.175248672E-12
 47.504982   8.782070557E-12
 47.6740379   9.27938542E-12
 47.8430939   9.696104163E-12
 48.0121498   1.008269423E-11
 48.1812096   1.048140134E-11
 48.3502655   1.090113156E-11
 48.5193214   1.131152724E-11
 48.6883774   1.165967583E-11
 48.8574371   1.189983875E-11
 49.0264931   1.201903941E-11
 49.195549   1.204374187E-11
 49.3646049   1.202384806E-11
 49.5336647   1.200337225E-11
 49.7027206   1.199483741E-11
 49.8717766   1.197217585E-11
 50.0408325   1.188611883E-11
 50.2098885   1.169299553E-11
 50.3789482   1.13801208E-11
 50.5480042   1.097304539E-11
 50.7170601   1.052054884E-11
 50.886116   1.00662343E-11
 51.0551758   9.623321237E-12
 51.2242317   9.167305803E-12
 51.3932877   8.650706887E-12
 51.5623436   8.031328207E-12
 51.7314034   7.297667678E-12
 51.9004593   6.476839464E-12
 52.0695152   5.620530083E-12
 52.2385712   4.777165209E-12
 52.4076309   3.966324665E-12
 52.5766869   3.170029994E-12
 52.7457428   2.345732115E-12
 52.9147987   1.453355557E-12
 53.0838585   4.80840953E-13
 53.2529144   -5.463343536E-13
 53.4219704   -1.576873831E-12
 53.5910263   -2.559687922E-12
 53.7600861   -3.469268492E-12
 53.929142   -4.316057928E-12
 54.0981979   -5.136201794E-12
 54.2672539   -5.966883671E-12
 54.4363136   -6.821527284E-12
 54.6053696   -7.678991991E-12
 54.7744255   -8.492710007E-12
 54.9434814   -9.214321146E-12
 55.1125412   -9.818182725E-12
 55.2815971   -1.031282958E-11
 55.4506531   -1.073301951E-11
 55.619709   -1.111710637E-11
 55.7887688   -1.148275485E-11
 55.9578247   -1.18148347E-11
 56.1268806   -1.2072357E-11
 56.2959366   -1.221047916E-11
 56.4649963   -1.220518304E-11
 56.6340523   -1.206677119E-11
 56.8031082   -1.183471116E-11
 56.9721642   -1.155683188E-11
 57.1412201   -1.126461164E-11
 57.3102798   -1.095839478E-11
 57.4793358   -1.061067033E-11
 57.6483917   -1.018535516E-11
 57.8174477   -9.662036796E-12
 57.9865074   -9.051421938E-12
 58.1555634   -8.393222749E-12
 58.3246193   -7.737621308E-12
 58.4936752   -7.120725884E-12
 58.662735   -6.547831721E-12
 58.8317909   -5.993947526E-12
 59.0008469   -5.421379491E-12
 59.1699028   -4.804554324E-12
 59.3389626   -4.148176594E-12
 59.5080185   -3.488486409E-12
 59.6770744   -2.876804914E-12
 59.8461304   -2.354475339E-12
 60.0151901   -1.933130956E-12
 60.1842461   -1.591263471E-12
 60.353302   -1.288924154E-12
 60.5223579   -9.921963424E-13
 60.6914177   -6.935468909E-13
 60.8604736   -4.165040708E-13
 61.0295296   -2.019473185E-13
 61.1985855   -8.374375547E-14
 61.3676453   -6.758121488E-14
 61.5367012   -1.251339391E-13
 61.7057571   -2.070974414E-13
 61.8748131   -2.679169278E-13
 62.0438728   -2.883193901E-13
 62.2129288   -2.828998429E-13
 62.3819847   -2.8842903E-13
 62.5510406   -3.395003462E-13
 62.7201004   -4.454026395E-13
 62.8891563   -5.815270683E-13
 63.0582123   -7.004151491E-13
 63.2272682   -7.563639927E-13
 63.396328   -7.296468117E-13
 63.5653839   -6.364329094E-13
 63.7344398   -5.185006612E-13
 63.9034958   -4.183047138E-13
 64.0725555   -3.533981647E-13
 64.2416077   -3.047577924E-13
 64.4106674   -2.258060817E-13
 64.5797272   -6.725378582E-14
 64.7487793   1.961560255E-13
 64.9178391   5.520962377E-13
 65.0868912   9.58001907E-13
 65.2559509   1.365210896E-12
 65.4250107   1.746249955E-12
 65.5940628   2.10981818E-12
 65.7631226   2.49500789E-12
 65.9321823   2.948103133E-12
 66.1012344   3.495232532E-12
 66.2702942   4.126494285E-12
 66.4393463   4.800639487E-12
 66.6084061   5.467608137E-12
 66.7774658   6.095973986E-12
 66.9465179   6.689523935E-12
 67.1155777   7.283391772E-12
 67.2846375   7.92191833E-12
 67.4536896   8.630923233E-12
 67.6227493   9.400340749E-12
 67.7918015   1.018728504E-11
 67.9608612   1.093790249E-11
 68.129921   1.161556875E-11
 68.2989731   1.221923691E-11
 68.4680328   1.278131767E-11
 68.6370926   1.334613756E-11
 68.8061447   1.39411746E-11
 68.9752045   1.455747155E-11
 69.1442566   1.515049718E-11
 69.3133163   1.566112691E-11
 69.4823761   1.604498305E-11
 69.6514282   1.629360015E-11
 69.820488   1.64355491E-11
 69.9895477   1.651695794E-11
 70.1585999   1.657263562E-11
 70.3276596   1.660412606E-11
 70.4967117   1.657709733E-11
 70.6657715   1.643924927E-11
 70.8348312   1.614834134E-11
 71.0038834   1.569423584E-11
 71.1729431   1.510235166E-11
 71.3419952   1.441671608E-11
 71.511055   1.367234364E-11
 71.6801147   1.287281393E-11
 71.8491669   1.198575787E-11
 72.0182266   1.095871657E-11
 72.1872864   9.746221191E-12
 72.3563385   8.332675695E-12
 72.5253983   6.738211118E-12
 72.6944504   5.004547558E-12
 72.8635101   3.16935562E-12
 73.0325699   1.244127089E-12
 73.201622   -7.916349867E-13
 73.3706818   -2.976515518E-12
 73.5397415   -5.341609099E-12
 73.7087936   -7.887876984E-12
 73.8778534   -1.057935597E-11
 74.0469055   -1.335609227E-11
 74.2159653   -1.615937072E-11
 74.385025   -1.895503719E-11
 74.5540771   -2.174185137E-11
 74.7231369   -2.45404478E-11
 74.8921967   -2.736950423E-11
 75.0612488   -3.02228971E-11
 75.2303085   -3.306080756E-11
 75.3993607   -3.581980892E-11
 75.5684204   -3.843605642E-11
 75.7374802   -4.086852037E-11
 75.9065323   -4.310931126E-11
 76.075592   -4.51755508E-11
 76.2446518   -4.708774343E-11
 76.4137039   -4.884702018E-11
 76.5827637   -5.042405382E-11
 76.7518158   -5.176553977E-11
 76.9208755   -5.281421134E-11
 77.0899353   -5.353085336E-11
 77.2589874   -5.39058867E-11
 77.4280472   -5.395431324E-11
 77.5971069   -5.369738681E-11
 77.7661591   -5.31417757E-11
 77.9352188   -5.226830774E-11
 78.1042709   -5.103670611E-11
 78.2733307   -4.940363049E-11
 78.4423904   -4.734370881E-11
 78.6114426   -4.486180524E-11
 78.7805023   -4.198971032E-11
 78.9495544   -3.876936619E-11
 79.1186142   -3.523221298E-11
 79.287674   -3.138645246E-11
 79.4567261   -2.721924248E-11
 79.6257858   -2.271255753E-11
 79.7948456   -1.786361337E-11
 79.9638977   -1.269833631E-11
 80.1329575   -7.270349687E-12
 80.3020096   -1.646053953E-12
 80.4710693   4.11581446E-12
 80.6401291   9.978821588E-12
 80.8091812   1.592973323E-11
 80.978241   2.196550407E-11
 81.1473007   2.807398237E-11
 81.3163528   3.421944325E-11
 81.4854126   4.034116791E-11
 81.6544647   4.636589723E-11
 81.8235245   5.222709071E-11
 81.9925842   5.788030125E-11
 82.1616364   6.330596464E-11
 82.3306961   6.849829037E-11
 82.4997559   7.344675562E-11
 82.668808   7.812064884E-11
 82.8378677   8.246568706E-11
 83.0069199   8.641461158E-11
 83.1759796   8.990575645E-11
 83.3450394   9.289927161E-11
 83.5140915   9.538179274E-11
 83.6831512   9.735717094E-11
 83.852211   9.882854951E-11
 84.0212631   9.978220333E-11
 84.1903229   1.001824734E-10
 84.359375   9.998086387E-11
 84.5284348   9.913425636E-11
 84.6974945   9.762202158E-11
 84.8665466   9.545240987E-11
 85.0356064   9.265466866E-11
 85.2046585   8.926146627E-11
 85.3737183   8.52916765E-11
 85.542778   8.0743294E-11
 85.7118301   7.560056053E-11
 85.8808899   6.985111795E-11
 86.0499496   6.350326515E-11
 86.2190018   5.659342786E-11
 86.3880615   4.917947646E-11
 86.5571136   4.132383324E-11
 86.7261734   3.307606272E-11
 86.8952332   2.446503937E-11
 87.0642853   1.550521343E-11
 87.233345   6.213435582E-12
 87.4024048   -3.373533874E-12
 87.5714569   -1.319100471E-11
 87.7405167   -2.315275402E-11
 87.9095688   -3.316840552E-11
 88.0786285   -4.316211277E-11
 88.2476883   -5.308210468E-11
 88.4167404   -6.289582744E-11
 88.5858002   -7.257381501E-11
 88.7548599   -8.207162727E-11
 88.923912   -9.132051365E-11
 89.0929718   -1.002321767E-10
 89.2620239   -1.087151202E-10
 89.4310837   -1.16693169E-10
 89.6001434   -1.241158287E-10
 89.7691956   -1.30954747E-10
 89.9382553   -1.371887881E-10
 90.1073151   -1.427864355E-10
 90.2763672   -1.47696147E-10
 90.4454269   -1.518501852E-10
 90.6144791   -1.551801743E-10
 90.7835388   -1.5763503E-10
 90.9525986   -1.591915072E-10
 91.1216507   -1.598510768E-10
 91.2907104   -1.596252019E-10
 91.4597702   -1.58517463E-10
 91.6288223   -1.565129831E-10
 91.7978821   -1.535811756E-10
 91.9669342   -1.4969051E-10
 92.135994   -1.44826956E-10
 92.3050537   -1.390057652E-10
 92.4741058   -1.322702642E-10
 92.6431656   -1.246782538E-10
 92.8122177   -1.162840796E-10
 92.9812775   -1.071261621E-10
 93.1503372   -9.72269279E-11
 93.3193893   -8.660471645E-11
 93.4884491   -7.529057933E-11
 93.6575089   -6.334024971E-11
 93.826561   -5.083435756E-11
 93.9956207   -3.786682773E-11
 94.1646729   -2.45279682E-11
 94.3337326   -1.089184905E-11
 94.5027924   2.985268066E-12
 94.6718445   1.705475518E-11
 94.8409042   3.125987663E-11
 95.009964   4.552372368E-11
 95.1790161   5.97479427E-11
 95.3480759   7.382326694E-11
 95.517128   8.764622361E-11
 95.6861877   1.011328035E-10
 95.8552475   1.142216877E-10
 96.0242996   1.268654071E-10
 96.1933594   1.390148691E-10
 96.3624191   1.506057778E-10
 96.5314713   1.615552275E-10
 96.700531   1.717701537E-10
 96.8695831   1.811634454E-10
 97.0386429   1.896685725E-10
 97.2077026   1.972448038E-10
 97.3767548   2.038702679E-10
 97.5458145   2.09526882E-10
 97.7148743   2.141856276E-10
 97.8839264   2.178006803E-10
 98.0529861   2.20315613E-10
 98.2220383   2.216780787E-10
 98.391098   2.218549094E-10
 98.5601578   2.208389721E-10
 98.7292099   2.186440196E-10
 98.8982697   2.152907991E-10
 99.0673294   2.107922725E-10
 99.2363815   2.051467329E-10
 99.4054413   1.983427311E-10
 99.5744934   1.903733698E-10
 99.7435532   1.812515971E-10
 99.9126129   1.710181857E-10
 100.081665   1.597375704E-10
 100.250725   1.474839278E-10
 100.419777   1.343255784E-10
 100.588837   1.203162153E-10
 100.757896   1.054979992E-10
 100.926949   8.99142566E-11
 101.096008   7.362434273E-11
 101.265068   5.671162845E-11
 101.43412   3.927985368E-11
 101.60318   2.143952377E-11
 101.772232   3.292057165E-12
 101.941292   -1.507956433E-11
 102.110352   -3.36085014E-11
 102.279404   -5.223160446E-11
 102.448463   -7.087441745E-11
 102.617523   -8.944218977E-11
 102.786575   -1.078223899E-10
 102.955635   -1.258971399E-10
 103.124687   -1.435585956E-10
 103.293747   -1.607181888E-10
 103.462807   -1.773046848E-10
 103.631859   -1.932522753E-10
 103.800919   -2.084855066E-10
 103.969978   -2.229102875E-10
 104.13903   -2.364159424E-10
 104.30809   -2.488878825E-10
 104.477142   -2.602238702E-10
 104.646202   -2.703450797E-10
 104.815262   -2.791969156E-10
 104.984314   -2.867389659E-10
 105.153374   -2.929314569E-10
 105.322433   -2.977253999E-10
 105.491486   -3.010627858E-10
 105.660545   -3.028859108E-10
 105.829597   -3.031508655E-10
 105.998657   -3.018368611E-10
 106.167717   -2.989463399E-10
 106.336769   -2.944959832E-10
 106.505829   -2.88504054E-10
 106.674881   -2.809812938E-10
 106.843941   -2.719306724E-10
 107.013   -2.613562144E-10
 107.182053   -2.492751006E-10
 107.351112   -2.357267159E-10
 107.520172   -2.207731081E-10
 107.689224   -2.04490827E-10
 107.858284   -1.869588234E-10
 108.027336   -1.682491368E-10
 108.196396   -1.484256468E-10
 108.365456   -1.27551178E-10
 108.534508   -1.056986859E-10
 108.703568   -8.296024978E-11
 108.872627   -5.94488278E-11
 109.041679   -3.52920887E-11
 109.210739   -1.062180205E-11
 109.379791   1.443543028E-11
 109.548851   3.976144067E-11
 109.717911   6.524293605E-11
 109.886963   9.076394497E-11
 110.056023   1.161995847E-10
 110.225082   1.414147827E-10
 110.394135   1.66269179E-10
 110.563194   1.906248909E-10
 110.732246   2.143529243E-10
 110.901306   2.37334763E-10
 111.070366   2.594580384E-10
 111.239418   2.806097854E-10
 111.408478   3.006708216E-10
 111.577538   3.195150255E-10
 111.74659   3.370141111E-10
 111.915649   3.530455095E-10
 112.084702   3.674993365E-10
 112.253761   3.802811677E-10
 112.422821   3.913100954E-10
 112.591873   4.005131504E-10
 112.760933   4.078203053E-10
 112.929993   4.131622267E-10
 113.099045   4.164722456E-10
 113.268105   4.176912982E-10
 113.437157   4.167733381E-10
 113.606216   4.136889997E-10
 113.775276   4.084262373E-10
 113.944328   4.009882149E-10
 114.113388   3.913903091E-10
 114.28244   3.796572501E-10
 114.4515   3.658220116E-10
 114.62056   3.499261436E-10
 114.789612   3.320212438E-10
 114.958672   3.121704006E-10
 115.127731   2.904492757E-10
 115.296783   2.669464094E-10
 115.465843   2.417620548E-10
 115.634895   2.150062905E-10
 115.803955   1.867970778E-10
 115.973015   1.572588865E-10
 116.142067   1.265229171E-10
 116.311127   9.472874568E-11
 116.480186   6.202652975E-11
 116.649239   2.857815026E-11
 116.818298   -5.444028041E-12
 116.98735   -3.986120808E-11
 117.15641   -7.449368206E-11
 117.32547   -1.091651908E-10
 117.494522   -1.437035629E-10
 117.663582   -1.779373593E-10
 117.832642   -2.11689874E-10
 118.001694   -2.44774645E-10
 118.170753   -2.769953711E-10
 118.339806   -3.081520317E-10
 118.508865   -3.380506708E-10
 118.677925   -3.66512154E-10
 118.846977   -3.933757764E-10
 119.016037   -4.184951552E-10
 119.185097   -4.417299304E-10
 119.354149   -4.629376882E-10
 119.523209   -4.819722954E-10
 119.692261   -4.986902002E-10
 119.86132   -5.129620062E-10
 120.03038   -5.246828527E-10
 120.199432   -5.337760234E-10
 120.368492   -5.401867842E-10
 120.537552   -5.438706707E-10
 120.706604   -5.4478283E-10
 120.875664   -5.428754668E-10
 121.044716   -5.381058377E-10
 121.213776   -5.304499617E-10
 121.382835   -5.199153885E-10
 121.551888   -5.065437514E-10
 121.720947   -4.904024409E-10
 121.889999   -4.715690616E-10
 122.059059   -4.501181372E-10
 122.228119   -4.261179742E-10
 122.397171   -3.996397657E-10
 122.566231   -3.707742169E-10
 122.735291   -3.396454507E-10
 122.904343   -3.064138943E-10
 123.073402   -2.712657599E-10
 123.242455   -2.343946703E-10
 123.411514   -1.959862272E-10
 123.580574   -1.562137086E-10
 123.749626   -1.152476101E-10
 123.918686   -7.327267959E-11
 124.087746   -3.050174002E-11
 124.256798   1.282279925E-11
 124.425858   5.644177486E-11
 124.59491   1.000996577E-10
 124.763969   1.435613017E-10
 124.933029   1.866159172E-10
 125.102081   2.290664047E-10
 125.271141   2.707105373E-10
 125.440201   3.113262981E-10
 125.609253   3.506701318E-10
 125.778313   3.88490462E-10
 125.947365   4.24548563E-10
 126.116425   4.586361291E-10
 126.285484   4.905788553E-10
 126.454536   5.202258624E-10
 126.623596   5.474306009E-10
 126.792656   5.720366403E-10
 126.961708   5.93876115E-10
 127.130768   6.127834351E-10
 127.29982   6.286156595E-10
 127.46888   6.412693709E-10
 127.637939   6.506828409E-10
 127.806992   6.56823651E-10
 127.976051   6.596687641E-10
 128.145111   6.591889257E-10
 128.314163   6.553461107E-10
 128.483215   6.48106846E-10
 128.652283   6.374625827E-10
 128.821335   6.234461281E-10
 128.990387   6.061345315E-10
 129.159454   5.856371499E-10
 129.328506   5.620751642E-10
 129.497559   5.355650923E-10
 129.666626   5.062151254E-10
 129.835678   4.741356752E-10
 130.00473   4.394579978E-10
 130.173782   4.023494871E-10
 130.34285   3.630162282E-10
 130.511902   3.216911459E-10
 130.680954   2.786141873E-10
 130.850021   2.340150851E-10
 131.019073   1.881081541E-10
 131.188126   1.411009365E-10
 131.357193   9.32107308E-11
 131.526245   4.467883702E-11
 131.695297   -4.226966867E-12
 131.864365   -5.322326954E-11
 132.033417   -1.020301482E-10
 132.202469   -1.503880076E-10
 132.371536   -1.980634129E-10
 132.540588   -2.448413694E-10
 132.709641   -2.905090335E-10
 132.878693   -3.348411548E-10
 133.04776   -3.775958435E-10
 133.216812   -4.185238822E-10
 133.385864   -4.573862955E-10
 133.554932   -4.939710307E-10
 133.723984   -5.281001747E-10
 133.893036   -5.596240693E-10
 134.062103   -5.884064902E-10
 134.231155   -6.143107134E-10
 134.400208   -6.371939087E-10
 134.569275   -6.569139677E-10
 134.738327   -6.733447133E-10
 134.907379   -6.863912216E-10
 135.076431   -6.959965382E-10
 135.245499   -7.021366266E-10
 135.414551   -7.048064354E-10
 135.583603   -7.040061312E-10
 135.75267   -6.997344371E-10
 135.921722   -6.919937956E-10
 136.090775   -6.808035802E-10
 136.259842   -6.662139174E-10
 136.428894   -6.483122372E-10
 136.597946   -6.272181108E-10
 136.767014   -6.030698718E-10
 136.936066   -5.760091293E-10
 137.105118   -5.461727182E-10
 137.274185   -5.136944758E-10
 137.443237   -4.787160113E-10
 137.612289   -4.413996391E-10
 137.781342   -4.019355959E-10
 137.950409   -3.605394594E-10
 138.119461   -3.174415453E-10
 138.288513   -2.728740567E-10
 138.457581   -2.270624661E-10
 138.626633   -1.802257787E-10
 138.795685   -1.325837079E-10
 138.964752   -8.436619459E-11
 139.133804   -3.581813318E-11
 139.302856   1.280355162E-11
 139.471924   6.123984653E-11
 139.640976   1.092415047E-10
 139.810028   1.565767654E-10
 139.979095   2.030312723E-10
 140.148148   2.484011885E-10
 140.3172   2.924835929E-10
 140.486252   3.350706101E-10
 140.655319   3.759499378E-10
 140.824371   4.149127153E-10
 140.993423   4.517640428E-10
 141.162491   4.863314196E-10
 141.331543   5.184669361E-10
 141.500595   5.480433884E-10
 141.669662   5.749463128E-10
 141.838715   5.990676288E-10
 142.007767   6.203030867E-10
 142.176834   6.385554308E-10
 142.345886   6.537414499E-10
 142.514938   6.657980278E-10
 142.68399   6.746856962E-10
 142.853058   6.803871355E-10
 143.02211   6.829020127E-10
 143.191162   6.822420962E-10
 143.360229   6.784278694E-10
 143.529282   6.714899192E-10
 143.698334   6.614724879E-10
 143.867401   6.484382475E-10
 144.036453   6.324709645E-10
 144.205505   6.136737229E-10
 144.374573   5.921638735E-10
 144.543625   5.680661497E-10
 144.712677   5.415077831E-10
 144.881744   5.12617615E-10
 145.050797   4.815300381E-10
 145.219849   4.483911575E-10
 145.388901   4.133644815E-10
 145.557968   3.766317813E-10
 145.72702   3.383887615E-10
 145.896072   2.988363446E-10
 146.06514   2.581721226E-10
 146.234192   2.165850971E-10
 146.403244   1.742570255E-10
 146.572311   1.313687353E-10
 146.741364   8.810767393E-11
 146.910416   4.467230752E-11
 147.079483   1.270343531E-12
 147.248535   -4.188881186E-11
 147.417587   -8.460337986E-11
 147.586655   -1.266854122E-10
 147.755707   -1.679608536E-10
 147.924759   -2.082640171E-10
 148.093811   -2.474298544E-10
 148.262878   -2.852896808E-10
 148.431931   -3.216734934E-10
 148.600983   -3.564179785E-10
 148.77005   -3.893757816E-10
 148.939102   -4.204210591E-10
 149.108154   -4.494475625E-10
 149.277222   -4.76360229E-10
 149.446274   -5.010658E-10
 149.615326   -5.23467214E-10
 149.784393   -5.434666051E-10
 149.953445   -5.609744891E-10
 150.122498   -5.759209221E-10
 150.29155   -5.88261273E-10
 150.460617   -5.979743367E-10
 150.629669   -6.050531187E-10
 150.798721   -6.094943439E-10
 150.967789   -6.112929607E-10
 151.136841   -6.104451389E-10
 151.305893   -6.069577618E-10
 151.47496   -6.008583631E-10
 151.644012   -5.922001223E-10
 151.813065   -5.81057924E-10
 151.982132   -5.67517866E-10
 152.151184   -5.516659907E-10
 152.320236   -5.335832332E-10
 152.489304   -5.133484748E-10
 152.658356   -4.910483686E-10
 152.827408   -4.667869424E-10
 152.99646   -4.406902065E-10
 153.165527   -4.129012132E-10
 153.334579   -3.83569787E-10
 153.503632   -3.528417003E-10
 153.672699   -3.20853677E-10
 153.841751   -2.877365013E-10
 154.010803   -2.536238997E-10
 154.179871   -2.186610476E-10
 154.348923   -1.830076646E-10
 154.517975   -1.468335314E-10
 154.687042   -1.103090674E-10
 154.856094   -7.359649001E-11
 155.025146   -3.684644603E-11
 155.194214   -2.020246085E-13
 155.363266   3.619315611E-11
 155.532318   7.218756148E-11
 155.70137   1.076199685E-10
 155.870438   1.423248741E-10
 156.03949   1.761421425E-10
 156.208542   2.089258072E-10
 156.377609   2.405479704E-10
 156.546661   2.708957225E-10
 156.715714   2.998639115E-10
 156.884781   3.273476212E-10
 157.053833   3.532392434E-10
 157.222885   3.774310864E-10
 157.391953   3.998219533E-10
 157.561005   4.203240811E-10
 157.730057   4.388666097E-10
 157.899109   4.553944166E-10
 158.068176   4.698630374E-10
 158.237228   4.822335309E-10
 158.406281   4.924687325E-10
 158.575348   5.005346138E-10
 158.7444   5.064037523E-10
 158.913452   5.100604938E-10
 159.08252   5.115037838E-10
 159.251572   5.107473888E-10
 159.420624   5.078169552E-10
 159.589691   5.027459005E-10
 159.758743   4.955724164E-10
 159.927795   4.863392467E-10
 160.096863   4.750961291E-10
 160.265915   4.61903904E-10
 160.434967   4.468377057E-10
 160.604019   4.299877399E-10
 160.773087   4.114558971E-10
 160.942139   3.91350008E-10
 161.111191   3.697771256E-10
 161.280258   3.468394183E-10
 161.44931   3.226342804E-10
 161.618362   2.972589952E-10
 161.78743   2.708176461E-10
 161.956482   2.434268065E-10
 162.125534   2.152173578E-10
 162.294601   1.86330576E-10
 162.463654   1.569108593E-10
 162.632706   1.27098318E-10
 162.801773   9.702496445E-11
 162.970825   6.68163927E-11
 163.139877   3.659744729E-11
 163.308929   6.498252023E-12
 163.477997   -2.334373667E-11
 163.647049   -5.278718435E-11
 163.816101   -8.169469962E-11
 163.985168   -1.099408134E-10
 164.154221   -1.37415232E-10
 164.323273   -1.640200337E-10
 164.49234   -1.896617169E-10
 164.661392   -2.142437339E-10
 164.830444   -2.376639718E-10
 164.999512   -2.598196935E-10
 165.168564   -2.806173349E-10
 165.337616   -2.999818727E-10
 165.506668   -3.178599883E-10
 165.675735   -3.342143229E-10
 165.844788   -3.490120137E-10
 166.01384   -3.622134814E-10
 166.182907   -3.737680165E-10
 166.351959   -3.836190532E-10
 166.521011   -3.917164648E-10
 166.690079   -3.98029415E-10
 166.859131   -4.025522415E-10
 167.028183   -4.053008762E-10
 167.19725   -4.063023251E-10
 167.366302   -4.055834002E-10