 0.   1.064134936E-17
 0.169376865   6.431253506E-14
 0.33875373   1.719266954E-13
 0.50813061   2.880423222E-13
 0.67750746   3.829757149E-13
 0.84688431   4.475962515E-13
 1.01626122   4.966736115E-13
 1.18563807   5.584987767E-13
 1.35501492   6.569259568E-13
 1.52439177   7.962286429E-13
 1.69376862   9.574685879E-13
 1.86314547   1.108425309E-12
 2.03252244   1.221348868E-12
 2.20189929   1.288335866E-12
 2.37127614   1.325513592E-12
 2.54065299   1.363633382E-12
 2.71002984   1.430416115E-12
 2.87940669   1.534670503E-12
 3.04878354   1.661169466E-12
 3.21816039   1.77914248E-12
 3.38753724   1.85951146E-12
 3.55691409   1.891073019E-12
 3.72629094   1.886473183E-12
 3.89566779   1.874642152E-12
 4.06504488   1.88401985E-12
 4.23442173   1.926059572E-12
 4.40379858   1.988301884E-12
 4.57317543   2.040880919E-12
 4.74255228   2.052789145E-12
 4.91192913   2.008774007E-12
 5.08130598   1.917447321E-12
 5.25068283   1.806155377E-12
 5.42005968   1.705576327E-12
 5.58943653   1.63269604E-12
 5.75881338   1.581635213E-12
 5.92819023   1.52734032E-12
 6.09756708   1.439956119E-12
 6.26694393   1.301777479E-12
 6.43632078   1.117313815E-12
 6.60569763   9.109044899E-13
 6.77507448   7.133042529E-13
 6.94445133   5.447869803E-13
 7.11382818   4.042026317E-13
 7.28320503   2.700578476E-13
 7.45258188   1.129691501E-13
 7.62195873   -8.748612322E-14
 7.79133558   -3.309319236E-13
 7.96071243   -5.95972978E-13
 8.13008976   -8.517122554E-13
 8.29946613   -1.074552773E-12
 8.46884346   -1.260856111E-12
 8.63821983   -1.428308968E-12
 8.80759716   -1.605141801E-12
 8.97697353   -1.813155637E-12
 9.14635086   -2.054057662E-12
 9.31572723   -2.306880381E-12
 9.48510456   -2.538154149E-12
 9.65448093   -2.719381794E-12
 9.82385826   -2.842180918E-12
 9.99323463   -2.922610287E-12
 10.162612   -2.992118922E-12
 10.3319883   -3.079985485E-12
 10.5013657   -3.196922328E-12
 10.670742   -3.328991163E-12
 10.8401194   -3.445290928E-12
 11.0094957   -3.515194429E-12
 11.1788731   -3.52545727E-12
 11.3482494   -3.487481354E-12
 11.5176268   -3.430478774E-12
 11.6870031   -3.384261187E-12
 11.8563805   -3.361366957E-12
 12.0257568   -3.348796284E-12
 12.1951342   -3.31431757E-12
 12.3645105   -3.224069666E-12
 12.5338879   -3.061629726E-12
 12.7032642   -2.837666517E-12
 12.8726416   -2.584470398E-12
 13.0420179   -2.33822922E-12
 13.2113953   -2.11901178E-12
 13.3807716   -1.919929276E-12
 13.550149   -1.711843774E-12
 13.7195253   -1.461127877E-12
 13.8889027   -1.150359755E-12
 14.058279   -7.89931163E-13
 14.2276564   -4.135738247E-13
 14.3970327   -6.004999422E-14
 14.5664101   2.486142802E-13
 14.7357864   5.197027162E-13
 14.9051638   7.856008595E-13
 15.0745401   1.08483101E-12
 15.2439175   1.43899931E-12
 15.4132938   1.838941759E-12
 15.5826712   2.248296601E-12
 15.7520475   2.622763118E-12
 15.9214249   2.934153354E-12
 16.0908012   3.185366467E-12
 16.2601795   3.407493471E-12
 16.4295559   3.640559208E-12
 16.5989323   3.908973839E-12
 16.7683086   4.206000565E-12
 16.9376869   4.496421031E-12
 17.1070633   4.736023206E-12
 17.2764397   4.896616966E-12
 17.445816   4.981882962E-12
 17.6151943   5.024605731E-12
 17.7845707   5.066712674E-12
 17.9539471   5.133781421E-12
 18.1233234   5.219096422E-12
 18.2927017   5.28691587E-12
 18.4620781   5.293342587E-12
 18.6314545   5.212710472E-12
 18.8008308   5.053901308E-12
 18.9702091   4.856665851E-12
 19.1395855   4.669693451E-12
 19.3089619   4.522989188E-12
 19.4783382   4.410694032E-12
 19.6477165   4.294589857E-12
 19.8170929   4.126502525E-12
 19.9864693   3.876712319E-12
 20.1558456   3.551839378E-12
 20.3252239   3.191688667E-12
 20.4946003   2.846827158E-12
 20.6639767   2.549963929E-12
 20.833353   2.297909042E-12
 21.0027313   2.054709918E-12
 21.1721077   1.774126744E-12
 21.3414841   1.428199572E-12
 21.5108604   1.025044633E-12
 21.6802387   6.05338479E-13
 21.8496151   2.195006329E-13
 22.0189915   -1.010130768E-13
 22.1883678   -3.613677825E-13
 22.3577461   -5.995010261E-13
 22.5271225   -8.629771702E-13
 22.6964989   -1.180169027E-12
 22.8658752   -1.542756049E-12
 23.0352535   -1.909897154E-12
 23.2046299   -2.23167318E-12
 23.3740063   -2.478057473E-12
 23.5433826   -2.65638336E-12
 23.7127609   -2.807018073E-12
 23.8821373   -2.979701772E-12
 24.0515137   -3.204349112E-12
 24.22089   -3.473318204E-12
 24.3902683   -3.745433217E-12
 24.5596447   -3.969335711E-12
 24.7290211   -4.112543639E-12
 24.8983994   -4.179366055E-12
 25.0677757   -4.207455565E-12
 25.2371521   -4.245199678E-12
 25.4065285   -4.323256596E-12
 25.5759068   -4.436730497E-12
 25.7452831   -4.548141811E-12
 25.9146595   -4.609172419E-12
 26.0840359   -4.588352701E-12
 26.2534142   -4.488658143E-12
 26.4227905   -4.345050361E-12
 26.5921669   -4.203744557E-12
 26.7615433   -4.09547396E-12
 26.9309216   -4.018279633E-12
 27.1002979   -3.939590841E-12
 27.2696743   -3.816100214E-12
 27.4390507   -3.619713036E-12
 27.608429   -3.354554048E-12
 27.7778053   -3.055387107E-12
 27.9471817   -2.768579636E-12
 28.1165581   -2.526662039E-12
 28.2859364   -2.330985882E-12
 28.4553127   -2.152128302E-12
 28.6246891   -1.947491864E-12
 28.7940655   -1.685860978E-12
 28.9634438   -1.364989068E-12
 29.1328201   -1.012530554E-12
 29.3021965   -6.702071081E-13
 29.4715729   -3.704851638E-13
 29.6409512   -1.189814984E-13
 29.8103275   1.077203783E-13
 29.9797039   3.480014942E-13
 30.1490803   6.331143292E-13
 30.3184586   9.695516959E-13
 30.4878349   1.335563821E-12
 30.6572113   1.693412012E-12
 30.8265877   2.01018477E-12
 30.995966   2.275459985E-12
 31.1653423   2.506138309E-12
 31.3347187   2.73608523E-12
 31.5040951   2.99664113E-12
 31.6734734   3.298934043E-12
 31.8428497   3.627695149E-12
 32.0122261   3.949715555E-12
 32.1816025   4.231983253E-12
 32.3509789   4.459330041E-12
 32.520359   4.641931804E-12
 32.6897354   4.80875062E-12
 32.8591118   4.990792935E-12
 33.0284882   5.203535953E-12
 33.1978645   5.438162941E-12
 33.3672409   5.666263032E-12
 33.5366173   5.855207378E-12
 33.7059937   5.985609577E-12
 33.8753738   6.06127995E-12
 34.0447502   6.106305132E-12
 34.2141266   6.151005486E-12
 34.383503   6.214558815E-12
 34.5528793   6.293833076E-12
 34.7222557   6.364516119E-12
 34.8916321   6.393871977E-12
 35.0610085   6.358146214E-12
 35.2303886   6.25514961E-12
 35.399765   6.105243481E-12
 35.5691414   5.940282988E-12
 35.7385178   5.786584319E-12
 35.9078941   5.651152289E-12
 36.0772705   5.518560001E-12
 36.2466469   5.360060052E-12
 36.4160233   5.149862741E-12
 36.5854034   4.879687366E-12
 36.7547798   4.563683632E-12
 36.9241562   4.231111989E-12
 37.0935326   3.910826957E-12
 37.2629089   3.61602458E-12
 37.4322853   3.33753988E-12
 37.6016617   3.049305817E-12
 37.7710381   2.722954024E-12
 37.9404182   2.343560459E-12
 38.1097946   1.917890976E-12
 38.279171   1.470583095E-12
 38.4485474   1.030292063E-12
 38.6179237   6.133571298E-13
 38.7873001   2.139895655E-13
 38.9566765   -1.934636397E-13
 39.1260529   -6.411610609E-13
 39.295433   -1.150383283E-12
 39.4648094   -1.719551801E-12
 39.6341858   -2.324296788E-12
 39.8035622   -2.929752578E-12
 39.9729385   -3.508545668E-12
 40.1423149   -4.054690177E-12
 40.3116913   -4.585656074E-12
 40.4810715   -5.131229643E-12
 40.6504478   -5.715052997E-12
 40.8198242   -6.338931983E-12
 40.9892006   -6.9786967E-12
 41.158577   -7.594219524E-12
 41.3279533   -8.148319693E-12
 41.4973297   -8.624216792E-12
 41.6667061   -9.031742368E-12
 41.8360863   -9.398615566E-12
 42.0054626   -9.751450515E-12
 42.174839   -1.009709417E-11
 42.3442154   -1.041504643E-11
 42.5135918   -1.066567841E-11
 42.6829681   -1.081006638E-11
 42.8523445   -1.083045199E-11
 43.0217209   -1.073957243E-11
 43.1911011   -1.057315086E-11
 43.3604774   -1.036933473E-11
 43.5298538   -1.01464722E-11
 43.6992302   -9.892015158E-12
 43.8686066   -9.569253376E-12
 44.0379829   -9.138559701E-12
 44.2073593   -8.581296264E-12
 44.3767357   -7.912681795E-12
 44.5461159   -7.175915244E-12
 44.7154922   -6.420498681E-12
 44.8848686   -5.67692551E-12
 45.054245   -4.942252337E-12
 45.2236214   -4.185065055E-12
 45.3929977   -3.367232925E-12
 45.5623741   -2.469995779E-12
 45.7317505   -1.509167791E-12
 45.9011307   -5.302994914E-13
 46.070507   4.13782371E-13
 46.2398834   1.290249916E-12
 46.4092598   2.102521282E-12
 46.5786362   2.885811165E-12
 46.7480125   3.684295057E-12
 46.9173889   4.522990489E-12
 47.0867653   5.390764224E-12
 47.2561455   6.24455045E-12
 47.4255219   7.032568104E-12
 47.5948982   7.723107744E-12
 47.7642746   8.322042708E-12
 47.933651   8.868630656E-12
 48.1030273   9.411794261E-12
 48.2724037   9.980530291E-12
 48.4417801   1.056566119E-11
 48.6111603   1.112364714E-11
 48.7805367   1.160035869E-11
 48.949913   1.196107883E-11
 49.1192894   1.220927699E-11
 49.2886658   1.238326976E-11
 49.4580421   1.253274481E-11
 49.6274185   1.268890548E-11
 49.7967987   1.284564469E-11
 49.9661751   1.296270469E-11
 50.1355515   1.298885565E-11
 50.3049278   1.289148042E-11
 50.4743042   1.267521851E-11
 50.6436806   1.237879937E-11
 50.8130569   1.205199048E-11
 50.9824333   1.172622589E-11
 51.1518135   1.139609501E-11
 51.3211899   1.102251797E-11
 51.4905663   1.055571689E-11
 51.6599426   9.964606397E-12
 51.829319   9.255534707E-12
 51.9986954   8.469565327E-12
 52.1680717   7.659972483E-12
 52.3374481   6.863053528E-12
 52.5068283   6.079136326E-12
 52.6762047   5.27462839E-12
 52.8455811   4.403740827E-12
 53.0149574   3.437235089E-12
 53.1843338   2.381639157E-12
 53.3537102   1.278047655E-12
 53.5230865   1.814450283E-13
 53.6924629   -8.673796815E-13
 53.8618431   -1.86117094E-12
 54.0312195   -2.825892298E-12
 54.2005959   -3.801260088E-12
 54.3699722   -4.813574452E-12
 54.5393486   -5.856551355E-12
 54.708725   -6.891058904E-12
 54.8781013   -7.863728765E-12
 55.0474777   -8.733611924E-12
 55.2168579   -9.491601949E-12
 55.3862343   -1.016158858E-11
 55.5556107   -1.078289107E-11
 55.724987   -1.138415404E-11
 55.8943634   -1.196370173E-11
 56.0637398   -1.248754138E-11
 56.2331161   -1.290613883E-11
 56.4024925   -1.318043678E-11
 56.5718727   -1.330244248E-11
 56.7412491   -1.329884813E-11
 56.9106255   -1.321578784E-11
 57.0800018   -1.309346728E-11
 57.2493782   -1.294500618E-11
 57.4187546   -1.275134425E-11
 57.588131   -1.247489438E-11
 57.7575111   -1.208398919E-11
 57.9268875   -1.15741583E-11
 58.0962639   -1.097408449E-11
 58.2656403   -1.033284222E-11
 58.4350166   -9.695603695E-12
 58.604393   -9.0815723E-12
 58.7737694   -8.476669887E-12
 58.9431458   -7.845168092E-12
 59.1125259   -7.15376109E-12
 59.2819023   -6.394497345E-12
 59.4512787   -5.593621052E-12
 59.6206551   -4.801227992E-12
 59.7900314   -4.067482896E-12
 59.9594078   -3.41870976E-12
 60.1287842   -2.846770562E-12
 60.2981606   -2.317657134E-12
 60.4675407   -1.794334321E-12
 60.6369171   -1.260796047E-12
 60.8062935   -7.33584363E-13
 60.9756699   -2.541194794E-13
 61.1450462   1.338867981E-13
 61.3144226   4.091260479E-13
 61.483799   5.853977784E-13
 61.6531754   7.049683645E-13
 61.8225555   8.162184578E-13
 61.9919319   9.481926962E-13
 62.1613083   1.096489327E-12
 62.3306847   1.228496363E-12
 62.500061   1.304947578E-12
 62.6694374   1.305402726E-12
 62.8388138   1.242944766E-12
 63.0081902   1.159490689E-12
 63.1775703   1.104209497E-12
 63.3469467   1.107306738E-12
 63.5163231   1.164235266E-12
 63.6856995   1.239553057E-12
 63.8550758   1.288464886E-12
 64.0244522   1.283910478E-12
 64.1938324   1.233780114E-12
 64.363205   1.178338026E-12
 64.5325851   1.169153316E-12
 64.7019577   1.24138178E-12
 64.8713379   1.395102566E-12
 65.0407181   1.596319106E-12
 65.2100906   1.797049488E-12
 65.3794708   1.963105243E-12
 65.5488434   2.093769819E-12
 65.7182236   2.222250379E-12
 65.8875961   2.39675467E-12
 66.0569763   2.653095842E-12
 66.2263489   2.994506336E-12
 66.3957291   3.39019199E-12
 66.5651093   3.793323294E-12
 66.7344818   4.168044382E-12
 66.903862   4.509890291E-12
 67.0732346   4.847849986E-12
 67.2426147   5.22691352E-12
 67.4119873   5.681175148E-12
 67.5813675   6.213027055E-12
 67.7507477   6.790477902E-12
 67.9201202   7.364222079E-12
 68.0895004   7.894690977E-12
 68.258873   8.373515423E-12
 68.4282532   8.827002497E-12
 68.5976257   9.299484793E-12
 68.7670059   9.825961225E-12
 68.9363785   1.0409602E-11
 69.1057587   1.101699721E-11
 69.2751389   1.159391853E-11
 69.4445114   1.209274694E-11
 69.6138916   1.249607189E-11
 69.7832642   1.282316267E-11
 69.9526443   1.311580965E-11
 70.1220169   1.341171011E-11
 70.2913971   1.372058456E-11
 70.4607773   1.401651711E-11
 70.6301498   1.42506458E-11
 70.79953   1.437673851E-11
 70.9689026   1.437490491E-11
 71.1382828   1.425988928E-11
 71.3076553   1.406930648E-11
 71.4770355   1.383868541E-11
 71.6464081   1.357765549E-11
 71.8157883   1.3260823E-11
 71.9851685   1.283842303E-11
 72.154541   1.226047042E-11
 72.3239212   1.150055745E-11
 72.4932938   1.056581558E-11
 72.662674   9.487651983E-12
 72.8320465   8.298984763E-12
 73.0014267   7.011409248E-12
 73.1708069   5.605685621E-12
 73.3401794   4.041148492E-12
 73.5095596   2.278720398E-12
 73.6789322   3.043783487E-13
 73.8483124   -1.860311167E-12
 74.0176849   -4.166559892E-12
 74.1870651   -6.560812223E-12
 74.3564453   -9.008553452E-12
 74.5258179   -1.150601229E-11
 74.6951981   -1.407335012E-11
 74.8645706   -1.673353123E-11
 75.0339508   -1.948911692E-11
 75.2033234   -2.231032893E-11
 75.3727036   -2.514108886E-11
 75.5420761   -2.791955903E-11
 75.7114563   -3.060145887E-11
 75.8808365   -3.317303376E-11
 76.050209   -3.564660025E-11
 76.2195892   -3.804149704E-11
 76.3889618   -4.036155438E-11
 76.558342   -4.258182348E-11
 76.7277145   -4.465188636E-11
 76.8970947   -4.651350485E-11
 77.0664749   -4.812219373E-11
 77.2358475   -4.946042534E-11
 77.4052277   -5.053511776E-11
 77.5746002   -5.136123818E-11
 77.7439804   -5.194135747E-11
 77.913353   -5.225310462E-11
 78.0827332   -5.225188685E-11
 78.2521057   -5.188734511E-11
 78.4214859   -5.112411883E-11
 78.5908661   -4.995514072E-11
 78.7602386   -4.840003398E-11
 78.9296188   -4.648975996E-11
 79.0989914   -4.424647454E-11
 79.2683716   -4.167022283E-11
 79.4377441   -3.874007018E-11
 79.6071243   -3.542900695E-11
 79.7765045   -3.172403659E-11
 79.9458771   -2.76400413E-11
 80.1152573   -2.321960159E-11
 80.2846298   -1.851894679E-11
 80.45401   -1.358807771E-11
 80.6233826   -8.456209691E-12
 80.7927628   -3.130571974E-12
 80.9621429   2.391104025E-12
 81.1315155   8.101882013E-12
 81.3008957   1.3971534E-11
 81.4702682   1.994517745E-11
 81.6396484   2.595531255E-11
 81.809021   3.194031151E-11
 81.9784012   3.785878208E-11
 82.1477737   4.369173079E-11
 82.3171539   4.943147627E-11
 82.4865341   5.506387013E-11
 82.6559067   6.055418666E-11
 82.8252869   6.584482265E-11
 82.9946594   7.086624343E-11
 83.1640396   7.555490261E-11
 83.3334122   7.986795253E-11
 83.5027924   8.378665817E-11
 83.6721725   8.730655782E-11
 83.8415451   9.042041421E-11
 84.0109253   9.310367061E-11
 84.1802979   9.531104378E-11
 84.349678   9.698618297E-11
 84.5190506   9.807888529E-11
 84.6884308   9.856032657E-11
 84.8578033   9.842766185E-11
 85.0271835   9.769566406E-11
 85.1965637   9.638034815E-11
 85.3659363   9.448414273E-11
 85.5353165   9.19909704E-11
 85.704689   8.88741164E-11
 85.8740692   8.511207711E-11
 86.0434418   8.070339536E-11
 86.212822   7.567187155E-11
 86.3822021   7.005934027E-11
 86.5515747   6.391035617E-11
 86.7209549   5.725766736E-11
 86.8903275   5.011690021E-11
 87.0597076   4.249361973E-11
 87.2290802   3.43985708E-11
 87.3984604   2.586233137E-11
 87.5678329   1.694086364E-11
 87.7372131   7.708660966E-12
 87.9065933   -1.756773871E-12
 88.0759659   -1.139041379E-11
 88.2453461   -2.114661571E-11
 88.4147186   -3.099378393E-11
 88.5840988   -4.090014091E-11
 88.7534714   -5.081890117E-11
 88.9228516   -6.06814668E-11
 89.0922318   -7.040255878E-11
 89.2616043   -7.989438972E-11
 89.4309845   -8.908195709E-11
 89.6003571   -9.791085304E-11
 89.7697372   -1.063435659E-10
 89.9391098   -1.143467473E-10
 90.10849   -1.218769669E-10
 90.2778702   -1.288733564E-10
 90.4472427   -1.352615103E-10
 90.6166229   -1.409664885E-10
 90.7859955   -1.459276727E-10
 90.9553757   -1.50107024E-10
 91.1247482   -1.534864597E-10
 91.2941284   -1.560557794E-10
 91.463501   -1.577984965E-10
 91.6328812   -1.586833859E-10
 91.8022614   -1.586671211E-10
 91.9716339   -1.577064868E-10
 92.1410141   -1.557735607E-10
 92.3103867   -1.528655258E-10
 92.4797668   -1.49003837E-10
 92.6491394   -1.442232861E-10
 92.8185196   -1.385571935E-10
 92.9878998   -1.320270004E-10
 93.1572723   -1.246418108E-10
 93.3266525   -1.164081193E-10
 93.4960251   -1.073439601E-10
 93.6654053   -9.748941932E-11
 93.8347778   -8.690750897E-11
 94.004158   -7.567490384E-11
 94.1735306   -6.38676334E-11
 94.3429108   -5.154984425E-11
 94.512291   -3.877162827E-11
 94.6816635   -2.557725212E-11
 94.8510437   -1.201868813E-11
 95.0204163   1.83323105E-12
 95.1897964   1.588688209E-11
 95.359169   3.003847865E-11
 95.5285492   4.418686944E-11
 95.6979294   5.824647015E-11
 95.8673019   7.215119474E-11
 96.0366821   8.584752353E-11
 96.2060547   9.928063233E-11
 96.3754349   1.123817012E-10
 96.5448074   1.250638898E-10
 96.7141876   1.372295333E-10
 96.8835602   1.487847762E-10
 97.0529404   1.596535959E-10
 97.2223206   1.697833402E-10
 97.3916931   1.791387177E-10
 97.5610733   1.876876432E-10
 97.7304459   1.953871509E-10
 97.899826   2.021774415E-10
 98.0691986   2.079876132E-10
 98.2385788   2.127499982E-10
 98.407959   2.164148999E-10
 98.5773315   2.189574355E-10
 98.7467117   2.203726784E-10
 98.9160843   2.206619193E-10
 99.0854645   2.198182608E-10
 99.254837   2.178200675E-10
 99.4242172   2.146363226E-10
 99.5935974   2.102409635E-10
 99.76297   2.046283698E-10
 99.9323502   1.978208986E-10
 100.101723   1.898644436E-10
 100.271103   1.808143774E-10
 100.440475   1.707202435E-10
 100.609856   1.596176802E-10
 100.779228   1.475322919E-10
 100.948608   1.344926809E-10
 101.117989   1.205450323E-10
 101.287361   1.057601715E-10
 101.456741   9.022916442E-11
 101.626114   7.404934305E-11
 101.795494   5.730908803E-11
 101.964867   4.007980406E-11
 102.134247   2.241954712E-11
 102.303627   4.385871874E-12
 102.473   -1.39497823E-11
 102.64238   -3.249474995E-11
 102.811752   -5.113905827E-11
 102.981133   -6.976851735E-11
 103.150505   -8.827906461E-11
 103.319885   -1.065843039E-10
 103.489258   -1.246118764E-10
 103.658638   -1.422908735E-10
 103.828018   -1.595377858E-10
 103.997391   -1.762492652E-10
 104.166771   -1.923060045E-10
 104.336143   -2.075860456E-10
 104.505524   -2.21979865E-10
 104.674896   -2.353997552E-10
 104.844276   -2.477785199E-10
 105.013657   -2.590593295E-10
 105.183029   -2.691828149E-10
 105.352409   -2.780796149E-10
 105.521782   -2.856719861E-10
 105.691162   -2.91884017E-10
 105.860535   -2.966537849E-10
 106.029915   -2.999410165E-10
 106.199295   -3.017257555E-10
 106.368668   -3.019993977E-10
 106.538048   -3.007531446E-10
 106.70742   -2.979711755E-10
 106.876801   -2.936319798E-10
 107.046173   -2.877174332E-10
 107.215553   -2.802239274E-10
 107.384926   -2.711696145E-10
 107.554306   -2.605936578E-10
 107.723686   -2.485477935E-10
 107.893059   -2.350855344E-10
 108.062439   -2.202543703E-10
 108.231812   -2.040960317E-10
 108.401192   -1.866535398E-10
 108.570564   -1.679816564E-10
 108.739944   -1.481545442E-10
 108.909325   -1.272666278E-10
 109.078697   -1.054264662E-10
 109.248077   -8.274712165E-11
 109.41745   -5.933815245E-11
 109.58683   -3.530347195E-11
 109.756203   -1.074513482E-11
 109.925583   1.422962442E-11
 110.094955   3.950277258E-11
 110.264336   6.494478566E-11
 110.433716   9.041944277E-11
 110.603088   1.157912377E-10
 110.772469   1.409314609E-10
 110.941841   1.657193271E-10
 111.111221   1.90038138E-10
 111.280594   2.137685584E-10
 111.449974   2.36783454E-10
 111.619354   2.589474191E-10
 111.788727   2.801212595E-10
 111.958107   3.0017E-10
 112.12748   3.189693509E-10
 112.29686   3.364087897E-10
 112.466232   3.523893677E-10
 112.635612   3.668181314E-10
 112.804985   3.796026549E-10
 112.974365   3.906487633E-10
 113.143745   3.998625597E-10
 113.313118   4.071561144E-10
 113.482498   4.124534048E-10
 113.651871   4.156948952E-10
 113.821251   4.168380641E-10
 113.990623   4.158548228E-10
 114.160004   4.127276299E-10
 114.329384   4.074462712E-10
 114.498756   4.00006861E-10
 114.668137   3.904134238E-10
 114.837509   3.7868092E-10
 115.006889   3.648381319E-10
 115.176262   3.48928858E-10
 115.345642   3.310112739E-10
 115.515022   3.11155296E-10
 115.684395   2.894394724E-10
 115.853775   2.659490961E-10
 116.023148   2.407761213E-10
 116.192528   2.140215366E-10
 116.3619   1.857986265E-10
 116.531281   1.562354274E-10
 116.700653   1.254745891E-10
 116.870033   9.367003007E-11
 117.039413   6.098137967E-11
 117.208786   2.756861579E-11
 117.378166   -6.410109422E-12
 117.547539   -4.079656057E-11
 117.716919   -7.542677594E-11
 117.886292   -1.101252284E-10
 118.055672   -1.447021808E-10
 118.225052   -1.789568216E-10
 118.394424   -2.126854803E-10
 118.563805   -2.456914117E-10
 118.733177   -2.777912067E-10
 118.902557   -3.088146128E-10
 119.07193   -3.385984826E-10
 119.24131   -3.669781978E-10
 119.410683   -3.937825344E-10
 119.580063   -4.188362435E-10
 119.749443   -4.419688227E-10
 119.918816   -4.630263117E-10
 120.088196   -4.818789257E-10
 120.257568   -4.984200275E-10
 120.426949   -5.12557663E-10
 120.596321   -5.242027923E-10
 120.765701   -5.332624342E-10
 120.935081   -5.396414426E-10
 121.104454   -5.432543304E-10
 121.273834   -5.440386475E-10
 121.443207   -5.419644178E-10
 121.612587   -5.370319189E-10
 121.78196   -5.292605798E-10
 121.95134   -5.186742702E-10
 122.12072   -5.05292308E-10
 122.290092   -4.891319572E-10
 122.459473   -4.702213618E-10
 122.628845   -4.486156169E-10
 122.798225   -4.244061769E-10
 122.967598   -3.977185525E-10
 123.136978   -3.686983496E-10
 123.306351   -3.374941437E-10
 123.475731   -3.042468777E-10
 123.645111   -2.690917211E-10
 123.814484   -2.321712961E-10
 123.983864   -1.936519139E-10
 124.153236   -1.537325406E-10
 124.322617   -1.126402305E-10
 124.491989   -7.061412566E-11
 124.661369   -2.788645009E-11
 124.83075   1.532890308E-11
 125.000122   5.883380588E-11
 125.169502   1.024314661E-10
 125.338875   1.459092014E-10
 125.508255   1.890292228E-10
 125.677628   2.315334591E-10
 125.847008   2.731602722E-10
 126.01638   3.136642335E-10
 126.18576   3.528276282E-10
 126.355141   3.904578882E-10
 126.524513   4.263736031E-10
 126.693893   4.603875614E-10
 126.863266   4.922982022E-10
 127.032646   5.218952492E-10
 127.202019   5.489764199E-10
 127.371399   5.73366965E-10
 127.540779   5.949298831E-10
 127.710152   6.135625341E-10
 127.879532   6.291808741E-10
 128.048904   6.417013587E-10
 128.218277   6.510320616E-10
 128.387665   6.570767264E-10
 128.557037   6.597518087E-10
 128.72641   6.590052948E-10
 128.895798   6.548274145E-10
 129.06517   6.472473668E-10
 129.234543   6.363181648E-10
 129.403915   6.220984283E-10
 129.573303   6.046417256E-10
 129.742676   5.83999904E-10
 129.912048   5.60237079E-10
 130.081436   5.334473419E-10
 130.250809   5.037646411E-10
 130.420181   4.713592294E-10
 130.589554   4.364231199E-10
 130.758942   3.991513509E-10
 130.928314   3.597306619E-10
 131.097687   3.183405484E-10
 131.267059   2.751651407E-10
 131.436447   2.304091362E-10
 131.60582   1.843066949E-10
 131.775192   1.371182057E-10
 131.94458   8.911577032E-11
 132.113953   4.056521438E-11
 132.283325   -8.285928367E-12
 132.452698   -5.720834223E-11
 132.622086   -1.059794197E-10
 132.791458   -1.543677686E-10
 132.960831   -2.02123443E-10
 133.130219   -2.489795869E-10
 133.299591   -2.946655697E-10
 133.468964   -3.389244441E-10
 133.638336   -3.815253946E-10
 133.807724   -4.222651395E-10
 133.977097   -4.609584381E-10
 134.146469   -4.974236578E-10
 134.315857   -5.314729212E-10
 134.485229   -5.629126609E-10
 134.654602   -5.915546941E-10
 134.823975   -6.172322098E-10
 134.993362   -6.39811093E-10
 135.162735   -6.591915347E-10
 135.332108   -6.752984838E-10
 135.501495   -6.88068047E-10
 135.670868   -6.974373301E-10
 135.84024   -7.033438276E-10
 136.009613   -7.057355811E-10
 136.179001   -7.045853345E-10
 136.348373   -6.999014146E-10
 136.517746   -6.917285078E-10
 136.687119   -6.801385566E-10
 136.856506   -6.652160489E-10
 137.025879   -6.470463054E-10
 137.195251   -6.257129259E-10
 137.364639   -6.013050613E-10
 137.534012   -5.739292375E-10
 137.703384   -5.437197914E-10
 137.872757   -5.10840481E-10
 138.042145   -4.754774907E-10
 138.211517   -4.378276075E-10
 138.38089   -3.980883401E-10
 138.550278   -3.564546991E-10
 138.71965   -3.131242488E-10
 138.889023   -2.683060163E-10
 139.058395   -2.222271256E-10
 139.227783   -1.751326584E-10
 139.397156   -1.272779382E-10
 139.566528   -7.891705345E-11
 139.735916   -3.029365994E-11
 139.905289   1.836170278E-11
 140.074661   6.682686349E-11
 140.244034   1.148794393E-10
 140.413422   1.622898899E-10
 140.582794   2.088203083E-10
 140.752167   2.542303035E-10
 140.921555   2.982865344E-10
 141.090927   3.407719384E-10
 141.2603   3.814900618E-10
 141.429672   4.202632409E-10
 141.59906   4.569266077E-10
 141.768433   4.913218166E-10
 141.937805   5.232940747E-10
 142.107193   5.526940017E-10
 142.276566   5.79382986E-10
 142.445938   6.032388478E-10
 142.615311   6.2416039E-10
 142.784698   6.420671217E-10
 142.954071   6.568963151E-10
 143.123444   6.68598954E-10
 143.292816   6.771367911E-10
 143.462204   6.824823484E-10
 143.631577   6.846218592E-10
 143.800949   6.835593203E-10
 143.970337   6.793196561E-10
 144.139709   6.719488854E-10
 144.309082   6.615106241E-10
 144.478455   6.480809223E-10
 144.647842   6.317432688E-10
 144.817215   6.125857599E-10
 144.986588   5.907034306E-10
 145.155975   5.662028624E-10
 145.325348   5.392084002E-10
 145.49472   5.098649836E-10
 145.664093   4.783366481E-10
 145.833481   4.447995028E-10
 146.002853   4.094332651E-10
 146.172226   3.724141828E-10
 146.341614   3.339135357E-10
 146.510986   2.941018262E-10
 146.680359   2.531562737E-10
 146.849731   2.112670872E-10
 147.019119   1.686381729E-10
 147.188492   1.254816945E-10
 147.357864   8.20088511E-11
 147.527252   3.842178659E-11
 147.696625   -5.089052443E-12
 147.865997   -4.834104644E-11
 148.03537   -9.115175281E-11
 148.204758   -1.333329419E-10
 148.37413   -1.746903178E-10
 148.543503   -2.150303546E-10
 148.712891   -2.541703514E-10
 148.882263   -2.919462172E-10
 149.051636   -3.282134842E-10
 149.221008   -3.628407574E-10
 149.390396   -3.95699612E-10
 149.559769   -4.266576537E-10
 149.729141   -4.555786859E-10
 149.898514   -4.823308974E-10
 150.067902   -5.067984921E-10
 150.237274   -5.288895433E-10
 150.406647   -5.485361054E-10
 150.576035   -5.656864976E-10
 150.745407   -5.802941461E-10
 150.91478   -5.923107005E-10
 151.084152   -6.016873111E-10
 151.25354   -6.083834547E-10
 151.422913   -6.123787033E-10
 151.592285   -6.136796626E-10
 151.761673   -6.123178631E-10
 151.931046   -6.08339934E-10
 152.100418   -6.017958354E-10
 152.269791   -5.927315305E-10
 152.439178   -5.811909287E-10
 152.608551   -5.672251557E-10
 152.777924   -5.509032674E-10
 152.947311   -5.32318245E-10
 153.116684   -5.115837198E-10
 153.286057   -4.888237592E-10
 153.455429   -4.641615703E-10
 153.624817   -4.377136154E-10
 153.794189   -4.095918049E-10
 153.963562   -3.799124904E-10
 154.13295   -3.488057343E-10
 154.302322   -3.164192242E-10
 154.471695   -2.829139978E-10
 154.641068   -2.484548123E-10
 154.810455   -2.132005683E-10
 154.979828   -1.773002023E-10
 155.1492   -1.408967387E-10
 155.318588   -1.041359429E-10
 155.487961   -6.717455758E-11
 155.657333   -3.018261682E-11
 155.826706   6.661994741E-12
 155.996094   4.318370661E-11
 156.165466   7.921908268E-11
 156.334839   1.146210349E-10
 156.504211   1.492561214E-10
 156.673599   1.829970619E-10
 156.842972   2.15715168E-10
 157.012344   2.472773375E-10
 157.181732   2.775489005E-10
 157.351105   3.06400405E-10
 157.520477   3.33714667E-10
 157.68985   3.593899345E-10
 157.859238   3.8333825E-10
 158.02861   4.05480316E-10
 158.197983   4.257406372E-10
 158.367371   4.440450785E-10
 158.536743   4.603227244E-10
 158.706116   4.745103199E-10
 158.875488   4.865570169E-10
 159.044876   4.964266775E-10
 159.214249   5.040971529E-10
 159.383621   5.095570632E-10
 159.553009   5.128021341E-10
 159.722382   5.138332537E-10
 159.891754   5.1265725E-10
 160.061127   5.09289888E-10
 160.230515   5.037596451E-10
 160.399887   4.961107081E-10
 160.56926   4.864025849E-10
 160.738647   4.747078841E-10
 160.90802   4.611064863E-10
 161.077393   4.456804648E-10
 161.246765   4.285103106E-10
 161.416153   4.096747108E-10
 161.585526   3.892538514E-10
 161.754898   3.673346072E-10
 161.924286   3.440155383E-10
 162.093658   3.194088327E-10
 162.263031   2.936384469E-10
 162.432404   2.668349985E-10
 162.601791   2.391298548E-10
 162.771164   2.106514824E-10
 162.940536   1.815259332E-10
 163.109909   1.518804665E-10
 163.279297   1.218479484E-10
 163.448669   9.156884972E-11
 163.618042   6.118873463E-11
 163.78743   3.085209865E-11
 163.956802   6.956993575E-13
 164.126175   -2.915507766E-11
 164.295547   -5.858440122E-11
 164.464935   -8.748005098E-11
 164.634308   -1.157270044E-10
 164.80368   -1.432046842E-10
 164.973068   -1.697904595E-10
 165.142441   -1.953679579E-10
 165.311813   -2.198354554E-10
 165.481186   -2.431097545E-10
 165.650574   -2.651225628E-10
 165.819946   -2.85811208E-10
 165.989319   -3.051086606E-10
 166.158707   -3.229388146E-10
 166.328079   -3.392199577E-10
 166.497452   -3.538747628E-10
 166.666824   -3.668414461E-10
 166.836212   -3.780800117E-10
 167.005585   -3.875704757E-10
 167.174957   -3.953045391E-10
 167.344345   -4.012764565E-10
 167.513718   -4.054786507E-10
 167.68309   -4.079050986E-10