 0.   3.382550388E-19
 0.169376865   2.676047866E-16
 0.33875373   8.105266743E-16
 0.50813061   1.683478724E-15
 0.67750746   2.956840823E-15
 0.84688431   4.591132026E-15
 1.01626122   6.283511902E-15
 1.18563807   7.393247459E-15
 1.35501492   7.026680822E-15
 1.52439177   4.284436219E-15
 1.69376862   -1.412192176E-15
 1.86314547   -1.005305797E-14
 2.03252244   -2.095509706E-14
 2.20189929   -3.292186673E-14
 2.37127614   -4.460790596E-14
 2.54065299   -5.497017839E-14
 2.71002984   -6.365334692E-14
 2.87940669   -7.117701204E-14
 3.04878354   -7.885926883E-14
 3.21816039   -8.849365874E-14
 3.38753724   -1.018758645E-13
 3.55691409   -1.203221279E-13
 3.72629094   -1.443221492E-13
 3.89566779   -1.734286136E-13
 4.06504488   -2.064129846E-13
 4.23442173   -2.416344848E-13
 4.40379858   -2.774998113E-13
 4.57317543   -3.128616886E-13
 4.74255228   -3.472335538E-13
 4.91192913   -3.807689841E-13
 5.08130598   -4.140429319E-13
 5.25068283   -4.477363304E-13
 5.42005968   -4.823458256E-13
 5.58943653   -5.180100055E-13
 5.75881338   -5.544763867E-13
 5.92819023   -5.911684987E-13
 6.09756708   -6.272748705E-13
 6.26694393   -6.61804216E-13
 6.43632078   -6.936043536E-13
 6.60569763   -7.213958163E-13
 6.77507448   -7.438857473E-13
 6.94445133   -7.599895106E-13
 7.11382818   -7.691161076E-13
 7.28320503   -7.713952632E-13
 7.45258188   -7.677030669E-13
 7.62195873   -7.593988372E-13
 7.79133558   -7.478030239E-13
 7.96071243   -7.335870193E-13
 8.13008976   -7.163169797E-13
 8.29946613   -6.943681741E-13
 8.46884346   -6.652994128E-13
 8.63821983   -6.265923652E-13
 8.80759716   -5.764984844E-13
 8.97697353   -5.146744034E-13
 9.14635086   -4.423602598E-13
 9.31572723   -3.620413431E-13
 9.48510456   -2.767368854E-13
 9.65448093   -1.892008821E-13
 9.82385826   -1.013166872E-13
 9.99323463   -1.385899638E-14
 10.162612   7.338414951E-14
 10.3319883   1.612746124E-13
 10.5013657   2.509554793E-13
 10.670742   3.435624994E-13
 10.8401194   4.400037463E-13
 11.0094957   5.407193248E-13
 11.1788731   6.453492254E-13
 11.3482494   7.52356402E-13
 11.5176268   8.587879214E-13
 11.6870031   9.604130642E-13
 11.8563805   1.052388428E-12
 12.0257568   1.13036479E-12
 12.1951342   1.191693554E-12
 12.3645105   1.236244072E-12
 12.5338879   1.266431187E-12
 12.7032642   1.286346355E-12
 12.8726416   1.300275209E-12
 13.0420179   1.311168188E-12
 13.2113953   1.319676031E-12
 13.3807716   1.324113128E-12
 13.550149   1.321306562E-12
 13.7195253   1.30790398E-12
 13.8889027   1.28155494E-12
 14.058279   1.241516872E-12
 14.2276564   1.188559884E-12
 14.3970327   1.124395715E-12
 14.5664101   1.051027429E-12
 14.7357864   9.70345874E-13
 14.9051638   8.84056283E-13
 15.0745401   7.937585593E-13
 15.2439175   7.009166468E-13
 15.4132938   6.06581571E-13
 15.5826712   5.109899049E-13
 15.7520475   4.13349178E-13
 15.9214249   3.121163538E-13
 16.0908012   2.058180422E-13
 16.2601795   9.412894184E-14
 16.4295559   -2.132930266E-14
 16.5989323   -1.369575297E-13
 16.7683086   -2.480812051E-13
 16.9376869   -3.504742069E-13
 17.1070633   -4.418453721E-13
 17.2764397   -5.226002465E-13
 17.445816   -5.955124631E-13
 17.6151943   -6.644512414E-13
 17.7845707   -7.327506657E-13
 17.9539471   -8.019456952E-13
 18.1233234   -8.713713345E-13
 18.2927017   -9.386709075E-13
 18.4620781   -1.000828326E-12
 18.6314545   -1.05516919E-12
 18.8008308   -1.099919635E-12
 18.9702091   -1.134233766E-12
 19.1395855   -1.157916536E-12
 19.3089619   -1.171162559E-12
 19.4783382   -1.174498541E-12
 19.6477165   -1.16886546E-12
 19.8170929   -1.155585501E-12
 19.9864693   -1.135999172E-12
 20.1558456   -1.110797977E-12
 20.3252239   -1.079362511E-12
 20.4946003   -1.039541717E-12
 20.6639767   -9.881617009E-13
 20.833353   -9.22189625E-13
 21.0027313   -8.401012633E-13
 21.1721077   -7.428194886E-13
 21.3414841   -6.337427328E-13
 21.5108604   -5.178002124E-13
 21.6802387   -3.999398198E-13
 21.8496151   -2.837174397E-13
 22.0189915   -1.705683121E-13
 22.1883678   -5.998039522E-14
 22.3577461   4.964683043E-14
 22.5271225   1.599437813E-13
 22.6964989   2.717999437E-13
 22.8658752   3.85103787E-13
 23.0352535   4.988946539E-13
 23.2046299   6.116330858E-13
 23.3740063   7.213366731E-13
 23.5433826   8.255392897E-13
 23.7127609   9.212535249E-13
 23.8821373   1.005171532E-12
 24.0515137   1.074202142E-12
 24.22089   1.126193865E-12
 24.3902683   1.16049878E-12
 24.5596447   1.178038027E-12
 24.7290211   1.180761543E-12
 24.8983994   1.170723783E-12
 25.0677757   1.149221452E-12
 25.2371521   1.116417939E-12
 25.4065285   1.071624452E-12
 25.5759068   1.01405852E-12
 25.7452831   9.436565028E-13
 25.9146595   8.614995653E-13
 26.0840359   7.696403194E-13
 26.2534142   6.704429763E-13
 26.4227905   5.65803372E-13
 26.5921669   4.566428615E-13
 26.7615433   3.428867704E-13
 26.9309216   2.238645196E-13
 27.1002979   9.886941255E-14
 27.2696743   -3.240858848E-14
 27.4390507   -1.697310098E-13
 27.608429   -3.12394018E-13
 27.7778053   -4.593698468E-13
 27.9471817   -6.09337125E-13
 28.1165581   -7.605704803E-13
 28.2859364   -9.107996475E-13
 28.4553127   -1.057206406E-12
 28.6246891   -1.196647599E-12
 28.7940655   -1.326049947E-12
 28.9634438   -1.442806378E-12
 29.1328201   -1.544986144E-12
 29.3021965   -1.631263701E-12
 29.4715729   -1.700621631E-12
 29.6409512   -1.752013356E-12
 29.8103275   -1.784175563E-12
 29.9797039   -1.795689574E-12
 30.1490803   -1.785241443E-12
 30.3184586   -1.751936812E-12
 30.4878349   -1.695515256E-12
 30.6572113   -1.616382267E-12
 30.8265877   -1.515471342E-12
 30.995966   -1.394021834E-12
 31.1653423   -1.253369695E-12
 31.3347187   -1.094798189E-12
 31.5040951   -9.194483282E-13
 31.6734734   -7.282813133E-13
 31.8428497   -5.221033566E-13
 32.0122261   -3.016823445E-13
 32.1816025   -6.795569153E-14
 32.3509789   1.777249409E-13
 32.520359   4.334103877E-13
 32.6897354   6.965333258E-13
 32.8591118   9.640902443E-13
 33.0284882   1.232964794E-12
 33.1978645   1.500240253E-12
 33.3672409   1.763336439E-12
 33.5366173   2.019904426E-12
 33.7059937   2.267563524E-12
 33.8753738   2.503668063E-12
 34.0447502   2.725275301E-12
 34.2141266   2.929373107E-12
 34.383503   3.113244688E-12
 34.5528793   3.274740722E-12
 34.7222557   3.412259841E-12
 34.8916321   3.524400823E-12
 35.0610085   3.609479035E-12
 35.2303886   3.665221338E-12
 35.399765   3.688892507E-12
 35.5691414   3.67787311E-12
 35.7385178   3.630449457E-12
 35.9078941   3.546423138E-12
 36.0772705   3.427224433E-12
 36.2466469   3.275447188E-12
 36.4160233   3.094029807E-12
 36.5854034   2.885502818E-12
 36.7547798   2.651664261E-12
 36.9241562   2.393788509E-12
 37.0935326   2.113163594E-12
 37.2629089   1.811570642E-12
 37.4322853   1.491392405E-12
 37.6016617   1.155280515E-12
 37.7710381   8.056189179E-13
 37.9404182   4.441665948E-13
 38.1097946   7.216984307E-14
 38.279171   -3.090772809E-13
 38.4485474   -6.975666247E-13
 38.6179237   -1.090268826E-12
 38.7873001   -1.483481198E-12
 38.9566765   -1.87375007E-12
 39.1260529   -2.258916144E-12
 39.295433   -2.638674002E-12
 39.4648094   -3.0142193E-12
 39.6341858   -3.386996629E-12
 39.8035622   -3.757049793E-12
 39.9729385   -4.121723796E-12
 40.1423149   -4.475343273E-12
 40.3116913   -4.810040821E-12
 40.4810715   -5.117383513E-12
 40.6504478   -5.390103728E-12
 40.8198242   -5.623237553E-12
 40.9892006   -5.814301731E-12
 41.158577   -5.9626349E-12
 41.3279533   -6.068356755E-12
 41.4973297   -6.131501556E-12
 41.6667061   -6.151615242E-12
 41.8360863   -6.127790983E-12
 42.0054626   -6.05885524E-12
 42.174839   -5.943417199E-12
 42.3442154   -5.779723488E-12
 42.5135918   -5.565490777E-12
 42.6829681   -5.298074479E-12
 42.8523445   -4.975179557E-12
 43.0217209   -4.596021046E-12
 43.1911011   -4.162475052E-12
 43.3604774   -3.679624747E-12
 43.5298538   -3.155281375E-12
 43.6992302   -2.598507347E-12
 43.8686066   -2.017647551E-12
 44.0379829   -1.418654473E-12
 44.2073593   -8.044281387E-13
 44.3767357   -1.754545809E-13
 44.5461159   4.685356378E-13
 44.7154922   1.12661009E-12
 44.8848686   1.795185094E-12
 45.054245   2.467620943E-12
 45.2236214   3.134921359E-12
 45.3929977   3.787139873E-12
 45.5623741   4.414889461E-12
 45.7317505   5.010406586E-12
 45.9011307   5.567957987E-12
 46.070507   6.083692577E-12
 46.2398834   6.555225546E-12
 46.4092598   6.981223759E-12
 46.5786362   7.361066617E-12
 46.7480125   7.694496949E-12
 46.9173889   7.98112184E-12
 47.0867653   8.219771218E-12
 47.2561455   8.407864682E-12
 47.4255219   8.541130476E-12
 47.5948982   8.613946362E-12
 47.7642746   8.620369175E-12
 47.933651   8.555582458E-12
 48.1030273   8.417261679E-12
 48.2724037   8.20634706E-12
 48.4417801   7.92692214E-12
 48.6111603   7.585250136E-12
 48.7805367   7.18833066E-12
 48.949913   6.742549227E-12
 49.1192894   6.252871051E-12
 49.2886658   5.722782925E-12
 49.4580421   5.154854842E-12
 49.6274185   4.551587406E-12
 49.7967987   3.916159931E-12
 49.9661751   3.252818154E-12
 50.1355515   2.566831079E-12
 50.3049278   1.86413363E-12
 50.4743042   1.150842551E-12
 50.6436806   4.328207443E-13
 50.8130569   -2.846210409E-13
 50.9824333   -9.9688324E-13
 51.1518135   -1.700127886E-12
 51.3211899   -2.391251693E-12
 51.4905663   -3.067794282E-12
 51.6599426   -3.727770696E-12
 51.829319   -4.369413251E-12
 51.9986954   -4.990825028E-12
 52.1680717   -5.589588254E-12
 52.3374481   -6.162413028E-12
 52.5068283   -6.704939555E-12
 52.6762047   -7.211791928E-12
 52.8455811   -7.67694415E-12
 53.0149574   -8.094393211E-12
 53.1843338   -8.458993055E-12
 53.3537102   -8.767222191E-12
 53.5230865   -9.017595698E-12
 53.6924629   -9.210516898E-12
 53.8618431   -9.347559185E-12
 54.0312195   -9.430374884E-12
 54.2005959   -9.459638801E-12
 54.3699722   -9.434427198E-12
 54.5393486   -9.35229498E-12
 54.708725   -9.210028573E-12
 54.8781013   -9.004748336E-12
 55.0474777   -8.734903426E-12
 55.2168579   -8.400825174E-12
 55.3862343   -8.004702803E-12
 55.5556107   -7.550155813E-12
 55.724987   -7.041706194E-12
 55.8943634   -6.484434083E-12
 56.0637398   -5.883853734E-12
 56.2331161   -5.245877083E-12
 56.4024925   -4.576599516E-12
 56.5718727   -3.881808937E-12
 56.7412491   -3.166368426E-12
 56.9106255   -2.433837637E-12
 57.0800018   -1.686700367E-12
 57.2493782   -9.273147571E-13
 57.4187546   -1.592899667E-13
 57.588131   6.11333846E-13
 57.7575111   1.375759641E-12
 57.9268875   2.123307172E-12
 58.0962639   2.843265337E-12
 58.2656403   3.526999222E-12
 58.4350166   4.169397032E-12
 58.604393   4.769009406E-12
 58.7737694   5.326791959E-12
 58.9431458   5.843988488E-12
 59.1125259   6.320057325E-12
 59.2819023   6.751470043E-12
 59.4512787   7.131777374E-12
 59.6206551   7.452739814E-12
 59.7900314   7.705945257E-12
 59.9594078   7.884252279E-12
 60.1287842   7.982692632E-12
 60.2981606   7.998814285E-12
 60.4675407   7.932747341E-12
 60.6369171   7.787245675E-12
 60.8062935   7.567747644E-12
 60.9756699   7.282213894E-12
 61.1450462   6.940426098E-12
 61.3144226   6.552630834E-12
 61.483799   6.127792718E-12
 61.6531754   5.672102545E-12
 61.8225555   5.188421741E-12
 61.9919319   4.677063424E-12
 62.1613083   4.137727487E-12
 62.3306847   3.571854184E-12
 62.500061   2.984393765E-12
 62.6694374   2.384198958E-12
 62.8388138   1.782851319E-12
 63.0081902   1.192428318E-12
 63.1775703   6.231680753E-13
 63.3469467   8.198093083E-14
 63.5163231   -4.276833607E-13
 63.6856995   -9.04757443E-13
 63.8550758   -1.348947104E-12
 64.0244522   -1.759398508E-12
 64.1938324   -2.134189743E-12
 64.363205   -2.470666467E-12
 64.5325851   -2.766188537E-12
 64.7019577   -3.0187118E-12
 64.8713379   -3.226826358E-12
 65.0407181   -3.389291018E-12
 65.2100906   -3.504450636E-12
 65.3794708   -3.570033592E-12
 65.5488434   -3.583596527E-12
 65.7182236   -3.543452207E-12
 65.8875961   -3.449613208E-12
 66.0569763   -3.304214541E-12
 66.2263489   -3.111156515E-12
 66.3957291   -2.875163649E-12
 66.5651093   -2.600763355E-12
 66.7344818   -2.291757712E-12
 66.903862   -1.951455273E-12
 67.0732346   -1.583476189E-12
 67.2426147   -1.19260038E-12
 67.4119873   -7.850772983E-13
 67.5813675   -3.68161312E-13
 67.7507477   5.090280072E-14
 67.9201202   4.658517495E-13
 68.0895004   8.717225618E-13
 68.258873   1.264261916E-12
 68.4282532   1.638705447E-12
 68.5976257   1.988625844E-12
 68.7670059   2.305577604E-12
 68.9363785   2.579913713E-12
 69.1057587   2.802504539E-12
 69.2751389   2.966605477E-12
 69.4445114   3.069004903E-12
 69.6138916   3.109884095E-12
 69.7832642   3.09146762E-12
 69.9526443   3.01608738E-12
 70.1220169   2.884539829E-12
 70.2913971   2.695414421E-12
 70.4607773   2.445561332E-12
 70.6301498   2.131330269E-12
 70.79953   1.74991922E-12
 70.9689026   1.300273474E-12
 71.1382828   7.833125424E-13
 71.3076553   2.016653039E-13
 71.4770355   -4.407201871E-13
 71.6464081   -1.138794246E-12
 71.8157883   -1.886446077E-12
 71.9851685   -2.676601779E-12
 72.154541   -3.501632144E-12
 72.3239212   -4.354102148E-12
 72.4932938   -5.227571848E-12
 72.662674   -6.11691817E-12
 72.8320465   -7.017783056E-12
 73.0014267   -7.925137976E-12
 73.1708069   -8.831459002E-12
 73.3401794   -9.725365478E-12
 73.5095596   -1.059150857E-11
 73.6789322   -1.141199808E-11
 73.8483124   -1.216897676E-11
 74.0176849   -1.284737247E-11
 74.1870651   -1.343671962E-11
 74.3564453   -1.393133178E-11
 74.5258179   -1.432878555E-11
 74.6951981   -1.462740519E-11
 74.8645706   -1.482385742E-11
 75.0339508   -1.491174718E-11
 75.2033234   -1.488173126E-11
 75.3727036   -1.472289131E-11
 75.5420761   -1.44247227E-11
 75.7114563   -1.397901933E-11
 75.8808365   -1.338114515E-11
 76.050209   -1.263058408E-11
 76.2195892   -1.173093827E-11
 76.3889618   -1.068953866E-11
 76.558342   -9.516746766E-12
 76.7277145   -8.224847019E-12
 76.8970947   -6.82645997E-12
 77.0664749   -5.33274553E-12
 77.2358475   -3.751876847E-12
 77.4052277   -2.088525967E-12
 77.5746002   -3.448652225E-13
 77.7439804   1.477000488E-12
 77.913353   3.371884369E-12
 78.0827332   5.328844137E-12
 78.2521057   7.330149508E-12
 78.4214859   9.352425952E-12
 78.5908661   1.13696292E-11
 78.7602386   1.335671764E-11
 78.9296188   1.529266297E-11
 79.0989914   1.716172343E-11
 79.2683716   1.895276644E-11
 79.4377441   2.06571895E-11
 79.6071243   2.226650461E-11
 79.7765045   2.377055323E-11
 79.9458771   2.515683321E-11
 80.1152573   2.641080236E-11
 80.2846298   2.751669725E-11
 80.45401   2.845843006E-11
 80.6233826   2.922037265E-11
 80.7927628   2.978824826E-11
 80.9621429   3.015028158E-11
 81.1315155   3.029861431E-11
 81.3008957   3.023046743E-11
 81.4702682   2.994848119E-11
 81.6396484   2.94596153E-11
 81.809021   2.877281226E-11
 81.9784012   2.789606393E-11
 82.1477737   2.683409051E-11
 82.3171539   2.558760322E-11
 82.4865341   2.415451172E-11
 82.6559067   2.253255395E-11
 82.8252869   2.072223643E-11
 82.9946594   1.872885007E-11
 83.1640396   1.656286219E-11
 83.3334122   1.423877856E-11
 83.5027924   1.177320654E-11
 83.6721725   9.183148166E-12
 83.8415451   6.485077232E-12
 84.0109253   3.694933682E-12
 84.1802979   8.285421503E-13
 84.349678   -2.098125926E-12
 84.5190506   -5.069095317E-12
 84.6884308   -8.068795632E-12
 84.8578033   -1.10822445E-11
 85.0271835   -1.409457273E-11
 85.1965637   -1.708987292E-11
 85.3659363   -2.004988016E-11
 85.5353165   -2.295326255E-11
 85.704689   -2.577606704E-11
 85.8740692   -2.849343331E-11
 86.0434418   -3.108190094E-11
 86.212822   -3.35214391E-11
 86.3822021   -3.579628607E-11
 86.5515747   -3.789430922E-11
 86.7209549   -3.980530489E-11
 86.8903275   -4.151904862E-11
 87.0597076   -4.302401491E-11
 87.2290802   -4.430718986E-11
 87.3984604   -4.535484488E-11
 87.5678329   -4.615369198E-11
 87.7372131   -4.66917234E-11
 87.9065933   -4.695848918E-11
 88.0759659   -4.69448716E-11
 88.2453461   -4.664289094E-11
 88.4147186   -4.604602116E-11
 88.5840988   -4.515002955E-11
 88.7534714   -4.395411118E-11
 88.9228516   -4.246156551E-11
 89.0922318   -4.067953613E-11
 89.2616043   -3.861770626E-11
 89.4309845   -3.628645301E-11
 89.6003571   -3.369530696E-11
 89.7697372   -3.085254621E-11
 89.9391098   -2.776626845E-11
 90.10849   -2.444659232E-11
 90.2778702   -2.09080097E-11
 90.4472427   -1.717095216E-11
 90.6166229   -1.326175714E-11
 90.7859955   -9.21114747E-12
 90.9553757   -5.051814436E-12
 91.1247482   -8.160462323E-13
 91.2941284   3.46581726E-12
 91.463501   7.765839187E-12
 91.6328812   1.205811666E-11
 91.8022614   1.631818465E-11
 91.9716339   2.052263394E-11
 92.1410141   2.46491022E-11
 92.3103867   2.867623153E-11
 92.4797668   3.258330411E-11
 92.6491394   3.634935061E-11
 92.8185196   3.995200698E-11
 92.9878998   4.336687606E-11
 93.1572723   4.656809313E-11
 93.3266525   4.953020979E-11
 93.4960251   5.223108404E-11
 93.6654053   5.465443723E-11
 93.8347778   5.679108225E-11
 94.004158   5.863797642E-11
 94.1735306   6.019536952E-11
 94.3429108   6.146321646E-11
 94.512291   6.243831147E-11
 94.6816635   6.311331319E-11
 94.8510437   6.347802839E-11
 95.0204163   6.352213894E-11
 95.1897964   6.323814389E-11
 95.359169   6.26231636E-11
 95.5285492   6.167921729E-11
 95.6979294   6.041206424E-11
 95.8673019   5.882960091E-11
 96.0366821   5.694061195E-11
 96.2060547   5.475425668E-11
 96.3754349   5.228007957E-11
 96.5448074   4.952791996E-11
 96.7141876   4.650735699E-11
 96.8835602   4.322672775E-11
 97.0529404   3.969254786E-11
 97.2223206   3.591001801E-11
 97.3916931   3.188491485E-11
 97.5610733   2.76265625E-11
 97.7304459   2.315057521E-11
 97.899826   1.847999184E-11
 98.0691986   1.364417867E-11
 98.2385788   8.675619251E-12
 98.407959   3.605943235E-12
 98.5773315   -1.537176853E-12
 98.7467117   -6.730982091E-12
 98.9160843   -1.195625803E-11
 99.0854645   -1.719453399E-11
 99.254837   -2.242530987E-11
 99.4242172   -2.762461267E-11
 99.5935974   -3.276526273E-11
 99.76297   -3.781831098E-11
 99.9323502   -4.27545499E-11
 100.101723   -4.754510327E-11
 100.271103   -5.216099774E-11
 100.440475   -5.657229546E-11
 100.609856   -6.074778874E-11
 100.779228   -6.465605135E-11
 100.948608   -6.826761378E-11
 101.117989   -7.155743359E-11
 101.287361   -7.450629003E-11
 101.456741   -7.710026367E-11
 101.626114   -7.932850904E-11
 101.795494   -8.118025002E-11
 101.964867   -8.264267742E-11
 102.134247   -8.370081711E-11
 102.303627   -8.433950066E-11
 102.473   -8.454648787E-11
 102.64238   -8.431524229E-11
 102.811752   -8.364594434E-11
 102.981133   -8.254450595E-11
 103.150505   -8.10201628E-11
 103.319885   -7.908288607E-11
 103.489258   -7.674193225E-11
 103.658638   -7.400580149E-11
 103.828018   -7.088318127E-11
 103.997391   -6.738391789E-11
 104.166771   -6.351912746E-11
 104.336143   -5.930037711E-11
 104.505524   -5.473850886E-11
 104.674896   -4.984329269E-11
 104.844276   -4.462450201E-11
 105.013657   -3.909438745E-11
 105.183029   -3.327044196E-11
 105.352409   -2.717710258E-11
 105.521782   -2.084547292E-11
 105.691162   -1.431075137E-11
 105.860535   -7.608760844E-12
 106.029915   -7.727713326E-13
 106.199295   6.167804982E-12
 106.368668   1.318646147E-11
 106.538048   2.025706859E-11
 106.70742   2.735109708E-11
 106.876801   3.443591939E-11
 107.046173   4.147492072E-11
 107.215553   4.842906284E-11
 107.384926   5.525905081E-11
 107.554306   6.19269358E-11
 107.723686   6.839671884E-11
 107.893059   7.463400037E-11
 108.062439   8.060545981E-11
 108.231812   8.627860232E-11
 108.401192   9.162229309E-11
 108.570564   9.660728467E-11
 108.739944   1.012064182E-10
 108.909325   1.053937215E-10
 109.078697   1.091427504E-10
 109.248077   1.12424757E-10
 109.41745   1.152079751E-10
 109.58683   1.174586955E-10
 109.756203   1.191441529E-10
 109.925583   1.202363903E-10
 110.094955   1.207156874E-10
 110.264336   1.205718442E-10
 110.433716   1.198033617E-10
 110.603088   1.184143478E-10
 110.772469   1.164108115E-10
 110.941841   1.137977559E-10
 111.111221   1.1057813E-10
 111.280594   1.067537517E-10
 111.449974   1.023276741E-10
 111.619354   9.730665579E-11
 111.788727   9.170292997E-11
 111.958107   8.553473901E-11
 112.12748   7.882591802E-11
 112.29686   7.160499971E-11
 112.466232   6.390463159E-11
 112.635612   5.576112141E-11
 112.804985   4.721413191E-11
 112.974365   3.830603543E-11
 113.143745   2.908057302E-11
 113.313118   1.958141461E-11
 113.482498   9.851027979E-12
 113.651871   -6.954266535E-14
 113.821251   -1.013932775E-11
 113.990623   -2.03153501E-11
 114.160004   -3.055035391E-11
 114.329384   -4.079175886E-11
 114.498756   -5.098236069E-11
 114.668137   -6.106267575E-11
 114.837509   -7.097405302E-11
 115.006889   -8.066129015E-11
 115.176262   -9.007364299E-11
 115.345642   -9.91640936E-11
 115.515022   -1.078873865E-10
 115.684395   -1.161979124E-10
 115.853775   -1.240485215E-10
 116.023148   -1.313908149E-10
 116.192528   -1.381764009E-10
 116.3619   -1.443584141E-10
 116.531281   -1.498926538E-10
 116.700653   -1.5473757E-10
 116.870033   -1.588537912E-10
 117.039413   -1.62203917E-10
 117.208786   -1.647530029E-10
 117.378166   -1.664700738E-10
 117.547539   -1.673299693E-10
 117.716919   -1.673149119E-10
 117.886292   -1.664147847E-10
 118.055672   -1.64626035E-10
 118.225052   -1.619499951E-10
 118.394424   -1.583910503E-10
 118.563805   -1.53955973E-10
 118.733177   -1.486542556E-10
 118.902557   -1.424994428E-10
 119.07193   -1.355101309E-10
 119.24131   -1.277107031E-10
 119.410683   -1.191311355E-10
 119.580063   -1.098062613E-10
 119.749443   -9.977538934E-11
 119.918816   -8.908249138E-11
 120.088196   -7.7777014E-11
 120.257568   -6.591452384E-11
 120.426949   -5.355659666E-11
 120.596321   -4.076952317E-11
 120.765701   -2.762181109E-11
 120.935081   -1.418175039E-11
 121.104454   -5.155026254E-13
 121.273834   1.331295751E-11
 121.443207   2.724056224E-11
 121.612587   4.120283281E-11
 121.78196   5.513176721E-11
 121.95134   6.895479326E-11
 122.12072   8.259504886E-11
 122.290092   9.597288242E-11
 122.459473   1.090077681E-10
 122.628845   1.216201168E-10
 122.798225   1.337325944E-10
 122.967598   1.452710313E-10
 123.136978   1.561651225E-10
 123.306351   1.663489763E-10
 123.475731   1.757613916E-10
 123.645111   1.843458719E-10
 123.814484   1.920497511E-10
 123.983864   1.988231385E-10
 124.153236   2.046178088E-10
 124.322617   2.093869383E-10
 124.491989   2.130860349E-10
 124.661369   2.156753387E-10
 124.83075   2.171226671E-10
 125.000122   2.174061764E-10
 125.169502   2.165158192E-10
 125.338875   2.144531497E-10
 125.508255   2.112295616E-10
 125.677628   2.06863679E-10
 125.847008   2.013788025E-10
 126.01638   1.948011058E-10
 126.18576   1.871591493E-10
 126.355141   1.784844633E-10
 126.524513   1.688127138E-10
 126.693893   1.581852704E-10
 126.863266   1.466502753E-10
 127.032646   1.342635447E-10
 127.202019   1.210885975E-10
 127.371399   1.071961547E-10
 127.540779   9.266272472E-11
 127.710152   7.756893738E-11
 127.879532   6.199701169E-11
 128.048904   4.602889597E-11
 128.218277   2.974455751E-11
 128.387665   1.322178478E-11
 128.557037   -3.462980987E-12
 128.72641   -2.023277552E-11
 128.895798   -3.700787246E-11
 129.06517   -5.370392325E-11
 129.234543   -7.023134158E-11
 129.403915   -8.649605338E-11
 129.573303   -1.02401726E-10
 129.742676   -1.178526859E-10
 129.912048   -1.327570415E-10
 130.081436   -1.470288336E-10
 130.250809   -1.605894445E-10
 130.420181   -1.733675425E-10
 130.589554   -1.852981935E-10
 130.758942   -1.963216256E-10
 130.928314   -2.063819254E-10
 131.097687   -2.154260659E-10
 131.267059   -2.2340374E-10
 131.436447   -2.302675273E-10
 131.60582   -2.359739626E-10
 131.775192   -2.404847155E-10
 131.94458   -2.437684221E-10
 132.113953   -2.458022119E-10
 132.283325   -2.465732896E-10
 132.452698   -2.460797954E-10
 132.622086   -2.443306113E-10
 132.791458   -2.413438338E-10
 132.960831   -2.371445262E-10
 133.130219   -2.317618042E-10
 133.299591   -2.252261155E-10
 133.468964   -2.17567922E-10
 133.638336   -2.088180184E-10
 133.807724   -1.990092535E-10
 133.977097   -1.881797912E-10
 134.146469   -1.763759971E-10
 134.315857   -1.636546038E-10
 134.485229   -1.500830155E-10
 134.654602   -1.357379348E-10
 134.823975   -1.207025174E-10
 134.993362   -1.050631249E-10
 135.162735   -8.890643777E-11
 135.332108   -7.231731186E-11
 135.501495   -5.537801467E-11
 135.670868   -3.816838859E-11
 135.84024   -2.076697148E-11
 136.009613   -3.252681978E-12
 136.179001   1.429331913E-11
 136.348373   3.178567132E-11
 136.517746   4.913367629E-11
 136.687119   6.624164411E-11
 136.856506   8.301074411E-11
 137.025879   9.93426591E-11
 137.195251   1.151440818E-10
 137.364639   1.303308433E-10
 137.534012   1.448302728E-10
 137.703384   1.585810233E-10
 137.872757   1.715301928E-10
 138.042145   1.836290425E-10
 138.211517   1.94828792E-10
 138.38089   2.050779407E-10
 138.550278   2.14322407E-10
 138.71965   2.225078732E-10
 138.889023   2.295836299E-10
 139.058395   2.355065865E-10
 139.227783   2.402441857E-10
 139.397156   2.437759994E-10
 139.566528   2.460936455E-10
 139.735916   2.472000105E-10
 139.905289   2.471073624E-10
 140.074661   2.458349913E-10
 140.244034   2.434065727E-10
 140.413422   2.398471699E-10
 140.582794   2.351807638E-10
 140.752167   2.294291562E-10
 140.921555   2.226129697E-10
 141.090927   2.147547695E-10
 141.2603   2.058833104E-10
 141.429672   1.960379498E-10
 141.59906   1.852705767E-10
 141.768433   1.73645362E-10
 141.937805   1.612349976E-10
 142.107193   1.481161582E-10
 142.276566   1.34364464E-10
 142.445938   1.200515382E-10
 142.615311   1.052444937E-10
 142.784698   9.000736961E-11
 142.954071   7.44038442E-11
 143.123444   5.849992019E-11
 143.292816   4.236586082E-11
 143.462204   2.607695136E-11
 143.631577   9.713491296E-12
 143.800949   -6.639837985E-12
 143.970337   -2.28954234E-11
 144.139709   -3.896494585E-11
 144.309082   -5.476218784E-11
 144.478455   -7.020654197E-11
 144.647842   -8.522593048E-11
 144.817215   -9.975842374E-11
 144.986588   -1.137518413E-10
 145.155975   -1.271611288E-10
 145.325348   -1.399445559E-10
 145.49472   -1.52059948E-10
 145.664093   -1.634621882E-10
 145.833481   -1.741028155E-10
 146.002853   -1.839318559E-10
 146.172226   -1.929006399E-10
 146.341614   -2.009651612E-10
 146.510986   -2.080883243E-10
 146.680359   -2.142414579E-10
 146.849731   -2.194044113E-10
 147.019119   -2.235653329E-10
 147.188492   -2.267195043E-10
 147.357864   -2.288683548E-10
 147.527252   -2.30017741E-10
 147.696625   -2.301762531E-10
 147.865997   -2.293534529E-10
 148.03537   -2.275586664E-10
 148.204758   -2.248008862E-10
 148.37413   -2.210898131E-10
 148.543503   -2.164382978E-10
 148.712891   -2.108650338E-10
 148.882263   -2.043970687E-10
 149.051636   -1.970710123E-10
 149.221008   -1.889324946E-10
 149.390396   -1.80034182E-10
 149.559769   -1.704323904E-10
 149.729141   -1.601837968E-10
 149.898514   -1.493422747E-10
 150.067902   -1.379577702E-10
 150.237274   -1.260758581E-10
 150.406647   -1.137395594E-10
 150.576035   -1.009915207E-10
 150.745407   -8.787712918E-11
 150.91478   -7.444674044E-11
 151.084152   -6.075732972E-11
 151.25354   -4.687241914E-11
 151.422913   -3.286073844E-11
 151.592285   -1.879342515E-11
 151.761673   -4.740806706E-12
 151.931046   9.230990104E-12
 152.100418   2.306227778E-11
 152.269791   3.670063906E-11
 152.439178   5.010000054E-11
 152.608551   6.321791701E-11
 152.777924   7.601209245E-11
 152.947311   8.843700078E-11
 153.116684   1.004414121E-10
 153.286057   1.119681431E-10
 153.455429   1.229558538E-10
 153.624817   1.333426841E-10
 153.794189   1.430710272E-10
 153.963562   1.520917003E-10
 154.13295   1.603668309E-10
 154.302322   1.67870523E-10
 154.471695   1.745871087E-10
 154.641068   1.80507817E-10
 154.810455   1.856265697E-10
 154.979828   1.899363444E-10
 155.1492   1.934268856E-10
 155.318588   1.960844265E-10
 155.487961   1.978933128E-10
 155.657333   1.988391812E-10
 155.826706   1.989125531E-10
 155.996094   1.981123737E-10
 156.165466   1.964480245E-10
 156.334839   1.939397254E-10
 156.504211   1.906171054E-10
 156.673599   1.865158999E-10
 156.842972   1.816740647E-10
 157.012344   1.76127779E-10
 157.181732   1.699086288E-10
 157.351105   1.63042399E-10
 157.520477   1.555500312E-10
 157.68985   1.47450524E-10
 157.859238   1.387648052E-10
 158.02861   1.295199642E-10
 158.197983   1.197523608E-10
 158.367371   1.095089297E-10
 158.536743   9.884616736E-11
 158.706116   8.78272316E-11
 158.875488   7.651759087E-11
 159.044876   6.498076383E-11
 159.214249   5.327505451E-11
 159.383621   4.145202931E-11
 159.553009   2.955716574E-11
 159.722382   1.76319636E-11
 159.891754   5.716973769E-12
 160.061127   -6.145213678E-12
 160.230515   -1.790797892E-11
 160.399887   -2.951966796E-11
 160.56926   -4.092420153E-11
 160.738647   -5.206286097E-11
 160.90802   -6.287702997E-11
 161.077393   -7.33116623E-11
 161.246765   -8.331856732E-11
 161.416153   -9.28590399E-11
 161.585526   -1.01904693E-10
 161.754898   -1.104361602E-10
 161.924286   -1.184397858E-10
 162.093658   -1.259026772E-10
 162.263031   -1.32808195E-10
 162.432404   -1.391328858E-10
 162.601791   -1.448461351E-10
 162.771164   -1.499128877E-10
 162.940536   -1.542981853E-10
 163.109909   -1.579724962E-10
 163.279297   -1.609156697E-10
 163.448669   -1.631191016E-10
 163.618042   -1.64585387E-10
 163.78743   -1.653262666E-10
 163.956802   -1.653596565E-10
 164.126175   -1.647065678E-10
 164.295547   -1.633884694E-10
 164.464935   -1.614249429E-10
 164.634308   -1.588322807E-10
 164.80368   -1.556230284E-10
 164.973068   -1.518069837E-10
 165.142441   -1.473937639E-10
 165.311813   -1.423966223E-10
 165.481186   -1.36836445E-10
 165.650574   -1.307442765E-10
 165.819946   -1.241615144E-10
 165.989319   -1.171370778E-10
 166.158707   -1.097225366E-10
 166.328079   -1.019666157E-10
 166.497452   -9.391117051E-11
 166.666824   -8.558983383E-11
 166.836212   -7.702955634E-11
 167.005585   -6.825431192E-11
 167.174957   -5.928942753E-11
 167.344345   -5.016517063E-11