   0.00000000         0.00000000    
  0.165000007        -1.02980826E-15
  0.330000013        -1.82924896E-15
  0.495000005        -2.82888972E-15
  0.660000026        -9.23868915E-15
  0.824999988        -3.08814897E-14
  0.990000010        -7.75938287E-14
   1.15499997        -1.52431887E-13
   1.32000005        -2.47054655E-13
   1.48500001        -3.42888017E-13
   1.64999998        -4.18335044E-13
   1.81500006        -4.58506985E-13
   1.98000002        -4.62198747E-13
   2.14499998        -4.42353456E-13
   2.30999994        -4.20092943E-13
   2.47499990        -4.15981621E-13
   2.64000010        -4.43243098E-13
   2.80500007        -5.05698510E-13
   2.97000003        -5.99865318E-13
   3.13499999        -7.18338854E-13
   3.29999995        -8.51694095E-13
   3.46499991        -9.88281180E-13
   3.63000011        -1.11363154E-12
   3.79500008        -1.21187077E-12
   3.96000004        -1.26999442E-12
   4.12500000        -1.28325454E-12
   4.28999996        -1.25829002E-12
   4.45499992        -1.21142202E-12
   4.61999989        -1.16231970E-12
   4.78499985        -1.12613207E-12
   4.94999981        -1.10813691E-12
   5.11499977        -1.10335460E-12
   5.28000021        -1.10053741E-12
   5.44500017        -1.08755778E-12
   5.61000013        -1.05500482E-12
   5.77500010        -9.96731452E-13
   5.94000006        -9.08607608E-13
   6.10500002        -7.87908746E-13
   6.26999998        -6.34748113E-13
   6.43499994        -4.54642807E-13
   6.59999990        -2.59624543E-13
   6.76499987        -6.57344527E-14
   6.92999983         1.12876458E-13
   7.09499979         2.70364650E-13
   7.26000023         4.12303004E-13
   7.42500019         5.53283602E-13
   7.59000015         7.10071921E-13
   7.75500011         8.94137195E-13
   7.92000008         1.10768447E-12
   8.08500004         1.34494152E-12
   8.25000000         1.59701809E-12
   8.41499996         1.85656720E-12
   8.57999992         2.11914557E-12
   8.74499989         2.38098256E-12
   8.90999985         2.63572844E-12
   9.07499981         2.87359307E-12
   9.23999977         3.08448449E-12
   9.40499973         3.26354959E-12
   9.56999969         3.41525939E-12
   9.73499966         3.55258856E-12
   9.89999962         3.69085361E-12
   10.0649996         3.83939018E-12
   10.2299995         3.99591124E-12
   10.3950005         4.14688249E-12
   10.5600004         4.27357325E-12
   10.7250004         4.36003577E-12
   10.8900003         4.39834150E-12
   11.0550003         4.38848046E-12
   11.2200003         4.33392211E-12
   11.3850002         4.23657593E-12
   11.5500002         4.09495918E-12
   11.7150002         3.90675426E-12
   11.8800001         3.67355668E-12
   12.0450001         3.40385315E-12
   12.2100000         3.11140697E-12
   12.3750000         2.80941915E-12
   12.5400000         2.50380597E-12
   12.7049999         2.18974361E-12
   12.8699999         1.85374047E-12
   13.0349998         1.48023640E-12
   13.1999998         1.05911948E-12
   13.3649998         5.90214726E-13
   13.5299997         8.28353364E-14
   13.6949997        -4.48538776E-13
   13.8599997        -9.89436397E-13
   14.0249996        -1.52859940E-12
   14.1899996        -2.05829776E-12
   14.3549995        -2.57294273E-12
   14.5200005        -3.06802478E-12
   14.6850004        -3.54059967E-12
   14.8500004        -3.99092998E-12
   15.0150003        -4.42361555E-12
   15.1800003        -4.84663351E-12
   15.3450003        -5.26795751E-12
   15.5100002        -5.69108562E-12
   15.6750002        -6.11164808E-12
   15.8400002        -6.51682094E-12
   16.0049992        -6.88783232E-12
   16.1700001        -7.20447920E-12
   16.3349991        -7.44988966E-12
   16.5000000        -7.61406042E-12
   16.6650009        -7.69542763E-12
   16.8299999        -7.70043404E-12
   16.9950008        -7.64144824E-12
   17.1599998        -7.53355277E-12
   17.3250008        -7.39080325E-12
   17.4899998        -7.22283951E-12
   17.6550007        -7.03282961E-12
   17.8199997        -6.81752484E-12
   17.9850006        -6.56939737E-12
   18.1499996        -6.27993100E-12
   18.3150005        -5.94260145E-12
   18.4799995        -5.55444059E-12
   18.6450005        -5.11599010E-12
   18.8099995        -4.63042668E-12
   18.9750004        -4.10287169E-12
   19.1399994        -3.54037611E-12
   19.3050003        -2.95207023E-12
   19.4699993        -2.34841075E-12
   19.6350002        -1.73885884E-12
   19.7999992        -1.12861456E-12
   19.9650002        -5.16250888E-13
   20.1299992         1.05790105E-13
   20.2950001         7.47242383E-13
   20.4599991         1.41408337E-12
   20.6250000         2.10358380E-12
   20.7900009         2.80311126E-12
   20.9549999         3.49358975E-12
   21.1200008         4.15596637E-12
   21.2849998         4.77733218E-12
   21.4500008         5.35360515E-12
   21.6149998         5.88778418E-12
   21.7800007         6.38542171E-12
   21.9449997         6.85036663E-12
   22.1100006         7.28319401E-12
   22.2749996         7.68255251E-12
   22.4400005         8.04758343E-12
   22.6049995         8.37899194E-12
   22.7700005         8.67753959E-12
   22.9349995         8.94093393E-12
   23.1000004         9.16161244E-12
   23.2649994         9.32777206E-12
   23.4300003         9.42790984E-12
   23.5949993         9.45671666E-12
   23.7600002         9.41881902E-12
   23.9249992         9.32785967E-12
   24.0900002         9.20105832E-12
   24.2549992         9.05199180E-12
   24.4200001         8.88535339E-12
   24.5849991         8.69617746E-12
   24.7500000         8.47345544E-12
   24.9150009         8.20566445E-12
   25.0799999         7.88497479E-12
   25.2450008         7.50820760E-12
   25.4099998         7.07495477E-12
   25.5750008         6.58510009E-12
   25.7399998         6.03804767E-12
   25.9050007         5.43438645E-12
   26.0699997         4.77868960E-12
   26.2350006         4.08111652E-12
   26.3999996         3.35613438E-12
   26.5650005         2.61851760E-12
   26.7299995         1.87863180E-12
   26.8950005         1.13962865E-12
   27.0599995         3.98153651E-13
   27.2250004        -3.51876107E-13
   27.3899994        -1.11462597E-12
   27.5550003        -1.88938622E-12
   27.7199993        -2.67067293E-12
   27.8850002        -3.45087002E-12
   28.0499992        -4.22349048E-12
   28.2150002        -4.98503279E-12
   28.3799992        -5.73452050E-12
   28.5450001        -6.47139026E-12
   28.7099991        -7.19340212E-12
   28.8750000        -7.89607182E-12
   29.0400009        -8.57396966E-12
   29.2049999        -9.22295313E-12
   29.3700008        -9.84168476E-12
   29.5349998        -1.04313433E-11
   29.7000008        -1.09934856E-11
   29.8649998        -1.15272323E-11
   30.0300007        -1.20273158E-11
   30.1949997        -1.24840754E-11
   30.3600006        -1.28853985E-11
   30.5249996        -1.32194984E-11
   30.6900005        -1.34770962E-11
   30.8549995        -1.36520465E-11
   31.0200005        -1.37404385E-11
   31.1849995        -1.37390559E-11
   31.3500004        -1.36443070E-11
   31.5149994        -1.34522758E-11
   31.6800003        -1.31598170E-11
   31.8449993        -1.27658925E-11
   32.0099983        -1.22721711E-11
   32.1749992        -1.16824137E-11
   32.3400002        -1.10009961E-11
   32.5050011        -1.02315777E-11
   32.6699982        -9.37688295E-12
   32.8349991        -8.43992584E-12
   33.0000000        -7.42607451E-12
   33.1650009        -6.34477670E-12
   33.3300018        -5.20974366E-12
   33.4949989        -4.03712263E-12
   33.6599998        -2.84219241E-12
   33.8250008        -1.63601337E-12
   33.9900017        -4.23581688E-13
   34.1549988         7.95639921E-13
   34.3199997         2.02514719E-12
   34.4850006         3.26791437E-12
   34.6500015         4.52347708E-12
   34.8149986         5.78640998E-12
   34.9799995         7.04635352E-12
   35.1450005         8.28904567E-12
   35.3100014         9.49768476E-12
   35.4749985         1.06542240E-11
   35.6399994         1.17407993E-11
   35.8050003         1.27416593E-11
   35.9700012         1.36457026E-11
   36.1349983         1.44488735E-11
   36.2999992         1.51552798E-11
   36.4650002         1.57759725E-11
   36.6300011         1.63251999E-11
   36.7949982         1.68150979E-11
   36.9599991         1.72505794E-11
   37.1250000         1.76263708E-11
   37.2900009         1.79272777E-11
   37.4550018         1.81316576E-11
   37.6199989         1.82167528E-11
   37.7849998         1.81640449E-11
   37.9500008         1.79631223E-11
   38.1150017         1.76132962E-11
   38.2799988         1.71229628E-11
   38.4449997         1.65073753E-11
   38.6100006         1.57854702E-11
   38.7750015         1.49764732E-11
   38.9399986         1.40967828E-11
   39.1049995         1.31575714E-11
   39.2700005         1.21634803E-11
   39.4350014         1.11128138E-11
   39.5999985         9.99931388E-12
   39.7649994         8.81529138E-12
   39.9300003         7.55544845E-12
   40.0950012         6.22039096E-12
   40.2599983         4.81886059E-12
   40.4249992         3.36781189E-12
   40.5900002         1.89002460E-12
   40.7550011         4.09571276E-13
   40.9199982        -1.05362572E-12
   41.0849991        -2.48845974E-12
   41.2500000        -3.89480939E-12
   41.4150009        -5.28218224E-12
   41.5800018        -6.66508168E-12
   41.7449989        -8.05666731E-12
   41.9099998        -9.46304840E-12
   42.0750008        -1.08803426E-11
   42.2400017        -1.22952889E-11
   42.4049988        -1.36885772E-11
   42.5699997        -1.50389857E-11
   42.7350006        -1.63264350E-11
   42.9000015        -1.75330774E-11
   43.0649986        -1.86430194E-11
   43.2299995        -1.96420172E-11
   43.3950005        -2.05182121E-11
   43.5600014        -2.12637425E-11
   43.7249985        -2.18758015E-11
   43.8899994        -2.23555653E-11
   44.0550003        -2.27044356E-11
   44.2200012        -2.29191058E-11
   44.3849983        -2.29881340E-11
   44.5499992        -2.28924813E-11
   44.7150002        -2.26105523E-11
   44.8800011        -2.21257544E-11
   45.0449982        -2.14330463E-11
   45.2099991        -2.05411781E-11
   45.3750000        -1.94697800E-11
   45.5400009        -1.82431553E-11
   45.7050018        -1.68844036E-11
   45.8699989        -1.54128741E-11
   46.0349998        -1.38454040E-11
   46.2000008        -1.21992451E-11
   46.3650017        -1.04935166E-11
   46.5299988        -8.74724859E-12
   46.6949997        -6.97475497E-12
   46.8600006        -5.18147851E-12
   47.0250015        -3.36379622E-12
   47.1899986        -1.51423242E-12
   47.3549995         3.69819166E-13
   47.5200005         2.27826872E-12
   47.6850014         4.18574377E-12
   47.8499985         6.05592312E-12
   48.0149994         7.85078079E-12
   48.1800003         9.54020109E-12
   48.3450012         1.11075359E-11
   48.5099983         1.25491804E-11
   48.6749992         1.38695921E-11
   48.8400002         1.50752605E-11
   49.0050011         1.61710628E-11
   49.1699982         1.71600009E-11
   49.3349991         1.80448659E-11
   49.5000000         1.88292056E-11
   49.6650009         1.95158022E-11
   49.8300018         2.01033357E-11
   49.9949989         2.05836338E-11
   50.1599998         2.09421213E-11
   50.3250008         2.11623948E-11
   50.4900017         2.12332166E-11
   50.6549988         2.11544844E-11
   50.8199997         2.09389346E-11
   50.9850006         2.06084854E-11
   51.1500015         2.01868869E-11
   51.3149986         1.96921177E-11
   51.4799995         1.91319009E-11
   51.6450005         1.85038408E-11
   51.8100014         1.77993939E-11
   51.9749985         1.70093141E-11
   52.1399994         1.61280746E-11
   52.3050003         1.51558661E-11
   52.4700012         1.40983223E-11
   52.6349983         1.29650362E-11
   52.7999992         1.17679625E-11
   52.9650002         1.05201993E-11
   53.1300011         9.23494701E-12
   53.2949982         7.92426194E-12
   53.4599991         6.59749338E-12
   53.6250000         5.25974229E-12
   53.7900009         3.91113314E-12
   53.9550018         2.54750865E-12
   54.1199989         1.16269375E-12
   54.2849998        -2.48007371E-13
   54.4500008        -1.68417439E-12
   54.6150017        -3.13758069E-12
   54.7799988        -4.59150730E-12
   54.9449997        -6.02251322E-12
   55.1100006        -7.40446853E-12
   55.2750015        -8.71375454E-12
   55.4399986        -9.93397899E-12
   55.6049995        -1.10584085E-11
   55.7700005        -1.20893252E-11
   55.9350014        -1.30344797E-11
   56.0999985        -1.39023610E-11
   56.2649994        -1.46982166E-11
   56.4300003        -1.54223908E-11
   56.5950012        -1.60712554E-11
   56.7599983        -1.66395890E-11
   56.9249992        -1.71226696E-11
   57.0900002        -1.75168595E-11
   57.2550011        -1.78187326E-11
   57.4199982        -1.80240978E-11
   57.5849991        -1.81284276E-11
   57.7500000        -1.81292377E-11
   57.9150009        -1.80294772E-11
   58.0800018        -1.78398390E-11
   58.2449989        -1.75781924E-11
   58.4099998        -1.72657080E-11
   58.5750008        -1.69211589E-11
   58.7400017        -1.65560413E-11
   58.9049988        -1.61727281E-11
   59.0699997        -1.57662199E-11
   59.2350006        -1.53280721E-11
   59.4000015        -1.48500379E-11
   59.5649986        -1.43257255E-11
   59.7299995        -1.37500280E-11
   59.8950005        -1.31178159E-11
   60.0600014        -1.24238024E-11
   60.2249985        -1.16643561E-11
   60.3899994        -1.08404457E-11
   60.5550003        -9.95954794E-12
   60.7200012        -9.03462114E-12
   60.8849983        -8.07976862E-12
   61.0499992        -7.10435270E-12
   61.2150002        -6.10844058E-12
   61.3800011        -5.08197043E-12
   61.5449982        -4.00809160E-12
   61.7099991        -2.86916866E-12
   61.8750000        -1.65259993E-12
   62.0400009        -3.54288972E-13
   62.2050018         1.02105087E-12
   62.3699989         2.46181677E-12
   62.5349998         3.95208996E-12
   62.7000008         5.47368357E-12
   62.8650017         7.00771559E-12
   63.0299988         8.53641897E-12
   63.1949997         1.00457281E-11
   63.3600006         1.15281560E-11
   63.5250015         1.29845102E-11
   63.6899986         1.44228214E-11
   63.8549995         1.58539692E-11
   64.0199966         1.72851230E-11
   64.1849976         1.87134908E-11
   64.3499985         2.01229814E-11
   64.5149994         2.14852632E-11
   64.6800003         2.27646599E-11
   64.8450012         2.39249436E-11
   65.0100021         2.49355311E-11
   65.1750031         2.57753385E-11
   65.3399963         2.64338655E-11
   65.5049973         2.69100020E-11
   65.6699982         2.72094534E-11
   65.8349991         2.73414416E-11
   66.0000000         2.73149454E-11
   66.1650009         2.71348412E-11
   66.3300018         2.67987004E-11
   66.4950027         2.62954311E-11
   66.6600037         2.56068465E-11
   66.8249969         2.47122722E-11
   66.9899979         2.35950703E-11
   67.1549988         2.22488139E-11
   67.3199997         2.06809084E-11
   67.4850006         1.89122416E-11
   67.6500015         1.69731607E-11
   67.8150024         1.48972987E-11
   67.9800034         1.27154754E-11
   68.1449966         1.04514132E-11
   68.3099976         8.12001768E-12
   68.4749985         5.72806776E-12
   68.6399994         3.27662940E-12
   68.8050003         7.64585660E-13
   68.9700012        -1.80724912E-12
   69.1350021        -4.43192835E-12
   69.3000031        -7.09292217E-12
   69.4649963        -9.76250764E-12
   69.6299973        -1.24028990E-11
   69.7949982        -1.49704173E-11
   69.9599991        -1.74218279E-11
   70.1250000        -1.97210772E-11
   70.2900009        -2.18442833E-11
   70.4550018        -2.37815167E-11
   70.6200027        -2.55349249E-11
   70.7850037        -2.71140749E-11
   70.9499969        -2.85301140E-11
   71.1149979        -2.97903716E-11
   71.2799988        -3.08946826E-11
   71.4449997        -3.18340528E-11
   71.6100006        -3.25917106E-11
   71.7750015        -3.31462288E-11
   71.9400024        -3.34760414E-11
   72.1050034        -3.35642833E-11
   72.2699966        -3.34028707E-11
   72.4349976        -3.29944856E-11
   72.5999985        -3.23519440E-11
   72.7649994        -3.14950357E-11
   72.9300003        -3.04460172E-11
   73.0950012        -2.92251223E-11
   73.2600021        -2.78474795E-11
   73.4250031        -2.63218319E-11
   73.5899963        -2.46511284E-11
   73.7549973        -2.28342276E-11
   73.9199982        -2.08682360E-11
   74.0849991        -1.87513009E-11
   74.2500000        -1.64857763E-11
   74.4150009        -1.40813429E-11
   74.5800018        -1.15572621E-11
   74.7450027        -8.94257585E-12
   74.9100037        -6.27349735E-12
   75.0749969        -3.58835401E-12
   75.2399979        -9.21664221E-13
   75.4049988         1.70043461E-12
   75.5699997         4.26168345E-12
   75.7350006         6.75381409E-12
   75.9000015         9.17258370E-12
   76.0650024         1.15138949E-11
   76.2300034         1.37716149E-11
   76.3949966         1.59374076E-11
   76.5599976         1.80013886E-11
   76.7249985         1.99521042E-11
   76.8899994         2.17752275E-11
   77.0550003         2.34518047E-11
   77.2200012         2.49580651E-11
   77.3850021         2.62683104E-11
   77.5500031         2.73608029E-11
   77.7149963         2.82242077E-11
   77.8799973         2.88615330E-11
   78.0449982         2.92889012E-11
   78.2099991         2.95293894E-11
   78.3750000         2.96043780E-11
   78.5400009         2.95265860E-11
   78.7050018         2.92975262E-11
   78.8700027         2.89102006E-11
   79.0350037         2.83548653E-11
   79.1999969         2.76246005E-11
   79.3649979         2.67184035E-11
   79.5299988         2.56413172E-11
   79.6949997         2.44033977E-11
   79.8600006         2.30192115E-11
   80.0250015         2.15086404E-11
   80.1900024         1.98977779E-11
   80.3550034         1.82177936E-11
   80.5199966         1.65005544E-11
   80.6849976         1.47717116E-11
   80.8499985         1.30445446E-11
   81.0149994         1.13178000E-11
   81.1800003         9.57954983E-12
   81.3450012         7.81580616E-12
   81.5100021         6.02013188E-12
   81.6750031         4.19990735E-12
   81.8399963         2.37659740E-12
   82.0049973         5.80467423E-13
   82.1699982        -1.15726016E-12
   82.3349991        -2.81111636E-12
   82.5000000        -4.36474207E-12
   82.6650009        -5.81080193E-12
   82.8300018        -7.14929591E-12
   82.9950027        -8.38604099E-12
   83.1600037        -9.53206611E-12
   83.3249969        -1.06027921E-11
   83.4899979        -1.16158593E-11
   83.6549988        -1.25868057E-11
   83.8199997        -1.35239467E-11
   83.9850006        -1.44248667E-11
   84.1500015        -1.52765110E-11
   84.3150024        -1.60596519E-11
   84.4800034        -1.67559924E-11
   84.6449966        -1.73547374E-11
   84.8099976        -1.78561835E-11
   84.9749985        -1.82710132E-11
   85.1399994        -1.86161069E-11
   85.3050003        -1.89090930E-11
   85.4700012        -1.91636828E-11
   85.6350021        -1.93868203E-11
   85.8000031        -1.95775236E-11
   85.9649963        -1.97268139E-11
   86.1299973        -1.98186554E-11
   86.2949982        -1.98320475E-11
   86.4599991        -1.97445463E-11
   86.6250000        -1.95371688E-11
   86.7900009        -1.91993244E-11
   86.9550018        -1.87319882E-11
   87.1200027        -1.81476206E-11
   87.2850037        -1.74664675E-11
   87.4499969        -1.67106468E-11
   87.6149979        -1.58980849E-11
   87.7799988        -1.50385763E-11
   87.9449997        -1.41329431E-11
   88.1100006        -1.31751086E-11
   88.2750015        -1.21559074E-11
   88.4400024        -1.10672973E-11
   88.6050034        -9.90599616E-12
   88.7699966        -8.67608416E-12
   88.9349976        -7.39018135E-12
   89.0999985        -6.06885202E-12
   89.2649994        -4.73794441E-12
   89.4300003        -3.42394017E-12
   89.5950012        -2.14829868E-12
   89.7600021        -9.22574408E-13
   89.9250031         2.53761747E-13
   90.0899963         1.39186677E-12
   90.2549973         2.50870050E-12
   90.4199982         3.62051600E-12
   90.5849991         4.73701720E-12
   90.7500000         5.85805232E-12
   90.9150009         6.97336243E-12
   91.0800018         8.06473117E-12
   91.2450027         9.10977023E-12
   91.4100037         1.00856979E-11
   91.5749969         1.09728667E-11
   91.7399979         1.17579228E-11
   91.9049988         1.24360982E-11
   92.0699997         1.30123022E-11
   92.2350006         1.35003007E-11
   92.4000015         1.39193440E-11
   92.5650024         1.42891402E-11
   92.7300034         1.46243868E-11
   92.8949966         1.49309211E-11
   93.0599976         1.52049293E-11
   93.2249985         1.54355313E-11
   93.3899994         1.56097496E-11
   93.5550003         1.57179287E-11
   93.7200012         1.57578499E-11
   93.8850021         1.57364729E-11
   94.0500031         1.56692489E-11
   94.2149963         1.55775635E-11
   94.3799973         1.54851184E-11
   94.5449982         1.54138490E-11
   94.7099991         1.53798883E-11
   94.8750000         1.53901943E-11
   95.0400009         1.54406227E-11
   95.2050018         1.55162168E-11
   95.3700027         1.55940608E-11
   95.5350037         1.56481564E-11
   95.6999969         1.56548923E-11
   95.8649979         1.55975094E-11
   96.0299988         1.54680574E-11
   96.1949997         1.52665831E-11
   96.3600006         1.49980774E-11
   96.5250015         1.46685580E-11
   96.6900024         1.42815065E-11
   96.8550034         1.38353972E-11
   97.0199966         1.33226104E-11
   97.1849976         1.27295622E-11
   97.3499985         1.20380338E-11
   97.5149994         1.12276629E-11
   97.6800003         1.02794891E-11
   97.8450012         9.18001092E-12
   98.0100021         7.92462710E-12
   98.1750031         6.51920878E-12
   98.3399963         4.97903585E-12
   98.5049973         3.32517932E-12
   98.6699982         1.57954151E-12
   98.8349991        -2.39684656E-13
   99.0000000        -2.12057455E-12
   99.1650009        -4.05758760E-12
   99.3300018        -6.04939796E-12
   99.4950027        -8.09575757E-12
   99.6600037        -1.01944746E-11
   99.8249969        -1.23390655E-11
   99.9899979        -1.45172329E-11
   100.154999        -1.67098661E-11
   100.320000        -1.88906876E-11
   100.485001        -2.10268695E-11
   100.650002        -2.30811516E-11
   100.815002        -2.50156441E-11
   100.980003        -2.67966326E-11
   101.144997        -2.83989637E-11
   101.309998        -2.98084404E-11
   101.474998        -3.10211405E-11
   101.639999        -3.20397875E-11
   101.805000        -3.28684580E-11
   101.970001        -3.35075717E-11
   102.135002        -3.39508942E-11
   102.300003        -3.41852414E-11
   102.464996        -3.41927389E-11
   102.629997        -3.39545440E-11
   102.794998        -3.34547286E-11
   102.959999        -3.26835989E-11
   103.125000        -3.16399927E-11
   103.290001        -3.03325282E-11
   103.455002        -2.87797321E-11
   103.620003        -2.70087997E-11
   103.785004        -2.50527203E-11
   103.949997        -2.29458189E-11
   104.114998        -2.07185605E-11
   104.279999        -1.83928966E-11
   104.445000        -1.59798494E-11
   104.610001        -1.34804433E-11
   104.775002        -1.08899990E-11
   104.940002        -8.20455943E-12
   105.105003        -5.42726584E-12
   105.269997        -2.57243771E-12
   105.434998         3.33967066E-13
   105.599998         3.25757693E-12
   105.764999         6.16131278E-12
   105.930000         9.01150942E-12
   106.095001         1.17827120E-11
   106.260002         1.44598604E-11
   106.425003         1.70380550E-11
   106.589996         1.95200401E-11
   106.754997         2.19126332E-11
   106.919998         2.42225667E-11
   107.084999         2.64522362E-11
   107.250000         2.85961480E-11
   107.415001         3.06385022E-11
   107.580002         3.25530609E-11
   107.745003         3.43058811E-11
   107.910004         3.58605402E-11
   108.074997         3.71847449E-11
   108.239998         3.82562315E-11
   108.404999         3.90656743E-11
   108.570000         3.96155157E-11
   108.735001         3.99152413E-11
   108.900002         3.99748602E-11
   109.065002         3.97989246E-11
   109.230003         3.93835589E-11
   109.394997         3.87169810E-11
   109.559998         3.77827422E-11
   109.724998         3.65644459E-11
   109.889999         3.50502023E-11
   110.055000         3.32359418E-11
   110.220001         3.11274721E-11
   110.385002         2.87414086E-11
   110.550003         2.61050539E-11
   110.714996         2.32547627E-11
   110.879997         2.02327061E-11
   111.044998         1.70820910E-11
   111.209999         1.38420300E-11
   111.375000         1.05436371E-11
   111.540001         7.20897430E-12
   111.705002         3.85322937E-12
   111.870003         4.89385550E-13
   112.035004        -2.86663683E-12
   112.199997        -6.19238731E-12
   112.364998        -9.45810010E-12
   112.529999        -1.26285822E-11
   112.695000        -1.56667266E-11
   112.860001        -1.85371215E-11
   113.025002        -2.12088333E-11
   113.190002        -2.36571665E-11
   113.355003        -2.58645848E-11
   113.519997        -2.78210146E-11
   113.684998        -2.95236266E-11
   113.849998        -3.09753681E-11
   114.014999        -3.21821771E-11
   114.180000        -3.31493270E-11
   114.345001        -3.38781295E-11
   114.510002        -3.43641678E-11
   114.675003        -3.45980744E-11
   114.839996        -3.45685598E-11
   115.004997        -3.42668602E-11
   115.169998        -3.36907308E-11
   115.334999        -3.28469196E-11
   115.500000        -3.17516083E-11
   115.665001        -3.04292043E-11
   115.830002        -2.89100185E-11
   115.995003        -2.72278242E-11
   116.160004        -2.54171718E-11
   116.324997        -2.35108096E-11
   116.489998        -2.15372269E-11
   116.654999        -1.95190322E-11
   116.820000        -1.74725841E-11
   116.985001        -1.54094740E-11
   117.150002        -1.33394979E-11
   117.315002        -1.12742203E-11
   117.480003        -9.22995361E-12
   117.644997        -7.22897827E-12
   117.809998        -5.29872977E-12
   117.974998        -3.46908765E-12
   118.139999        -1.76871170E-12
   118.305000        -2.21182474E-13
   118.470001         1.15819095E-12
   118.635002         2.36440381E-12
   118.800003         3.40319266E-12
   118.964996         4.28946679E-12
   119.129997         5.04390019E-12
   119.294998         5.68834563E-12
   119.459999         6.24082773E-12
   119.625000         6.71215297E-12
   119.790001         7.10491431E-12
   119.955002         7.41538948E-12
   120.120003         7.63793022E-12
   120.285004         7.77012135E-12
   120.449997         7.81718700E-12
   120.614998         7.79420972E-12
   120.779999         7.72596744E-12
   120.945000         7.64444931E-12
   121.110001         7.58460135E-12
   121.275002         7.57948738E-12
   121.440002         7.65530608E-12
   121.605003         7.82774453E-12
   121.769997         8.10024964E-12
   121.934998         8.46533434E-12
   122.099998         8.90879471E-12
   122.264999         9.41579714E-12
   122.430000         9.97708253E-12
   122.595001         1.05931175E-11
   122.760002         1.12745048E-11
   122.925003         1.20385464E-11
   123.089996         1.29030796E-11
   123.254997         1.38797524E-11
   123.419998         1.49687953E-11
   123.584999         1.61565691E-11
   123.750000         1.74159992E-11
   123.915001         1.87093587E-11
   124.080002         1.99925267E-11
   124.245003         2.12200847E-11
   124.410004         2.23506873E-11
   124.574997         2.33519905E-11
   124.739998         2.42040953E-11
   124.904999         2.49003648E-11
   125.070000         2.54449933E-11
   125.235001         2.58474856E-11
   125.400002         2.61158317E-11
   125.565002         2.62504705E-11
   125.730003         2.62412782E-11
   125.894997         2.60685605E-11
   126.059998         2.57072454E-11
   126.224998         2.51328212E-11
   126.389999         2.43265720E-11
   126.555000         2.32789205E-11
   126.720001         2.19904008E-11
   126.885002         2.04705471E-11
   127.050003         1.87356779E-11
   127.214996         1.68060219E-11
   127.379997         1.47025205E-11
   127.544998         1.24436164E-11
   127.709999         1.00423220E-11
   127.875000         7.50454560E-12
   128.039993         4.82942982E-12
   128.205002         2.01206868E-12
   128.369995        -9.51999872E-13
   128.535004        -4.06167244E-12
   128.699997        -7.30634216E-12
   128.865005        -1.06642820E-11
   129.029999        -1.41038431E-11
   129.195007        -1.75868903E-11
   129.360001        -2.10732230E-11
   129.524994        -2.45246809E-11
   129.690002        -2.79079676E-11
   129.854996        -3.11957821E-11
   130.020004        -3.43663951E-11
   130.184998        -3.74019669E-11
   130.350006        -4.02862951E-11
   130.514999        -4.30023066E-11
   130.679993        -4.55299375E-11
   130.845001        -4.78447559E-11
   131.009995        -4.99175562E-11
   131.175003        -5.17150905E-11
   131.339996        -5.32018561E-11
   131.505005        -5.43426762E-11
   131.669998        -5.51056666E-11
   131.835007        -5.54650804E-11
   132.000000        -5.54034249E-11
   132.164993        -5.49122241E-11
   132.330002        -5.39911935E-11
   132.494995        -5.26458356E-11
   132.660004        -5.08841268E-11
   132.824997        -4.87132869E-11
   132.990005        -4.61376909E-11
   133.154999        -4.31587405E-11
   133.320007        -3.97766299E-11
   133.485001        -3.59934096E-11