   0.00000000         0.00000000    
  0.165000007        -1.25544598E-15
  0.330000013        -4.84793929E-15
  0.495000005        -1.28127277E-14
  0.660000026        -2.76432082E-14
  0.824999988        -5.15178618E-14
  0.990000010        -8.53959305E-14
   1.15499997        -1.28067207E-13
   1.32000005        -1.75330901E-13
   1.48500001        -2.19780167E-13
   1.64999998        -2.51885725E-13
   1.81500006        -2.62758728E-13
   1.98000002        -2.48023769E-13
   2.14499998        -2.11146381E-13
   2.30999994        -1.64189110E-13
   2.47499990        -1.24839673E-13
   2.64000010        -1.10427862E-13
   2.80500007        -1.31475329E-13
   2.97000003        -1.87908757E-13
   3.13499999        -2.69834502E-13
   3.29999995        -3.62297323E-13
   3.46499991        -4.51229386E-13
   3.63000011        -5.27311105E-13
   3.79500008        -5.86085705E-13
   3.96000004        -6.25334094E-13
   4.12500000        -6.42556971E-13
   4.28999996        -6.35117447E-13
   4.45499992        -6.03317092E-13
   4.61999989        -5.54013324E-13
   4.78499985        -5.01302558E-13
   4.94999981        -4.62276051E-13
   5.11499977        -4.49113728E-13
   5.28000021        -4.61682287E-13
   5.44500017        -4.85256366E-13
   5.61000013        -4.95424665E-13
   5.77500010        -4.68134808E-13
   5.94000006        -3.89751274E-13
   6.10500002        -2.61930560E-13
   6.26999998        -9.91294381E-14
   6.43499994         7.92290902E-14
   6.59999990         2.57143861E-13
   6.76499987         4.26515106E-13
   6.92999983         5.86280753E-13
   7.09499979         7.38362713E-13
   7.26000023         8.84295946E-13
   7.42500019         1.02522049E-12
   7.59000015         1.16482724E-12
   7.75500011         1.31217704E-12
   7.92000008         1.48099827E-12
   8.08500004         1.68438917E-12
   8.25000000         1.92724569E-12
   8.41499996         2.20085343E-12
   8.57999992         2.48339890E-12
   8.74499989         2.74696151E-12
   8.90999985         2.96782347E-12
   9.07499981         3.13499942E-12
   9.23999977         3.25290662E-12
   9.40499973         3.33734104E-12
   9.56999969         3.40735599E-12
   9.73499966         3.47730417E-12
   9.89999962         3.55246431E-12
   10.0649996         3.62919785E-12
   10.2299995         3.69809348E-12
   10.3950005         3.74754741E-12
   10.5600004         3.76595369E-12
   10.7250004         3.74236406E-12
   10.8900003         3.66674703E-12
   11.0550003         3.53103983E-12
   11.2200003         3.33119665E-12
   11.3850002         3.06927183E-12
   11.5500002         2.75411876E-12
   11.7150002         2.39980865E-12
   11.8800001         2.02199303E-12
   12.0450001         1.63347114E-12
   12.2100000         1.24064019E-12
   12.3750000         8.42139292E-13
   12.5400000         4.30121975E-13
   12.7049999        -6.33905058E-15
   12.8699999        -4.76863937E-13
   13.0349998        -9.85790334E-13
   13.1999998        -1.52988169E-12
   13.3649998        -2.09847916E-12
   13.5299997        -2.67602195E-12
   13.6949997        -3.24589574E-12
   13.8599997        -3.79397902E-12
   14.0249996        -4.31043265E-12
   14.1899996        -4.78926837E-12
   14.3549995        -5.22651800E-12
   14.5200005        -5.61861582E-12
   14.6850004        -5.96233132E-12
   14.8500004        -6.25634874E-12
   15.0150003        -6.50309190E-12
   15.1800003        -6.70882273E-12
   15.3450003        -6.88088085E-12
   15.5100002        -7.02289442E-12
   15.6750002        -7.13058909E-12
   15.8400002        -7.19103509E-12
   16.0049992        -7.18652351E-12
   16.1700001        -7.10154938E-12
   16.3349991        -6.92935119E-12
   16.5000000        -6.67449863E-12
   16.6650009        -6.35024065E-12
   16.8299999        -5.97237364E-12
   16.9950008        -5.55337287E-12
   17.1599998        -5.10006360E-12
   17.3250008        -4.61554276E-12
   17.4899998        -4.10314968E-12
   17.6550007        -3.56900750E-12
   17.8199997        -3.02093962E-12
   17.9850006        -2.46448001E-12
   18.1499996        -1.89918502E-12
   18.3150005        -1.31865731E-12
   18.4799995        -7.15356268E-13
   18.6450005        -8.78496494E-14
   18.8099995         5.53948760E-13
   18.9750004         1.18925139E-12
   19.1399994         1.79298774E-12
   19.3050003         2.34517288E-12
   19.4699993         2.83796858E-12
   19.6350002         3.27673826E-12
   19.7999992         3.67500214E-12
   19.9650002         4.04668053E-12
   20.1299992         4.40017640E-12
   20.2950001         4.73709830E-12
   20.4599991         5.05503191E-12
   20.6250000         5.35120342E-12
   20.7900009         5.62379613E-12
   20.9549999         5.87000977E-12
   21.1200008         6.08291759E-12
   21.2849998         6.25046846E-12
   21.4500008         6.35873082E-12
   21.6149998         6.39844297E-12
   21.7800007         6.37131277E-12
   21.9449997         6.29213999E-12
   22.1100006         6.18503079E-12
   22.2749996         6.07539886E-12
   22.4400005         5.98183439E-12
   22.6049995         5.91178972E-12
   22.7700005         5.86251533E-12
   22.9349995         5.82557743E-12
   23.1000004         5.79164234E-12
   23.2649994         5.75287561E-12
   23.4300003         5.70258857E-12
   23.5949993         5.63386447E-12
   23.7600002         5.53939750E-12
   23.9249992         5.41344140E-12
   24.0900002         5.25474716E-12
   24.2549992         5.06818545E-12
   24.4200001         4.86336015E-12
   24.5849991         4.65048009E-12
   24.7500000         4.43563675E-12
   24.9150009         4.21810503E-12
   25.0799999         3.99098983E-12
   25.2450008         3.74451208E-12
   25.4099998         3.46980647E-12
   25.5750008         3.16122779E-12
   25.7399998         2.81647622E-12
   25.9050007         2.43539021E-12
   26.0699997         2.01883974E-12
   26.2350006         1.56854716E-12
   26.3999996         1.08746063E-12
   26.5650005         5.79616812E-13
   26.7299995         4.88245478E-14
   26.8950005        -5.03336197E-13
   27.0599995        -1.07879851E-12
   27.2250004        -1.68236551E-12
   27.3899994        -2.31918434E-12
   27.5550003        -2.99174899E-12
   27.7199993        -3.69825741E-12
   27.8850002        -4.43322289E-12
   28.0499992        -5.18958834E-12
   28.2150002        -5.96047387E-12
   28.3799992        -6.73902210E-12
   28.5450001        -7.51644580E-12
   28.7099991        -8.28011531E-12
   28.8750000        -9.01394150E-12
   29.0400009        -9.70190508E-12
   29.2049999        -1.03332369E-11
   29.3700008        -1.09060825E-11
   29.5349998        -1.14269288E-11
   29.7000008        -1.19054627E-11
   29.8649998        -1.23474217E-11
   30.0300007        -1.27494647E-11
   30.1949997        -1.30989360E-11
   30.3600006        -1.33784364E-11
   30.5249996        -1.35721183E-11
   30.6900005        -1.36697572E-11
   30.8549995        -1.36664196E-11
   31.0200005        -1.35587088E-11
   31.1849995        -1.33409395E-11
   31.3500004        -1.30044881E-11
   31.5149994        -1.25411088E-11
   31.6800003        -1.19478871E-11
   31.8449993        -1.12300343E-11
   32.0099983        -1.03990115E-11
   32.1749992        -9.46667831E-12
   32.3400002        -8.43911312E-12
   32.5050011        -7.31429587E-12
   32.6699982        -6.08546330E-12
   32.8349991        -4.74830375E-12
   33.0000000        -3.30757839E-12
   33.1650009        -1.77910583E-12
   33.3300018        -1.85985586E-13
   33.4949989         1.44840628E-12
   33.6599998         3.10621385E-12
   33.8250008         4.77630175E-12
   33.9900017         6.45069111E-12
   34.1549988         8.11921017E-12
   34.3199997         9.76629021E-12
   34.4850006         1.13720040E-11
   34.6500015         1.29163564E-11
   34.8149986         1.43835395E-11
   34.9799995         1.57630905E-11
   35.1450005         1.70472247E-11
   35.3100014         1.82264100E-11
   35.4749985         1.92864648E-11
   35.6399994         2.02093758E-11
   35.8050003         2.09772841E-11
   35.9700012         2.15768861E-11
   36.1349983         2.20012220E-11
   36.2999992         2.22477488E-11
   36.4650002         2.23143032E-11
   36.6300011         2.21959916E-11
   36.7949982         2.18853859E-11
   36.9599991         2.13760433E-11
   37.1250000         2.06670514E-11
   37.2900009         1.97656336E-11
   37.4550018         1.86861741E-11
   37.6199989         1.74463759E-11
   37.7849998         1.60630623E-11
   37.9500008         1.45499775E-11
   38.1150017         1.29184354E-11
   38.2799988         1.11795425E-11
   38.4449997         9.34605258E-12
   38.6100006         7.43253809E-12
   38.7750015         5.45428243E-12
   38.9399986         3.42638786E-12
   39.1049995         1.36438246E-12
   39.2700005        -7.13826079E-13
   39.4350014        -2.78618751E-12
   39.5999985        -4.82678264E-12
   39.7649994        -6.80879008E-12
   39.9300003        -8.70888604E-12
   40.0950012        -1.05106852E-11
   40.2599983        -1.22052559E-11
   40.4249992        -1.37885146E-11
   40.5900002        -1.52572312E-11
   40.7550011        -1.66060568E-11
   40.9199982        -1.78270176E-11
   41.0849991        -1.89110776E-11
   41.2500000        -1.98499984E-11
   41.4150009        -2.06367892E-11
   41.5800018        -2.12645040E-11
   41.7449989        -2.17247591E-11
   41.9099998        -2.20078487E-11
   42.0750008        -2.21052742E-11
   42.2400017        -2.20136097E-11
   42.4049988        -2.17373116E-11
   42.5699997        -2.12884536E-11
   42.7350006        -2.06832069E-11
   42.9000015        -1.99370451E-11
   43.0649986        -1.90614729E-11
   43.2299995        -1.80641092E-11
   43.3950005        -1.69516831E-11
   43.5600014        -1.57335499E-11
   43.7249985        -1.44231146E-11
   43.8899994        -1.30361633E-11
   44.0550003        -1.15874211E-11
   44.2200012        -1.00879981E-11
   44.3849983        -8.54575872E-12
   44.5499992        -6.96862837E-12
   44.7150002        -5.36866298E-12
   44.8800011        -3.76409711E-12
   45.0449982        -2.17784623E-12
   45.2099991        -6.33267093E-13
   45.3750000         8.50233295E-13
   45.5400009         2.25920541E-12
   45.7050018         3.58500903E-12
   45.8699989         4.82093445E-12
   46.0349998         5.96004019E-12
   46.2000008         6.99539645E-12
   46.3650017         7.92238150E-12
   46.5299988         8.74097496E-12
   46.6949997         9.45586231E-12
   46.8600006         1.00736693E-11
   47.0250015         1.05988135E-11
   47.1899986         1.10306556E-11
   47.3549995         1.13640581E-11
   47.5200005         1.15932862E-11
   47.6850014         1.17171004E-11
   47.8499985         1.17420735E-11
   48.0149994         1.16823278E-11
   48.1800003         1.15560894E-11
   48.3450012         1.13812119E-11
   48.5099983         1.11721023E-11
   48.6749992         1.09391714E-11
   48.8400002         1.06901415E-11
   49.0050011         1.04314543E-11
   49.1699982         1.01685379E-11
   49.3349991         9.90485558E-12
   49.5000000         9.64108394E-12
   49.6650009         9.37581870E-12
   49.8300018         9.10810750E-12
   49.9949989         8.84056023E-12
   50.1599998         8.58112279E-12
   50.3250008         8.34207356E-12
   50.4900017         8.13651490E-12
   50.6549988         7.97403463E-12
   50.8199997         7.85770494E-12
   50.9850006         7.78370597E-12
   51.1500015         7.74329559E-12
   51.3149986         7.72563437E-12
   51.4799995         7.71993927E-12
   51.6450005         7.71625125E-12
   51.8100014         7.70533116E-12
   51.9749985         7.67860775E-12
   52.1399994         7.62871710E-12
   52.3050003         7.55032668E-12
   52.4700012         7.44030098E-12
   52.6349983         7.29655138E-12
   52.7999992         7.11580751E-12
   52.9650002         6.89148608E-12
   53.1300011         6.61298143E-12
   53.2949982         6.26699951E-12
   53.4599991         5.84033863E-12
   53.6250000         5.32273010E-12
   53.7900009         4.70842332E-12
   53.9550018         3.99609339E-12
   54.1199989         3.18759125E-12
   54.2849998         2.28662358E-12
   54.4500008         1.29805704E-12
   54.6150017         2.27841021E-13
   54.7799988        -9.17164890E-13
   54.9449997        -2.12986551E-12
   55.1100006        -3.40410989E-12
   55.2750015        -4.73550973E-12
   55.4399986        -6.12101559E-12
   55.6049995        -7.55703052E-12
   55.7700005        -9.03678000E-12
   55.9350014        -1.05483122E-11
   56.0999985        -1.20741420E-11
   56.2649994        -1.35928430E-11
   56.4300003        -1.50817154E-11
   56.5950012        -1.65193206E-11
   56.7599983        -1.78869038E-11
   56.9249992        -1.91685712E-11
   57.0900002        -2.03508217E-11
   57.2550011        -2.14221089E-11
   57.4199982        -2.23726523E-11
   57.5849991        -2.31941896E-11
   57.7500000        -2.38791521E-11
   57.9150009        -2.44192184E-11
   58.0800018        -2.48038048E-11
   58.2449989        -2.50193859E-11
   58.4099998        -2.50502813E-11
   58.5750008        -2.48807763E-11
   58.7400017        -2.44976643E-11
   58.9049988        -2.38920966E-11
   59.0699997        -2.30600417E-11
   59.2350006        -2.20015482E-11
   59.4000015        -2.07196430E-11
   59.5649986        -1.92196380E-11
   59.7299995        -1.75091313E-11
   59.8950005        -1.55983126E-11
   60.0600014        -1.34999937E-11
   60.2249985        -1.12291123E-11
   60.3899994        -8.80196350E-12
   60.5550003        -6.23582436E-12
   60.7200012        -3.54930842E-12
   60.8849983        -7.63346797E-13
   61.0499992         2.09801360E-12
   61.2150002         5.00763797E-12
   61.3800011         7.93637205E-12
   61.5449982         1.08545386E-11
   61.7099991         1.37330364E-11
   61.8750000         1.65434073E-11
   62.0400009         1.92572555E-11
   62.2050018         2.18458029E-11
   62.3699989         2.42804266E-11
   62.5349998         2.65342730E-11
   62.7000008         2.85841056E-11
   62.8650017         3.04112395E-11
   63.0299988         3.20008395E-11
   63.1949997         3.33400321E-11
   63.3600006         3.44160672E-11
   63.5250015         3.52158754E-11
   63.6899986         3.57273794E-11
   63.8549995         3.59417496E-11
   64.0199966         3.58550238E-11
   64.1849976         3.54679827E-11
   64.3499985         3.47843004E-11
   64.5149994         3.38083866E-11
   64.6800003         3.25446545E-11
   64.8450012         3.09989673E-11
   65.0100021         2.91816675E-11
   65.1750031         2.71101405E-11
   65.3399963         2.48091582E-11
   65.5049973         2.23083704E-11
   65.6699982         1.96381071E-11
   65.8349991         1.68256867E-11
   66.0000000         1.38941142E-11
   66.1650009         1.08636173E-11
   66.3300018         7.75482109E-12
   66.4950027         4.59154589E-12
   66.6600037         1.40167186E-12
   66.8249969        -1.78407365E-12
   66.9899979        -4.93431424E-12
   67.1549988        -8.01875320E-12
   67.3199997        -1.10087061E-11
   67.4850006        -1.38768103E-11
   67.6500015        -1.65968957E-11
   67.8150024        -1.91447708E-11
   67.9800034        -2.14998106E-11
   68.1449966        -2.36463262E-11
   68.3099976        -2.55736040E-11
   68.4749985        -2.72742454E-11
   68.6399994        -2.87415300E-11
   68.8050003        -2.99672717E-11
   68.9700012        -3.09414369E-11
   69.1350021        -3.16538115E-11
   69.3000031        -3.20968148E-11
   69.4649963        -3.22681881E-11
   69.6299973        -3.21725147E-11
   69.7949982        -3.18213095E-11
   69.9599991        -3.12320274E-11
   70.1250000        -3.04265640E-11
   70.2900009        -2.94294970E-11
   70.4550018        -2.82660579E-11
   70.6200027        -2.69598337E-11
   70.7850037        -2.55305343E-11
   70.9499969        -2.39927887E-11
   71.1149979        -2.23566565E-11
   71.2799988        -2.06299595E-11
   71.4449997        -1.88214166E-11
   71.6100006        -1.69430910E-11
   71.7750015        -1.50109231E-11
   71.9400024        -1.30432228E-11
   72.1050034        -1.10581214E-11
   72.2699966        -9.07149356E-12
   72.4349976        -7.09631963E-12
   72.5999985        -5.14336186E-12
   72.7649994        -3.22212331E-12
   72.9300003        -1.34096250E-12
   73.0950012         4.93816251E-13
   73.2600021         2.27903482E-12
   73.4250031         4.01448406E-12
   73.5899963         5.70094232E-12
   73.7549973         7.33704590E-12
   73.9199982         8.91680306E-12
   74.0849991         1.04295053E-11
   74.2500000         1.18623843E-11
   74.4150009         1.32047342E-11
   74.5800018         1.44510714E-11
   74.7450027         1.56015739E-11
   74.9100037         1.66596407E-11
   75.0749969         1.76283432E-11
   75.2399979         1.85081204E-11
   75.4049988         1.92970553E-11
   75.5699997         1.99932397E-11
   75.7350006         2.05970709E-11
   75.9000015         2.11114355E-11
   76.0650024         2.15392374E-11
   76.2300034         2.18798590E-11
   76.3949966         2.21272167E-11
   76.5599976         2.22712768E-11
   76.7249985         2.23026684E-11
   76.8899994         2.22178265E-11
   77.0550003         2.20215287E-11
   77.2200012         2.17251512E-11
   77.3850021         2.13415674E-11
   77.5500031         2.08796539E-11
   77.7149963         2.03416294E-11
   77.8799973         1.97244790E-11
   78.0449982         1.90241347E-11
   78.2099991         1.82394169E-11
   78.3750000         1.73730301E-11
   78.5400009         1.64294515E-11
   78.7050018         1.54114881E-11
   78.8700027         1.43185108E-11
   79.0350037         1.31479523E-11
   79.1999969         1.18991353E-11
   79.3649979         1.05769378E-11
   79.5299988         9.19234914E-12
   79.6949997         7.75922555E-12
   79.8600006         6.28898452E-12
   80.0250015         4.78657001E-12
   80.1900024         3.25033511E-12
   80.3550034         1.67598780E-12
   80.5199966         6.21104256E-14
   80.6849976        -1.58610755E-12
   80.8499985        -3.25707451E-12
   81.0149994        -4.93639331E-12
   81.1800003        -6.61123109E-12
   81.3450012        -8.27257100E-12
   81.5100021        -9.91403834E-12
   81.6750031        -1.15285437E-11
   81.8399963        -1.31054403E-11
   82.0049973        -1.46305051E-11
   82.1699982        -1.60889357E-11
   82.3349991        -1.74693471E-11
   82.5000000        -1.87659194E-11
   82.6650009        -1.99771484E-11
   82.8300018        -2.11018269E-11
   82.9950027        -2.21348044E-11
   83.1600037        -2.30651956E-11
   83.3249969        -2.38781148E-11
   83.4899979        -2.45588602E-11
   83.6549988        -2.50970633E-11
   83.8199997        -2.54885644E-11
   83.9850006        -2.57344389E-11
   84.1500015        -2.58383020E-11
   84.3150024        -2.58038868E-11
   84.4800034        -2.56341458E-11
   84.6449966        -2.53314834E-11
   84.8099976        -2.48982935E-11
   84.9749985        -2.43366265E-11
   85.1399994        -2.36469230E-11
   85.3050003        -2.28272384E-11
   85.4700012        -2.18737511E-11
   85.6350021        -2.07831877E-11
   85.8000031        -1.95560408E-11
   85.9649963        -1.81986266E-11
   86.1299973        -1.67228210E-11
   86.2949982        -1.51433917E-11
   86.4599991        -1.34744594E-11
   86.6250000        -1.17269380E-11
   86.7900009        -9.90800324E-12
   86.9550018        -8.02228162E-12
   87.1200027        -6.07348677E-12
   87.2850037        -4.06544503E-12
   87.4499969        -2.00220027E-12
   87.6149979         1.11880401E-13
   87.7799988         2.27109217E-12
   87.9449997         4.46642376E-12
   88.1100006         6.68377246E-12
   88.2750015         8.90394269E-12
   88.4400024         1.11051932E-11
   88.6050034         1.32673811E-11
   88.7699966         1.53755238E-11
   88.9349976         1.74206222E-11
   89.0999985         1.93970968E-11
   89.2649994         2.12983953E-11
   89.4300003         2.31134972E-11
   89.5950012         2.48265731E-11
   89.7600021         2.64199999E-11
   89.9250031         2.78785484E-11
   90.0899963         2.91918920E-11
   90.2549973         3.03537369E-11
   90.4199982         3.13582008E-11
   90.5849991         3.21962214E-11
   90.7500000         3.28544414E-11
   90.9150009         3.33177999E-11
   91.0800018         3.35740706E-11
   91.2450027         3.36174075E-11
   91.4100037         3.34483830E-11
   91.5749969         3.30705810E-11
   91.7399979         3.24858751E-11
   91.9049988         3.16919511E-11
   92.0699997         3.06835460E-11
   92.2350006         2.94568606E-11
   92.4000015         2.80140338E-11
   92.5650024         2.63647767E-11
   92.7300034         2.45241535E-11
   92.8949966         2.25081273E-11
   93.0599976         2.03299599E-11
   93.2249985         1.80000511E-11
   93.3899994         1.55292081E-11
   93.5550003         1.29329308E-11
   93.7200012         1.02334547E-11
   93.8850021         7.45770199E-12
   94.0500031         4.63213409E-12
   94.2149963         1.77759120E-12
   94.3799973        -1.09269169E-12
   94.5449982        -3.97067232E-12
   94.7099991        -6.84819259E-12
   94.8750000        -9.71197341E-12
   95.0400009        -1.25417376E-11
   95.2050018        -1.53122012E-11
   95.3700027        -1.79971992E-11
   95.5350037        -2.05731977E-11
   95.6999969        -2.30202229E-11
   95.8649979        -2.53203031E-11
   96.0299988        -2.74553973E-11
   96.1949997        -2.94067687E-11
   96.3600006        -3.11568028E-11
   96.5250015        -3.26922621E-11
   96.6900024        -3.40067904E-11
   96.8550034        -3.51009985E-11
   97.0199966        -3.59798337E-11
   97.1849976        -3.66486806E-11
   97.3499985        -3.71104120E-11
   97.5149994        -3.73646114E-11
   97.6800003        -3.74091487E-11
   97.8450012        -3.72426950E-11
   98.0100021        -3.68666798E-11
   98.1750031        -3.62858493E-11
   98.3399963        -3.55074754E-11
   98.5049973        -3.45402387E-11
   98.6699982        -3.33932465E-11
   98.8349991        -3.20758003E-11
   99.0000000        -3.05972539E-11
   99.1650009        -2.89667092E-11
   99.3300018        -2.71924445E-11
   99.4950027        -2.52813465E-11
   99.6600037        -2.32388119E-11
   99.8249969        -2.10691551E-11
   99.9899979        -1.87763711E-11
   100.154999        -1.63649042E-11
   100.320000        -1.38403091E-11
   100.485001        -1.12099418E-11
   100.650002        -8.48382215E-12
   100.815002        -5.67547268E-12
   100.980003        -2.80220443E-12
   101.144997         1.15854944E-13
   101.309998         3.05816960E-12
   101.474998         6.00689463E-12
   101.639999         8.94917213E-12
   101.805000         1.18772249E-11
   101.970001         1.47859468E-11
   102.135002         1.76689705E-11
   102.300003         2.05151538E-11
   102.464996         2.33069935E-11
   102.629997         2.60214870E-11
   102.794998         2.86325269E-11
   102.959999         3.11132474E-11
   103.125000         3.34372773E-11
   103.290001         3.55790085E-11
   103.455002         3.75139191E-11
   103.620003         3.92200647E-11
   103.785004         4.06806012E-11
   103.949997         4.18859322E-11
   104.114998         4.28337261E-11
   104.279999         4.35260022E-11
   104.445000         4.39641656E-11
   104.610001         4.41445318E-11
   104.775002         4.40568658E-11
   104.940002         4.36869742E-11
   105.105003         4.30220373E-11
   105.269997         4.20560149E-11
   105.434998         4.07920989E-11
   105.599998         3.92414885E-11
   105.764999         3.74196264E-11
   105.930000         3.53424026E-11
   106.095001         3.30244616E-11
   106.260002         3.04798131E-11
   106.425003         2.77234000E-11
   106.589996         2.47716864E-11
   106.754997         2.16413554E-11
   106.919998         1.83470652E-11
   107.084999         1.49002720E-11
   107.250000         1.13106980E-11
   107.415001         7.59040053E-12
   107.580002         3.75826627E-12
   107.745003        -1.57650341E-13
   107.910004        -4.12166872E-12
   108.074997        -8.09534991E-12
   108.239998        -1.20431139E-11
   108.404999        -1.59356868E-11
   108.570000        -1.97500124E-11
   108.735001        -2.34659566E-11
   108.900002        -2.70623125E-11
   109.065002        -3.05143688E-11
   109.230003        -3.37940544E-11
   109.394997        -3.68718320E-11
   109.559998        -3.97186277E-11
   109.724998        -4.23065090E-11
   109.889999        -4.46081470E-11
   110.055000        -4.65963067E-11
   110.220001        -4.82446583E-11
   110.385002        -4.95303971E-11
   110.550003        -5.04375812E-11
   110.714996        -5.09593548E-11
   110.879997        -5.10976296E-11
   111.044998        -5.08601286E-11
   111.209999        -5.02562922E-11
   111.375000        -4.92939127E-11
   111.540001        -4.79779237E-11
   111.705002        -4.63114408E-11
   111.870003        -4.42980687E-11
   112.035004        -4.19442502E-11
   112.199997        -3.92607648E-11
   112.364998        -3.62633638E-11
   112.529999        -3.29729473E-11
   112.695000        -2.94158170E-11
   112.860001        -2.56236473E-11
   113.025002        -2.16328119E-11
   113.190002        -1.74827930E-11
   113.355003        -1.32139577E-11
   113.519997        -8.86550208E-12
   113.684998        -4.47439785E-12
   113.849998        -7.54569137E-14
   114.014999         4.29761868E-12
   114.180000         8.61103897E-12
   114.345001         1.28301267E-11
   114.510002         1.69192022E-11
   114.675003         2.08416912E-11
   114.839996         2.45601196E-11
   115.004997         2.80362573E-11
   115.169998         3.12316110E-11
   115.334999         3.41091738E-11
   115.500000         3.66359304E-11
   115.665001         3.87856622E-11
   115.830002         4.05405119E-11
   115.995003         4.18908658E-11
   116.160004         4.28335180E-11
   116.324997         4.33692735E-11
   116.489998         4.35012963E-11
   116.654999         4.32349850E-11
   116.820000         4.25790618E-11
   116.985001         4.15468354E-11
   117.150002         4.01565378E-11
   117.315002         3.84306510E-11
   117.480003         3.63949010E-11
   117.644997         3.40780355E-11
   117.809998         3.15128097E-11
   117.974998         2.87375089E-11
   118.139999         2.57966547E-11
   118.305000         2.27395568E-11
   118.470001         1.96166625E-11
   118.635002         1.64749412E-11
   118.800003         1.33543090E-11
   118.964996         1.02867983E-11
   119.129997         7.29849948E-12
   119.294998         4.41291404E-12
   119.459999         1.65381044E-12
   119.625000        -9.53797588E-13
   119.790001        -3.38439715E-12
   119.955002        -5.61368009E-12
   120.120003        -7.61943720E-12
   120.285004        -9.38167599E-12
   120.449997        -1.08822430E-11
   120.614998        -1.21053115E-11
   120.779999        -1.30394515E-11
   120.945000        -1.36804465E-11
   121.110001        -1.40335391E-11
   121.275002        -1.41133858E-11
   121.440002        -1.39413090E-11
   121.605003        -1.35408525E-11
   121.769997        -1.29336862E-11
   121.934998        -1.21378550E-11
   122.099998        -1.11689278E-11
   122.264999        -1.00431391E-11
   122.430000        -8.78070446E-12
   122.595001        -7.40763527E-12
   122.760002        -5.95572203E-12
   122.925003        -4.46116928E-12
   123.089996        -2.96308963E-12
   123.254997        -1.50234805E-12
   123.419998        -1.20615527E-13
   123.584999         1.14102033E-12
   123.750000         2.24427118E-12
   123.915001         3.15640222E-12
   124.080002         3.85236504E-12
   124.245003         4.31519750E-12
   124.410004         4.53422586E-12
   124.574997         4.50200511E-12
   124.739998         4.21127499E-12
   124.904999         3.65367328E-12
   125.070000         2.82049666E-12
   125.235001         1.70496549E-12
   125.400002         3.04974172E-13
   125.565002        -1.37483265E-12
   125.730003        -3.32212166E-12
   125.894997        -5.51662925E-12
   126.059998        -7.93041414E-12
   126.224998        -1.05281443E-11
   126.389999        -1.32677697E-11
   126.555000        -1.61020104E-11
   126.720001        -1.89806365E-11
   126.885002        -2.18530836E-11
   127.050003        -2.46705746E-11
   127.214996        -2.73869625E-11
   127.379997        -2.99581332E-11
   127.544998        -3.23406198E-11
   127.709999        -3.44901954E-11
   127.875000        -3.63613376E-11
   128.039993        -3.79077048E-11
   128.205002        -3.90834691E-11
   128.369995        -3.98450509E-11
   128.535004        -4.01529643E-11
   128.699997        -3.99738506E-11
   128.865005        -3.92826570E-11
   129.029999        -3.80647111E-11
   129.195007        -3.63171784E-11
   129.360001        -3.40492252E-11
   129.524994        -3.12808078E-11
   129.690002        -2.80403877E-11
   129.854996        -2.43624929E-11
   130.020004        -2.02860020E-11
   130.184998        -1.58534765E-11
   130.350006        -1.11113280E-11
   130.514999        -6.10990815E-12
   130.679993        -9.03165834E-13
   130.845001         4.45223719E-12
   131.009995         9.89773975E-12
   131.175003         1.53730934E-11
   131.339996         2.08159358E-11
   131.505005         2.61613353E-11
   131.669998         3.13422066E-11
   131.835007         3.62911784E-11
   132.000000         4.09437172E-11
   132.164993         4.52413350E-11
   132.330002         4.91336902E-11
   132.494995         5.25787955E-11
   132.660004         5.55416685E-11
   132.824997         5.79925864E-11
   132.990005         5.99060801E-11
   133.154999         6.12611559E-11
   133.320007         6.20423851E-11
   133.485001         6.22408236E-11