 0.   1.044406348E-17
 0.169376865   -1.471362366E-13
 0.33875373   -3.861938438E-13
 0.50813061   -6.2543254E-13
 0.67750746   -7.970510103E-13
 0.84688431   -9.003838799E-13
 1.01626122   -9.991768697E-13
 1.18563807   -1.175066446E-12
 1.35501492   -1.468867779E-12
 1.52439177   -1.849486059E-12
 1.69376862   -2.231612031E-12
 1.86314547   -2.530347026E-12
 2.03252244   -2.715867895E-12
 2.20189929   -2.831195348E-12
 2.37127614   -2.961125052E-12
 2.54065299   -3.173408368E-12
 2.71002984   -3.471869276E-12
 2.87940669   -3.792831934E-12
 3.04878354   -4.046817135E-12
 3.21816039   -4.177020708E-12
 3.38753724   -4.195173722E-12
 3.55691409   -4.171118746E-12
 3.72629094   -4.183890647E-12
 3.89566779   -4.267761058E-12
 4.06504488   -4.389356933E-12
 4.23442173   -4.470298264E-12
 4.40379858   -4.43900602E-12
 4.57317543   -4.27639868E-12
 4.74255228   -4.02548047E-12
 4.91192913   -3.759944613E-12
 5.08130598   -3.534342307E-12
 5.25068283   -3.34964413E-12
 5.42005968   -3.156264529E-12
 5.58943653   -2.890712626E-12
 5.75881338   -2.519941287E-12
 5.92819023   -2.06376344E-12
 6.09756708   -1.581803698E-12
 6.26694393   -1.1354935E-12
 6.43632078   -7.512075272E-13
 6.60569763   -4.081240012E-13
 6.77507448   -5.675249496E-14
 6.94445133   3.459907599E-13
 7.11382818   8.085461012E-13
 7.28320503   1.300162668E-12
 7.45258188   1.770381801E-12
 7.62195873   2.178033144E-12
 7.79133558   2.511189607E-12
 7.96071243   2.787418083E-12
 8.13008976   3.036874571E-12
 8.29946613   3.28048244E-12
 8.46884346   3.516362332E-12
 8.63821983   3.720895553E-12
 8.80759716   3.861704359E-12
 8.97697353   3.913989792E-12
 9.14635086   3.871481261E-12
 9.31572723   3.747287203E-12
 9.48510456   3.565213012E-12
 9.65448093   3.346131748E-12
 9.82385826   3.09586818E-12
 9.99323463   2.800586802E-12
 10.162612   2.432754952E-12
 10.3319883   1.96578062E-12
 10.5013657   1.390232113E-12
 10.670742   7.221668467E-13
 10.8401194   -2.924761992E-15
 11.0094957   -7.491174564E-13
 11.1788731   -1.501741006E-12
 11.3482494   -2.277850651E-12
 11.5176268   -3.116851395E-12
 11.6870031   -4.054952121E-12
 11.8563805   -5.098816334E-12
 12.0257568   -6.216284432E-12
 12.1951342   -7.352194374E-12
 12.3645105   -8.460660991E-12
 12.5338879   -9.532903113E-12
 12.7032642   -1.060104175E-11
 12.8726416   -1.171357195E-11
 13.0420179   -1.289776098E-11
 13.2113953   -1.413445663E-11
 13.3807716   -1.536371551E-11
 13.550149   -1.651909338E-11
 13.7195253   -1.756815526E-11
 13.8889027   -1.853125466E-11
 14.058279   -1.946462436E-11
 14.2276564   -2.041820012E-11
 14.3970327   -2.139656681E-11
 14.5664101   -2.235007665E-11
 14.7357864   -2.320300202E-11
 14.9051638   -2.390007289E-11
 15.0745401   -2.443970373E-11
 15.2439175   -2.487101324E-11
 15.4132938   -2.525655032E-11
 15.5826712   -2.562632051E-11
 15.7520475   -2.595473489E-11
 15.9214249   -2.617624346E-11
 16.0908012   -2.622865293E-11
 16.2601795   -2.609420492E-11
 16.4295559   -2.581027753E-11
 16.5989323   -2.544271217E-11
 16.7683086   -2.504045755E-11
 16.9376869   -2.460271917E-11
 17.1070633   -2.408073047E-11
 17.2764397   -2.341231375E-11
 17.445816   -2.256525869E-11
 17.6151943   -2.156026573E-11
 17.7845707   -2.045872152E-11
 17.9539471   -1.932453676E-11
 18.1233234   -1.818608979E-11
 18.2927017   -1.702315892E-11
 18.4620781   -1.578617098E-11
 18.6314545   -1.443354117E-11
 18.8008308   -1.296186162E-11
 18.9702091   -1.140980973E-11
 19.1395855   -9.834808315E-12
 19.3089619   -8.279145598E-12
 19.4783382   -6.747881767E-12
 19.6477165   -5.211919438E-12
 19.8170929   -3.632736906E-12
 19.9864693   -1.99185308E-12
 20.1558456   -3.061975586E-13
 20.3252239   1.379478563E-12
 20.4946003   3.017255933E-12
 20.6639767   4.581747742E-12
 20.833353   6.081117814E-12
 21.0027313   7.547381123E-12
 21.1721077   9.012564132E-12
 21.3414841   1.048536345E-11
 21.5108604   1.194214345E-11
 21.6802387   1.333737287E-11
 21.8496151   1.462713804E-11
 22.0189915   1.579178108E-11
 22.1883678   1.684422046E-11
 22.3577461   1.781898067E-11
 22.5271225   1.874850275E-11
 22.6964989   1.964109604E-11
 22.8658752   2.047429067E-11
 23.0352535   2.120819319E-11
 23.2046299   2.181096623E-11
 23.3740063   2.228035811E-11
 23.5433826   2.264672304E-11
 23.7127609   2.295438839E-11
 23.8821373   2.323239517E-11
 24.0515137   2.347349051E-11
 24.22089   2.363591441E-11
 24.3902683   2.366801199E-11
 24.5596447   2.354047339E-11
 24.7290211   2.326494379E-11
 24.8983994   2.288607498E-11
 25.0677757   2.245148685E-11
 25.2371521   2.197934369E-11
 25.4065285   2.144565948E-11
 25.5759068   2.080051756E-11
 25.7452831   2.000276507E-11
 25.9146595   1.904965768E-11
 26.0840359   1.798092751E-11
 26.2534142   1.685406155E-11
 26.4227905   1.570741454E-11
 26.5921669   1.45364441E-11
 26.7615433   1.329962269E-11
 26.9309216   1.19500668E-11
 27.1002979   1.047115086E-11
 27.2696743   8.891523802E-12
 27.4390507   7.269259847E-12
 27.608429   5.65629401E-12
 27.7778053   4.06779211E-12
 27.9471817   2.477355343E-12
 28.1165581   8.407969958E-13
 28.2859364   -8.684465365E-13
 28.4553127   -2.636757349E-12
 28.6246891   -4.415561233E-12
 28.7940655   -6.149704444E-12
 28.9634438   -7.808705939E-12
 29.1328201   -9.399570532E-12
 29.3021965   -1.095354103E-11
 29.4715729   -1.24973738E-11
 29.6409512   -1.402962642E-11
 29.8103275   -1.551767222E-11
 29.9797039   -1.691603108E-11
 30.1490803   -1.81920954E-11
 30.3184586   -1.934146593E-11
 30.4878349   -2.038366004E-11
 30.6572113   -2.134303671E-11
 30.8265877   -2.222908316E-11
 30.995966   -2.302903875E-11
 31.1653423   -2.37159372E-11
 31.3347187   -2.426463197E-11
 31.5040951   -2.466436257E-11
 31.6734734   -2.492065582E-11
 31.8428497   -2.504760115E-11
 32.0122261   -2.505735203E-11
 32.1816025   -2.495375608E-11
 32.3509789   -2.473234811E-11
 32.520359   -2.438426717E-11
 32.6897354   -2.39002932E-11
 32.8591118   -2.327327567E-11
 33.0284882   -2.249969655E-11
 33.1978645   -2.158131139E-11
 33.3672409   -2.052589348E-11
 33.5366173   -1.934488333E-11
 33.7059937   -1.804729977E-11
 33.8753738   -1.663302829E-11
 34.0447502   -1.509102739E-11
 34.2141266   -1.340600287E-11
 34.383503   -1.157105054E-11
 34.5528793   -9.597960447E-12
 34.7222557   -7.516433656E-12
 34.8916321   -5.360249137E-12
 35.0610085   -3.148322531E-12
 35.2303886   -8.740485007E-13
 35.399765   1.487787432E-12
 35.5691414   3.959274748E-12
 35.7385178   6.537030899E-12
 35.9078941   9.185558564E-12
 36.0772705   1.185267683E-11
 36.2466469   1.449767823E-11
 36.4160233   1.711270708E-11
 36.5854034   1.97213218E-11
 36.7547798   2.235380284E-11
 36.9241562   2.501590254E-11
 37.0935326   2.767359605E-11
 37.2629089   3.026594947E-11
 37.4322853   3.273826349E-11
 37.6016617   3.507246923E-11
 37.7710381   3.729265508E-11
 37.9404182   3.944073887E-11
 38.1097946   4.153871344E-11
 38.279171   4.356405861E-11
 38.4485474   4.545638171E-11
 38.6179237   4.715121002E-11
 38.7873001   4.861740524E-11
 38.9566765   4.987163807E-11
 39.1260529   5.095945541E-11
 39.295433   5.191638092E-11
 39.4648094   5.273669348E-11
 39.6341858   5.337218167E-11
 39.8035622   5.376166179E-11
 39.9729385   5.38700265E-11
 40.1423149   5.370894701E-11
 40.3116913   5.332467801E-11
 40.4810715   5.276214188E-11
 40.6504478   5.203132716E-11
 40.8198242   5.110005474E-11
 40.9892006   4.991770539E-11
 41.158577   4.845246079E-11
 41.3279533   4.671514564E-11
 41.4973297   4.475323584E-11
 41.6667061   4.262022332E-11
 41.8360863   4.034310386E-11
 42.0054626   3.7911254E-11
 42.174839   3.529374709E-11
 42.3442154   3.247130689E-11
 42.5135918   2.945904631E-11
 42.6829681   2.630387401E-11
 42.8523445   2.305942763E-11
 43.0217209   1.975778915E-11
 43.1911011   1.639867582E-11
 43.3604774   1.296313577E-11
 43.5298538   9.440608885E-12
 43.6992302   5.848792804E-12
 43.8686066   2.2320314E-12
 44.0379829   -1.359553312E-12
 44.2073593   -4.893790668E-12
 44.3767357   -8.365245129E-12
 44.5461159   -1.17832983E-11
 44.7154922   -1.514960553E-11
 44.8848686   -1.844256518E-11
 45.054245   -2.16203843E-11
 45.2236214   -2.463974164E-11
 45.3929977   -2.747529808E-11
 45.5623741   -3.012517666E-11
 45.7317505   -3.259879519E-11
 45.9011307   -3.489714767E-11
 46.070507   -3.700126316E-11
 46.2398834   -3.887787314E-11
 46.4092598   -4.049754976E-11
 46.5786362   -4.185091509E-11
 46.7480125   -4.294994915E-11
 46.9173889   -4.381320654E-11
 47.0867653   -4.444622795E-11
 47.2561455   -4.483230107E-11
 47.4255219   -4.494082884E-11
 47.5948982   -4.474699083E-11
 47.7642746   -4.424772354E-11
 47.933651   -4.346188687E-11
 48.1030273   -4.241444695E-11
 48.2724037   -4.111699869E-11
 48.4417801   -3.955961947E-11
 48.6111603   -3.772051074E-11
 48.7805367   -3.558623188E-11
 48.949913   -3.316712877E-11
 49.1192894   -3.049626177E-11
 49.2886658   -2.761243664E-11
 49.4580421   -2.454005922E-11
 49.6274185   -2.128070636E-11
 49.7967987   -1.782262012E-11
 49.9661751   -1.416065702E-11
 50.1355515   -1.031152594E-11
 50.3049278   -6.312915468E-12
 50.4743042   -2.207382714E-12
 50.6436806   1.976630014E-12
 50.8130569   6.232306771E-12
 50.9824333   1.056504623E-11
 51.1518135   1.497348946E-11
 51.3211899   1.943550529E-11
 51.4905663   2.390965204E-11
 51.6599426   2.835081302E-11
 51.829319   3.272801474E-11
 51.9986954   3.703112122E-11
 52.1680717   4.126167463E-11
 52.3374481   4.541547693E-11
 52.5068283   4.947035837E-11
 52.6762047   5.338840134E-11
 52.8455811   5.713057458E-11
 53.0149574   6.067221031E-11
 53.1843338   6.400747987E-11
 53.3537102   6.713951617E-11
 53.5230865   7.006435015E-11
 53.6924629   7.276109576E-11
 53.8618431   7.519621037E-11
 54.0312195   7.733830243E-11
 54.2005959   7.9171808E-11
 54.3699722   8.069873936E-11
 54.5393486   8.19272844E-11
 54.708725   8.285611086E-11
 54.8781013   8.346684455E-11
 55.0474777   8.373078619E-11
 55.2168579   8.362487092E-11
 55.3862343   8.314451905E-11
 55.5556107   8.230331E-11
 55.724987   8.111959715E-11
 55.8943634   7.960042347E-11
 56.0637398   7.773551247E-11
 56.2331161   7.550632342E-11
 56.4024925   7.290355819E-11
 56.5718727   6.993981089E-11
 56.7412491   6.664729185E-11
 56.9106255   6.306194456E-11
 57.0800018   5.920561263E-11
 57.2493782   5.507974285E-11
 57.4187546   5.067550199E-11
 57.588131   4.599286924E-11
 57.7575111   4.105433701E-11
 57.9268875   3.59028085E-11
 58.0962639   3.058521492E-11
 58.2656403   2.513411874E-11
 58.4350166   1.95613057E-11
 58.604393   1.386824249E-11
 58.7737694   8.065573383E-12
 58.9431458   2.186956779E-12
 59.1125259   -3.713418462E-12
 59.2819023   -9.578143834E-12
 59.4512787   -1.536620657E-11
 59.6206551   -2.106064108E-11
 59.7900314   -2.665885915E-11
 59.9594078   -3.215307187E-11
 60.1287842   -3.751540745E-11
 60.2981606   -4.269853568E-11
 60.4675407   -4.765093181E-11
 60.6369171   -5.233505643E-11
 60.8062935   -5.673496742E-11
 60.9756699   -6.084802801E-11
 61.1450462   -6.46673895E-11
 61.3144226   -6.816864434E-11
 61.483799   -7.131054774E-11
 61.6531754   -7.404907243E-11
 61.8225555   -7.63541036E-11
 61.9919319   -7.821653741E-11
 62.1613083   -7.964122417E-11
 62.3306847   -8.063177209E-11
 62.500061   -8.117907735E-11
 62.6694374   -8.126187223E-11
 62.8388138   -8.085836861E-11
 63.0081902   -7.995945572E-11
 63.1775703   -7.85735782E-11
 63.3469467   -7.672002617E-11
 63.5163231   -7.441673666E-11
 63.6856995   -7.167221677E-11
 63.8550758   -6.84877155E-11
 64.0244522   -6.486702148E-11
 64.1938324   -6.082541415E-11
 64.363205   -5.639039929E-11
 64.5325851   -5.159372582E-11
 64.7019577   -4.646132784E-11
 64.8713379   -4.100963319E-11
 65.0407181   -3.525123943E-11
 65.2100906   -2.92053326E-11
 65.3794708   -2.290418376E-11
 65.5488434   -1.639035956E-11
 65.7182236   -9.706897612E-12
 65.8875961   -2.888740462E-12
 66.0569763   4.037241028E-12
 66.2263489   1.10433572E-11
 66.3957291   1.809063663E-11
 66.5651093   2.512588401E-11
 66.7344818   3.208958793E-11
 66.903862   3.892923831E-11
 67.0732346   4.560754205E-11
 67.2426147   5.209858239E-11
 67.4119873   5.837434008E-11
 67.5813675   6.439213746E-11
 67.7507477   7.009372249E-11
 67.9201202   7.541812314E-11
 68.0895004   8.03194386E-11
 68.258873   8.477608893E-11
 68.4282532   8.87838969E-11
 68.5976257   9.233736692E-11
 68.7670059   9.541308021E-11
 68.9363785   9.796836953E-11
 69.1057587   9.995727163E-11
 69.2751389   1.013525236E-10
 69.4445114   1.021570745E-10
 69.6138916   1.023956753E-10
 69.7832642   1.020919183E-10
 69.9526443   1.012475381E-10
 70.1220169   9.983977534E-11
 70.2913971   9.783977795E-11
 70.4607773   9.523910827E-11
 70.6301498   9.206495982E-11
 70.79953   8.83723511E-11
 70.9689026   8.421830594E-11
 71.1382828   7.963665144E-11
 71.3076553   7.463198809E-11
 71.4770355   6.919755047E-11
 71.6464081   6.334405223E-11
 71.8157883   5.711793538E-11
 71.9851685   5.059515307E-11
 72.154541   4.385419458E-11
 72.3239212   3.694764633E-11
 72.4932938   2.989288331E-11
 72.662674   2.268891325E-11
 72.8320465   1.534709859E-11
 73.0014267   7.913485839E-12
 73.1708069   4.663074939E-13
 73.3401794   -6.909698941E-12
 73.5095596   -1.415373894E-11
 73.6789322   -2.124242796E-11
 73.8483124   -2.817692087E-11
 74.0176849   -3.495352965E-11
 74.1870651   -4.153933794E-11
 74.3564453   -4.787043678E-11
 74.5258179   -5.387377003E-11
 74.6951981   -5.949652576E-11
 74.8645706   -6.472204717E-11
 75.0339508   -6.956124565E-11
 75.2033234   -7.402655572E-11
 75.3727036   -7.810751351E-11
 75.5420761   -8.176522653E-11
 75.7114563   -8.494900616E-11
 75.8808365   -8.762241627E-11
 76.050209   -8.978004451E-11
 76.2195892   -9.144383861E-11
 76.3889618   -9.264284478E-11
 76.558342   -9.339143348E-11
 76.7277145   -9.368129883E-11
 76.8970947   -9.349149233E-11
 77.0664749   -9.280778923E-11
 77.2358475   -9.16368717E-11
 77.4052277   -9.000617612E-11
 77.5746002   -8.795088963E-11
 77.7439804   -8.549895514E-11
 77.913353   -8.26646876E-11
 78.0827332   -7.94542418E-11
 78.2521057   -7.587741546E-11
 78.4214859   -7.195630897E-11
 78.5908661   -6.77252629E-11
 78.7602386   -6.322366936E-11
 78.9296188   -5.848804774E-11
 79.0989914   -5.354912694E-11
 79.2683716   -4.843433987E-11
 79.4377441   -4.317185151E-11
 79.6071243   -3.779182522E-11
 79.7765045   -3.232451112E-11
 79.9458771   -2.679827887E-11
 80.1152573   -2.124083721E-11
 80.2846298   -1.568338341E-11
 80.45401   -1.016348464E-11
 80.6233826   -4.722525322E-12
 80.7927628   6.021721208E-13
 80.9621429   5.785024803E-12
 81.1315155   1.081265546E-11
 81.3008957   1.567493531E-11
 81.4702682   2.035204817E-11
 81.6396484   2.48076594E-11
 81.809021   2.899505636E-11
 81.9784012   3.287380784E-11
 82.1477737   3.642569579E-11
 82.3171539   3.965766604E-11
 82.4865341   4.258808584E-11
 82.6559067   4.522497307E-11
 82.8252869   4.755188951E-11
 82.9946594   4.953286392E-11
 83.1640396   5.11342392E-11
 83.3334122   5.234841727E-11
 83.5027924   5.320190469E-11
 83.6721725   5.374045306E-11
 83.8415451   5.400064423E-11
 84.0109253   5.398780728E-11
 84.1802979   5.367651462E-11
 84.349678   5.303412223E-11
 84.5190506   5.205113077E-11
 84.6884308   5.075649623E-11
 84.8578033   4.920632998E-11
 85.0271835   4.745353416E-11
 85.1965637   4.551985525E-11
 85.3659363   4.339060361E-11
 85.5353165   4.103626813E-11
 85.704689   3.844588189E-11
 85.8740692   3.564824477E-11
 86.0434418   3.270560558E-11
 86.212822   2.968384913E-11
 86.3822021   2.662006206E-11
 86.5515747   2.351011226E-11
 86.7209549   2.032452678E-11
 86.8903275   1.704091208E-11
 87.0597076   1.366957502E-11
 87.2290802   1.025450645E-11
 87.3984604   6.84974473E-12
 87.5678329   3.488674627E-12
 87.7372131   1.683197852E-13
 87.9065933   -3.140608216E-12
 88.0759659   -6.465782337E-12
 88.2453461   -9.807750098E-12
 88.4147186   -1.313478579E-11
 88.5840988   -1.640082167E-11
 88.7534714   -1.957283294E-11
 88.9228516   -2.264795643E-11
 89.0922318   -2.564892049E-11
 89.2616043   -2.860220567E-11
 89.4309845   -3.151521752E-11
 89.6003571   -3.436832416E-11
 89.7697372   -3.712604529E-11
 89.9391098   -3.975794E-11
 90.10849   -4.225370401E-11
 90.2778702   -4.462251749E-11
 90.4472427   -4.687878211E-11
 90.6166229   -4.902601589E-11
 90.7859955   -5.105068104E-11
 90.9553757   -5.292931718E-11
 91.1247482   -5.464220743E-11
 91.2941284   -5.618280494E-11
 91.463501   -5.755638327E-11
 91.6328812   -5.877037051E-11
 91.8022614   -5.982469381E-11
 91.9716339   -6.070962483E-11
 92.1410141   -6.141192416E-11
 92.3103867   -6.192326513E-11
 92.4797668   -6.224397386E-11
 92.6491394   -6.23794072E-11
 92.8185196   -6.233319416E-11
 92.9878998   -6.210373882E-11
 93.1572723   -6.168761335E-11
 93.3266525   -6.108681616E-11
 93.4960251   -6.031313643E-11
 93.6654053   -5.938495529E-11
 93.8347778   -5.831797545E-11
 94.004158   -5.711707843E-11
 94.1735306   -5.577619616E-11
 94.3429108   -5.428725178E-11
 94.512291   -5.265169897E-11
 94.6816635   -5.088561864E-11
 94.8510437   -4.9013682E-11
 95.0204163   -4.705603962E-11
 95.1897964   -4.501816628E-11
 95.359169   -4.289195735E-11
 95.5285492   -4.066818063E-11
 95.6979294   -3.835150253E-11
 95.8673019   -3.596643469E-11
 96.0366821   -3.35489761E-11
 96.2060547   -3.11291895E-11
 96.3754349   -2.871721437E-11
 96.5448074   -2.630336227E-11
 96.7141876   -2.387282559E-11
 96.8835602   -2.142471964E-11
 97.0529404   -1.898156979E-11
 97.2223206   -1.658191293E-11
 97.3916931   -1.426086332E-11
 97.5610733   -1.203240285E-11
 97.7304459   -9.886176079E-12
 97.899826   -7.801179841E-12
 98.0691986   -5.766450251E-12
 98.2385788   -3.793622968E-12
 98.407959   -1.912054499E-12
 98.5773315   -1.498847839E-13
 98.7467117   1.485281191E-12
 98.9160843   3.012024657E-12
 99.0854645   4.462761324E-12
 99.254837   5.862042622E-12
 99.4242172   7.210795329E-12
 99.5935974   8.487583032E-12
 99.76297   9.665713542E-12
 99.9323502   1.073382789E-11
 100.101723   1.170534069E-11
 100.271103   1.261038236E-11
 100.440475   1.347645086E-11
 100.609856   1.431189282E-11
 100.779228   1.510387995E-11
 100.948608   1.583181503E-11
 101.117989   1.648615619E-11
 101.287361   1.707898233E-11
 101.456741   1.763883831E-11
 101.626114   1.819384227E-11
 101.795494   1.87552144E-11
 101.964867   1.931261401E-11
 102.134247   1.984417838E-11
 102.303627   2.033353173E-11
 102.473   2.078170622E-11
 102.64238   2.120600917E-11
 102.811752   2.162726769E-11
 102.981133   2.205486835E-11
 103.150505   2.247989121E-11
 103.319885   2.288034345E-11
 103.489258   2.323404837E-11
 103.658638   2.35299228E-11
 103.828018   2.377037976E-11
 103.997391   2.396434787E-11
 104.166771   2.4116752E-11
 104.336143   2.422191267E-11
 104.505524   2.426468575E-11
 104.674896   2.422737011E-11
 104.844276   2.409682523E-11
 105.013657   2.386696743E-11
 105.183029   2.353582607E-11
 105.352409   2.31000219E-11
 105.521782   2.255079283E-11
 105.691162   2.187357066E-11
 105.860535   2.10504756E-11
 106.029915   2.006349774E-11
 106.199295   1.889682681E-11
 106.368668   1.753817751E-11
 106.538048   1.597975918E-11
 106.70742   1.421877806E-11
 106.876801   1.225652479E-11
 107.046173   1.009520419E-11
 107.215553   7.733513482E-12
 107.384926   5.163788667E-12
 107.554306   2.373616494E-12
 107.723686   -6.478284163E-13
 107.893059   -3.902313802E-12
 108.062439   -7.37935494E-12
 108.231812   -1.106044856E-11
 108.401192   -1.492874574E-11
 108.570564   -1.897752962E-11
 108.739944   -2.32107146E-11
 108.909325   -2.763381364E-11
 109.078697   -3.224089398E-11
 109.248077   -3.700698775E-11
 109.41745   -4.189252764E-11
 109.58683   -4.685811114E-11
 109.756203   -5.18798407E-11
 109.925583   -5.695385483E-11
 110.094955   -6.208555198E-11
 110.264336   -6.726969676E-11
 110.433716   -7.247486639E-11
 110.603088   -7.764379417E-11
 110.772469   -8.271031776E-11
 110.941841   -8.762197218E-11
 111.111221   -9.235249371E-11
 111.280594   -9.689486713E-11
 111.449974   -1.012392739E-10
 111.619354   -1.053512277E-10
 111.788727   -1.091661206E-10
 111.958107   -1.126048768E-10
 112.12748   -1.15600883E-10
 112.29686   -1.181193338E-10
 112.466232   -1.201551358E-10
 112.635612   -1.21710253E-10
 112.804985   -1.227660196E-10
 112.974365   -1.232702551E-10
 113.143745   -1.231488661E-10
 113.313118   -1.223345869E-10
 113.482498   -1.207933337E-10
 113.651871   -1.185297416E-10
 113.821251   -1.155681037E-10
 113.990623   -1.119223325E-10
 114.160004   -1.075761008E-10
 114.329384   -1.024877544E-10
 114.498756   -9.661664524E-11
 114.668137   -8.995267031E-11
 114.837509   -8.252824119E-11
 115.006889   -7.440445482E-11
 115.176262   -6.564124938E-11
 115.345642   -5.627275729E-11
 115.515022   -4.630515416E-11
 115.684395   -3.573823529E-11
 115.853775   -2.459530149E-11
 116.023148   -1.294010905E-11
 116.192528   -8.691338122E-13
 116.3619   1.151525576E-11
 116.531281   2.413166715E-11
 116.700653   3.692806824E-11
 116.870033   4.986663166E-11
 117.039413   6.289662541E-11
 117.208786   7.593512624E-11
 117.378166   8.886913427E-11
 117.547539   1.015773229E-10
 117.716919   1.139556921E-10
 117.886292   1.259294474E-10
 118.055672   1.374436676E-10
 118.225052   1.484408291E-10
 118.394424   1.588418286E-10
 118.563805   1.6854447E-10
 118.733177   1.7743991E-10
 118.902557   1.854350284E-10
 119.07193   1.924651549E-10
 119.24131   1.98489114E-10
 119.410683   2.034716701E-10
 119.580063   2.073672623E-10
 119.749443   2.101168545E-10
 119.918816   2.116598979E-10
 120.088196   2.119519837E-10
 120.257568   2.109756397E-10
 120.426949   2.087369028E-10
 120.596321   2.05251538E-10
 120.765701   2.005318134E-10
 120.935081   1.945833633E-10
 121.104454   1.874137651E-10
 121.273834   1.790454729E-10
 121.443207   1.695227569E-10
 121.612587   1.589077064E-10
 121.78196   1.472685585E-10
 121.95134   1.346694839E-10
 122.12072   1.211690609E-10
 122.290092   1.068275537E-10
 122.459473   9.171644694E-11
 122.628845   7.592207418E-11
 122.798225   5.954024079E-11
 122.967598   4.266618656E-11
 123.136978   2.538772838E-11
 123.306351   7.786830208E-12
 123.475731   -1.005201131E-11
 123.645111   -2.80337524E-11
 123.814484   -4.605201637E-11
 123.983864   -6.399673153E-11
 124.153236   -8.176453264E-11
 124.322617   -9.926400674E-11
 124.491989   -1.164118316E-10
 124.661369   -1.331230404E-10
 124.83075   -1.493034307E-10
 125.000122   -1.648505915E-10
 125.169502   -1.796633953E-10
 125.338875   -1.936528299E-10
 125.508255   -2.067457594E-10
 125.677628   -2.18878457E-10
 125.847008   -2.299845037E-10
 126.01638   -2.39986836E-10
 126.18576   -2.488002859E-10
 126.355141   -2.563440848E-10
 126.524513   -2.625553941E-10
 126.693893   -2.673940513E-10
 126.863266   -2.708354097E-10
 127.032646   -2.728556825E-10
 127.202019   -2.734215077E-10
 127.371399   -2.72491002E-10
 127.540779   -2.700264734E-10
 127.710152   -2.660091591E-10
 127.879532   -2.604457483E-10
 128.048904   -2.533616372E-10
 128.218277   -2.447862468E-10
 128.387665   -2.347409767E-10
 128.557037   -2.232393298E-10
 128.72641   -2.102990421E-10
 128.895798   -1.959577639E-10
 129.06517   -1.802808874E-10
 129.234543   -1.633556901E-10
 129.403915   -1.452760967E-10
 129.573303   -1.261285382E-10
 129.742676   -1.059887803E-10
 129.912048   -8.493151321E-11
 130.081436   -6.30453606E-11
 130.250809   -4.044219473E-11
 130.420181   -1.725430909E-11
 130.589554   6.378278548E-12
 130.758942   3.03212247E-11
 130.928314   5.445070783E-11
 131.097687   7.864713047E-11
 131.267059   1.027831847E-10
 131.436447   1.267157074E-10
 131.60582   1.50287699E-10
 131.775192   1.733393568E-10
 131.94458   1.957209533E-10
 132.113953   2.172991648E-10
 132.283325   2.379542674E-10
 132.452698   2.575713254E-10
 132.622086   2.760330298E-10
 132.791458   2.932193377E-10
 132.960831   3.090138423E-10
 133.130219   3.233123491E-10
 133.299591   3.360278167E-10
 133.468964   3.47089274E-10
 133.638336   3.564370465E-10
 133.807724   3.6401826E-10
 133.977097   3.697862572E-10
 134.146469   3.737029852E-10
 134.315857   3.757422706E-10
 134.485229   3.758910128E-10
 134.654602   3.741479071E-10
 134.823975   3.705214746E-10
 134.993362   3.650292013E-10
 135.162735   3.576981489E-10
 135.332108   3.485654543E-10
 135.501495   3.376773305E-10
 135.670868   3.250867908E-10
 135.84024   3.108519275E-10
 136.009613   2.950368283E-10
 136.179001   2.777150454E-10
 136.348373   2.589725379E-10
 136.517746   2.389070608E-10
 136.687119   2.176225034E-10
 136.856506   1.952218803E-10
 137.025879   1.71803044E-10
 137.195251   1.474615013E-10
 137.364639   1.222981993E-10
 137.534012   9.642706078E-11
 137.703384   6.997580293E-11
 137.872757   4.307859625E-11
 138.042145   1.586520151E-11
 138.211517   -1.154585628E-11
 138.38089   -3.904456272E-11
 138.550278   -6.651887374E-11
 138.71965   -9.384409222E-11
 138.889023   -1.208806666E-10
 139.058395   -1.474829148E-10
 139.227783   -1.735131067E-10
 139.397156   -1.988508108E-10
 139.566528   -2.233902924E-10
 139.735916   -2.470272042E-10
 139.905289   -2.696444179E-10
 140.074661   -2.911070829E-10
 140.244034   -3.112720359E-10
 140.413422   -3.30004496E-10
 140.582794   -3.471909427E-10
 140.752167   -3.627386169E-10
 140.921555   -3.765623646E-10
 141.090927   -3.88568927E-10
 141.2603   -3.986507791E-10
 141.429672   -4.066952053E-10
 141.59906   -4.126026187E-10
 141.768433   -4.163012157E-10
 141.937805   -4.17747531E-10
 142.107193   -4.169127266E-10
 142.276566   -4.137651333E-10
 142.445938   -4.082625349E-10
 142.615311   -4.003608001E-10
 142.784698   -3.900330892E-10
 142.954071   -3.772861468E-10
 143.123444   -3.621620781E-10
 143.292816   -3.447248598E-10
 143.462204   -3.250414937E-10
 143.631577   -3.031725981E-10
 143.800949   -2.791791798E-10
 143.970337   -2.531412024E-10
 144.139709   -2.25173255E-10
 144.309082   -1.954263973E-10
 144.478455   -1.64073588E-10
 144.647842   -1.312894932E-10
 144.817215   -9.723894606E-11
 144.986588   -6.208172171E-11
 145.155975   -2.598920731E-11
 145.325348   1.084046134E-11
 145.49472   4.818096963E-11
 145.664093   8.579204014E-11
 145.833481   1.234395364E-10
 146.002853   1.609074818E-10
 146.172226   1.97994246E-10
 146.341614   2.344970051E-10
 146.510986   2.701976143E-10
 146.680359   3.048614416E-10
 146.849731   3.382509273E-10
 147.019119   3.701448592E-10
 147.188492   4.00349226E-10
 147.357864   4.286934141E-10
 147.527252   4.550152199E-10
 147.696625   4.791473884E-10
 147.865997   5.009167525E-10
 148.03537   5.201573616E-10
 148.204758   5.367279399E-10
 148.37413   5.505211287E-10
 148.543503   5.614588794E-10
 148.712891   5.694770766E-10
 148.882263   5.745129372E-10
 149.051636   5.765041222E-10
 149.221008   5.754007826E-10
 149.390396   5.711810469E-10
 149.559769   5.638579603E-10
 149.729141   5.534730452E-10
 149.898514   5.40081313E-10
 150.067902   5.237398293E-10
 150.237274   5.04508324E-10
 150.406647   4.824612931E-10
 150.576035   4.577015711E-10
 150.745407   4.303647161E-10
 150.91478   4.006095178E-10
 151.084152   3.686019545E-10
 151.25354   3.345037303E-10
 151.422913   2.984738567E-10
 151.592285   2.606813376E-10
 151.761673   2.21317964E-10
 151.931046   1.806007288E-10
 152.100418   1.387603504E-10
 152.269791   9.60245633E-11
 152.439178   5.260780353E-11
 152.608551   8.715296713E-12
 152.777924   -3.544211105E-11
 152.947311   -7.963409793E-11
 153.116684   -1.23609456E-10
 153.286057   -1.671091737E-10
 153.455429   -2.098851232E-10
 153.624817   -2.517108466E-10
 153.794189   -2.923769005E-10
 153.963562   -3.316747987E-10
 154.13295   -3.693823303E-10
 154.302322   -4.052625735E-10
 154.471695   -4.390780239E-10
 154.641068   -4.70610606E-10
 154.810455   -4.996731362E-10
 154.979828   -5.261046043E-10
 155.1492   -5.497531319E-10
 155.318588   -5.704610673E-10
 155.487961   -5.88064375E-10
 155.657333   -6.024082344E-10
 155.826706   -6.133690222E-10
 155.996094   -6.208663583E-10
 156.165466   -6.248577211E-10
 156.334839   -6.253191853E-10
 156.504211   -6.222274362E-10
 156.673599   -6.155559951E-10
 156.842972   -6.052894852E-10
 157.012344   -5.91444782E-10
 157.181732   -5.740848907E-10
 157.351105   -5.533143388E-10
 157.520477   -5.292600247E-10
 157.68985   -5.020521776E-10
 157.859238   -4.718184177E-10
 158.02861   -4.386953578E-10
 158.197983   -4.028488376E-10
 158.367371   -3.644865521E-10
 158.536743   -3.238536106E-10
 158.706116   -2.812129418E-10
 158.875488   -2.368242824E-10
 159.044876   -1.909356839E-10
 159.214249   -1.437922281E-10
 159.383621   -9.56541929E-11
 159.553009   -4.680968113E-11
 159.722382   2.428704156E-12
 159.891754   5.174191284E-11
 160.061127   1.008251538E-10
 160.230515   1.493977719E-10
 160.399887   1.971968006E-10
 160.56926   2.439608793E-10
 160.738647   2.894181006E-10
 160.90802   3.332875365E-10
 161.077393   3.752946565E-10
 161.246765   4.151894939E-10
 161.416153   4.527558051E-10
 161.585526   4.878054627E-10
 161.754898   5.201639119E-10
 161.924286   5.496579303E-10
 162.093658   5.761158772E-10
 162.263031   5.99379435E-10
 162.432404   6.19318985E-10
 162.601791   6.358407689E-10
 162.771164   6.488821147E-10
 162.940536   6.583986689E-10
 163.109909   6.643539607E-10
 163.279297   6.667191799E-10
 163.448669   6.654831686E-10
 163.618042   6.606640235E-10
 163.78743   6.523139806E-10
 163.956802   6.405131425E-10
 164.126175   6.253570994E-10
 164.295547   6.069474923E-10
 164.464935   5.853914575E-10
 164.634308   5.608100095E-10
 164.80368   5.333469222E-10
 164.973068   5.03171671E-10
 165.142441   4.704719947E-10
 165.311813   4.354425431E-10
 165.481186   3.982766617E-10
 165.650574   3.591669462E-10
 165.819946   3.183127095E-10
 165.989319   2.759277529E-10
 166.158707   2.322412956E-10
 166.328079   1.874908007E-10
 166.497452   1.419115381E-10
 166.666824   9.57304791E-11
 166.836212   4.916857893E-11
 167.005585   2.448971798E-12
 167.174957   -4.419603225E-11
 167.344345   -9.052525396E-11
 167.513718   -1.362966823E-10