  -1.50000000         0.00000000    
  -1.38499999        -1.25024158E-09
  -1.26999998        -5.26101473E-09
  -1.15499997        -1.50250070E-08
  -1.03999996        -3.63174166E-08
 -0.925000012        -7.95177826E-08
 -0.810000002        -1.61513725E-07
 -0.694999993        -3.06453586E-07
 -0.579999983        -5.43044507E-07
 -0.465000004        -8.95157370E-07
 -0.349999994        -1.36248320E-06
 -0.234999999        -1.88982369E-06
 -0.119999997        -2.32786283E-06
  -4.99999989E-03    -2.39450105E-06
  0.109999999        -1.65223219E-06
  0.224999994         4.79250957E-07
  0.340000004         4.65780568E-06
  0.455000013         1.14920576E-05
  0.569999993         2.13582844E-05
  0.685000002         3.41824307E-05
  0.800000012         4.92224171E-05
  0.915000021         6.48931236E-05
   1.02999997         7.86749661E-05
   1.14499998         8.71370139E-05
   1.25999999         8.60891887E-05
   1.37500000         7.08587249E-05
   1.49000001         3.66664681E-05
   1.60500002        -2.09371447E-05
   1.72000003        -1.05627310E-04
   1.83500004        -2.19905574E-04
   1.95000005        -3.64796491E-04
   2.06500006        -5.39679895E-04
   2.18000007        -7.42282195E-04
   2.29500008        -9.68830776E-04
   2.41000009        -1.21435418E-03
   2.52500010        -1.47309492E-03
   2.64000010        -1.73898332E-03
   2.75500011        -2.00611888E-03
   2.86999989        -2.26919912E-03
   2.98499990        -2.52384925E-03
   3.09999990        -2.76681245E-03
   3.21499991        -2.99598719E-03
   3.32999992        -3.21031082E-03
   3.44499993        -3.40951816E-03
   3.55999994        -3.59380990E-03
   3.67499995        -3.76349036E-03
   3.78999996        -3.91862681E-03
   3.90499997        -4.05878993E-03
   4.01999998        -4.18291008E-03
   4.13500023        -4.28928575E-03
   4.25000000        -4.37573902E-03
   4.36499977        -4.43990575E-03
   4.48000002        -4.47961967E-03
   4.59499979        -4.49334178E-03
   4.71000004        -4.48056730E-03
   4.82499981        -4.44215350E-03
   4.94000006        -4.38051345E-03
   5.05499983        -4.29964298E-03
   5.17000008        -4.20495402E-03
   5.28499985        -4.10293555E-03
   5.40000010        -4.00066050E-03
   5.51499987        -3.90520203E-03
   5.63000011        -3.82300955E-03
   5.74499989        -3.75932991E-03
   5.86000013        -3.71773029E-03
   5.97499990        -3.69978859E-03
   6.09000015        -3.70498281E-03
   6.20499992        -3.73079884E-03
   6.32000017        -3.77304177E-03
   6.43499994        -3.82631877E-03
   6.55000019        -3.88463377E-03
   6.66499996        -3.94202536E-03
   6.78000021        -3.99317266E-03
   6.89499998        -4.03390406E-03
   7.01000023        -4.06154105E-03
   7.12500000        -4.07505315E-03
   7.23999977        -4.07500798E-03
   7.35500002        -4.06332407E-03
   7.46999979        -4.04287828E-03
   7.58500004        -4.01700987E-03
   7.69999981        -3.98900267E-03
   7.81500006        -3.96160083E-03
   7.92999983        -3.93663626E-03
   8.04500008        -3.91480373E-03
   8.15999985        -3.89561709E-03
   8.27499962        -3.87754943E-03
   8.39000034        -3.85833532E-03
   8.50500011        -3.83538962E-03
   8.61999989        -3.80628905E-03
   8.73499966        -3.76924570E-03
   8.85000038        -3.72350751E-03
   8.96500015        -3.66962841E-03
   9.07999992        -3.60956788E-03
   9.19499969        -3.54660233E-03
   9.31000042        -3.48505285E-03
   9.42500019        -3.42986034E-03
   9.53999996        -3.38605884E-03
   9.65499973        -3.35820857E-03
   9.77000046        -3.34985880E-03
   9.88500023        -3.36310477E-03
   10.0000000        -3.39829409E-03
   10.1149998        -3.45391664E-03
   10.2299995        -3.52669158E-03
   10.3450003        -3.61184240E-03
   10.4600000        -3.70352622E-03
   10.5749998        -3.79536836E-03
   10.6899996        -3.88103910E-03
   10.8050003        -3.95481056E-03
   10.9200001        -4.01202962E-03
   11.0349998        -4.04946040E-03
   11.1499996        -4.06546285E-03
   11.2650003        -4.05999878E-03
   11.3800001        -4.03447496E-03
   11.4949999        -3.99144879E-03
   11.6099997        -3.93424928E-03
   11.7250004        -3.86655959E-03
   11.8400002        -3.79201770E-03
   11.9549999        -3.71388509E-03
   12.0699997        -3.63481813E-03
   12.1850004        -3.55676375E-03
   12.3000002        -3.48097971E-03
   12.4150000        -3.40816542E-03
   12.5299997        -3.33867176E-03
   12.6450005        -3.27274995E-03
   12.7600002        -3.21079651E-03
   12.8750000        -3.15355021E-03
   12.9899998        -3.10221175E-03
   13.1049995        -3.05846287E-03
   13.2200003        -3.02438042E-03
   13.3350000        -3.00225429E-03
   13.4499998        -2.99433735E-03
   13.5649996        -3.00255371E-03
   13.6800003        -3.02821305E-03
   13.7950001        -3.07176588E-03
   13.9099998        -3.13263456E-03
   14.0249996        -3.20914458E-03
   14.1400003        -3.29856784E-03
   14.2550001        -3.39727290E-03
   14.3699999        -3.50096705E-03
   14.4849997        -3.60500044E-03
   14.6000004        -3.70469713E-03
   14.7150002        -3.79567523E-03
   14.8299999        -3.87412403E-03
   14.9449997        -3.93700833E-03
   15.0600004        -3.98218492E-03
   15.1750002        -4.00843099E-03
   15.2900000        -4.01538843E-03
   15.4049997        -4.00344888E-03
   15.5200005        -3.97360092E-03
   15.6350002        -3.92727135E-03
   15.7500000        -3.86618264E-03
   15.8649998        -3.79225053E-03
   15.9799995        -3.70753207E-03
   16.0949993        -3.61422123E-03
   16.2099991        -3.51468660E-03
   16.3250008        -3.41153052E-03
   16.4400005        -3.30764637E-03
   16.5550003        -3.20624956E-03
   16.6700001        -3.11086071E-03
   16.7849998        -3.02522443E-03
   16.8999996        -2.95316242E-03
   17.0149994        -2.89836060E-03
   17.1299992        -2.86411610E-03
   17.2450008        -2.85306200E-03
   17.3600006        -2.86691077E-03
   17.4750004        -2.90624332E-03
   17.5900002        -2.97037978E-03
   17.7049999        -3.05735064E-03
   17.8199997        -3.16398125E-03
   17.9349995        -3.28608719E-03
   18.0499992        -3.41876037E-03
   18.1650009        -3.55672161E-03
   18.2800007        -3.69469728E-03
   18.3950005        -3.82778025E-03
   18.5100002        -3.95173673E-03
   18.6250000        -4.06322209E-03
   18.7399998        -4.15988732E-03
   18.8549995        -4.24036616E-03
   18.9699993        -4.30415198E-03
   19.0849991        -4.35139146E-03
   19.2000008        -4.38262057E-03
   19.3150005        -4.39849542E-03
   19.4300003        -4.39955015E-03
   19.5450001        -4.38602781E-03
   19.6599998        -4.35780967E-03
   19.7749996        -4.31445194E-03
   19.8899994        -4.25533485E-03
   20.0049992        -4.17989399E-03
   20.1200008        -4.08791145E-03
   20.2350006        -3.97980772E-03
   20.3500004        -3.85690527E-03
   20.4650002        -3.72159947E-03
   20.5799999        -3.57741653E-03
   20.6949997        -3.42892762E-03
   20.8099995        -3.28152115E-03
   20.9249992        -3.14104441E-03
   21.0400009        -3.01335496E-03
   21.1550007        -2.90382165E-03
   21.2700005        -2.81683728E-03
   21.3850002        -2.75539723E-03
   21.5000000        -2.72079743E-03
   21.6149998        -2.71249120E-03
   21.7299995        -2.72812275E-03
   21.8449993        -2.76374281E-03
   21.9599991        -2.81418371E-03
   22.0750008        -2.87355087E-03
   22.1900005        -2.93577951E-03
   22.3050003        -2.99519347E-03
   22.4200001        -3.04700015E-03
   22.5349998        -3.08767078E-03
   22.6499996        -3.11516225E-03
   22.7649994        -3.12896329E-03
   22.8799992        -3.12996190E-03
   22.9950008        -3.12016183E-03
   23.1100006        -3.10228998E-03
   23.2250004        -3.07934545E-03
   23.3400002        -3.05415574E-03
   23.4549999        -3.02899699E-03
   23.5699997        -3.00532742E-03
   23.6849995        -2.98366370E-03
   23.7999992        -2.96361861E-03
   23.9150009        -2.94408412E-03
   24.0300007        -2.92353635E-03
   24.1450005        -2.90041394E-03
   24.2600002        -2.87351175E-03
   24.3750000        -2.84233759E-03
   24.4899998        -2.80737202E-03
   24.6049995        -2.77019292E-03
   24.7199993        -2.73344130E-03
   24.8349991        -2.70062685E-03
   24.9500008        -2.67579034E-03
   25.0650005        -2.66306452E-03
   25.1800003        -2.66618771E-03
   25.2950001        -2.68802652E-03
   25.4099998        -2.73017492E-03
   25.5249996        -2.79267691E-03
   25.6399994        -2.87391106E-03
   25.7549992        -2.97065568E-03
   25.8700008        -3.07832798E-03
   25.9850006        -3.19137075E-03
   26.1000004        -3.30374343E-03
   26.2150002        -3.40945832E-03
   26.3299999        -3.50310444E-03
   26.4449997        -3.58029432E-03
   26.5599995        -3.63799091E-03
   26.6749992        -3.67467781E-03
   26.7900009        -3.69036244E-03
   26.9050007        -3.68641713E-03
   27.0200005        -3.66529077E-03
   27.1350002        -3.63012962E-03
   27.2500000        -3.58436280E-03
   27.3649998        -3.53130884E-03
   27.4799995        -3.47384904E-03
   27.5949993        -3.41421133E-03
   27.7099991        -3.35388398E-03
   27.8250008        -3.29366024E-03
   27.9400005        -3.23380134E-03
   28.0550003        -3.17428121E-03
   28.1700001        -3.11507192E-03
   28.2849998        -3.05641699E-03
   28.3999996        -2.99905054E-03
   28.5149994        -2.94431811E-03
   28.6299992        -2.89418409E-03
   28.7450008        -2.85111018E-03
   28.8600006        -2.81782425E-03
   28.9750004        -2.79700710E-03
   29.0900002        -2.79093510E-03
   29.2049999        -2.80113379E-03
   29.3199997        -2.82808719E-03
   29.4349995        -2.87104771E-03
   29.5499992        -2.92797526E-03
   29.6650009        -2.99562397E-03
   29.7800007        -3.06976540E-03
   29.8950005        -3.14553129E-03
   30.0100002        -3.21783265E-03
   30.1250000        -3.28180846E-03
   30.2399998        -3.33325029E-03
   30.3549995        -3.36895138E-03
   30.4699993        -3.38694337E-03
   30.5849991        -3.38659249E-03
   30.7000008        -3.36854975E-03
   30.8150005        -3.33456998E-03
   30.9300003        -3.28722526E-03
   31.0450001        -3.22955893E-03
   31.1599998        -3.16472747E-03
   31.2749996        -3.09567968E-03
   31.3899994        -3.02491547E-03
   31.5049992        -2.95435148E-03
   31.6200008        -2.88531091E-03
   31.7350006        -2.81862472E-03
   31.8500004        -2.75482819E-03
   31.9650002        -2.69441330E-03
   32.0800018        -2.63808831E-03
   32.1949997        -2.58700456E-03
   32.3100014        -2.54289783E-03
   32.4249992        -2.50812154E-03
   32.5400009        -2.48554745E-03
   32.6549988        -2.47834297E-03
   32.7700005        -2.48964387E-03
   32.8849983        -2.52216007E-03
   33.0000000        -2.57776771E-03
   33.1150017        -2.65714014E-03
   33.2299995        -2.75947456E-03
   33.3450012        -2.88235396E-03
   33.4599991        -3.02177598E-03
   33.5750008        -3.17235291E-03
   33.6899986        -3.32767097E-03
   33.8050003        -3.48077132E-03
   33.9199982        -3.62470374E-03
   34.0349998        -3.75308935E-03
   34.1500015        -3.86063266E-03
   34.2649994        -3.94351920E-03
   34.3800011        -3.99966165E-03
   34.4949989        -4.02876129E-03
   34.6100006        -4.03218810E-03
   34.7249985        -4.01269458E-03
   34.8400002        -3.97400185E-03
   34.9550018        -3.92031763E-03
   35.0699997        -3.85584170E-03
   35.1850014        -3.78432986E-03
   35.2999992        -3.70876095E-03
   35.4150009        -3.63115687E-03
   35.5299988        -3.55256512E-03
   35.6450005        -3.47320572E-03
   35.7599983        -3.39275482E-03
   35.8750000        -3.31071508E-03
   35.9900017        -3.22682341E-03
   36.1049995        -3.14142159E-03
   36.2200012        -3.05574271E-03
   36.3349991        -2.97205336E-03
   36.4500008        -2.89363391E-03
   36.5649986        -2.82458100E-03
   36.6800003        -2.76945694E-03
   36.7949982        -2.73282011E-03
   36.9099998        -2.71869707E-03
   37.0250015        -2.73005920E-03
   37.1399994        -2.76837475E-03
   37.2550011        -2.83329375E-03
   37.3699989        -2.92251538E-03
   37.4850006        -3.03185754E-03
   37.5999985        -3.15553020E-03
   37.7150002        -3.28658801E-03
   37.8300018        -3.41751263E-03
   37.9449997        -3.54086049E-03
   38.0600014        -3.64990626E-03
   38.1749992        -3.73920822E-03
   38.2900009        -3.80503270E-03
   38.4049988        -3.84559250E-03
   38.5200005        -3.86107736E-03
   38.6349983        -3.85348056E-03
   38.7500000        -3.82624287E-03
   38.8650017        -3.78377107E-03
   38.9799995        -3.73088475E-03
   39.0950012        -3.67226824E-03
   39.2099991        -3.61198746E-03
   39.3250008        -3.55313416E-03
   39.4399986        -3.49762873E-03
   39.5550003        -3.44620482E-03
   39.6699982        -3.39856325E-03
   39.7849998        -3.35366675E-03
   39.9000015        -3.31012858E-03
   40.0149994        -3.26663675E-03
   40.1300011        -3.22234700E-03
   40.2449989        -3.17719136E-03
   40.3600006        -3.13205551E-03
   40.4749985        -3.08879511E-03
   40.5900002        -3.05009214E-03
   40.7050018        -3.01916129E-03
   40.8199997        -2.99935252E-03
   40.9350014        -2.99369497E-03
   41.0499992        -3.00444849E-03
   41.1650009        -3.03272088E-03
   41.2799988        -3.07820295E-03
   41.3950005        -3.13905976E-03
   41.5099983        -3.21199629E-03
   41.6250000        -3.29249213E-03
   41.7400017        -3.37517913E-03
   41.8549995        -3.45432106E-03
   41.9700012        -3.52433743E-03
   42.0849991        -3.58031294E-03
   42.2000008        -3.61843524E-03
   42.3149986        -3.63631058E-03
   42.4300003        -3.63312685E-03
   42.5449982        -3.60965054E-03
   42.6599998        -3.56806326E-03
   42.7750015        -3.51166422E-03
   42.8899994        -3.44448001E-03
   43.0050011        -3.37083079E-03
   43.1199989        -3.29490961E-03
   43.2350006        -3.22041893E-03
   43.3499985        -3.15030967E-03
   43.4650002        -3.08664003E-03
   43.5800018        -3.03056673E-03
   43.6949997        -2.98245135E-03
   43.8100014        -2.94206035E-03
   43.9249992        -2.90881656E-03
   44.0400009        -2.88206083E-03
   44.1549988        -2.86128349E-03
   44.2700005        -2.84628500E-03
   44.3849983        -2.83724931E-03
