  -1.50000000         9.99688385E-18
  -1.38125002         7.74595665E-10
  -1.26250005         2.68337397E-09
  -1.14374995         5.95167693E-09
  -1.02499998         1.07263443E-08
 -0.906250000         1.67912795E-08
 -0.787500024         2.22334098E-08
 -0.668749988         2.02027817E-08
 -0.550000012        -6.64209443E-09
 -0.431250006        -9.28224608E-08
 -0.312500000        -2.93617035E-07
 -0.193749994        -6.77234709E-07
  -7.50000030E-02    -1.29412479E-06
   4.37499993E-02    -2.11280758E-06
  0.162499994        -2.91954552E-06
  0.281250000        -3.19490505E-06
  0.400000006        -1.99997112E-06
  0.518750012         2.07977087E-06
  0.637499988         1.08840823E-05
  0.756250024         2.64926693E-05
  0.875000000         5.09155034E-05
  0.993749976         8.57150590E-05
   1.11249995         1.31651104E-04
   1.23125005         1.88445236E-04
   1.35000002         2.54734186E-04
   1.46875000         3.28227237E-04
   1.58749998         4.06020525E-04
   1.70624995         4.84977150E-04
   1.82500005         5.62070694E-04
   1.94375002         6.34617638E-04
   2.06250000         7.00377801E-04
   2.18125010         7.57559028E-04
   2.29999995         8.04795767E-04
   2.41875005         8.41173169E-04
   2.53749990         8.66326678E-04
   2.65625000         8.80594656E-04
   2.77500010         8.85149289E-04
   2.89374995         8.82013643E-04
   3.01250005         8.73895944E-04
   3.13124990         8.63832363E-04
   3.25000000         8.54701153E-04
   3.36875010         8.48731725E-04
   3.48749995         8.47146031E-04
   3.60625005         8.50036333E-04
   3.72499990         8.56512575E-04
   3.84375000         8.65065784E-04
   3.96250010         8.74024583E-04
   4.08125019         8.81962129E-04
   4.19999981         8.87939415E-04
   4.31874990         8.91539501E-04
   4.43750000         8.92729324E-04
   4.55625010         8.91647942E-04
   4.67500019         8.88434937E-04
   4.79374981         8.83184548E-04
   4.91249990         8.76041537E-04
   5.03125000         8.67382740E-04
   5.15000010         8.57982261E-04
   5.26875019         8.49052856E-04
   5.38749981         8.42103211E-04
   5.50624990         8.38623091E-04
   5.62500000         8.39682471E-04
   5.74375010         8.45575763E-04
   5.86250019         8.55635095E-04
   5.98124981         8.68288451E-04
   6.09999990         8.81355896E-04
   6.21875000         8.92501324E-04
   6.33750010         8.99708772E-04
   6.45625019         9.01652093E-04
   6.57499981         8.97871272E-04
   6.69374990         8.88736104E-04
   6.81250000         8.75249214E-04
   6.93125010         8.58779415E-04
   7.05000019         8.40820896E-04
   7.16874981         8.22838570E-04
   7.28749990         8.06210272E-04
   7.40625000         7.92226172E-04
   7.52500010         7.82086572E-04
   7.64375019         7.76844448E-04
   7.76249981         7.77274778E-04
   7.88124990         7.83699565E-04
   8.00000000         7.95824628E-04
   8.11874962         8.12659040E-04
   8.23750019         8.32564314E-04
   8.35624981         8.53441597E-04
   8.47500038         8.73023178E-04
   8.59375000         8.89204093E-04
   8.71249962         9.00342304E-04
   8.83125019         9.05472203E-04
   8.94999981         9.04404791E-04
   9.06875038         8.97719350E-04
   9.18750000         8.86669790E-04
   9.30624962         8.73037672E-04
   9.42500019         8.58947984E-04
   9.54374981         8.46661511E-04
   9.66250038         8.38345324E-04
   9.78125000         8.35833489E-04
   9.89999962         8.40396620E-04
   10.0187502         8.52561265E-04
   10.1374998         8.72015429E-04
   10.2562504         8.97631980E-04
   10.3750000         9.27612593E-04
   10.4937496         9.59724479E-04
   10.6125002         9.91576002E-04
   10.7312498         1.02087285E-03
   10.8500004         1.04560726E-03
   10.9687500         1.06416387E-03
   11.0874996         1.07536255E-03
   11.2062502         1.07847573E-03
   11.3249998         1.07325986E-03
   11.4437504         1.06001878E-03
   11.5625000         1.03967963E-03
   11.6812496         1.01383356E-03
   11.8000002         9.84679908E-04
   11.9187498         9.54834104E-04
   12.0375004         9.27001995E-04
   12.1562500         9.03576147E-04
   12.2749996         8.86249065E-04
   12.3937502         8.75751546E-04
   12.5124998         8.71793192E-04
   12.6312504         8.73225392E-04
   12.7500000         8.78377468E-04
   12.8687496         8.85464018E-04
   12.9875002         8.92944227E-04
   13.1062498         8.99737293E-04
   13.2250004         9.05257708E-04
   13.3437500         9.09302209E-04
   13.4624996         9.11870156E-04
   13.5812502         9.13016789E-04
   13.6999998         9.12809453E-04
   13.8187504         9.11402982E-04
   13.9375000         9.09185037E-04
   14.0562496         9.06903995E-04
   14.1750002         9.05686291E-04
   14.2937498         9.06894740E-04
   14.4125004         9.11835348E-04
   14.5312500         9.21396888E-04
   14.6499996         9.35734191E-04
   14.7687502         9.54110001E-04
   14.8874998         9.74956492E-04
   15.0062504         9.96149261E-04
   15.1250000         1.01541402E-03
   15.2437496         1.03074778E-03
   15.3625002         1.04073714E-03
   15.4812498         1.04470004E-03
   15.6000004         1.04264193E-03
   15.7187500         1.03508332E-03
   15.8374996         1.02284527E-03
   15.9562502         1.00688031E-03
   16.0750008         9.88193555E-04
   16.1937504         9.67852713E-04
   16.3125000         9.47033521E-04
   16.4312496         9.27032204E-04
   16.5499992         9.09199007E-04
   16.6687508         8.94777244E-04
   16.7875004         8.84690671E-04
   16.9062500         8.79349594E-04
   17.0249996         8.78548191E-04
   17.1437492         8.81499902E-04
   17.2625008         8.87008326E-04
   17.3812504         8.93722347E-04
   17.5000000         9.00400861E-04
   17.6187496         9.06114001E-04
   17.7374992         9.10336559E-04
   17.8562508         9.12936230E-04
   17.9750004         9.14092641E-04
   18.0937500         9.14202945E-04
   18.2124996         9.13813245E-04
   18.3312492         9.13588214E-04
   18.4500008         9.14297008E-04
   18.5687504         9.16774909E-04
   18.6875000         9.21825995E-04
   18.8062496         9.30058886E-04
   18.9249992         9.41694016E-04
   19.0437508         9.56400647E-04
   19.1625004         9.73238493E-04
   19.2812500         9.90743865E-04
   19.3999996         1.00715761E-03
   19.5187492         1.02073862E-03
   19.6375008         1.03007362E-03
   19.7562504         1.03429181E-03
   19.8750000         1.03313033E-03
   19.9937496         1.02684950E-03
   20.1124992         1.01605500E-03
   20.2312508         1.00151426E-03
   20.3500004         9.84045211E-04
   20.4687500         9.64518636E-04
   20.5874996         9.43948049E-04
   20.7062492         9.23597894E-04
   20.8250008         9.05014691E-04
   20.9437504         8.89914110E-04
   21.0625000         8.79912754E-04
   21.1812496         8.76165577E-04
   21.2999992         8.79021594E-04
   21.4187508         8.87826260E-04
   21.5375004         9.00955929E-04
   21.6562500         9.16100107E-04
   21.7749996         9.30719136E-04
   21.8937492         9.42545186E-04
   22.0125008         9.49977257E-04
   22.1312504         9.52261267E-04
   22.2500000         9.49425914E-04
   22.3687496         9.42029001E-04
   22.4874992         9.30835376E-04
   22.6062508         9.16558434E-04
   22.7250004         8.99760053E-04
   22.8437500         8.80928128E-04
   22.9624996         8.60668020E-04
   23.0812492         8.39894754E-04
   23.2000008         8.19906418E-04
   23.3187504         8.02268041E-04
   23.4375000         7.88516423E-04
   23.5562496         7.79772294E-04
   23.6749992         7.76395958E-04
   23.7937508         7.77814595E-04
   23.9125004         7.82595831E-04
   24.0312500         7.88755366E-04
   24.1499996         7.94205698E-04
   24.2687492         7.97206361E-04
   24.3875008         7.96678418E-04
   24.5062504         7.92301609E-04
   24.6250000         7.84390722E-04
   24.7437496         7.73624051E-04
   24.8624992         7.60739902E-04
   24.9812508         7.46314763E-04
   25.1000004         7.30688858E-04
   25.2187500         7.14040245E-04
   25.3374996         6.96545874E-04
   25.4562492         6.78536424E-04
   25.5750008         6.60564285E-04
   25.6937504         6.43346109E-04
   25.8125000         6.27599773E-04
   25.9312496         6.13839773E-04
   26.0499992         6.02218730E-04
   26.1687508         5.92480646E-04
   26.2875004         5.84045483E-04
   26.4062500         5.76202292E-04
   26.5249996         5.68337855E-04
   26.6437492         5.60129352E-04
   26.7625008         5.51639008E-04
   26.8812504         5.43293718E-04
   27.0000000         5.35770436E-04
   27.1187496         5.29836747E-04
   27.2374992         5.26200572E-04
   27.3562508         5.25404175E-04
   27.4750004         5.27771714E-04
   27.5937500         5.33396844E-04
   27.7124996         5.42141846E-04
   27.8312492         5.53633377E-04
   27.9500008         5.67250943E-04
   28.0687504         5.82128821E-04
   28.1875000         5.97194827E-04
   28.3062496         6.11263968E-04
   28.4249992         6.23179192E-04
   28.5437508         6.31972216E-04
   28.6625004         6.37000194E-04
   28.7812500         6.38017373E-04
   28.8999996         6.35164033E-04
   29.0187492         6.28881447E-04
   29.1375008         6.19794708E-04
   29.2562504         6.08608767E-04
   29.3750000         5.96056401E-04
   29.4937496         5.82904089E-04
   29.6124992         5.69992582E-04
   29.7312508         5.58262342E-04
   29.8500004         5.48717100E-04
   29.9687500         5.42304479E-04
   30.0874996         5.39730769E-04
   30.2062492         5.41266287E-04
   30.3250008         5.46616095E-04
   30.4437504         5.54918661E-04
   30.5625000         5.64897375E-04
   30.6812496         5.75132901E-04
   30.7999992         5.84381400E-04
   30.9187508         5.91838732E-04
   31.0375004         5.97269274E-04
   31.1562500         6.00963715E-04
   31.2749996         6.03549066E-04
   31.3937492         6.05730282E-04
   31.5125008         6.08056900E-04
   31.6312504         6.10800227E-04
   31.7500000         6.13973127E-04
   31.8687496         6.17466168E-04
   31.9874992         6.21228013E-04
   32.1062508         6.25397544E-04
   32.2249985         6.30321214E-04
   32.3437500         6.36437791E-04
   32.4625015         6.44069980E-04
   32.5812492         6.53207710E-04
   32.7000008         6.63375831E-04
   32.8187485         6.73648668E-04
   32.9375000         6.82821323E-04
   33.0562515         6.89685869E-04
   33.1749992         6.93323382E-04
   33.2937508         6.93314010E-04
   33.4124985         6.89799665E-04
   33.5312500         6.83389546E-04
   33.6500015         6.74951938E-04
   33.7687492         6.65374100E-04
   33.8875008         6.55373733E-04
   34.0062485         6.45419990E-04
   34.1250000         6.35768578E-04
   34.2437515         6.26575318E-04
   34.3624992         6.18022983E-04
   34.4812508         6.10398885E-04
   34.5999985         6.04091620E-04
   34.7187500         5.99512132E-04
   34.8375015         5.96980040E-04
   34.9562492         5.96629863E-04
   35.0750008         5.98378712E-04
   35.1937485         6.01969950E-04
   35.3125000         6.07071619E-04
   35.4312515         6.13385695E-04
   35.5499992         6.20723644E-04
   35.6687508         6.29020215E-04
   35.7874985         6.38288737E-04
   35.9062500         6.48543471E-04
   36.0250015         6.59731159E-04
   36.1437492         6.71701389E-04
   36.2625008         6.84224884E-04
   36.3812485         6.97040989E-04
   36.5000000         7.09902379E-04
   36.6187515         7.22586003E-04
   36.7374992         7.34860019E-04
   36.8562508         7.46423902E-04
   36.9749985         7.56859721E-04
   37.0937500         7.65636913E-04
   37.2125015         7.72189698E-04
   37.3312492         7.76058761E-04
   37.4500008         7.77049630E-04
   37.5687485         7.75343680E-04
   37.6875000         7.71508785E-04
   37.8062515         7.66386627E-04
   37.9249992         7.60885596E-04
   38.0437508         7.55746849E-04
   38.1624985         7.51365733E-04
   38.2812500         7.47738406E-04
   38.4000015         7.44551246E-04
   38.5187492         7.41379161E-04
   38.6375008         7.37911556E-04
   38.7562485         7.34111003E-04
   38.8750000         7.30237807E-04
   38.9937515         7.26727128E-04
   39.1124992         7.23968900E-04
   39.2312508         7.22086930E-04
   39.3499985         7.20818585E-04
   39.4687500         7.19560834E-04
   39.5875015         7.17581948E-04
   39.7062492         7.14328082E-04
   39.8250008         7.09709653E-04
   39.9437485         7.04249309E-04
   40.0625000         6.99022086E-04
   40.1812515         6.95394119E-04
   40.2999992         6.94641727E-04
   40.4187508         6.97583484E-04
   40.5374985         7.04354374E-04
   40.6562500         7.14398688E-04
   40.7750015         7.26679631E-04
   40.8937492         7.40021234E-04
   41.0125008         7.53452827E-04
   41.1312485         7.66427664E-04
   41.2500000         7.78841379E-04
   41.3687515         7.90856546E-04
   41.4874992         8.02617287E-04
   41.6062508         8.13979772E-04
   41.7249985         8.24374089E-04
   41.8437500         8.32863210E-04
   41.9625015         8.38376756E-04
   42.0812492         8.40033346E-04
   42.2000008         8.37423257E-04
   42.3187485         8.30742298E-04
   42.4375000         8.20722838E-04
   42.5562515         8.08388286E-04
   42.6749992         7.94724387E-04
   42.7937508         7.80389470E-04
   42.9124985         7.65569683E-04
   43.0312500         7.50026491E-04
   43.1500015         7.33309134E-04
   43.2687492         7.15044618E-04
   43.3875008         6.95193536E-04
   43.5062485         6.74177078E-04
   43.6250000         6.52838964E-04
   43.7437515         6.32265757E-04
   43.8624992         6.13542099E-04
   43.9812508         5.97534643E-04
   44.0999985         5.84775757E-04
   44.2187500         5.75471902E-04
   44.3375015         5.69607189E-04
   44.4562492         5.67079114E-04
   44.5750008         5.67796349E-04
   44.6937485         5.71693527E-04
   44.8125000         5.78661624E-04
   44.9312515         5.88433177E-04
   45.0499992         6.00481057E-04
   45.1687508         6.13988668E-04
   45.2874985         6.27912639E-04
   45.4062500         6.41125313E-04
   45.5250015         6.52590650E-04
   45.6437492         6.61516970E-04
   45.7625008         6.67443557E-04
   45.8812485         6.70248526E-04
