  -1.50000000        -3.84802932E-18
  -1.38125002        -8.46097747E-10
  -1.26250005        -3.60350461E-09
  -1.14374995        -1.04332525E-08
  -1.02499998        -2.55828034E-08
 -0.906250000        -5.67651917E-08
 -0.787500024        -1.16532668E-07
 -0.668749988        -2.22574073E-07
 -0.550000012        -3.94986699E-07
 -0.431250006        -6.47897650E-07
 -0.312500000        -9.73061560E-07
 -0.193749994        -1.31502145E-06
  -7.50000030E-02    -1.54141014E-06
   4.37499993E-02    -1.41728458E-06
  0.162499994        -5.97098335E-07
  0.281250000         1.35052744E-06
  0.400000006         4.87375792E-06
  0.518750012         1.03219263E-05
  0.637499988         1.77937800E-05
  0.756250024         2.69726424E-05
  0.875000000         3.69800728E-05
  0.993749976         4.62816315E-05
   1.11249995         5.26726071E-05
   1.23125005         5.33601487E-05
   1.35000002         4.51428350E-05
   1.46875000         2.46729578E-05
   1.58749998        -1.12271609E-05
   1.70624995        -6.52330928E-05
   1.82500005        -1.39213080E-04
   1.94375002        -2.33990126E-04
   2.06250000        -3.49204463E-04
   2.18125010        -4.83296695E-04
   2.29999995        -6.33616059E-04
   2.41875005        -7.96642038E-04
   2.53749990        -9.68292064E-04
   2.65625000        -1.14427600E-03
   2.77500010        -1.32045243E-03
   2.89374995        -1.49314222E-03
   3.01250005        -1.65935955E-03
   3.13124990        -1.81693479E-03
   3.25000000        -1.96451810E-03
   3.36875010        -2.10147095E-03
   3.48749995        -2.22766586E-03
   3.60625005        -2.34323600E-03
   3.72499990        -2.44830898E-03
   3.84375000        -2.54277885E-03
   3.96250010        -2.62614805E-03
   4.08125019        -2.69747316E-03
   4.19999981        -2.75542215E-03
   4.31874990        -2.79844087E-03
   4.43750000        -2.82500708E-03
   4.55625010        -2.83393450E-03
   4.67500019        -2.82468135E-03
   4.79374981        -2.79761595E-03
   4.91249990        -2.75419094E-03
   5.03125000        -2.69699935E-03
   5.15000010        -2.62968615E-03
   5.26875019        -2.55672075E-03
   5.38749981        -2.48305197E-03
   5.50624990        -2.41367775E-03
   5.62500000        -2.35318672E-03
   5.74375010        -2.30532163E-03
   5.86250019        -2.27262359E-03
   5.98124981        -2.25619855E-03
   6.09999990        -2.25563976E-03
   6.21875000        -2.26911344E-03
   6.33750010        -2.29360070E-03
   6.45625019        -2.32526381E-03
   6.57499981        -2.35989084E-03
   6.69374990        -2.39336584E-03
   6.81250000        -2.42210459E-03
   6.93125010        -2.44340394E-03
   7.05000019        -2.45566387E-03
   7.16874981        -2.45846109E-03
   7.28749990        -2.45246477E-03
   7.40625000        -2.43922020E-03
   7.52500010        -2.42082588E-03
   7.64375019        -2.39956146E-03
   7.76249981        -2.37751403E-03
   7.88124990        -2.35625915E-03
   8.00000000        -2.33664294E-03
   8.11874962        -2.31868983E-03
   8.23750019        -2.30165082E-03
   8.35624981        -2.28418363E-03
   8.47500038        -2.26463052E-03
   8.59375000        -2.24135839E-03
   8.71249962        -2.21310579E-03
   8.83125019        -2.17928551E-03
   8.94999981        -2.14019814E-03
   9.06875038        -2.09712144E-03
   9.18750000        -2.05226126E-03
   9.30624962        -2.00856384E-03
   9.42500019        -1.96941430E-03
   9.54374981        -1.93825702E-03
   9.66250038        -1.91818480E-03
   9.78125000        -1.91155262E-03
   9.89999962        -1.91966363E-03
   10.0187502        -1.94256776E-03
   10.1374998        -1.97900203E-03
   10.2562504        -2.02647760E-03
   10.3750000        -2.08150432E-03
   10.4937496        -2.13992526E-03
   10.6125002        -2.19731778E-03
   10.7312498        -2.24941387E-03
   10.8500004        -2.29248661E-03
   10.9687500        -2.32366379E-03
   11.0874996        -2.34112865E-03
   11.2062502        -2.34419713E-03
   11.3249998        -2.33326596E-03
   11.4437504        -2.30965181E-03
   11.5625000        -2.27534655E-03
   11.6812496        -2.23272992E-03
   11.8000002        -2.18427903E-03
   11.9187498        -2.13231472E-03
   12.0375004        -2.07881187E-03
   12.1562500        -2.02529924E-03
   12.2749996        -1.97284576E-03
   12.3937502        -1.92213338E-03
   12.5124998        -1.87358982E-03
   12.6312504        -1.82755652E-03
   12.7500000        -1.78445596E-03
   12.8687496        -1.74492900E-03
   12.9875002        -1.70991383E-03
   13.1062498        -1.68065447E-03
   13.2250004        -1.65863032E-03
   13.3437500        -1.64541916E-03
   13.4624996        -1.64251088E-03
   13.5812502        -1.65110012E-03
   13.6999998        -1.67188793E-03
   13.8187504        -1.70492288E-03
   13.9375000        -1.74950447E-03
   14.0562496        -1.80416484E-03
   14.1750002        -1.86673168E-03
   14.2937498        -1.93446665E-03
   14.4125004        -2.00425973E-03
   14.5312500        -2.07285886E-03
   14.6499996        -2.13710382E-03
   14.7687502        -2.19413871E-03
   14.8874998        -2.24158214E-03
   15.0062504        -2.27763667E-03
   15.1250000        -2.30113370E-03
   15.2437496        -2.31151632E-03
   15.3625002        -2.30877288E-03
   15.4812498        -2.29333993E-03
   15.6000004        -2.26599467E-03
   15.7187500        -2.22775736E-03
   15.8374996        -2.17982335E-03
   15.9562502        -2.12352863E-03
   16.0750008        -2.06035376E-03
   16.1937504        -1.99195836E-03
   16.3125000        -1.92022498E-03
   16.4312496        -1.84730312E-03
   16.5499992        -1.77562458E-03
   16.6687508        -1.70787738E-03
   16.7875004        -1.64692884E-03
   16.9062500        -1.59569166E-03
   17.0249996        -1.55694492E-03
   17.1437492        -1.53312460E-03
   17.2625008        -1.52610755E-03
   17.3812504        -1.53701694E-03
   17.5000000        -1.56607630E-03
   17.6187496        -1.61253277E-03
   17.7374992        -1.67466910E-03
   17.8562508        -1.74990366E-03
   17.9750004        -1.83497556E-03
   18.0937500        -1.92619348E-03
   18.2124996        -2.01972225E-03
   18.3312492        -2.11187406E-03
   18.4500008        -2.19937018E-03
   18.5687504        -2.27953913E-03
   18.6875000        -2.35043583E-03
   18.8062496        -2.41086399E-03
   18.9249992        -2.46030628E-03
   19.0437508        -2.49878061E-03
   19.1625004        -2.52664369E-03
   19.2812500        -2.54437793E-03
   19.3999996        -2.55239825E-03
   19.5187492        -2.55090604E-03
   19.6375008        -2.53982167E-03
   19.7562504        -2.51880218E-03
   19.8750000        -2.48734397E-03
   19.9937496        -2.44496088E-03
   20.1124992        -2.39140098E-03
   20.2312508        -2.32687662E-03
   20.3500004        -2.25226209E-03
   20.4687500        -2.16922583E-03
   20.5874996        -2.08026962E-03
   20.7062492        -1.98865472E-03
   20.8250008        -1.89821550E-03
   20.9437504        -1.81307911E-03
   21.0625000        -1.73731172E-03
   21.1812496        -1.67454139E-03
   21.2999992        -1.62759691E-03
   21.4187508        -1.59821217E-03
   21.5375004        -1.58683467E-03
   21.6562500        -1.59256440E-03
   21.7749996        -1.61323545E-03
   21.8937492        -1.64563081E-03
   22.0125008        -1.68580911E-03
   22.1312504        -1.72950258E-03
   22.2500000        -1.77253981E-03
   22.3687496        -1.81124127E-03
   22.4874992        -1.84274360E-03
   22.6062508        -1.86521281E-03
   22.7250004        -1.87792524E-03
   22.8437500        -1.88121409E-03
   22.9624996        -1.87628914E-03
   23.0812492        -1.86496519E-03
   23.2000008        -1.84933608E-03
   23.3187504        -1.83144386E-03
   23.4375000        -1.81298878E-03
   23.5562496        -1.79512205E-03
   23.6749992        -1.77834649E-03
   23.7937508        -1.76253740E-03
   23.9125004        -1.74707710E-03
   24.0312500        -1.73107826E-03
   24.1499996        -1.71366078E-03
   24.2687492        -1.69423572E-03
   24.3875008        -1.67275232E-03
   24.5062504        -1.64986553E-03
   24.6250000        -1.62699597E-03
   24.7437496        -1.60626753E-03
   24.8624992        -1.59032748E-03
   24.9812508        -1.58206897E-03
   25.1000004        -1.58428994E-03
   25.2187500        -1.59933500E-03
   25.3374996        -1.62876653E-03
   25.4562492        -1.67311064E-03
   25.5750008        -1.73171284E-03
   25.6937504        -1.80272595E-03
   25.8125000        -1.88323250E-03
   25.9312496        -1.96949090E-03
   26.0499992        -2.05727341E-03
   26.1687508        -2.14225403E-03
   26.2875004        -2.22040270E-03
   26.4062500        -2.28833151E-03
   26.5249996        -2.34355731E-03
   26.6437492        -2.38465075E-03
   26.7625008        -2.41125934E-03
   26.8812504        -2.42400682E-03
   27.0000000        -2.42429553E-03
   27.1187496        -2.41403817E-03
   27.2374992        -2.39536702E-03
   27.3562508        -2.37035612E-03
   27.4750004        -2.34080106E-03
   27.5937500        -2.30807904E-03
   27.7124996        -2.27310625E-03
   27.8312492        -2.23639049E-03
   27.9500008        -2.19816435E-03
   28.0687504        -2.15856871E-03
   28.1875000        -2.11785408E-03
   28.3062496        -2.07655993E-03
   28.4249992        -2.03563692E-03
   28.5437508        -1.99648924E-03
   28.6625004        -1.96092180E-03
   28.7812500        -1.93099491E-03
   28.8999996        -1.90880545E-03
   29.0187492        -1.89622247E-03
   29.1375008        -1.89461582E-03
   29.2562504        -1.90461904E-03
   29.3750000        -1.92596274E-03
   29.4937496        -1.95740676E-03
   29.6124992        -1.99678680E-03
   29.7312508        -2.04117130E-03
   29.8500004        -2.08711438E-03
   29.9687500        -2.13097548E-03
   30.0874996        -2.16926076E-03
   30.2062492        -2.19894876E-03
   30.3250008        -2.21775821E-03
   30.4437504        -2.22432474E-03
   30.5625000        -2.21826532E-03
   30.6812496        -2.20013014E-03
   30.7999992        -2.17124773E-03
   30.9187508        -2.13349354E-03
   31.0375004        -2.08901288E-03
   31.1562500        -2.03994429E-03
   31.2749996        -1.98818091E-03
   31.3937492        -1.93520321E-03
   31.5125008        -1.88200735E-03
   31.6312504        -1.82913500E-03
   31.7500000        -1.77679467E-03
   31.8687496        -1.72505388E-03
   31.9874992        -1.67406176E-03
   32.1062508        -1.62426697E-03
   32.2249985        -1.57658360E-03
   32.3437500        -1.53247849E-03
   32.4625015        -1.49395061E-03
   32.5812492        -1.46340125E-03
   32.7000008        -1.44340447E-03
   32.8187485        -1.43640407E-03
   32.9375000        -1.44437689E-03
   33.0562515        -1.46850850E-03
   33.1749992        -1.50892849E-03
   33.2937508        -1.56454497E-03
   33.4124985        -1.63301034E-03
   33.5312500        -1.71082711E-03
   33.6500015        -1.79359072E-03
   33.7687492        -1.87634525E-03
   33.8875008        -1.95401139E-03
   34.0062485        -2.02183705E-03
   34.1250000        -2.07581674E-03
   34.2437515        -2.11303099E-03
   34.3624992        -2.13186024E-03
   34.4812508        -2.13205651E-03
   34.5999985        -2.11466011E-03
   34.7187500        -2.08178000E-03
   34.8375015        -2.03627255E-03
   34.9562492        -1.98135595E-03
   35.0750008        -1.92022463E-03
   35.1937485        -1.85570458E-03
   35.3125000        -1.79000339E-03
   35.4312515        -1.72457902E-03
   35.5499992        -1.66014279E-03
   35.6687508        -1.59679144E-03
   35.7874985        -1.53424032E-03
   35.9062500        -1.47211971E-03
   36.0250015        -1.41028350E-03
   36.1437492        -1.34908326E-03
   36.2625008        -1.28955522E-03
   36.3812485        -1.23349216E-03
   36.5000000        -1.18337886E-03
   36.6187515        -1.14219578E-03
   36.7374992        -1.11311080E-03
   36.8562508        -1.09909964E-03
   36.9749985        -1.10254413E-03
   37.0937500        -1.12486479E-03
   37.2125015        -1.16623810E-03
   37.3312492        -1.22544309E-03
   37.4500008        -1.29986054E-03
   37.5687485        -1.38563209E-03
   37.6875000        -1.47796317E-03
   37.8062515        -1.57153839E-03
   37.9249992        -1.66099682E-03
   38.0437508        -1.74141524E-03
   38.1624985        -1.80873997E-03
   38.2812500        -1.86011754E-03
   38.4000015        -1.89408846E-03
   38.5187492        -1.91062363E-03
   38.6375008        -1.91100605E-03
   38.7562485        -1.89757696E-03
   38.8750000        -1.87338481E-03
   38.9937515        -1.84178585E-03
   39.1124992        -1.80604903E-03
   39.2312508        -1.76901591E-03
   39.3499985        -1.73285743E-03
   39.4687500        -1.69895380E-03
   39.5875015        -1.66790502E-03
   39.7062492        -1.63966173E-03
   39.8250008        -1.61374931E-03
   39.9437485        -1.58954412E-03
   40.0625000        -1.56655628E-03
   40.1812515        -1.54467300E-03
   40.2999992        -1.52432208E-03
   40.4187508        -1.50653196E-03
   40.5374985        -1.49287493E-03
   40.6562500        -1.48530339E-03
   40.7750015        -1.48589956E-03
   40.8937492        -1.49657705E-03
   41.0125008        -1.51877617E-03
   41.1312485        -1.55319669E-03
   41.2500000        -1.59961008E-03
   41.3687515        -1.65677664E-03
   41.4874992        -1.72248576E-03
   41.6062508        -1.79371401E-03
   41.7249985        -1.86688534E-03
   41.8437500        -1.93820009E-03
   41.9625015        -2.00399198E-03
   42.0812492        -2.06107041E-03
   42.2000008        -2.10700347E-03
   42.3187485        -2.14031106E-03
   42.4375000        -2.16054777E-03
   42.5562515        -2.16827029E-03
   42.6749992        -2.16489541E-03
   42.7937508        -2.15248158E-03
   42.9124985        -2.13345839E-03
   43.0312500        -2.11034575E-03
   43.1500015        -2.08550110E-03
   43.2687492        -2.06092326E-03
   43.3875008        -2.03813426E-03
   43.5062485        -2.01814901E-03
   43.6250000        -2.00152444E-03
   43.7437515        -1.98847381E-03
   43.8624992        -1.97901879E-03
   43.9812508        -1.97314797E-03
   44.0999985        -1.97095191E-03
   44.2187500        -1.97271002E-03
   44.3375015        -1.97890843E-03
   44.4562492        -1.99019117E-03
   44.5750008        -2.00724392E-03
   44.6937485        -2.03063525E-03
   44.8125000        -2.06063851E-03
   44.9312515        -2.09706766E-03
   45.0499992        -2.13915505E-03
   45.1687508        -2.18549627E-03
   45.2874985        -2.23407755E-03
   45.4062500        -2.28238851E-03
   45.5250015        -2.32760701E-03
   45.6437492        -2.36684200E-03
   45.7625008        -2.39739846E-03
   45.8812485        -2.41703400E-03
