  -1.50000000       0.00000000    
  -1.38499999       5.70815839E-10
  -1.26999998       1.77257142E-09
  -1.15499997       3.18717031E-09
  -1.03999996       3.66285025E-09
 -0.925000012       6.14944318E-10
 -0.810000002      -1.17031620E-08
 -0.694999993      -4.55759661E-08
 -0.579999983      -1.24990137E-07
 -0.465000004      -2.91368309E-07
 -0.349999994      -6.06207152E-07
 -0.234999999      -1.14380100E-06
 -0.119999997      -1.96470842E-06
  -4.99999989E-03  -3.06098195E-06
  0.109999999      -4.26979568E-06
  0.224999994      -5.16389082E-06
  0.340000004      -4.94309779E-06
  0.455000013      -2.36533947E-06
  0.569999993       4.23973233E-06
  0.685000002       1.68423958E-05
  0.800000012       3.74654519E-05
  0.915000021       6.78511860E-05
   1.02999997       1.09110966E-04
   1.14499998       1.61443182E-04
   1.25999999       2.23995754E-04
   1.37500000       2.94912752E-04
   1.49000001       3.71553557E-04
   1.60500002       4.50823223E-04
   1.72000003       5.29525394E-04
   1.83500004       6.04652392E-04
   1.95000005       6.73561939E-04
   2.06500006       7.34039524E-04
   2.18000007       7.84291886E-04
   2.29500008       8.22940026E-04
   2.41000009       8.49070377E-04
   2.52500010       8.62361398E-04
   2.64000010       8.63252732E-04
   2.75500011       8.53080186E-04
   2.86999989       8.34088132E-04
   2.98499990       8.09255289E-04
   3.09999990       7.81927782E-04
   3.21499991       7.55323155E-04
   3.32999992       7.32020242E-04
   3.44499993       7.13570509E-04
   3.55999994       7.00337463E-04
   3.67499995       6.91604568E-04
   3.78999996       6.85910461E-04
   3.90499997       6.81504083E-04
   4.01999998       6.76781114E-04
   4.13500023       6.70576643E-04
   4.25000000       6.62256149E-04
   4.36499977       6.51615090E-04
   4.48000002       6.38673140E-04
   4.59499979       6.23473141E-04
   4.71000004       6.05987152E-04
   4.82499981       5.86173148E-04
   4.94000006       5.64156799E-04
   5.05499983       5.40447945E-04
   5.17000008       5.16080996E-04
   5.28499985       4.92585124E-04
   5.40000010       4.71753272E-04
   5.51499987       4.55255591E-04
   5.63000011       4.44204401E-04
   5.74499989       4.38808638E-04
   5.86000013       4.38232732E-04
   5.97499990       4.40712931E-04
   6.09000015       4.43903351E-04
   6.20499992       4.45353915E-04
   6.32000017       4.42986406E-04
   6.43499994       4.35440044E-04
   6.55000019       4.22217796E-04
   6.66499996       4.03622980E-04
   6.78000021       3.80552141E-04
   6.89499998       3.54237010E-04
   7.01000023       3.26030102E-04
   7.12500000       2.97288905E-04
   7.23999977       2.69356358E-04
   7.35500002       2.43593546E-04
   7.46999979       2.21391834E-04
   7.58500004       2.04107957E-04
   7.69999981       1.92902924E-04
   7.81500006       1.88512669E-04
   7.92999983       1.91023850E-04
   8.04500008       1.99731265E-04
   8.15999985       2.13142979E-04
   8.27499962       2.29147612E-04
   8.39000034       2.45314412E-04
   8.50500011       2.59252876E-04
   8.61999989       2.68949720E-04
   8.73499966       2.73011829E-04
   8.85000038       2.70787365E-04
   8.96500015       2.62368558E-04
   9.07999992       2.48516561E-04
   9.19499969       2.30552774E-04
   9.31000042       2.10246159E-04
   9.42500019       1.89702725E-04
   9.53999996       1.71236738E-04
   9.65499973       1.57198112E-04
   9.77000046       1.49741725E-04
   9.88500023       1.50554115E-04
   10.0000000       1.60583237E-04
   10.1149998       1.79839059E-04
   10.2299995       2.07326084E-04
   10.3450003       2.41141126E-04
   10.4600000       2.78722437E-04
   10.5749998       3.17194907E-04
   10.6899996       3.53726908E-04
   10.8050003       3.85815074E-04
   10.9200001       4.11449379E-04
   11.0349998       4.29155392E-04
   11.1499996       4.37954935E-04
   11.2650003       4.37311974E-04
   11.3800001       4.27126157E-04
   11.4949999       4.07796295E-04
   11.6099997       3.80328740E-04
   11.7250004       3.46429093E-04
   11.8400002       3.08494084E-04
   11.9549999       2.69442768E-04
   12.0699997       2.32382270E-04
   12.1850004       2.00162744E-04
   12.3000002       1.74926579E-04
   12.4150000       1.57777307E-04
   12.5299997       1.48667299E-04
   12.6450005       1.46537452E-04
   12.7600002       1.49672574E-04
   12.8750000       1.56161434E-04
   12.9899998       1.64328434E-04
   13.1049995       1.73015811E-04
   13.2200003       1.81655385E-04
   13.3350000       1.90145918E-04
   13.4499998       1.98616835E-04
   13.5649996       2.07195422E-04
   13.6800003       2.15877895E-04
   13.7950001       2.24555886E-04
   13.9099998       2.33176237E-04
   14.0249996       2.41949660E-04
   14.1400003       2.51498626E-04
   14.2550001       2.62851157E-04
   14.3699999       2.77242740E-04
   14.4849997       2.95770413E-04
   14.6000004       3.18998354E-04
   14.7150002       3.46647837E-04
   14.8299999       3.77482647E-04
   14.9449997       4.09443484E-04
   15.0600004       4.39999334E-04
   15.1750002       4.66624188E-04
   15.2900000       4.87257581E-04
   15.4049997       5.00628666E-04
   15.5200005       5.06371493E-04
   15.6350002       5.04926487E-04
   15.7500000       4.97297966E-04
   15.8649998       4.84767748E-04
   15.9799995       4.68662416E-04
   16.0949993       4.50238615E-04
   16.2099991       4.30685148E-04
   16.3250008       4.11193527E-04
   16.4400005       3.93019960E-04
   16.5550003       3.77473101E-04
   16.6700001       3.65799089E-04
   16.7849998       3.58985068E-04
   16.8999996       3.57547542E-04
   17.0149994       3.61382321E-04
   17.1299992       3.69743968E-04
   17.2450008       3.81373655E-04
   17.3600006       3.94746312E-04
   17.4750004       4.08371474E-04
   17.5900002       4.21062199E-04
   17.7049999       4.32110130E-04
   17.8199997       4.41332959E-04
   17.9349995       4.49013867E-04
   18.0499992       4.55775240E-04
   18.1650009       4.62443219E-04
   18.2800007       4.69942257E-04
   18.3950005       4.79229959E-04
   18.5100002       4.91249666E-04
   18.6250000       5.06869517E-04
   18.7399998       5.26779215E-04
   18.8549995       5.51344710E-04
   18.9699993       5.80451277E-04
   19.0849991       6.13389770E-04
   19.2000008       6.48845045E-04
   19.3150005       6.85013889E-04
   19.4300003       7.19846692E-04
   19.5450001       7.51357642E-04
   19.6599998       7.77925248E-04
   19.7749996       7.98502646E-04
   19.8899994       8.12690530E-04
   20.0049992       8.20669869E-04
   20.1200008       8.23043054E-04
   20.2350006       8.20658403E-04
   20.3500004       8.14490020E-04
   20.4650002       8.05610674E-04
   20.5799999       7.95247499E-04
   20.6949997       7.84862030E-04
   20.8099995       7.76175002E-04
   20.9249992       7.71070016E-04
   21.0400009       7.71355699E-04
   21.1550007       7.78426765E-04
   21.2700005       7.92917737E-04
   21.3850002       8.14462430E-04
   21.5000000       8.41653906E-04
   21.6149998       8.72241973E-04
   21.7299995       9.03529406E-04
   21.8449993       9.32861527E-04
   21.9599991       9.58075805E-04
   22.0750008       9.77786724E-04
   22.1900005       9.91444336E-04
   22.3050003       9.99175827E-04
   22.4200001       1.00149633E-03
   22.5349998       9.99010401E-04
   22.6499996       9.92217916E-04
   22.7649994       9.81485820E-04
   22.8799992       9.67176631E-04
   22.9950008       9.49854555E-04
   23.1100006       9.30456212E-04
   23.2250004       9.10325500E-04
   23.3400002       8.91061209E-04
   23.4549999       8.74206075E-04
   23.5699997       8.60867091E-04
   23.6849995       8.51397170E-04
   23.7999992       8.45250615E-04
   23.9150009       8.41073750E-04
   24.0300007       8.37011379E-04
   24.1450005       8.31138750E-04
   24.2600002       8.21888214E-04
   24.3750000       8.08346842E-04
   24.4899998       7.90347520E-04
   24.6049995       7.68352707E-04
   24.7199993       7.43192271E-04
   24.8349991       7.15767907E-04
   24.9500008       6.86826766E-04
   25.0650005       6.56875956E-04
   25.1800003       6.26242778E-04
   25.2950001       5.95230318E-04
   25.4099998       5.64283109E-04
   25.5249996       5.34079620E-04
   25.6399994       5.05505013E-04
   25.7549992       4.79509181E-04
   25.8700008       4.56905313E-04
   25.9850006       4.38188086E-04
   26.1000004       4.23442398E-04
   26.2150002       4.12379130E-04
   26.3299999       4.04484948E-04
   26.4449997       3.99230456E-04
   26.5599995       3.96261486E-04
   26.6749992       3.95511219E-04
   26.7900009       3.97200900E-04
   26.9050007       4.01742698E-04
   27.0200005       4.09588451E-04
   27.1350002       4.21085075E-04
   27.2500000       4.36381204E-04
   27.3649998       4.55401430E-04
   27.4799995       4.77872032E-04
   27.5949993       5.03360701E-04
   27.7099991       5.31291997E-04
   27.8250008       5.60922141E-04
   27.9400005       5.91284770E-04
   28.0550003       6.21147163E-04
   28.1700001       6.49021124E-04
   28.2849998       6.73261238E-04
   28.3999996       6.92247995E-04
   28.5149994       7.04617531E-04
   28.6299992       7.09472690E-04
   28.7450008       7.06509687E-04
   28.8600006       6.96020143E-04
   28.9750004       6.78768090E-04
   29.0900002       6.55789627E-04
   29.2049999       6.28186855E-04
   29.3199997       5.96986851E-04
   29.4349995       5.63108420E-04
   29.5499992       5.27428929E-04
   29.6650009       4.90899314E-04
   29.7800007       4.54630790E-04
   29.8950005       4.19883407E-04
   30.0100002       3.87928187E-04
   30.1250000       3.59806698E-04
   30.2399998       3.36067344E-04
   30.3549995       3.16574937E-04
   30.4699993       3.00481217E-04
   30.5849991       2.86389084E-04
   30.7000008       2.72681151E-04
   30.8150005       2.57918611E-04
   30.9300003       2.41188100E-04
   31.0450001       2.22288843E-04
   31.1599998       2.01703457E-04
   31.2749996       1.80370625E-04
   31.3899994       1.59345291E-04
   31.5049992       1.39467244E-04
   31.6200008       1.21154619E-04
   31.7350006       1.04384591E-04
   31.8500004       8.88511640E-05
   31.9650002       7.42273769E-05
   32.0800018       6.04126180E-05
   32.1949997       4.76603818E-05
   32.3100014       3.65278829E-05
   32.4249992       2.76587962E-05
   32.5400009       2.14820684E-05
   32.6549988       1.79414837E-05
   32.7700005       1.63683799E-05
   32.8849983       1.55541784E-05
   33.0000000       1.40142020E-05
   33.1150017       1.03560860E-05
   33.2299995       3.63761637E-06
   33.3450012      -6.40590451E-06
   33.4599991      -1.93322794E-05
   33.5750008      -3.41606501E-05
   33.6899986      -4.96692410E-05
   33.8050003      -6.47155466E-05
   33.9199982      -7.84707008E-05
   34.0349998      -9.04991393E-05
   34.1500015      -1.00675723E-04
   34.2649994      -1.08997345E-04
   34.3800011      -1.15374409E-04
   34.4949989      -1.19493146E-04
   34.6100006      -1.20802921E-04
   34.7249985      -1.18629338E-04
   34.8400002      -1.12364687E-04
   34.9550018      -1.01657228E-04
   35.0699997      -8.65248148E-05
   35.1850014      -6.73545437E-05
   35.2999992      -4.47920465E-05
   35.4150009      -1.95706125E-05
   35.5299988       7.65332970E-06
   35.6450005       3.63968975E-05
   35.7599983       6.63497631E-05
   35.8750000       9.72910202E-05
   35.9900017       1.28966902E-04
   36.1049995       1.60988304E-04
   36.2200012       1.92791471E-04
   36.3349991       2.23677285E-04
   36.4500008       2.52907106E-04
   36.5649986       2.79811415E-04
   36.6800003       3.03864625E-04
   36.7949982       3.24699766E-04
   36.9099998       3.42067389E-04
   37.0250015       3.55771190E-04
   37.1399994       3.65624728E-04
   37.2550011       3.71466624E-04
   37.3699989       3.73237912E-04
   37.4850006       3.71094473E-04
   37.5999985       3.65503365E-04
   37.7150002       3.57263954E-04
   37.8300018       3.47422756E-04
   37.9449997       3.37089936E-04
   38.0600014       3.27206479E-04
   38.1749992       3.18336679E-04
   38.2900009       3.10561241E-04
   38.4049988       3.03509063E-04
   38.5200005       2.96521641E-04
   38.6349983       2.88890267E-04
   38.7500000       2.80079752E-04
   38.8650017       2.69857526E-04
   38.9799995       2.58282846E-04
   39.0950012       2.45567935E-04
   39.2099991       2.31877173E-04
   39.3250008       2.17155190E-04
   39.4399986       2.01070463E-04
   39.5550003       1.83115117E-04
   39.6699982       1.62837649E-04
   39.7849998       1.40129618E-04
   39.9000015       1.15452953E-04
   40.0149994       8.99113948E-05
   40.1300011       6.51182927E-05
   40.2449989       4.28841195E-05
   40.3600006       2.48145825E-05
   40.4749985       1.19469114E-05
   40.5900002       4.54166593E-06
   40.7050018       2.09507357E-06
   40.8199997       3.56193459E-06
   40.9350014       7.70518454E-06
   41.0499992       1.34470893E-05
   41.1650009       2.01017174E-05
   41.2799988       2.74145150E-05
   41.3950005       3.54114745E-05
   41.5099983       4.41301963E-05
   41.6250000       5.33495622E-05
   41.7400017       6.24343957E-05
   41.8549995       7.03613623E-05
   41.9700012       7.59241375E-05
   42.0849991       7.80476184E-05
   42.2000008       7.60950134E-05
   42.3149986       7.00543533E-05
   42.4300003       6.05364330E-05
   42.5449982       4.85854180E-05
   42.6599998       3.53678297E-05
   42.7750015       2.18546775E-05
   42.8899994       8.60440832E-06
   43.0050011      -4.28082285E-06
   43.1199989      -1.70208532E-05
   43.2350006      -2.99034891E-05
   43.3499985      -4.30097680E-05
   43.4650002      -5.60202279E-05
   43.5800018      -6.81705133E-05
   43.6949997      -7.83626383E-05
   43.8100014      -8.53872407E-05
   43.9249992      -8.81725355E-05
   44.0400009      -8.59763313E-05
   44.1549988      -7.84645672E-05
   44.2700005      -6.56717602E-05
   44.3849983      -4.78801776E-05
