  -1.50000000        -3.84802932E-18
  -1.38125002        -8.46097747E-10
  -1.26250005        -3.60350438E-09
  -1.14374995        -1.04332516E-08
  -1.02499998        -2.55828052E-08
 -0.906250000        -5.67651988E-08
 -0.787500024        -1.16532661E-07
 -0.668749988        -2.22574059E-07
 -0.550000012        -3.94986699E-07
 -0.431250006        -6.47897707E-07
 -0.312500000        -9.73061788E-07
 -0.193749994        -1.31502156E-06
  -7.50000030E-02    -1.54140957E-06
   4.37499993E-02    -1.41728287E-06
  0.162499994        -5.97096175E-07
  0.281250000         1.35052846E-06
  0.400000006         4.87375564E-06
  0.518750012         1.03219218E-05
  0.637499988         1.77937764E-05
  0.756250024         2.69726333E-05
  0.875000000         3.69800655E-05
  0.993749976         4.62816206E-05
   1.11249995         5.26725889E-05
   1.23125005         5.33601087E-05
   1.35000002         4.51427732E-05
   1.46875000         2.46728632E-05
   1.58749998        -1.12272965E-05
   1.70624995        -6.52333038E-05
   1.82500005        -1.39213371E-04
   1.94375002        -2.33990504E-04
   2.06250000        -3.49204958E-04
   2.18125010        -4.83297335E-04
   2.29999995        -6.33616874E-04
   2.41875005        -7.96643028E-04
   2.53749990        -9.68293345E-04
   2.65625000        -1.14427751E-03
   2.77500010        -1.32045441E-03
   2.89374995        -1.49314455E-03
   3.01250005        -1.65936223E-03
   3.13124990        -1.81693793E-03
   3.25000000        -1.96452183E-03
   3.36875010        -2.10147491E-03
   3.48749995        -2.22767075E-03
   3.60625005        -2.34324136E-03
   3.72499990        -2.44831503E-03
   3.84375000        -2.54278514E-03
   3.96250010        -2.62615504E-03
   4.08125019        -2.69748108E-03
   4.19999981        -2.75543076E-03
   4.31874990        -2.79845018E-03
   4.43750000        -2.82501709E-03
   4.55625010        -2.83394544E-03
   4.67500019        -2.82469345E-03
   4.79374981        -2.79762852E-03
   4.91249990        -2.75420444E-03
   5.03125000        -2.69701378E-03
   5.15000010        -2.62970128E-03
   5.26875019        -2.55673681E-03
   5.38749981        -2.48306850E-03
   5.50624990        -2.41369498E-03
   5.62500000        -2.35320465E-03
   5.74375010        -2.30534025E-03
   5.86250019        -2.27264315E-03
   5.98124981        -2.25621881E-03
   6.09999990        -2.25566071E-03
   6.21875000        -2.26913509E-03
   6.33750010        -2.29362282E-03
   6.45625019        -2.32528662E-03
   6.57499981        -2.35991413E-03
   6.69374990        -2.39338959E-03
   6.81250000        -2.42212927E-03
   6.93125010        -2.44342908E-03
   7.05000019        -2.45568971E-03
   7.16874981        -2.45848740E-03
   7.28749990        -2.45249178E-03
   7.40625000        -2.43924814E-03
   7.52500010        -2.42085429E-03
   7.64375019        -2.39959056E-03
   7.76249981        -2.37754360E-03
   7.88124990        -2.35628965E-03
   8.00000000        -2.33667437E-03
   8.11874962        -2.31872196E-03
   8.23750019        -2.30168388E-03
   8.35624981        -2.28421716E-03
   8.47500038        -2.26466497E-03
   8.59375000        -2.24139355E-03
   8.71249962        -2.21314165E-03
   8.83125019        -2.17932207E-03
   8.94999981        -2.14023539E-03
   9.06875038        -2.09715916E-03
   9.18750000        -2.05229945E-03
   9.30624962        -2.00860226E-03
   9.42500019        -1.96945295E-03
   9.54374981        -1.93829613E-03
   9.66250038        -1.91822427E-03
   9.78125000        -1.91159267E-03
   9.89999962        -1.91970414E-03
   10.0187502        -1.94260909E-03
   10.1374998        -1.97904394E-03
   10.2562504        -2.02652020E-03
   10.3750000        -2.08154786E-03
   10.4937496        -2.13996950E-03
   10.6125002        -2.19736272E-03
   10.7312498        -2.24945927E-03
   10.8500004        -2.29253294E-03
   10.9687500        -2.32371083E-03
   11.0874996        -2.34117638E-03
   11.2062502        -2.34424532E-03
   11.3249998        -2.33331509E-03
   11.4437504        -2.30970141E-03
   11.5625000        -2.27539637E-03
   11.6812496        -2.23277998E-03
   11.8000002        -2.18432979E-03
   11.9187498        -2.13236595E-03
   12.0375004        -2.07886402E-03
   12.1562500        -2.02535233E-03
   12.2749996        -1.97289977E-03
   12.3937502        -1.92218833E-03
   12.5124998        -1.87364547E-03
   12.6312504        -1.82761287E-03
   12.7500000        -1.78451277E-03
   12.8687496        -1.74498593E-03
   12.9875002        -1.70997076E-03
   13.1062498        -1.68071117E-03
   13.2250004        -1.65868667E-03
   13.3437500        -1.64547528E-03
   13.4624996        -1.64256676E-03
   13.5812502        -1.65115588E-03
   13.6999998        -1.67194381E-03
   13.8187504        -1.70497899E-03
   13.9375000        -1.74956094E-03
   14.0562496        -1.80422189E-03
   14.1750002        -1.86678942E-03
   14.2937498        -1.93452509E-03
   14.4125004        -2.00431910E-03
   14.5312500        -2.07291893E-03
   14.6499996        -2.13716435E-03
   14.7687502        -2.19419994E-03
   14.8874998        -2.24164338E-03
   15.0062504        -2.27769814E-03
   15.1250000        -2.30119540E-03
   15.2437496        -2.31157802E-03
   15.3625002        -2.30883458E-03
   15.4812498        -2.29340210E-03
   15.6000004        -2.26605707E-03
   15.7187500        -2.22782022E-03
   15.8374996        -2.17988668E-03
   15.9562502        -2.12359289E-03
   16.0750008        -2.06041965E-03
   16.1937504        -1.99202541E-03
   16.3125000        -1.92029332E-03
   16.4312496        -1.84737251E-03
   16.5499992        -1.77569420E-03
   16.6687508        -1.70794711E-03
   16.7875004        -1.64699822E-03
   16.9062500        -1.59576035E-03
   17.0249996        -1.55701267E-03
   17.1437492        -1.53319119E-03
   17.2625008        -1.52617285E-03
   17.3812504        -1.53708120E-03
   17.5000000        -1.56613963E-03
   17.6187496        -1.61259575E-03
   17.7374992        -1.67473196E-03
   17.8562508        -1.74996699E-03
   17.9750004        -1.83503970E-03
   18.0937500        -1.92625844E-03
   18.2124996        -2.01978814E-03
   18.3312492        -2.11194134E-03
   18.4500008        -2.19943863E-03
   18.5687504        -2.27960921E-03
   18.6875000        -2.35050684E-03
   18.8062496        -2.41093570E-03
   18.9249992        -2.46037869E-03
   19.0437508        -2.49885349E-03
   19.1625004        -2.52671679E-03
   19.2812500        -2.54445174E-03
   19.3999996        -2.55247275E-03
   19.5187492        -2.55098171E-03
   19.6375008        -2.53989897E-03
   19.7562504        -2.51888065E-03
   19.8750000        -2.48742476E-03
   19.9937496        -2.44504376E-03
   20.1124992        -2.39148596E-03
   20.2312508        -2.32696394E-03
   20.3500004        -2.25235126E-03
   20.4687500        -2.16931687E-03
   20.5874996        -2.08036206E-03
   20.7062492        -1.98874786E-03
   20.8250008        -1.89830910E-03
   20.9437504        -1.81317248E-03
   21.0625000        -1.73740461E-03
   21.1812496        -1.67463359E-03
   21.2999992        -1.62768818E-03
   21.4187508        -1.59830239E-03
   21.5375004        -1.58692419E-03
   21.6562500        -1.59265345E-03
   21.7749996        -1.61332416E-03
   21.8937492        -1.64571940E-03
   22.0125008        -1.68589770E-03
   22.1312504        -1.72959152E-03
   22.2500000        -1.77262921E-03
   22.3687496        -1.81133114E-03
   22.4874992        -1.84283394E-03
   22.6062508        -1.86530326E-03
   22.7250004        -1.87801593E-03
   22.8437500        -1.88130455E-03
   22.9624996        -1.87637925E-03
   23.0812492        -1.86505460E-03
   23.2000008        -1.84942479E-03
   23.3187504        -1.83153152E-03
   23.4375000        -1.81307551E-03
   23.5562496        -1.79520797E-03
   23.6749992        -1.77843170E-03
   23.7937508        -1.76262239E-03
   23.9125004        -1.74716196E-03
   24.0312500        -1.73116324E-03
   24.1499996        -1.71374588E-03
   24.2687492        -1.69432105E-03
   24.3875008        -1.67283777E-03
   24.5062504        -1.64995098E-03
   24.6250000        -1.62708096E-03
   24.7437496        -1.60635181E-03
   24.8624992        -1.59041060E-03
   24.9812508        -1.58215070E-03
   25.1000004        -1.58437004E-03
   25.2187500        -1.59941334E-03
   25.3374996        -1.62884349E-03
   25.4562492        -1.67318620E-03
   25.5750008        -1.73178746E-03
   25.6937504        -1.80279987E-03
   25.8125000        -1.88330607E-03
   25.9312496        -1.96956471E-03
   26.0499992        -2.05734721E-03
   26.1687508        -2.14232877E-03
   26.2875004        -2.22047814E-03
   26.4062500        -2.28840788E-03
   26.5249996        -2.34363461E-03
   26.6437492        -2.38472898E-03
   26.7625008        -2.41133757E-03
   26.8812504        -2.42408551E-03
   27.0000000        -2.42437422E-03
   27.1187496        -2.41411710E-03
   27.2374992        -2.39544595E-03
   27.3562508        -2.37043528E-03
   27.4750004        -2.34088069E-03
   27.5937500        -2.30815914E-03
   27.7124996        -2.27318704E-03
   27.8312492        -2.23647221E-03
   27.9500008        -2.19824747E-03
   28.0687504        -2.15865299E-03
   28.1875000        -2.11793929E-03
   28.3062496        -2.07664561E-03
   28.4249992        -2.03572283E-03
   28.5437508        -1.99657516E-03
   28.6625004        -1.96100725E-03
   28.7812500        -1.93107955E-03
   28.8999996        -1.90888904E-03
   29.0187492        -1.89630489E-03
   29.1375008        -1.89469720E-03
   29.2562504        -1.90469937E-03
   29.3750000        -1.92604226E-03
   29.4937496        -1.95748592E-03
   29.6124992        -1.99686550E-03
   29.7312508        -2.04125000E-03
   29.8500004        -2.08719377E-03
   29.9687500        -2.13105557E-03
   30.0874996        -2.16934131E-03
   30.2062492        -2.19902978E-03
   30.3250008        -2.21783970E-03
   30.4437504        -2.22440669E-03
   30.5625000        -2.21834751E-03
   30.6812496        -2.20021210E-03
   30.7999992        -2.17132992E-03
   30.9187508        -2.13357550E-03
   31.0375004        -2.08909437E-03
   31.1562500        -2.04002531E-03
   31.2749996        -1.98826147E-03
   31.3937492        -1.93528330E-03
   31.5125008        -1.88208709E-03
   31.6312504        -1.82921439E-03
   31.7500000        -1.77687395E-03
   31.8687496        -1.72513304E-03
   31.9874992        -1.67414092E-03
   32.1062508        -1.62434578E-03
   32.2249985        -1.57666218E-03
   32.3437500        -1.53255649E-03
   32.4625015        -1.49402767E-03
   32.5812492        -1.46347715E-03
   32.7000008        -1.44347886E-03
   32.8187485        -1.43647671E-03
   32.9375000        -1.44444767E-03
   33.0562515        -1.46857766E-03
   33.1749992        -1.50899589E-03
   33.2937508        -1.56461098E-03
   33.4124985        -1.63307518E-03
   33.5312500        -1.71089103E-03
   33.6500015        -1.79365405E-03
   33.7687492        -1.87640835E-03
   33.8875008        -1.95407472E-03
   34.0062485        -2.02190084E-03
   34.1250000        -2.07588170E-03
   34.2437515        -2.11309688E-03
   34.3624992        -2.13192729E-03
   34.4812508        -2.13212450E-03
   34.5999985        -2.11472856E-03
   34.7187500        -2.08184891E-03
   34.8375015        -2.03634147E-03
   34.9562492        -1.98142510E-03
   35.0750008        -1.92029355E-03
   35.1937485        -1.85577327E-03
   35.3125000        -1.79007207E-03
   35.4312515        -1.72464736E-03
   35.5499992        -1.66021090E-03
   35.6687508        -1.59685954E-03
   35.7874985        -1.53430842E-03
   35.9062500        -1.47218758E-03
   36.0250015        -1.41035137E-03
   36.1437492        -1.34915090E-03
   36.2625008        -1.28962228E-03
   36.3812485        -1.23355829E-03
   36.5000000        -1.18344370E-03
   36.6187515        -1.14225887E-03
   36.7374992        -1.11317192E-03
   36.8562508        -1.09915843E-03
   36.9749985        -1.10260048E-03
   37.0937500        -1.12491881E-03
   37.2125015        -1.16628979E-03
   37.3312492        -1.22549280E-03
   37.4500008        -1.29990873E-03
   37.5687485        -1.38567900E-03
   37.6875000        -1.47800974E-03
   37.8062515        -1.57158484E-03
   37.9249992        -1.66104361E-03
   38.0437508        -1.74146262E-03
   38.1624985        -1.80878816E-03
   38.2812500        -1.86016655E-03
   38.4000015        -1.89413817E-03
   38.5187492        -1.91067404E-03
   38.6375008        -1.91105693E-03
   38.7562485        -1.89762795E-03
   38.8750000        -1.87343580E-03
   38.9937515        -1.84183661E-03
   39.1124992        -1.80609967E-03
   39.2312508        -1.76906621E-03
   39.3499985        -1.73290772E-03
   39.4687500        -1.69900409E-03
   39.5875015        -1.66795531E-03
   39.7062492        -1.63971237E-03
   39.8250008        -1.61380030E-03
   39.9437485        -1.58959546E-03
   40.0625000        -1.56660785E-03
   40.1812515        -1.54472457E-03
   40.2999992        -1.52437342E-03
   40.4187508        -1.50658248E-03
   40.5374985        -1.49292452E-03
   40.6562500        -1.48535159E-03
   40.7750015        -1.48594624E-03
   40.8937492        -1.49662222E-03
   41.0125008        -1.51881983E-03
   41.1312485        -1.55323907E-03
   41.2500000        -1.59965153E-03
   41.3687515        -1.65681739E-03
   41.4874992        -1.72252615E-03
   41.6062508        -1.79375440E-03
   41.7249985        -1.86692621E-03
   41.8437500        -1.93824165E-03
   41.9625015        -2.00403458E-03
   42.0812492        -2.06111418E-03
   42.2000008        -2.10704794E-03
   42.3187485        -2.14035646E-03
   42.4375000        -2.16059457E-03
   42.5562515        -2.16831779E-03
   42.6749992        -2.16494408E-03
   42.7937508        -2.15253141E-03
   42.9124985        -2.13350914E-03
   43.0312500        -2.11039768E-03
   43.1500015        -2.08555418E-03
   43.2687492        -2.06097751E-03
   43.3875008        -2.03818968E-03
   43.5062485        -2.01820559E-03
   43.6250000        -2.00158218E-03
   43.7437515        -1.98853272E-03
   43.8624992        -1.97907863E-03
   43.9812508        -1.97320851E-03
   44.0999985        -1.97101315E-03
   44.2187500        -1.97277125E-03
   44.3375015        -1.97896990E-03
   44.4562492        -1.99025287E-03
   44.5750008        -2.00730562E-03
   44.6937485        -2.03069719E-03
   44.8125000        -2.06070091E-03
   44.9312515        -2.09713075E-03
   45.0499992        -2.13921932E-03
   45.1687508        -2.18556193E-03
   45.2874985        -2.23414483E-03
   45.4062500        -2.28245743E-03
   45.5250015        -2.32767779E-03
   45.6437492        -2.36691465E-03
   45.7625008        -2.39747250E-03
   45.8812485        -2.41710921E-03
