  -1.50000000       0.00000000    
  -1.38499999      -6.87339186E-10
  -1.26999998      -2.82861845E-09
  -1.15499997      -7.85720911E-09
  -1.03999996      -1.84099491E-08
 -0.925000012      -3.89681389E-08
 -0.810000002      -7.62220651E-08
 -0.694999993      -1.38296542E-07
 -0.579999983      -2.31379161E-07
 -0.465000004      -3.51862070E-07
 -0.349999994      -4.72331180E-07
 -0.234999999      -5.21155187E-07
 -0.119999997      -3.58319596E-07
  -4.99999989E-03   2.45872400E-07
  0.109999999       1.61876403E-06
  0.224999994       4.16764760E-06
  0.340000004       8.32586829E-06
  0.455000013       1.44583564E-05
  0.569999993       2.27318505E-05
  0.685000002       3.29658324E-05
  0.800000012       4.44890247E-05
  0.915000021       5.60304943E-05
   1.02999997       6.56728225E-05
   1.14499998       7.08872540E-05
   1.25999999       6.86590065E-05
   1.37500000       5.56972809E-05
   1.49000001       2.87110670E-05
   1.60500002      -1.52792909E-05
   1.72000003      -7.86312885E-05
   1.83500004      -1.62808967E-04
   1.95000005      -2.68186064E-04
   2.06500006      -3.93950439E-04
   2.18000007      -5.38124645E-04
   2.29500008      -6.97702228E-04
   2.41000009      -8.68885720E-04
   2.52500010      -1.04739866E-03
   2.64000010      -1.22883357E-03
   2.75500011      -1.40899525E-03
   2.86999989      -1.58419646E-03
   2.98499990      -1.75147294E-03
   3.09999990      -1.90869230E-03
   3.21499991      -2.05454906E-03
   3.32999992      -2.18845112E-03
   3.44499993      -2.31032073E-03
   3.55999994      -2.42034090E-03
   3.67499995      -2.51869019E-03
   3.78999996      -2.60530924E-03
   3.90499997      -2.67973309E-03
   4.01999998      -2.74102320E-03
   4.13500023      -2.78780912E-03
   4.25000000      -2.81844218E-03
   4.36499977      -2.83123832E-03
   4.48000002      -2.82478449E-03
   4.59499979      -2.79825903E-03
   4.71000004      -2.75172433E-03
   4.82499981      -2.68634385E-03
   4.94000006      -2.60448921E-03
   5.05499983      -2.50970689E-03
   5.17000008      -2.40654708E-03
   5.28499985      -2.30025873E-03
   5.40000010      -2.19638110E-03
   5.51499987      -2.10028025E-03
   5.63000011      -2.01667612E-03
   5.74499989      -1.94921880E-03
   5.86000013      -1.90016453E-03
   5.97499990      -1.87018956E-03
   6.09000015      -1.85836502E-03
   6.20499992      -1.86229905E-03
   6.32000017      -1.87842711E-03
   6.43499994      -1.90242007E-03
   6.55000019      -1.92965858E-03
   6.66499996      -1.95572036E-03
   6.78000021      -1.97682297E-03
   6.89499998      -1.99017068E-03
   7.01000023      -1.99416745E-03
   7.12500000      -1.98847381E-03
   7.23999977      -1.97390816E-03
   7.35500002      -1.95220823E-03
   7.46999979      -1.92569173E-03
   7.58500004      -1.89685856E-03
   7.69999981      -1.86799665E-03
   7.81500006      -1.84084068E-03
   7.92999983      -1.81632896E-03
   8.04500008      -1.79449178E-03
   8.15999985      -1.77448441E-03
   8.27499962      -1.75475911E-03
   8.39000034      -1.73335010E-03
   8.50500011      -1.70823152E-03
   8.61999989      -1.67769776E-03
   8.73499966      -1.64071308E-03
   8.85000038      -1.59718015E-03
   8.96500015      -1.54808955E-03
   9.07999992      -1.49552361E-03
   9.19499969      -1.44251273E-03
   9.31000042      -1.39275833E-03
   9.42500019      -1.35025184E-03
   9.53999996      -1.31883717E-03
   9.65499973      -1.30177045E-03
   9.77000046      -1.30132842E-03
   9.88500023      -1.31851609E-03
   10.0000000      -1.35290832E-03
   10.1149998      -1.40264607E-03
   10.2299995      -1.46458868E-03
   10.3450003      -1.53460039E-03
   10.4600000      -1.60794274E-03
   10.5749998      -1.67972059E-03
   10.6899996      -1.74533250E-03
   10.8050003      -1.80087250E-03
   10.9200001      -1.84344023E-03
   11.0349998      -1.87132694E-03
   11.1499996      -1.88406114E-03
   11.2650003      -1.88231946E-03
   11.3800001      -1.86772074E-03
   11.4949999      -1.84253766E-03
   11.6099997      -1.80936581E-03
   11.7250004      -1.77080056E-03
   11.8400002      -1.72915868E-03
   11.9549999      -1.68628199E-03
   12.0699997      -1.64344173E-03
   12.1850004      -1.60135061E-03
   12.3000002      -1.56027044E-03
   12.4150000      -1.52019644E-03
   12.5299997      -1.48107833E-03
   12.6450005      -1.44304533E-03
   12.7600002      -1.40659523E-03
   12.8750000      -1.37271266E-03
   12.9899998      -1.34289928E-03
   13.1049995      -1.31910562E-03
   13.2200003      -1.30356906E-03
   13.3350000      -1.29858055E-03
   13.4499998      -1.30620843E-03
   13.5649996      -1.32801908E-03
   13.6800003      -1.36482832E-03
   13.7950001      -1.41652359E-03
   13.9099998      -1.48197729E-03
   14.0249996      -1.55906973E-03
   14.1400003      -1.64481578E-03
   14.2550001      -1.73558516E-03
   14.3699999      -1.82738900E-03
   14.4849997      -1.91619690E-03
   14.6000004      -1.99824967E-03
   14.7150002      -2.07033125E-03
   14.8299999      -2.12996593E-03
   14.9449997      -2.17553065E-03
   15.0600004      -2.20626709E-03
   15.1750002      -2.22220412E-03
   15.2900000      -2.22401042E-03
   15.4049997      -2.21280078E-03
   15.5200005      -2.18993216E-03
   15.6350002      -2.15682015E-03
   15.7500000      -2.11480190E-03
   15.8649998      -2.06506834E-03
   15.9799995      -2.00866745E-03
   16.0949993      -1.94657664E-03
   16.2099991      -1.87982642E-03
   16.3250008      -1.80964894E-03
   16.4400005      -1.73761917E-03
   16.5550003      -1.66575913E-03
   16.6700001      -1.59657863E-03
   16.7849998      -1.53303193E-03
   16.8999996      -1.47838774E-03
   17.0149994      -1.43601827E-03
   17.1299992      -1.40912691E-03
   17.2450008      -1.40044640E-03
   17.3600006      -1.41194183E-03
   17.4750004      -1.44456024E-03
   17.5900002      -1.49805960E-03
   17.7049999      -1.57094235E-03
   17.8199997      -1.66051136E-03
   17.9349995      -1.76304264E-03
   18.0499992      -1.87406479E-03
   18.1650009      -1.98871084E-03
   18.2800007      -2.10210658E-03
   18.3950005      -2.20975117E-03
   18.5100002      -2.30784551E-03
   18.6250000      -2.39353091E-03
   18.7399998      -2.46501458E-03
   18.8549995      -2.52156914E-03
   18.9699993      -2.56341067E-03
   19.0849991      -2.59147887E-03
   19.2000008      -2.60715140E-03
   19.3150005      -2.61193514E-03
   19.4300003      -2.60717655E-03
   19.5450001      -2.59383745E-03
   19.6599998      -2.57236185E-03
   19.7749996      -2.54265568E-03
   19.8899994      -2.50418228E-03
   20.0049992      -2.45615561E-03
   20.1200008      -2.39780615E-03
   20.2350006      -2.32867850E-03
   20.3500004      -2.24891398E-03
   20.4650002      -2.15947558E-03
   20.5799999      -2.06227694E-03
   20.6949997      -1.96018675E-03
   20.8099995      -1.85690238E-03
   20.9249992      -1.75669731E-03
   21.0400009      -1.66406925E-03
   21.1550007      -1.58332579E-03
   21.2700005      -1.51815882E-03
   21.3850002      -1.47125684E-03
   21.5000000      -1.44400680E-03
   21.6149998      -1.43632200E-03
   21.7299995      -1.44662219E-03
   21.8449993      -1.47197070E-03
   21.9599991      -1.50835479E-03
   22.0750008      -1.55107991E-03
   22.1900005      -1.59523147E-03
   22.3050003      -1.63615111E-03
   22.4200001      -1.66987418E-03
   22.5349998      -1.69347622E-03
   22.6499996      -1.70529331E-03
   22.7649994      -1.70499261E-03
   22.8799992      -1.69348822E-03
   22.9950008      -1.67272286E-03
   23.1100006      -1.64534198E-03
   23.2250004      -1.61430961E-03
   23.3400002      -1.58251496E-03
   23.4549999      -1.55242148E-03
   23.5699997      -1.52580172E-03
   23.6849995      -1.50359306E-03
   23.7999992      -1.48588326E-03
   23.9150009      -1.47202774E-03
   24.0300007      -1.46087643E-03
   24.1450005      -1.45107310E-03
   24.2600002      -1.44138257E-03
   24.3750000      -1.43099879E-03
   24.4899998      -1.41978532E-03
   24.6049995      -1.40841492E-03
   24.7199993      -1.39838189E-03
   24.8349991      -1.39188743E-03
   24.9500008      -1.39160571E-03
   25.0650005      -1.40036177E-03
   25.1800003      -1.42076239E-03
   25.2950001      -1.45482633E-03
   25.4099998      -1.50366302E-03
   25.5249996      -1.56724325E-03
   25.6399994      -1.64429203E-03
   25.7549992      -1.73232076E-03
   25.8700008      -1.82779622E-03
   25.9850006      -1.92643050E-03
   26.1000004      -2.02355371E-03
   26.2150002      -2.11452949E-03
   26.3299999      -2.19516200E-03
   26.4449997      -2.26205075E-03
   26.5599995      -2.31285021E-03
   26.6749992      -2.34640739E-03
   26.7900009      -2.36277236E-03
   26.9050007      -2.36307690E-03
   27.0200005      -2.34931498E-03
   27.1350002      -2.32404866E-03
   27.2500000      -2.29008542E-03
   27.3649998      -2.25016940E-03
   27.4799995      -2.20672437E-03
   27.5949993      -2.16167956E-03
   27.7099991      -2.11639260E-03
   27.8250008      -2.07167445E-03
   27.9400005      -2.02790531E-03
   28.0550003      -1.98521093E-03
   28.1700001      -1.94367289E-03
   28.2849998      -1.90353103E-03
   28.3999996      -1.86534552E-03
   28.5149994      -1.83008646E-03
   28.6299992      -1.79913698E-03
   28.7450008      -1.77420361E-03
   28.8600006      -1.75714178E-03
   28.9750004      -1.74972415E-03
   29.0900002      -1.75337936E-03
   29.2049999      -1.76894036E-03
   29.3199997      -1.79644162E-03
   29.4349995      -1.83499535E-03
   29.5499992      -1.88276812E-03
   29.6650009      -1.93706725E-03
   29.7800007      -1.99453160E-03
   29.8950005      -2.05140351E-03
   30.0100002      -2.10385444E-03
   30.1250000      -2.14832206E-03
   30.2399998      -2.18182080E-03
   30.3549995      -2.20218836E-03
   30.4699993      -2.20823870E-03
   30.5849991      -2.19980720E-03
   30.7000008      -2.17768317E-03
   30.8150005      -2.14344566E-03
   30.9300003      -2.09922367E-03
   31.0450001      -2.04741932E-03
   31.1599998      -1.99042819E-03
   31.2749996      -1.93039654E-03
   31.3899994      -1.86904904E-03
   31.5049992      -1.80760282E-03
   31.6200008      -1.74678094E-03
   31.7350006      -1.68691401E-03
   31.8500004      -1.62811310E-03
   31.9650002      -1.57048099E-03
   32.0800018      -1.51432503E-03
   32.1949997      -1.46033580E-03
   32.3100014      -1.40969560E-03
   32.4249992      -1.36409723E-03
   32.5400009      -1.32565794E-03
   32.6549988      -1.29673898E-03
   32.7700005      -1.27968634E-03
   32.8849983      -1.27652544E-03
   33.0000000      -1.28865102E-03
   33.1150017      -1.31655298E-03
   33.2299995      -1.35962002E-03
   33.3450012      -1.41605234E-03
   33.4599991      -1.48290012E-03
   33.5750008      -1.55623385E-03
   33.6899986      -1.63142988E-03
   33.8050003      -1.70354417E-03
   33.9199982      -1.76773209E-03
   34.0349998      -1.81966880E-03
   34.1500015      -1.85591890E-03
   34.2649994      -1.87421590E-03
   34.3800011      -1.87361753E-03
   34.4949989      -1.85452192E-03
   34.6100006      -1.81854423E-03
   34.7249985      -1.76827237E-03
   34.8400002      -1.70693488E-03
   34.9550018      -1.63802481E-03
   35.0699997      -1.56492565E-03
   35.1850014      -1.49058911E-03
   35.2999992      -1.41730194E-03
   35.4150009      -1.34656625E-03
   35.5299988      -1.27910753E-03
   35.6450005      -1.21500134E-03
   35.7599983      -1.15389423E-03
   35.8750000      -1.09528599E-03
   35.9900017      -1.03882677E-03
   36.1049995      -9.84583050E-04
   36.2200012      -9.33231844E-04
   36.3349991      -8.86150287E-04
   36.4500008      -8.45381699E-04
   36.5649986      -8.13479070E-04
   36.6800003      -7.93242711E-04
   36.7949982      -7.87382538E-04
   36.9099998      -7.98148802E-04
   37.0250015      -8.26981675E-04
   37.1399994      -8.74225167E-04
   37.2550011      -9.38947953E-04
   37.3699989      -1.01889821E-03
   37.4850006      -1.11060450E-03
   37.5999985      -1.20961433E-03
   37.7150002      -1.31084712E-03
   37.8300018      -1.40902307E-03
   37.9449997      -1.49911782E-03
   38.0600014      -1.57679222E-03
   38.1749992      -1.63874996E-03
   38.2900009      -1.68297952E-03
   38.4049988      -1.70886121E-03
   38.5200005      -1.71712553E-03
   38.6349983      -1.70967460E-03
   38.7500000      -1.68929447E-03
   38.8650017      -1.65929436E-03
   38.9799995      -1.62311958E-03
   39.0950012      -1.58398843E-03
   39.2099991      -1.54459442E-03
   39.3250008      -1.50690833E-03
   39.4399986      -1.47209875E-03
   39.5550003      -1.44057500E-03
   39.6699982      -1.41213695E-03
   39.7849998      -1.38620415E-03
   39.9000015      -1.36208814E-03
   40.0149994      -1.33926107E-03
   40.1300011      -1.31758244E-03
   40.2449989      -1.29744736E-03
   40.3600006      -1.27983384E-03
   40.4749985      -1.26624212E-03
   40.5900002      -1.25853077E-03
   40.7050018      -1.25867594E-03
   40.8199997      -1.26848440E-03
   40.9350014      -1.28930074E-03
   41.0499992      -1.32175314E-03
   41.1650009      -1.36557210E-03
   41.2799988      -1.41950988E-03
   41.3950005      -1.48137694E-03
   41.5099983      -1.54819142E-03
   41.6250000      -1.61642849E-03
   41.7400017      -1.68233842E-03
   41.8549995      -1.74229569E-03
   41.9700012      -1.79313764E-03
   42.0849991      -1.83245097E-03
   42.2000008      -1.85877341E-03
   42.3149986      -1.87168620E-03
   42.4300003      -1.87179283E-03
   42.5449982      -1.86058611E-03
   42.6599998      -1.84022717E-03
   42.7750015      -1.81326782E-03
   42.8899994      -1.78235257E-03
   43.0050011      -1.74994080E-03
   43.1199989      -1.71808118E-03
   43.2350006      -1.68827001E-03
   43.3499985      -1.66140019E-03
   43.4650002      -1.63780665E-03
   43.5800018      -1.61739264E-03
   43.6949997      -1.59981288E-03
   43.8100014      -1.58467994E-03
   43.9249992      -1.57176098E-03
   44.0400009      -1.56113028E-03
   44.1549988      -1.55325059E-03
   44.2700005      -1.54897128E-03
   44.3849983      -1.54943671E-03
