  -1.50000000        -2.65026456E-18
  -1.38125002        -1.33310840E-09
  -1.26250005        -5.68086866E-09
  -1.14374995        -1.64567204E-08
  -1.02499998        -4.03693008E-08
 -0.906250000        -8.95989203E-08
 -0.787500024        -1.83965454E-07
 -0.668749988        -3.51395215E-07
 -0.550000012        -6.23599419E-07
 -0.431250006        -1.02279773E-06
 -0.312500000        -1.53569863E-06
 -0.193749994        -2.07402377E-06
  -7.50000030E-02    -2.42716283E-06
   4.37499993E-02    -2.22095855E-06
  0.162499994        -9.04137437E-07
  0.281250000         2.21355140E-06
  0.400000006         7.85310203E-06
  0.518750012         1.65840047E-05
  0.637499988         2.85841779E-05
  0.756250024         4.33783644E-05
  0.875000000         5.96050922E-05
  0.993749976         7.48655730E-05
   1.11249995         8.56991828E-05
   1.23125005         8.77120619E-05
   1.35000002         7.58606111E-05
   1.46875000         4.48665596E-05
   1.58749998        -1.02822114E-05
   1.70624995        -9.38063531E-05
   1.82500005        -2.08653160E-04
   1.94375002        -3.56122706E-04
   2.06250000        -5.35653846E-04
   2.18125010        -7.44801364E-04
   2.29999995        -9.79411299E-04
   2.41875005        -1.23397424E-03
   2.53749990        -1.50211237E-03
   2.65625000        -1.77713984E-03
   2.77500010        -2.05262378E-03
   2.89374995        -2.32287543E-03
   3.01250005        -2.58331280E-03
   3.13124990        -2.83064810E-03
   3.25000000        -3.06288945E-03
   3.36875010        -3.27916071E-03
   3.48749995        -3.47938039E-03
   3.60625005        -3.66385374E-03
   3.72499990        -3.83284898E-03
   3.84375000        -3.98622686E-03
   3.96250010        -4.12319135E-03
   4.08125019        -4.24220040E-03
   4.19999981        -4.34106309E-03
   4.31874990        -4.41721035E-03
   4.43750000        -4.46810620E-03
   4.55625010        -4.49173758E-03
   4.67500019        -4.48710984E-03
   4.79374981        -4.45467373E-03
   4.91249990        -4.39660577E-03
   5.03125000        -4.31689480E-03
   5.15000010        -4.22120281E-03
   5.26875019        -4.11650538E-03
   5.38749981        -4.01054323E-03
   5.50624990        -3.91114177E-03
   5.62500000        -3.82548431E-03
   5.74375010        -3.75942234E-03
   5.86250019        -3.71691072E-03
   5.98124981        -3.69963911E-03
   6.09999990        -3.70690995E-03
   6.21875000        -3.73577862E-03
   6.33750010        -3.78143881E-03
   6.45625019        -3.83780920E-03
   6.57499981        -3.89824528E-03
   6.69374990        -3.95628810E-03
   6.81250000        -4.00635786E-03
   6.93125010        -4.04430367E-03
   7.05000019        -4.06775111E-03
   7.16874981        -4.07620426E-03
   7.28749990        -4.07090224E-03
   7.40625000        -4.05445602E-03
   7.52500010        -4.03032871E-03
   7.64375019        -4.00223164E-03
   7.76249981        -3.97352502E-03
   7.88124990        -3.94670991E-03
   8.00000000        -3.92308086E-03
   8.11874962        -3.90258431E-03
   8.23750019        -3.88390454E-03
   8.35624981        -3.86475329E-03
   8.47500038        -3.84232774E-03
   8.59375000        -3.81386210E-03
   8.71249962        -3.77719291E-03
   8.83125019        -3.73125519E-03
   8.94999981        -3.67643102E-03
   9.06875038        -3.61469970E-03
   9.18750000        -3.54955834E-03
   9.30624962        -3.48572060E-03
   9.42500019        -3.42862564E-03
   9.54374981        -3.38382111E-03
   9.66250038        -3.35629773E-03
   9.78125000        -3.34986090E-03
   9.89999962        -3.36662401E-03
   10.0187502        -3.40668461E-03
   10.1374998        -3.46802780E-03
   10.2562504        -3.54667148E-03
   10.3750000        -3.63702793E-03
   10.4937496        -3.73244635E-03
   10.6125002        -3.82585893E-03
   10.7312498        -3.91046098E-03
   10.8500004        -3.98033438E-03
   10.9687500        -4.03095363E-03
   11.0874996        -4.05951170E-03
   11.2062502        -4.06504096E-03
   11.3249998        -4.04832419E-03
   11.4437504        -4.01162682E-03
   11.5625000        -3.95828765E-03
   11.6812496        -3.89224500E-03
   11.8000002        -3.81754967E-03
   11.9187498        -3.73794464E-03
   12.0375004        -3.65655473E-03
   12.1562500        -3.57571989E-03
   12.2749996        -3.49698355E-03
   12.3937502        -3.42121837E-03
   12.5124998        -3.34885833E-03
   12.6312504        -3.28018656E-03
   12.7500000        -3.21562425E-03
   12.8687496        -3.15597048E-03
   12.9875002        -3.10254632E-03
   13.1062498        -3.05722095E-03
   13.2250004        -3.02230939E-03
   13.3437500        -3.00035626E-03
   13.4624996        -2.99383374E-03
   13.5812502        -3.00480006E-03
   13.6999998        -3.03456816E-03
   13.8187504        -3.08342907E-03
   13.9375000        -3.15047614E-03
   14.0562496        -3.23355617E-03
   14.1750002        -3.32935271E-03
   14.2937498        -3.43359937E-03
   14.4125004        -3.54139181E-03
   14.5312500        -3.64756002E-03
   14.6499996        -3.74705694E-03
   14.7687502        -3.83531651E-03
   14.8874998        -3.90854105E-03
   15.0062504        -3.96389142E-03
   15.1250000        -3.99956573E-03
   15.2437496        -4.01477888E-03
   15.3625002        -4.00964962E-03
   15.4812498        -3.98503477E-03
   15.6000004        -3.94234573E-03
   15.7187500        -3.88337113E-03
   15.8374996        -3.81014613E-03
   15.9562502        -3.72487749E-03
   16.0750008        -3.62993055E-03
   16.1937504        -3.52786644E-03
   16.3125000        -3.42151057E-03
   16.4312496        -3.31402360E-03
   16.5499992        -3.20893899E-03
   16.6687508        -3.11014568E-03
   16.7875004        -3.02179391E-03
   16.9062500        -2.94811628E-03
   17.0249996        -2.89317523E-03
   17.1437492        -2.86055799E-03
   17.2625008        -2.85305479E-03
   17.3812504        -2.87235877E-03
   17.5000000        -2.91883573E-03
   17.6187496        -2.99139507E-03
   17.7374992        -3.08748940E-03
   17.8562508        -3.20325256E-03
   17.9750004        -3.33376625E-03
   18.0937500        -3.47342924E-03
   18.2124996        -3.61638772E-03
   18.3312492        -3.75697645E-03
   18.4500008        -3.89011926E-03
   18.5687504        -4.01164033E-03
   18.6875000        -4.11845418E-03
   18.8062496        -4.20861086E-03
   18.9249992        -4.28120373E-03
   19.0437508        -4.33615874E-03
   19.1625004        -4.37394390E-03
   19.2812500        -4.39524651E-03
   19.3999996        -4.40068077E-03
   19.5187492        -4.39056009E-03
   19.6375008        -4.36479272E-03
   19.7562504        -4.32289951E-03
   19.8750000        -4.26417496E-03
   19.9937496        -4.18794947E-03
   20.1124992        -4.09392873E-03
   20.2312508        -3.98254208E-03
   20.3500004        -3.85524891E-03
   20.4687500        -3.71474237E-03
   20.5874996        -3.56500829E-03
   20.7062492        -3.41121014E-03
   20.8250008        -3.25940107E-03
   20.9437504        -3.11608613E-03
   21.0625000        -2.98767537E-03
   21.1812496        -2.87989620E-03
   21.2999992        -2.79723108E-03
   21.4187508        -2.74245511E-03
   21.5375004        -2.71633500E-03
   21.6562500        -2.71752756E-03
   21.7749996        -2.74270331E-03
   21.8937492        -2.78687896E-03
   22.0125008        -2.84392480E-03
   22.1312504        -2.90718838E-03
   22.2500000        -2.97015789E-03
   22.3687496        -3.02708638E-03
   22.4874992        -3.07350280E-03
   22.6062508        -3.10654938E-03
   22.7250004        -3.12511041E-03
   22.8437500        -3.12972325E-03
   22.9624996        -3.12229479E-03
   23.0812492        -3.10566602E-03
   23.2000008        -3.08309519E-03
   23.3187504        -3.05772945E-03
   23.4375000        -3.03214486E-03
   23.5562496        -3.00801289E-03
   23.6749992        -2.98594334E-03
   23.7937508        -2.96551455E-03
   23.9125004        -2.94548715E-03
   24.0312500        -2.92416289E-03
   24.1499996        -2.89983023E-03
   24.2687492        -2.87122838E-03
   24.3875008        -2.83795432E-03
   24.5062504        -2.80074938E-03
   24.6250000        -2.76161451E-03
   24.7437496        -2.72373017E-03
   24.8624992        -2.69118347E-03
   24.9812508        -2.66853394E-03
   25.1000004        -2.66027311E-03
   25.2187500        -2.67024711E-03
   25.3374996        -2.70112255E-03
   25.4562492        -2.75396416E-03
   25.5750008        -2.82799010E-03
   25.6937504        -2.92053167E-03
   25.8125000        -3.02721607E-03
   25.9312496        -3.14234220E-03
   26.0499992        -3.25941248E-03
   26.1687508        -3.37174814E-03
   26.2875004        -3.47311771E-03
   26.4062500        -3.55829881E-03
   26.5249996        -3.62350838E-03
   26.6437492        -3.66665563E-03
   26.7625008        -3.68739059E-03
   26.8812504        -3.68695636E-03
   27.0000000        -3.66787403E-03
   27.1187496        -3.63350892E-03
   27.2374992        -3.58758867E-03
   27.3562508        -3.53373797E-03
   27.4750004        -3.47509515E-03
   27.5937500        -3.41405859E-03
   27.7124996        -3.35219246E-03
   27.8312492        -3.29029001E-03
   27.9500008        -3.22857639E-03
   28.0687504        -3.16700619E-03
   28.1875000        -3.10559827E-03
   28.3062496        -3.04474798E-03
   28.4249992        -2.98546022E-03
   28.5437508        -2.92945630E-03
   28.6625004        -2.87913601E-03
   28.7812500        -2.83738831E-03
   28.8999996        -2.80727842E-03
   29.0187492        -2.79165292E-03
   29.1375008        -2.79271579E-03
   29.2562504        -2.81164446E-03
   29.3750000        -2.84830085E-03
   29.4937496        -2.90108309E-03
   29.6124992        -2.96695181E-03
   29.7312508        -3.04162758E-03
   29.8500004        -3.11994599E-03
   29.9687500        -3.19632585E-03
   30.0874996        -3.26529052E-03
   30.2062492        -3.32198176E-03
   30.3250008        -3.36259534E-03
   30.4437504        -3.38468980E-03
   30.5625000        -3.38732894E-03
   30.6812496        -3.37104942E-03
   30.7999992        -3.33766150E-03
   30.9187508        -3.28992470E-03
   31.0375004        -3.23114265E-03
   31.1562500        -3.16474540E-03
   31.2749996        -3.09391553E-03
   31.3937492        -3.02131311E-03
   31.5125008        -2.94893398E-03
   31.6312504        -2.87811365E-03
   31.7500000        -2.80967029E-03
   31.8687496        -2.74415035E-03
   31.9874992        -2.68213381E-03
   32.1062508        -2.62453454E-03
   32.2249985        -2.57284218E-03
   32.3437500        -2.52925046E-03
   32.4625015        -2.49664090E-03
   32.5812492        -2.47840653E-03
   32.7000008        -2.47813156E-03
   32.8187485        -2.49916245E-03
   32.9375000        -2.54412647E-03
   33.0562515        -2.61446391E-03
   33.1749992        -2.71004857E-03
   33.2937508        -2.82895099E-03
   33.4124985        -2.96739349E-03
   33.5312500        -3.11991456E-03
   33.6500015        -3.27973487E-03
   33.7687492        -3.43928486E-03
   33.8875008        -3.59084248E-03
   34.0062485        -3.72719811E-03
   34.1250000        -3.84227303E-03
   34.2437515        -3.93161364E-03
   34.3624992        -3.99270328E-03
   34.4812508        -4.02505929E-03
   34.5999985        -4.03010100E-03
   34.7187500        -4.01082123E-03
   34.8375015        -3.97130055E-03
   34.9562492        -3.91613832E-03
   35.0750008        -3.84987961E-03
   35.1937485        -3.77650931E-03
   35.3125000        -3.69909126E-03
   35.4312515        -3.61958658E-03
   35.5499992        -3.53887863E-03
   35.6687508        -3.45698814E-03
   35.7874985        -3.37344129E-03
   35.9062500        -3.28772725E-03
   36.0250015        -3.19977081E-03
   36.1437492        -3.11033754E-03
   36.2625008        -3.02130682E-03
   36.3812485        -2.93575763E-03
   36.5000000        -2.85784388E-03
   36.6187515        -2.79246550E-03
   36.7374992        -2.74477410E-03
   36.8562508        -2.71956925E-03
   36.9749985        -2.72067054E-03
   37.0937500        -2.75034853E-03
   37.2125015        -2.80889287E-03
   37.3312492        -2.89438805E-03
   37.4500008        -3.00272717E-03
   37.5687485        -3.12788063E-03
   37.6875000        -3.26238573E-03
   37.8062515        -3.39801074E-03
   37.9249992        -3.52651114E-03
   38.0437508        -3.64038814E-03
   38.1624985        -3.73356254E-03
   38.2812500        -3.80188087E-03
   38.4000015        -3.84339737E-03
   38.5187492        -3.85840447E-03
   38.6375008        -3.84921348E-03
   38.7562485        -3.81972571E-03
   38.8750000        -3.77485086E-03
   38.9937515        -3.71985766E-03
   39.1124992        -3.65974056E-03
   39.2312508        -3.59868468E-03
   39.3499985        -3.53969471E-03
   39.4687500        -3.48442653E-03
   39.5875015        -3.43323732E-03
   39.7062492        -3.38543090E-03
   39.8250008        -3.33965593E-03
   39.9437485        -3.29438550E-03
   40.0625000        -3.24840820E-03
   40.1812515        -3.20124533E-03
   40.2999992        -3.15343658E-03
   40.4187508        -3.10664205E-03
   40.5374985        -3.06354766E-03
   40.6562500        -3.02758091E-03
   40.7750015        -3.00247781E-03
   40.8937492        -2.99176108E-03
   41.0125008        -2.99820234E-03
   41.1312485        -3.02334805E-03
   41.2500000        -3.06717493E-03
   41.3687515        -3.12792789E-03
   41.4874992        -3.20216594E-03
   41.6062508        -3.28501617E-03
   41.7249985        -3.37060541E-03
   41.8437500        -3.45261744E-03
   41.9625015        -3.52490786E-03
   42.0812492        -3.58209945E-03
   42.2000008        -3.62009020E-03
   42.3187485        -3.63640906E-03
   42.4375000        -3.63038713E-03
   42.5562515        -3.60312313E-03
   42.6749992        -3.55726364E-03
   42.7937508        -3.49662709E-03
   42.9124985        -3.42573039E-03
   43.0312500        -3.34928138E-03
   43.1500015        -3.27170291E-03
   43.2687492        -3.19674774E-03
   43.3875008        -3.12724593E-03
   43.5062485        -3.06500634E-03
   43.6250000        -3.01086996E-03
   43.7437515        -2.96489219E-03
   43.8624992        -2.92661344E-03
   43.9812508        -2.89536337E-03
   44.0999985        -2.87055038E-03
   44.2187500        -2.85188202E-03
   44.3375015        -2.83948565E-03
   44.4562492        -2.83390866E-03
   44.5750008        -2.83600227E-03
   44.6937485        -2.84671108E-03
   44.8125000        -2.86680157E-03
   44.9312515        -2.89658178E-03
   45.0499992        -2.93565611E-03
   45.1687508        -2.98276148E-03
   45.2874985        -3.03571601E-03
   45.4062500        -3.09149735E-03
   45.5250015        -3.14644398E-03
   45.6437492        -3.19656054E-03
   45.7625008        -3.23788752E-03
   45.8812485        -3.26688867E-03
