  -1.50000000         9.99688385E-18
  -1.38125002         7.74595665E-10
  -1.26250005         2.68337397E-09
  -1.14374995         5.95167693E-09
  -1.02499998         1.07263425E-08
 -0.906250000         1.67912741E-08
 -0.787500024         2.22334062E-08
 -0.668749988         2.02027763E-08
 -0.550000012        -6.64208644E-09
 -0.431250006        -9.28225177E-08
 -0.312500000        -2.93617234E-07
 -0.193749994        -6.77235164E-07
  -7.50000030E-02    -1.29412467E-06
   4.37499993E-02    -2.11280599E-06
  0.162499994        -2.91954211E-06
  0.281250000        -3.19490050E-06
  0.400000006        -1.99996066E-06
  0.518750012         2.07978519E-06
  0.637499988         1.08841004E-05
  0.756250024         2.64926966E-05
  0.875000000         5.09155470E-05
  0.993749976         8.57151244E-05
   1.11249995         1.31651192E-04
   1.23125005         1.88445323E-04
   1.35000002         2.54734274E-04
   1.46875000         3.28227354E-04
   1.58749998         4.06020728E-04
   1.70624995         4.84977500E-04
   1.82500005         5.62071160E-04
   1.94375002         6.34618278E-04
   2.06250000         7.00378616E-04
   2.18125010         7.57559901E-04
   2.29999995         8.04796757E-04
   2.41875005         8.41174216E-04
   2.53749990         8.66327784E-04
   2.65625000         8.80595879E-04
   2.77500010         8.85150628E-04
   2.89374995         8.82015156E-04
   3.01250005         8.73897749E-04
   3.13124990         8.63834284E-04
   3.25000000         8.54703190E-04
   3.36875010         8.48734053E-04
   3.48749995         8.47148534E-04
   3.60625005         8.50038778E-04
   3.72499990         8.56514962E-04
   3.84375000         8.65068228E-04
   3.96250010         8.74027028E-04
   4.08125019         8.81964690E-04
   4.19999981         8.87942326E-04
   4.31874990         8.91542702E-04
   4.43750000         8.92732874E-04
   4.55625010         8.91651667E-04
   4.67500019         8.88438779E-04
   4.79374981         8.83188623E-04
   4.91249990         8.76045902E-04
   5.03125000         8.67387280E-04
   5.15000010         8.57987034E-04
   5.26875019         8.49057862E-04
   5.38749981         8.42108566E-04
   5.50624990         8.38628679E-04
   5.62500000         8.39688291E-04
   5.74375010         8.45581759E-04
   5.86250019         8.55641265E-04
   5.98124981         8.68294796E-04
   6.09999990         8.81362532E-04
   6.21875000         8.92508368E-04
   6.33750010         8.99716222E-04
   6.45625019         9.01659776E-04
   6.57499981         8.97879247E-04
   6.69374990         8.88744136E-04
   6.81250000         8.75257247E-04
   6.93125010         8.58787564E-04
   7.05000019         8.40829336E-04
   7.16874981         8.22847185E-04
   7.28749990         8.06219003E-04
   7.40625000         7.92235020E-04
   7.52500010         7.82095711E-04
   7.64375019         7.76853645E-04
   7.76249981         7.77283974E-04
   7.88124990         7.83708645E-04
   8.00000000         7.95833359E-04
   8.11874962         8.12667888E-04
   8.23750019         8.32573511E-04
   8.35624981         8.53451318E-04
   8.47500038         8.73033481E-04
   8.59375000         8.89214862E-04
   8.71249962         9.00353421E-04
   8.83125019         9.05483554E-04
   8.94999981         9.04416316E-04
   9.06875038         8.97730934E-04
   9.18750000         8.86681722E-04
   9.30624962         8.73049896E-04
   9.42500019         8.58960673E-04
   9.54374981         8.46674608E-04
   9.66250038         8.38358828E-04
   9.78125000         8.35847051E-04
   9.89999962         8.40410183E-04
   10.0187502         8.52574711E-04
   10.1374998         8.72028701E-04
   10.2562504         8.97645310E-04
   10.3750000         9.27626214E-04
   10.4937496         9.59738507E-04
   10.6125002         9.91590437E-04
   10.7312498         1.02088798E-03
   10.8500004         1.04562251E-03
   10.9687500         1.06417900E-03
   11.0874996         1.07537757E-03
   11.2062502         1.07849075E-03
   11.3249998         1.07327499E-03
   11.4437504         1.06003403E-03
   11.5625000         1.03969499E-03
   11.6812496         1.01384928E-03
   11.8000002         9.84695856E-04
   11.9187498         9.54850344E-04
   12.0375004         9.27018758E-04
   12.1562500         9.03593143E-04
   12.2749996         8.86266236E-04
   12.3937502         8.75768659E-04
   12.5124998         8.71810131E-04
   12.6312504         8.73242330E-04
   12.7500000         8.78394581E-04
   12.8687496         8.85481539E-04
   12.9875002         8.92962096E-04
   13.1062498         8.99755396E-04
   13.2250004         9.05276043E-04
   13.3437500         9.09320486E-04
   13.4624996         9.11888317E-04
   13.5812502         9.13034834E-04
   13.6999998         9.12827381E-04
   13.8187504         9.11420735E-04
   13.9375000         9.09202732E-04
   14.0562496         9.06921807E-04
   14.1750002         9.05704568E-04
   14.2937498         9.06913192E-04
   14.4125004         9.11853858E-04
   14.5312500         9.21415281E-04
   14.6499996         9.35752352E-04
   14.7687502         9.54128162E-04
   14.8874998         9.74974711E-04
   15.0062504         9.96167655E-04
   15.1250000         1.01543253E-03
   15.2437496         1.03076652E-03
   15.3625002         1.04075600E-03
   15.4812498         1.04471878E-03
   15.6000004         1.04266068E-03
   15.7187500         1.03510194E-03
   15.8374996         1.02286390E-03
   15.9562502         1.00689870E-03
   16.0750008         9.88212065E-04
   16.1937504         9.67871398E-04
   16.3125000         9.47052205E-04
   16.4312496         9.27051238E-04
   16.5499992         9.09218099E-04
   16.6687508         8.94796278E-04
   16.7875004         8.84709589E-04
   16.9062500         8.79368279E-04
   17.0249996         8.78566643E-04
   17.1437492         8.81518354E-04
   17.2625008         8.87026836E-04
   17.3812504         8.93740973E-04
   17.5000000         9.00419836E-04
   17.6187496         9.06133209E-04
   17.7374992         9.10355942E-04
   17.8562508         9.12955496E-04
   17.9750004         9.14112024E-04
   18.0937500         9.14222386E-04
   18.2124996         9.13832686E-04
   18.3312492         9.13607248E-04
   18.4500008         9.14315751E-04
   18.5687504         9.16793535E-04
   18.6875000         9.21844447E-04
   18.8062496         9.30077629E-04
   18.9249992         9.41712933E-04
   19.0437508         9.56419914E-04
   19.1625004         9.73257993E-04
   19.2812500         9.90763307E-04
   19.3999996         1.00717682E-03
   19.5187492         1.02075725E-03
   19.6375008         1.03009189E-03
   19.7562504         1.03430997E-03
   19.8750000         1.03314896E-03
   19.9937496         1.02686905E-03
   20.1124992         1.01607549E-03
   20.2312508         1.00153568E-03
   20.3500004         9.84067330E-04
   20.4687500         9.64540581E-04
   20.5874996         9.43969237E-04
   20.7062492         9.23617859E-04
   20.8250008         9.05033608E-04
   20.9437504         8.89932737E-04
   21.0625000         8.79931846E-04
   21.1812496         8.76185659E-04
   21.2999992         8.79043015E-04
   21.4187508         8.87848670E-04
   21.5375004         9.00978397E-04
   21.6562500         9.16121702E-04
   21.7749996         9.30739392E-04
   21.8937492         9.42564104E-04
   22.0125008         9.49995476E-04
   22.1312504         9.52279719E-04
   22.2500000         9.49445472E-04
   22.3687496         9.42050305E-04
   22.4874992         9.30858427E-04
   22.6062508         9.16582358E-04
   22.7250004         8.99783918E-04
   22.8437500         8.80951004E-04
   22.9624996         8.60689499E-04
   23.0812492         8.39915127E-04
   23.2000008         8.19926383E-04
   23.3187504         8.02288589E-04
   23.4375000         7.88538426E-04
   23.5562496         7.79796101E-04
   23.6749992         7.76421337E-04
   23.7937508         7.77840847E-04
   23.9125004         7.82621733E-04
   24.0312500         7.88780104E-04
   24.1499996         7.94229098E-04
   24.2687492         7.97228829E-04
   24.3875008         7.96700886E-04
   24.5062504         7.92324892E-04
   24.6250000         7.84415519E-04
   24.7437496         7.73650419E-04
   24.8624992         7.60767260E-04
   24.9812508         7.46341946E-04
   25.1000004         7.30714877E-04
   25.2187500         7.14064692E-04
   25.3374996         6.96568808E-04
   25.4562492         6.78558426E-04
   25.5750008         6.60586404E-04
   25.6937504         6.43369218E-04
   25.8125000         6.27623929E-04
   25.9312496         6.13864744E-04
   26.0499992         6.02243817E-04
   26.1687508         5.92504744E-04
   26.2875004         5.84068184E-04
   26.4062500         5.76223247E-04
   26.5249996         5.68357937E-04
   26.6437492         5.60149550E-04
   26.7625008         5.51660080E-04
   26.8812504         5.43316070E-04
   27.0000000         5.35793835E-04
   27.1187496         5.29860496E-04
   27.2374992         5.26223739E-04
   27.3562508         5.25425770E-04
   27.4750004         5.27791679E-04
   27.5937500         5.33415528E-04
   27.7124996         5.42160124E-04
   27.8312492         5.53652237E-04
   27.9500008         5.67271083E-04
   28.0687504         5.82149951E-04
   28.1875000         5.97216655E-04
   28.3062496         6.11285563E-04
   28.4249992         6.23199565E-04
   28.5437508         6.31990901E-04
   28.6625004         6.37017365E-04
   28.7812500         6.38034078E-04
   28.8999996         6.35181146E-04
   29.0187492         6.28899841E-04
   29.1375008         6.19814673E-04
   29.2562504         6.08629896E-04
   29.3750000         5.96077589E-04
   29.4937496         5.82924404E-04
   29.6124992         5.70011209E-04
   29.7312508         5.58279164E-04
   29.8500004         5.48732467E-04
   29.9687500         5.42319380E-04
   30.0874996         5.39746368E-04
   30.2062492         5.41283342E-04
   30.3250008         5.46634488E-04
   30.4437504         5.54937928E-04
   30.5625000         5.64916409E-04
   30.6812496         5.75150887E-04
   30.7999992         5.84397756E-04
   30.9187508         5.91853459E-04
   31.0375004         5.97283128E-04
   31.1562500         6.00977277E-04
   31.2749996         6.03563734E-04
   31.3937492         6.05746580E-04
   31.5125008         6.08074653E-04
   31.6312504         6.10818679E-04
   31.7500000         6.13991171E-04
   31.8687496         6.17482990E-04
   31.9874992         6.21243147E-04
   32.1062508         6.25411107E-04
   32.2249985         6.30333903E-04
   32.3437500         6.36450539E-04
   32.4625015         6.44083542E-04
   32.5812492         6.53222553E-04
   32.7000008         6.63391722E-04
   32.8187485         6.73664967E-04
   32.9375000         6.82836981E-04
   33.0562515         6.89700420E-04
   33.1749992         6.93336537E-04
   33.2937508         6.93326059E-04
   33.4124985         6.89811306E-04
   33.5312500         6.83401653E-04
   33.6500015         6.74965035E-04
   33.7687492         6.65388128E-04
   33.8875008         6.55388576E-04
   34.0062485         6.45434659E-04
   34.1250000         6.35782199E-04
   34.2437515         6.26587484E-04
   34.3624992         6.18033344E-04
   34.4812508         6.10407733E-04
   34.5999985         6.04099710E-04
   34.7187500         5.99520165E-04
   34.8375015         5.96988597E-04
   34.9562492         5.96639060E-04
   35.0750008         5.98388026E-04
   35.1937485         6.01978740E-04
   35.3125000         6.07079244E-04
   35.4312515         6.13391690E-04
   35.5499992         6.20728184E-04
   35.6687508         6.29023940E-04
   35.7874985         6.38292346E-04
   35.9062500         6.48547546E-04
   36.0250015         6.59735815E-04
   36.1437492         6.71706337E-04
   36.2625008         6.84229482E-04
   36.3812485         6.97044772E-04
   36.5000000         7.09904823E-04
   36.6187515         7.22587400E-04
   36.7374992         7.34860892E-04
   36.8562508         7.46424776E-04
   36.9749985         7.56861235E-04
   37.0937500         7.65639066E-04
   37.2125015         7.72192376E-04
   37.3312492         7.76061672E-04
   37.4500008         7.77052250E-04
   37.5687485         7.75345892E-04
   37.6875000         7.71510473E-04
   37.8062515         7.66387908E-04
   37.9249992         7.60886935E-04
   38.0437508         7.55748712E-04
   38.1624985         7.51368410E-04
   38.2812500         7.47741782E-04
   38.4000015         7.44554796E-04
   38.5187492         7.41382129E-04
   38.6375008         7.37913535E-04
   38.7562485         7.34111818E-04
   38.8750000         7.30237691E-04
   38.9937515         7.26726430E-04
   39.1124992         7.23968144E-04
   39.2312508         7.22086697E-04
   39.3499985         7.20819051E-04
   39.4687500         7.19561765E-04
   39.5875015         7.17582938E-04
   39.7062492         7.14328722E-04
   39.8250008         7.09709595E-04
   39.9437485         7.04248669E-04
   40.0625000         6.99021388E-04
   40.1812515         6.95393770E-04
   40.2999992         6.94642193E-04
   40.4187508         6.97585172E-04
   40.5374985         7.04357168E-04
   40.6562500         7.14402006E-04
   40.7750015         7.26682600E-04
   40.8937492         7.40023272E-04
   41.0125008         7.53453933E-04
   41.1312485         7.66427838E-04
   41.2500000         7.78841029E-04
   41.3687515         7.90856313E-04
   41.4874992         8.02617869E-04
   41.6062508         8.13981111E-04
   41.7249985         8.24376359E-04
   41.8437500         8.32866062E-04
   41.9625015         8.38379550E-04
   42.0812492         8.40035500E-04
   42.2000008         8.37424770E-04
   42.3187485         8.30743287E-04
   42.4375000         8.20723944E-04
   42.5562515         8.08390381E-04
   42.6749992         7.94727879E-04
   42.7937508         7.80394359E-04
   42.9124985         7.65575678E-04
   43.0312500         7.50032836E-04
   43.1500015         7.33315304E-04
   43.2687492         7.15050322E-04
   43.3875008         6.95198658E-04
   43.5062485         6.74182142E-04
   43.6250000         6.52844727E-04
   43.7437515         6.32272800E-04
   43.8624992         6.13550539E-04
   43.9812508         5.97544189E-04
   44.0999985         5.84785827E-04
   44.2187500         5.75481798E-04
   44.3375015         5.69616561E-04
   44.4562492         5.67087962E-04
   44.5750008         5.67805080E-04
   44.6937485         5.71702898E-04
   44.8125000         5.78672101E-04
   44.9312515         5.88444876E-04
   45.0499992         6.00493862E-04
   45.1687508         6.14002289E-04
   45.2874985         6.27926260E-04
   45.4062500         6.41138700E-04
   45.5250015         6.52603805E-04
   45.6437492         6.61530124E-04
   45.7625008         6.67457236E-04
   45.8812485         6.70263311E-04
