  -1.50000000         0.00000000    
  -1.38499999         1.23428001E-09
  -1.26999998         5.59268987E-09
  -1.15499997         1.74635790E-08
  -1.03999996         4.64817553E-08
 -0.925000012         1.12452916E-07
 -0.810000002         2.53440646E-07
 -0.694999993         5.37978906E-07
 -0.579999983         1.08208565E-06
 -0.465000004         2.07125845E-06
 -0.349999994         3.78715640E-06
 -0.234999999         6.63853643E-06
 -0.119999997         1.11963664E-05
  -4.99999989E-03     1.82334516E-05
  0.109999999         2.87684943E-05
  0.224999994         4.41118136E-05
  0.340000004         6.59045982E-05
  0.455000013         9.61358455E-05
  0.569999993         1.37114024E-04
  0.685000002         1.91367741E-04
  0.800000012         2.61454377E-04
  0.915000021         3.49670474E-04
   1.02999997         4.57679562E-04
   1.14499998         5.86099923E-04
   1.25999999         7.34116591E-04
   1.37500000         8.99196486E-04
   1.49000001         1.07698073E-03
   1.60500002         1.26141077E-03
   1.72000003         1.44510577E-03
   1.83500004         1.61996880E-03
   1.95000005         1.77794625E-03
   2.06500006         1.91183609E-03
   2.18000007         2.01602024E-03
   2.29500008         2.08700099E-03
   2.41000009         2.12365901E-03
   2.52500010         2.12719454E-03
   2.64000010         2.10077735E-03
   2.75500011         2.04897812E-03
   2.86999989         1.97710097E-03
   2.98499990         1.89053733E-03
   3.09999990         1.79424777E-03
   3.21499991         1.69244385E-03
   3.32999992         1.58847496E-03
   3.44499993         1.48489175E-03
   3.55999994         1.38359668E-03
   3.67499995         1.28600490E-03
   3.78999996         1.19313761E-03
   3.90499997         1.10561633E-03
   4.01999998         1.02356542E-03
   4.13500023         9.46489512E-04
   4.25000000         8.73197045E-04
   4.36499977         8.01859307E-04
   4.48000002         7.30239495E-04
   4.59499979         6.56090095E-04
   4.71000004         5.77650848E-04
   4.82499981         4.94135427E-04
   4.94000006         4.06073406E-04
   5.05499983         3.15401732E-04
   5.17000008         2.25238502E-04
   5.28499985         1.39355252E-04
   5.40000010         6.14496312E-05
   5.51499987        -5.64122320E-06
   5.63000011        -6.05967616E-05
   5.74499989        -1.03984894E-04
   5.86000013        -1.38254662E-04
   5.97499990        -1.67340884E-04
   6.09000015        -1.95964487E-04
   6.20499992        -2.28790494E-04
   6.32000017        -2.69629905E-04
   6.43499994        -3.20864376E-04
   6.55000019        -3.83201870E-04
   6.66499996        -4.55793284E-04
   6.78000021        -5.36643027E-04
   6.89499998        -6.23172091E-04
   7.01000023        -7.12772482E-04
   7.12500000        -8.03200121E-04
   7.23999977        -8.92725657E-04
   7.35500002        -9.80040175E-04
   7.46999979        -1.06399402E-03
   7.58500004        -1.14330696E-03
   7.69999981        -1.21639657E-03
   7.81500006        -1.28142815E-03
   7.92999983        -1.33661844E-03
   8.04500008        -1.38073426E-03
   8.15999985        -1.41364476E-03
   8.27499962        -1.43674843E-03
   8.39000034        -1.45311235E-03
   8.50500011        -1.46721932E-03
   8.61999989        -1.48432015E-03
   8.73499966        -1.50950695E-03
   8.85000038        -1.54670037E-03
   8.96500015        -1.59778621E-03
   9.07999992        -1.66211789E-03
   9.19499969        -1.73651753E-03
   9.31000042        -1.81578612E-03
   9.42500019        -1.89361966E-03
   9.53999996        -1.96371810E-03
   9.65499973        -2.02083774E-03
   9.77000046        -2.06155959E-03
   9.88500023        -2.08462402E-03
   10.0000000        -2.09079799E-03
   10.1149998        -2.08237418E-03
   10.2299995        -2.06246972E-03
   10.3450003        -2.03435239E-03
   10.4600000        -2.00097309E-03
   10.5749998        -1.96481147E-03
   10.6899996        -1.92802341E-03
   10.8050003        -1.89278601E-03
   10.9200001        -1.86164572E-03
   11.0349998        -1.83769723E-03
   11.1499996        -1.82444719E-03
   11.2650003        -1.82533963E-03
   11.3800001        -1.84302207E-03
   11.4949999        -1.87854783E-03
   11.6099997        -1.93073717E-03
   11.7250004        -1.99592509E-03
   11.8400002        -2.06822087E-03
   11.9549999        -2.14027730E-03
   12.0699997        -2.20444216E-03
   12.1850004        -2.25404254E-03
   12.3000002        -2.28451402E-03
   12.4150000        -2.29411479E-03
   12.5299997        -2.28406163E-03
   12.6450005        -2.25807261E-03
   12.7600002        -2.22144485E-03
   12.8750000        -2.17990461E-03
   12.9899998        -2.13852362E-03
   13.1049995        -2.10094708E-03
   13.2200003        -2.06910050E-03
   13.3350000        -2.04338087E-03
   13.4499998        -2.02321727E-03
   13.5649996        -2.00778362E-03
   13.6800003        -1.99661055E-03
   13.7950001        -1.98989850E-03
   13.9099998        -1.98843097E-03
   14.0249996        -1.99313252E-03
   14.1400003        -2.00442062E-03
   14.2550001        -2.02159095E-03
   14.3699999        -2.04246677E-03
   14.4849997        -2.06347299E-03
   14.6000004        -2.08016485E-03
   14.7150002        -2.08811346E-03
   14.8299999        -2.08391785E-03
   14.9449997        -2.06607045E-03
   15.0600004        -2.03542248E-03
   15.1750002        -1.99508923E-03
   15.2900000        -1.94979284E-03
   15.4049997        -1.90478063E-03
   15.5200005        -1.86458696E-03
   15.6350002        -1.83194608E-03
   15.7500000        -1.80713285E-03
   15.8649998        -1.78789929E-03
   15.9799995        -1.77000405E-03
   16.0949993        -1.74820237E-03
   16.2099991        -1.71741692E-03
   16.3250008        -1.67379633E-03
   16.4400005        -1.61539146E-03
   16.5550003        -1.54230127E-03
   16.6700001        -1.45629467E-03
   16.7849998        -1.36005378E-03
   16.8999996        -1.25629245E-03
   17.0149994        -1.14701746E-03
   17.1299992        -1.03315618E-03
   17.2450008        -9.14648990E-04
   17.3600006        -7.90952239E-04
   17.4750004        -6.61781582E-04
   17.5900002        -5.27837896E-04
   17.7049999        -3.91266454E-04
   17.8199997        -2.55669438E-04
   17.9349995        -1.25638864E-04
   18.0499992        -5.90861691E-06
   18.1650009         9.96453819E-05
   18.2800007         1.88875085E-04
   18.3950005         2.61842477E-04
   18.5100002         3.20762687E-04
   18.6250000         3.69391142E-04
   18.7399998         4.12008172E-04
   18.8549995         4.52258158E-04
   18.9699993         4.92146588E-04
   19.0849991         5.31465805E-04
   19.2000008         5.67804207E-04
   19.3150005         5.97131322E-04
   19.4300003         6.14811317E-04
   19.5450001         6.16779493E-04
   19.6599998         6.00576925E-04
   19.7749996         5.65985159E-04
   19.8899994         5.15125284E-04
   20.0049992         4.52019100E-04
   20.1200008         3.81770253E-04
   20.2350006         3.09605035E-04
   20.3500004         2.40042500E-04
   20.4650002         1.76404676E-04
   20.5799999         1.20770361E-04
   20.6949997         7.43328128E-05
   20.8099995         3.79950761E-05
   20.9249992         1.29784275E-05
   21.0400009         1.20832851E-06
   21.1550007         5.31956221E-06
   21.2700005         2.82485835E-05
   21.3850002         7.25026184E-05
   21.5000000         1.39316704E-04
   21.6149998         2.27951256E-04
   21.7299995         3.35354154E-04
   21.8449993         4.56327893E-04
   21.9599991         5.84199501E-04
   22.0750008         7.11862289E-04
   22.1900005         8.32941383E-04
   22.3050003         9.42813116E-04
   22.4200001         1.03923480E-03
   22.5349998         1.12243672E-03
   22.6499996         1.19468418E-03
   22.7649994         1.25943078E-03
   22.8799992         1.32029573E-03
   22.9950008         1.38013146E-03
   23.1100006         1.44039688E-03
   23.2250004         1.50097499E-03
   23.3400002         1.56042632E-03
   23.4549999         1.61656586E-03
   23.5699997         1.66715914E-03
   23.6849995         1.71052467E-03
   23.7999992         1.74586114E-03
   23.9150009         1.77323096E-03
   24.0300007         1.79321819E-03
   24.1450005         1.80640875E-03
   24.2600002         1.81287178E-03
   24.3750000         1.81183522E-03
   24.4899998         1.80168112E-03
   24.6049995         1.78029109E-03
   24.7199993         1.74565846E-03
   24.8349991         1.69660745E-03
   24.9500008         1.63341244E-03
   25.0650005         1.55812909E-03
   25.1800003         1.47453102E-03
   25.2950001         1.38764270E-03
   25.4099998         1.30296790E-03
   25.5249996         1.22559688E-03
   25.6399994         1.15940790E-03
   25.7549992         1.10654265E-03
   25.8700008         1.06727460E-03
   25.9850006         1.04027428E-03
   26.1000004         1.02318090E-03
   26.2150002         1.01331389E-03
   26.3299999         1.00833096E-03
   26.4449997         1.00667297E-03
   26.5599995         1.00769731E-03
   26.6749992         1.01149711E-03
   26.7900009         1.01849344E-03
   26.9050007         1.02894264E-03
   27.0200005         1.04251364E-03
   27.1350002         1.05806976E-03
   27.2500000         1.07370818E-03
   27.3649998         1.08704553E-03
   27.4799995         1.09565351E-03
   27.5949993         1.09751907E-03
   27.7099991         1.09139027E-03
   27.8250008         1.07691204E-03
   27.9400005         1.05452153E-03
   28.0550003         1.02514145E-03
   28.1700001         9.89770633E-04
   28.2849998         9.49099252E-04
   28.3999996         9.03265085E-04
   28.5149994         8.51830293E-04
   28.6299992         7.93983287E-04
   28.7450008         7.28916319E-04
   28.8600006         6.56270655E-04
   28.9750004         5.76514809E-04
   29.0900002         4.91150771E-04
   29.2049999         4.02680103E-04
   29.3199997         3.14321165E-04
   29.4349995         2.29537138E-04
   29.5499992         1.51482382E-04
   29.6650009         8.24883318E-05
   29.7800007         2.37035383E-05
   29.8950005        -2.50448538E-05
   30.0100002        -6.51475057E-05
   30.1250000        -9.89071414E-05
   30.2399998        -1.29113469E-04
   30.3549995        -1.58595067E-04
   30.4699993        -1.89841114E-04
   30.5849991        -2.24759540E-04
   30.7000008        -2.64586124E-04
   30.8150005        -3.09930881E-04
   30.9300003        -3.60911828E-04
   31.0450001        -4.17306990E-04
   31.1599998        -4.78677044E-04
   31.2749996        -5.44417533E-04
   31.3899994        -6.13741635E-04
   31.5049992        -6.85619481E-04
   31.6200008        -7.58712820E-04
   31.7350006        -8.31360172E-04
   31.8500004        -9.01640742E-04
   31.9650002        -9.67539090E-04
   32.0800018        -1.02719059E-03
   32.1949997        -1.07916619E-03
   32.3100014        -1.12274138E-03
   32.4249992        -1.15808554E-03
   32.5400009        -1.18632545E-03
   32.6549988        -1.20945228E-03
   32.7700005        -1.23007863E-03
   32.8849983        -1.25108089E-03
   33.0000000        -1.27518107E-03
   33.1150017        -1.30454311E-03
   33.2299995        -1.34044653E-03
   33.3450012        -1.38310436E-03
   33.4599991        -1.43164175E-03
   33.5750008        -1.48424529E-03
   33.6899986        -1.53844734E-03
   33.8050003        -1.59149279E-03
   33.9199982        -1.64072250E-03
   34.0349998        -1.68390467E-03
   34.1500015        -1.71946397E-03
   34.2649994        -1.74657872E-03
   34.3800011        -1.76515256E-03
   34.4949989        -1.77567790E-03
   34.6100006        -1.77905336E-03
   34.7249985        -1.77639397E-03
   34.8400002        -1.76889647E-03
   34.9550018        -1.75777171E-03
   35.0699997        -1.74425729E-03
   35.1850014        -1.72967557E-03
   35.2999992        -1.71549490E-03
   35.4150009        -1.70334673E-03
   35.5299988        -1.69495714E-03
   35.6450005        -1.69198040E-03
   35.7599983        -1.69575552E-03
   35.8750000        -1.70703826E-03
   35.9900017        -1.72577426E-03
   36.1049995        -1.75098947E-03
   36.2200012        -1.78084522E-03
   36.3349991        -1.81287539E-03
   36.4500008        -1.84436899E-03
   36.5649986        -1.87282485E-03
   36.6800003        -1.89637532E-03
   36.7949982        -1.91407616E-03
   36.9099998        -1.92598498E-03
   37.0250015        -1.93299830E-03
   37.1399994        -1.93647877E-03
   37.2550011        -1.93775934E-03
   37.3699989        -1.93764805E-03
   37.4850006        -1.93605665E-03
   37.5999985        -1.93185871E-03
   37.7150002        -1.92301429E-03
   37.8300018        -1.90693804E-03
   37.9449997        -1.88102608E-03
   38.0600014        -1.84320426E-03
   38.1749992        -1.79236580E-03
   38.2900009        -1.72859209E-03
   38.4049988        -1.65310700E-03
   38.5200005        -1.56799296E-03
   38.6349983        -1.47575943E-03
   38.7500000        -1.37889455E-03
   38.8650017        -1.27953128E-03
   38.9799995        -1.17931899E-03
   39.0950012        -1.07952906E-03
   39.2099991        -9.81343794E-04
   39.3250008        -8.86220194E-04
   39.4399986        -7.96181150E-04
   39.5550003        -7.13911257E-04
   39.6699982        -6.42580504E-04
   39.7849998        -5.85401547E-04
   39.9000015        -5.45014860E-04
   40.0149994        -5.22855495E-04
   40.1300011        -5.18682995E-04
   40.2449989        -5.30423189E-04
   40.3600006        -5.54400031E-04
   40.4749985        -5.85937349E-04
   40.5900002        -6.20207808E-04
   40.7050018        -6.53137569E-04
   40.8199997        -6.82149897E-04
   40.9350014        -7.06567138E-04
   41.0499992        -7.27574283E-04
   41.1650009        -7.47756858E-04
   41.2799988        -7.70335202E-04
   41.3950005        -7.98295077E-04
   41.5099983        -8.33635277E-04
   41.6250000        -8.76911508E-04
   41.7400017        -9.27180459E-04
   41.8549995        -9.82319005E-04
   41.9700012        -1.03960885E-03
   42.0849991        -1.09638460E-03
   42.2000008        -1.15055731E-03
   42.3149986        -1.20084942E-03
   42.4300003        -1.24668865E-03
   42.5449982        -1.28780864E-03
   42.6599998        -1.32371054E-03
   42.7750015        -1.35317794E-03
   42.8899994        -1.37404492E-03
   43.0050011        -1.38333102E-03
   43.1199989        -1.37776497E-03
   43.2350006        -1.35457527E-03
   43.3499985        -1.31235691E-03
   43.4650002        -1.25176192E-03
   43.5800018        -1.17580581E-03
   43.6949997        -1.08966185E-03
   43.8100014        -9.99954646E-04
   43.9249992        -9.13689204E-04
   44.0400009        -8.37061089E-04
   44.1549988        -7.74423359E-04
   44.2700005        -7.27647624E-04
   44.3849983        -6.96030795E-04
