  -1.50000000         0.00000000    
  -1.38499999        -3.88810539E-09
  -1.26999998        -1.76646591E-08
  -1.15499997        -5.50517392E-08
  -1.03999996        -1.45438875E-07
 -0.925000012        -3.47570534E-07
 -0.810000002        -7.70867189E-07
 -0.694999993        -1.60510797E-06
 -0.579999983        -3.15660236E-06
 -0.465000004        -5.88514831E-06
 -0.349999994        -1.04321834E-05
 -0.234999999        -1.76286212E-05
 -0.119999997        -2.84730668E-05
  -4.99999989E-03    -4.40783006E-05
  0.109999999        -6.55947370E-05
  0.224999994        -9.41302424E-05
  0.340000004        -1.30691697E-04
  0.455000013        -1.76171801E-04
  0.569999993        -2.31394821E-04
  0.685000002        -2.97220860E-04
  0.800000012        -3.74693540E-04
  0.915000021        -4.65206802E-04
   1.02999997        -5.70662261E-04
   1.14499998        -6.93590497E-04
   1.25999999        -8.37214349E-04
   1.37500000        -1.00544107E-03
   1.49000001        -1.20277319E-03
   1.60500002        -1.43413793E-03
   1.72000003        -1.70463987E-03
   1.83500004        -2.01924588E-03
   1.95000005        -2.38241954E-03
   2.06500006        -2.79772631E-03
   2.18000007        -3.26743769E-03
   2.29500008        -3.79215833E-03
   2.41000009        -4.37051244E-03
   2.52500010        -4.99891676E-03
   2.64000010        -5.67146065E-03
   2.75500011        -6.37992425E-03
   2.86999989        -7.11393170E-03
   2.98499990        -7.86125287E-03
   3.09999990        -8.60823877E-03
   3.21499991        -9.34037473E-03
   3.32999992        -1.00429151E-02
   3.44499993        -1.07015716E-02
   3.55999994        -1.13032032E-02
   3.67499995        -1.18364720E-02
   3.78999996        -1.22924075E-02
   3.90499997        -1.26648461E-02
   4.01999998        -1.29507175E-02
   4.13500023        -1.31501369E-02
   4.25000000        -1.32663203E-02
   4.36499977        -1.33052971E-02
   4.48000002        -1.32754631E-02
   4.59499979        -1.31869903E-02
   4.71000004        -1.30511457E-02
   4.82499981        -1.28795588E-02
   4.94000006        -1.26835126E-02
   5.05499983        -1.24732880E-02
   5.17000008        -1.22576300E-02
   5.28499985        -1.20433671E-02
   5.40000010        -1.18352110E-02
   5.51499987        -1.16357477E-02
   5.63000011        -1.14456154E-02
   5.74499989        -1.12638390E-02
   5.86000013        -1.10882940E-02
   5.97499990        -1.09162480E-02
   6.09000015        -1.07449181E-02
   6.20499992        -1.05719995E-02
   6.32000017        -1.03961034E-02
   6.43499994        -1.02170631E-02
   6.55000019        -1.00360811E-02
   6.66499996        -9.85569414E-03
   6.78000021        -9.67956893E-03
   6.89499998        -9.51214042E-03
   7.01000023        -9.35813226E-03
   7.12500000        -9.22200456E-03
   7.23999977        -9.10739787E-03
   7.35500002        -9.01661161E-03
   7.46999979        -8.95020459E-03
   7.58500004        -8.90673231E-03
   7.69999981        -8.88269115E-03
   7.81500006        -8.87265801E-03
   7.92999983        -8.86964332E-03
   8.04500008        -8.86562560E-03
   8.15999985        -8.85222293E-03
   8.27499962        -8.82145483E-03
   8.39000034        -8.76651518E-03
   8.50500011        -8.68248660E-03
   8.61999989        -8.56692344E-03
   8.73499966        -8.42025597E-03
   8.85000038        -8.24593939E-03
   8.96500015        -8.05035699E-03
   9.07999992        -7.84244947E-03
   9.19499969        -7.63310259E-03
   9.31000042        -7.43433647E-03
   9.42500019        -7.25836121E-03
   9.53999996        -7.11656967E-03
   9.65499973        -7.01856846E-03
   9.77000046        -6.97130989E-03
   9.88500023        -6.97842892E-03
   10.0000000        -7.03981938E-03
   10.1149998        -7.15151709E-03
   10.2299995        -7.30588846E-03
   10.3450003        -7.49212410E-03
   10.4600000        -7.69699737E-03
   10.5749998        -7.90582877E-03
   10.6899996        -8.10357463E-03
   10.8050003        -8.27595033E-03
   10.9200001        -8.41049943E-03
   11.0349998        -8.49750359E-03
   11.1499996        -8.53067264E-03
   11.2650003        -8.50754511E-03
   11.3800001        -8.42957385E-03
   11.4949999        -8.30188859E-03
   11.6099997        -8.13276228E-03
   11.7250004        -7.93283433E-03
   11.8400002        -7.71415420E-03
   11.9549999        -7.48915272E-03
   12.0699997        -7.26960786E-03
   12.1850004        -7.06572179E-03
   12.3000002        -6.88537722E-03
   12.4150000        -6.73364382E-03
   12.5299997        -6.61256770E-03
   12.6450005        -6.52126642E-03
   12.7600002        -6.45630294E-03
   12.8750000        -6.41230587E-03
   12.9899998        -6.38275966E-03
   13.1049995        -6.36088941E-03
   13.2200003        -6.34054793E-03
   13.3350000        -6.31701062E-03
   13.4499998        -6.28759479E-03
   13.5649996        -6.25204435E-03
   13.6800003        -6.21263124E-03
   13.7950001        -6.17395900E-03
   13.9099998        -6.14248961E-03
   14.0249996        -6.12583244E-03
   14.1400003        -6.13186508E-03
   14.2550001        -6.16777176E-03
   14.3699999        -6.23910129E-03
   14.4849997        -6.34893030E-03
   14.6000004        -6.49723411E-03
   14.7150002        -6.68052211E-03
   14.8299999        -6.89179590E-03
   14.9449997        -7.12083979E-03
   15.0600004        -7.35483319E-03
   15.1750002        -7.57923909E-03
   15.2900000        -7.77890161E-03
   15.4049997        -7.93925021E-03
   15.5200005        -8.04752111E-03
   15.6350002        -8.09387676E-03
   15.7500000        -8.07232875E-03
   15.8649998        -7.98137765E-03
   15.9799995        -7.82430544E-03
   16.0949993        -7.60909589E-03
   16.2099991        -7.34796887E-03
   16.3250008        -7.05658086E-03
   16.4400005        -6.75293710E-03
   16.5550003        -6.45611621E-03
   16.6700001        -6.18490763E-03
   16.7849998        -5.95647423E-03
   16.8999996        -5.78515604E-03
   17.0149994        -5.68150589E-03
   17.1299992        -5.65163931E-03
   17.2450008        -5.69694908E-03
   17.3600006        -5.81419375E-03
   17.4750004        -5.99594973E-03
   17.5900002        -6.23137597E-03
   17.7049999        -6.50721835E-03
   17.8199997        -6.80895289E-03
   17.9349995        -7.12197414E-03
   18.0499992        -7.43271224E-03
   18.1650009        -7.72958389E-03
   18.2800007        -8.00370239E-03
   18.3950005        -8.24929122E-03
   18.5100002        -8.46377015E-03
   18.6250000        -8.64752382E-03
   18.7399998        -8.80339183E-03
   18.8549995        -8.93592834E-03
   18.9699993        -9.05053504E-03
   19.0849991        -9.15254187E-03
   19.2000008        -9.24633909E-03
   19.3150005        -9.33466386E-03
   19.4300003        -9.41809639E-03
   19.5450001        -9.49483924E-03
   19.6599998        -9.56078619E-03
   19.7749996        -9.60990321E-03
   19.8899994        -9.63485148E-03
   20.0049992        -9.62782651E-03
   20.1200008        -9.58150439E-03
   20.2350006        -9.49001778E-03
   20.3500004        -9.34984908E-03
   20.4650002        -9.16055683E-03
   20.5799999        -8.92525353E-03
   20.6949997        -8.65077786E-03
   20.8099995        -8.34752899E-03
   20.9249992        -8.02897941E-03
   21.0400009        -7.71087641E-03
   21.1550007        -7.41021894E-03
   21.2700005        -7.14406651E-03
   21.3850002        -6.92830421E-03
   21.5000000        -6.77644461E-03
   21.6149998        -6.69858698E-03
   21.7299995        -6.70061214E-03
   21.8449993        -6.78368518E-03
   21.9599991        -6.94411481E-03
   22.0750008        -7.17357406E-03
   22.1900005        -7.45967543E-03
   22.3050003        -7.78684253E-03
   22.4200001        -8.13741609E-03
   22.5349998        -8.49289820E-03
   22.6499996        -8.83522723E-03
   22.7649994        -9.14799049E-03
   22.8799992        -9.41747054E-03
   22.9950008        -9.63344891E-03
   23.1100006        -9.78969689E-03
   23.2250004        -9.88414139E-03
   23.3400002        -9.91869438E-03
   23.4549999        -9.89876967E-03
   23.5699997        -9.83255170E-03
   23.6849995        -9.73008573E-03
   23.7999992        -9.60227195E-03
   23.9150009        -9.45986994E-03
   24.0300007        -9.31258406E-03
   24.1450005        -9.16832685E-03
   24.2600002        -9.03270487E-03
   24.3750000        -8.90877191E-03
   24.4899998        -8.79705232E-03
   24.6049995        -8.69583245E-03
   24.7199993        -8.60166643E-03
   24.8349991        -8.51004478E-03
   24.9500008        -8.41614697E-03
   25.0650005        -8.31561070E-03
   25.1800003        -8.20521731E-03
   25.2950001        -8.08344129E-03
   25.4099998        -7.95080420E-03
   25.5249996        -7.80998776E-03
   25.6399994        -7.66570354E-03
   25.7549992        -7.52433017E-03
   25.8700008        -7.39334663E-03
   25.9850006        -7.28062913E-03
   26.1000004        -7.19366316E-03
   26.2150002        -7.13876402E-03
   26.3299999        -7.12037133E-03
   26.4449997        -7.14049162E-03
   26.5599995        -7.19834398E-03
   26.6749992        -7.29025109E-03
   26.7900009        -7.40978494E-03
   26.9050007        -7.54816411E-03
   27.0200005        -7.69487070E-03
   27.1350002        -7.83844013E-03
   27.2500000        -7.96735007E-03
   27.3649998        -8.07094667E-03
   27.4799995        -8.14031810E-03
   27.5949993        -8.16904567E-03
   27.7099991        -8.15376919E-03
   27.8250008        -8.09452124E-03
   27.9400005        -7.99479336E-03
   28.0550003        -7.86133204E-03
   28.1700001        -7.70368613E-03
   28.2849998        -7.53353676E-03
   28.3999996        -7.36386143E-03
   28.5149994        -7.20800925E-03
   28.6299992        -7.07875518E-03
   28.7450008        -6.98740780E-03
   28.8600006        -6.94304192E-03
   28.9750004        -6.95191324E-03
   29.0900002        -7.01709045E-03
   29.2049999        -7.13833934E-03
   29.3199997        -7.31224101E-03
   29.4349995        -7.53254583E-03
   29.5499992        -7.79071450E-03
   29.6650009        -8.07659701E-03
   29.7800007        -8.37919395E-03
   29.8950005        -8.68743192E-03
   30.0100002        -8.99089873E-03
   30.1250000        -9.28047020E-03
   30.2399998        -9.54878889E-03
   30.3549995        -9.79056675E-03
   30.4699993        -1.00026978E-02
   30.5849991        -1.01841772E-02
   30.7000008        -1.03358487E-02
   30.8150005        -1.04600182E-02
   30.9300003        -1.05599752E-02
   31.0450001        -1.06394598E-02
   31.1599998        -1.07021546E-02
   31.2749996        -1.07512185E-02
   31.3899994        -1.07889306E-02
   31.5049992        -1.08164558E-02
   31.6200008        -1.08337598E-02
   31.7350006        -1.08396765E-02
   31.8500004        -1.08321030E-02
   31.9650002        -1.08083179E-02
   32.0800018        -1.07653718E-02
   32.1949997        -1.07005099E-02
   32.3100014        -1.06115984E-02
   32.4249992        -1.04974890E-02
   32.5400009        -1.03582954E-02
   32.6549988        -1.01955608E-02
   32.7700005        -1.00122737E-02
   32.8849983        -9.81275085E-03
   33.0000000        -9.60237999E-03
   33.1150017        -9.38724447E-03
   33.2299995        -9.17365775E-03
   33.3450012        -8.96765664E-03
   33.4599991        -8.77447985E-03
   33.5750008        -8.59809108E-03
   33.6899986        -8.44078045E-03
   33.8050003        -8.30288790E-03
   33.9199982        -8.18266813E-03
   34.0349998        -8.07632320E-03
   34.1500015        -7.97819719E-03
   34.2649994        -7.88112450E-03
   34.3800011        -7.77691929E-03
   34.4949989        -7.65695376E-03
   34.6100006        -7.51280412E-03
   34.7249985        -7.33690243E-03
   34.8400002        -7.12315412E-03
   34.9550018        -6.86747441E-03
   35.0699997        -6.56820135E-03
   35.1850014        -6.22636033E-03
   35.2999992        -5.84575115E-03
   35.4150009        -5.43286139E-03
   35.5299988        -4.99660103E-03
   35.6450005        -4.54788189E-03
   35.7599983        -4.09906590E-03
   35.8750000        -3.66332778E-03
   35.9900017        -3.25396284E-03
   36.1049995        -2.88369786E-03
   36.2200012        -2.56404397E-03
   36.3349991        -2.30473583E-03
   36.4500008        -2.11329130E-03
   36.5649986        -1.99471600E-03
   36.6800003        -1.95136794E-03
   36.7949982        -1.98298530E-03
   36.9099998        -2.08686455E-03
   37.0250015        -2.25817226E-03
   37.1399994        -2.49035656E-03
   37.2550011        -2.77562556E-03
   37.3699989        -3.10545368E-03
   37.4850006        -3.47107323E-03
   37.5999985        -3.86391883E-03
   37.7150002        -4.27599112E-03
   37.8300018        -4.70011821E-03
   37.9449997        -5.13010425E-03
   38.0600014        -5.56076178E-03
   38.1749992        -5.98783372E-03
   38.2900009        -6.40782993E-03
   38.4049988        -6.81779673E-03
   38.5200005        -7.21505890E-03
   38.6349983        -7.59695750E-03
   38.7500000        -7.96063058E-03
   38.8650017        -8.30285437E-03
   38.9799995        -8.61997344E-03
   39.0950012        -8.90793651E-03
   39.2099991        -9.16242879E-03
   39.3250008        -9.37911868E-03
   39.4399986        -9.55396798E-03
   39.5550003        -9.68360435E-03
   39.6699982        -9.76571254E-03
   39.7849998        -9.79940221E-03
   39.9000015        -9.78551991E-03
   40.0149994        -9.72686708E-03
   40.1300011        -9.62829310E-03
   40.2449989        -9.49664786E-03
   40.3600006        -9.34057403E-03
   40.4749985        -9.17015970E-03
   40.5900002        -8.99644475E-03
   40.7050018        -8.83083139E-03
   40.8199997        -8.68441910E-03
   40.9350014        -8.56732484E-03
   41.0499992        -8.48801993E-03
   41.1650009        -8.45275633E-03
   41.2799988        -8.46510287E-03
   41.3950005        -8.52565933E-03
   41.5099983        -8.63194745E-03
   41.6250000        -8.77850875E-03
   41.7400017        -8.95720907E-03
   41.8549995        -9.15771909E-03
   41.9700012        -9.36815143E-03
   42.0849991        -9.57580656E-03
   42.2000008        -9.76796821E-03
   42.3149986        -9.93270334E-03
   42.4300003        -1.00595960E-02
   42.5449982        -1.01403669E-02
   42.6599998        -1.01693394E-02
   42.7750015        -1.01437159E-02
   42.8899994        -1.00636436E-02
   43.0050011        -9.93208401E-03
   43.1199989        -9.75448266E-03
   43.2350006        -9.53829009E-03
   43.3499985        -9.29235667E-03
   43.4650002        -9.02626477E-03
   43.5800018        -8.74965731E-03
   43.6949997        -8.47159605E-03
   43.8100014        -8.20002425E-03
   43.9249992        -7.94136338E-03
   44.0400009        -7.70026864E-03
   44.1549988        -7.47956382E-03
   44.2700005        -7.28034787E-03
   44.3849983        -7.10226037E-03
