  -1.50000000        -3.85284930E-18
  -1.38125002        -1.16974197E-09
  -1.26250005        -5.53733770E-09
  -1.14374995        -1.80220852E-08
  -1.02499998        -4.96379222E-08
 -0.906250000        -1.23273239E-07
 -0.787500024        -2.83186949E-07
 -0.668749988        -6.09141523E-07
 -0.550000012        -1.23531549E-06
 -0.431250006        -2.37279801E-06
 -0.312500000        -4.33291279E-06
 -0.193749994        -7.54750636E-06
  -7.50000030E-02    -1.25824508E-05
   4.37499993E-02    -2.01421735E-05
  0.162499994        -3.10657597E-05
  0.281250000        -4.63178148E-05
  0.400000006        -6.69786750E-05
  0.518750012        -9.42381157E-05
  0.637499988        -1.29394277E-04
  0.756250024        -1.73857028E-04
  0.875000000        -2.29152749E-04
  0.993749976        -2.96925660E-04
   1.11249995        -3.78932018E-04
   1.23125005        -4.77023248E-04
   1.35000002        -5.93114237E-04
   1.46875000        -7.29134714E-04
   1.58749998        -8.86960304E-04
   1.70624995        -1.06832234E-03
   1.82500005        -1.27469492E-03
   1.94375002        -1.50716130E-03
   2.06250000        -1.76626351E-03
   2.18125010        -2.05184286E-03
   2.29999995        -2.36288249E-03
   2.41875005        -2.69736419E-03
   2.53749990        -3.05215805E-03
   2.65625000        -3.42295622E-03
   2.77500010        -3.80426995E-03
   2.89374995        -4.18949919E-03
   3.01250005        -4.57108254E-03
   3.13124990        -4.94073145E-03
   3.25000000        -5.28973388E-03
   3.36875010        -5.60932839E-03
   3.48749995        -5.89111401E-03
   3.60625005        -6.12747855E-03
   3.72499990        -6.31201593E-03
   3.84375000        -6.43989677E-03
   3.96250010        -6.50816131E-03
   4.08125019        -6.51591737E-03
   4.19999981        -6.46441476E-03
   4.31874990        -6.35698857E-03
   4.43750000        -6.19886862E-03
   4.55625010        -5.99687546E-03
   4.67500019        -5.75900823E-03
   4.79374981        -5.49396593E-03
   4.91249990        -5.21063479E-03
   5.03125000        -4.91758669E-03
   5.15000010        -4.62261634E-03
   5.26875019        -4.33237199E-03
   5.38749981        -4.05208999E-03
   5.50624990        -3.78546538E-03
   5.62500000        -3.53465462E-03
   5.74375010        -3.30041302E-03
   5.86250019        -3.08233616E-03
   5.98124981        -2.87918909E-03
   6.09999990        -2.68927123E-03
   6.21875000        -2.51079095E-03
   6.33750010        -2.34219828E-03
   6.45625019        -2.18244689E-03
   6.57499981        -2.03115516E-03
   6.69374990        -1.88865524E-03
   6.81250000        -1.75591896E-03
   6.93125010        -1.63438253E-03
   7.05000019        -1.52568414E-03
   7.16874981        -1.43135246E-03
   7.28749990        -1.35248341E-03
   7.40625000        -1.28944812E-03
   7.52500010        -1.24167139E-03
   7.64375019        -1.20751164E-03
   7.76249981        -1.18426804E-03
   7.88124990        -1.16831902E-03
   8.00000000        -1.15538924E-03
   8.11874962        -1.14092103E-03
   8.23750019        -1.12051726E-03
   8.35624981        -1.09041145E-03
   8.47500038        -1.04791461E-03
   8.59375000        -9.91790439E-04
   8.71249962        -9.22512030E-04
   8.83125019        -8.42368463E-04
   8.94999981        -7.55398825E-04
   9.06875038        -6.67149841E-04
   9.18750000        -5.84274356E-04
   9.30624962        -5.13997336E-04
   9.42500019        -4.63498232E-04
   9.54374981        -4.39263880E-04
   9.66250038        -4.46471298E-04
   9.78125000        -4.88461053E-04
   9.89999962        -5.66354021E-04
   10.0187502        -6.78849756E-04
   10.1374998        -8.22231988E-04
   10.2562504        -9.90585773E-04
   10.3750000        -1.17621059E-03
   10.4937496        -1.37019227E-03
   10.6125002        -1.56309013E-03
   10.7312498        -1.74566999E-03
   10.8500004        -1.90962199E-03
   10.9687500        -2.04819581E-03
   11.0874996        -2.15669419E-03
   11.2062502        -2.23278115E-03
   11.3249998        -2.27658148E-03
   11.4437504        -2.29056086E-03
   11.5625000        -2.27920362E-03
   11.6812496        -2.24852655E-03
   11.8000002        -2.20547291E-03
   11.9187498        -2.15725251E-03
   12.0375004        -2.11069360E-03
   12.1562500        -2.07166607E-03
   12.2749996        -2.04463559E-03
   12.3937502        -2.03238660E-03
   12.5124998        -2.03593657E-03
   12.6312504        -2.05464405E-03
   12.7500000        -2.08649365E-03
   12.8687496        -2.12851819E-03
   12.9875002        -2.17731041E-03
   13.1062498        -2.22956180E-03
   13.2250004        -2.28256686E-03
   13.3437500        -2.33463477E-03
   13.4624996        -2.38535763E-03
   13.5812502        -2.43570725E-03
   13.6999998        -2.48794071E-03
   13.8187504        -2.54532904E-03
   13.9375000        -2.61173304E-03
   14.0562496        -2.69107148E-03
   14.1750002        -2.78674252E-03
   14.2937498        -2.90106167E-03
   14.4125004        -3.03478166E-03
   14.5312500        -3.18674976E-03
   14.6499996        -3.35375289E-03
   14.7687502        -3.53056844E-03
   14.8874998        -3.71023337E-03
   15.0062504        -3.88450595E-03
   15.1250000        -4.04449319E-03
   15.2437496        -4.18137340E-03
   15.3625002        -4.28716559E-03
   15.4812498        -4.35545295E-03
   15.6000004        -4.38201055E-03
   15.7187500        -4.36525885E-03
   15.8374996        -4.30650357E-03
   15.9562502        -4.20993753E-03
   16.0750008        -4.08239570E-03
   16.1937504        -3.93288070E-03
   16.3125000        -3.77190439E-03
   16.4312496        -3.61069827E-03
   16.5499992        -3.46036581E-03
   16.6687508        -3.33105121E-03
   16.7875004        -3.23119503E-03
   16.9062500        -3.16694705E-03
   17.0249996        -3.14177922E-03
   17.1437492        -3.15633253E-03
   17.2625008        -3.20850359E-03
   17.3812504        -3.29375244E-03
   17.5000000        -3.40559916E-03
   17.6187496        -3.53625510E-03
   17.7374992        -3.67732113E-03
   17.8562508        -3.82048776E-03
   17.9750004        -3.95817170E-03
   18.0937500        -4.08402598E-03
   18.2124996        -4.19328967E-03
   18.3312492        -4.28294530E-03
   18.4500008        -4.35168296E-03
   18.5687504        -4.39969031E-03
   18.6875000        -4.42829775E-03
   18.8062496        -4.43953276E-03
   18.9249992        -4.43563284E-03
   19.0437508        -4.41858312E-03
   19.1625004        -4.38973121E-03
   19.2812500        -4.34952555E-03
   19.3999996        -4.29740362E-03
   19.5187492        -4.23184736E-03
   19.6375008        -4.15060250E-03
   19.7562504        -4.05102689E-03
   19.8750000        -3.93053843E-03
   19.9937496        -3.78710637E-03
   20.1124992        -3.61973024E-03
   20.2312508        -3.42884683E-03
   20.3500004        -3.21662170E-03
   20.4687500        -2.98707769E-03
   20.5874996        -2.74604745E-03
   20.7062492        -2.50093848E-03
   20.8250008        -2.26032827E-03
   20.9437504        -2.03342084E-03
   21.0625000        -1.82941160E-03
   21.1812496        -1.65681622E-03
   21.2999992        -1.52282254E-03
   21.4187508        -1.43272628E-03
   21.5375004        -1.38950092E-03
   21.6562500        -1.39354251E-03
   21.7749996        -1.44260924E-03
   21.8937492        -1.53196743E-03
   22.0125008        -1.65472319E-03
   22.1312504        -1.80231733E-03
   22.2500000        -1.96513394E-03
   22.3687496        -2.13317364E-03
   22.4874992        -2.29673111E-03
   22.6062508        -2.44701910E-03
   22.7250004        -2.57669482E-03
   22.8437500        -2.68024020E-03
   22.9624996        -2.75418069E-03
   23.0812492        -2.79712793E-03
   23.2000008        -2.80965446E-03
   23.3187504        -2.79402710E-03
   23.4375000        -2.75382563E-03
   23.5562496        -2.69350014E-03
   23.6749992        -2.61790329E-03
   23.7937508        -2.53184955E-03
   23.9125004        -2.43973662E-03
   24.0312500        -2.34526279E-03
   24.1499996        -2.25125789E-03
   24.2687492        -2.15963554E-03
   24.3875008        -2.07145442E-03
   24.5062504        -1.98707916E-03
   24.6250000        -1.90640567E-03
   24.7437496        -1.82912394E-03
   24.8624992        -1.75497716E-03
   24.9812508        -1.68399257E-03
   25.1000004        -1.61664595E-03
   25.2187500        -1.55394897E-03
   25.3374996        -1.49744248E-03
   25.4562492        -1.44910254E-03
   25.5750008        -1.41116511E-03
   25.6937504        -1.38589123E-03
   25.8125000        -1.37530116E-03
   25.9312496        -1.38090469E-03
   26.0499992        -1.40346005E-03
   26.1687508        -1.44278945E-03
   26.2875004        -1.49767241E-03
   26.4062500        -1.56583183E-03
   26.5249996        -1.64401892E-03
   26.6437492        -1.72818953E-03
   26.7625008        -1.81376305E-03
   26.8812504        -1.89593760E-03
   27.0000000        -1.97003945E-03
   27.1187496        -2.03187368E-03
   27.2374992        -2.07804958E-03
   27.3562508        -2.10625143E-03
   27.4750004        -2.11543287E-03
   27.5937500        -2.10592104E-03
   27.7124996        -2.07941933E-03
   27.8312492        -2.03891145E-03
   27.9500008        -1.98847684E-03
   28.0687504        -1.93302566E-03
   28.1875000        -1.87798159E-03
   28.3062496        -1.82892964E-03
   28.4249992        -1.79126021E-03
   28.5437508        -1.76982931E-03
   28.6625004        -1.76865887E-03
   28.7812500        -1.79069606E-03
   28.8999996        -1.83764647E-03
   29.0187492        -1.90988497E-03
   29.1375008        -2.00645020E-03
   29.2562504        -2.12511537E-03
   29.3750000        -2.26253248E-03
   29.4937496        -2.41443096E-03
   29.6124992        -2.57586245E-03
   29.7312508        -2.74147023E-03
   29.8500004        -2.90576671E-03
   29.9687500        -3.06340866E-03
   30.0874996        -3.20944400E-03
   30.2062492        -3.33953020E-03
   30.3250008        -3.45010450E-03
   30.4437504        -3.53850354E-03
   30.5625000        -3.60302883E-03
   30.6812496        -3.64295812E-03
   30.7999992        -3.65850283E-03
   30.9187508        -3.65072256E-03
   31.0375004        -3.62140127E-03
   31.1562500        -3.57289682E-03
   31.2749996        -3.50797619E-03
   31.3937492        -3.42964777E-03
   31.5125008        -3.34100169E-03
   31.6312504        -3.24507058E-03
   31.7500000        -3.14471871E-03
   31.8687496        -3.04256240E-03
   31.9874992        -2.94093159E-03
   32.1062508        -2.84186355E-03
   32.2249985        -2.74713174E-03
   32.3437500        -2.65829964E-03
   32.4625015        -2.57678842E-03
   32.5812492        -2.50395294E-03
   32.7000008        -2.44114571E-03
   32.8187485        -2.38976441E-03
   32.9375000        -2.35126843E-03
   33.0562515        -2.32715951E-03
   33.1749992        -2.31892266E-03
   33.2937508        -2.32793065E-03
   33.4124985        -2.35531526E-03
   33.5312500        -2.40182201E-03
   33.6500015        -2.46765697E-03
   33.7687492        -2.55234959E-03
   33.8875008        -2.65464419E-03
   34.0062485        -2.77244230E-03
   34.1250000        -2.90280418E-03
   34.2437515        -3.04202642E-03
   34.3624992        -3.18579096E-03
   34.4812508        -3.32938391E-03
   34.5999985        -3.46797681E-03
   34.7187500        -3.59694357E-03
   34.8375015        -3.71219800E-03
   34.9562492        -3.81051679E-03
   35.0750008        -3.88982426E-03
   35.1937485        -3.94940702E-03
   35.3125000        -3.99004063E-03
   35.4312515        -4.01400076E-03
   35.5499992        -4.02496336E-03
   35.6687508        -4.02778527E-03
   35.7874985        -4.02818015E-03
   35.9062500        -4.03231196E-03
   36.0250015        -4.04633395E-03
   36.1437492        -4.07591276E-03
   36.2625008        -4.12577111E-03
   36.3812485        -4.19928972E-03
   36.5000000        -4.29820269E-03
   36.6187515        -4.42241365E-03
   36.7374992        -4.56994632E-03
   36.8562508        -4.73703584E-03
   36.9749985        -4.91835643E-03
   37.0937500        -5.10736369E-03
   37.2125015        -5.29671879E-03
   37.3312492        -5.47876954E-03
   37.4500008        -5.64603461E-03
   37.5687485        -5.79165900E-03
   37.6875000        -5.90980146E-03
   37.8062515        -5.99591946E-03
   37.9249992        -6.04693685E-03
   38.0437508        -6.06128434E-03
   38.1624985        -6.03881152E-03
   38.2812500        -5.98059315E-03
   38.4000015        -5.88865299E-03
   38.5187492        -5.76563505E-03
   38.6375008        -5.61446836E-03
   38.7562485        -5.43805631E-03
   38.8750000        -5.23902429E-03
   38.9937515        -5.01955999E-03
   39.1124992        -4.78134910E-03
   39.2312508        -4.52562515E-03
   39.3499985        -4.25331062E-03
   39.4687500        -3.96524183E-03
   39.5875015        -3.66243813E-03
   39.7062492        -3.34638520E-03
   39.8250008        -3.01929470E-03
   39.9437485        -2.68429797E-03
   40.0625000        -2.34555127E-03
   40.1812515        -2.00822158E-03
   40.2999992        -1.67835352E-03
   40.4187508        -1.36261119E-03
   40.5374985        -1.06791733E-03
   40.6562500        -8.01017974E-04
   40.7750015        -5.68006828E-04
   40.8937492        -3.73857329E-04
   41.0125008        -2.22006929E-04
   41.1312485        -1.14032460E-04
   41.2500000        -4.94558990E-05
   41.3687515        -2.57032098E-05
   41.4874992        -3.82237558E-05
   41.6062508        -8.07703182E-05
   41.7249985        -1.45815167E-04
   41.8437500        -2.25074007E-04
   41.9625015        -3.10090545E-04
   42.0812492        -3.92835762E-04
   42.2000008        -4.66270634E-04
   42.3187485        -5.24822215E-04
   42.4375000        -5.64738119E-04
   42.5562515        -5.84286172E-04
   42.6749992        -5.83788380E-04
   42.7937508        -5.65488299E-04
   42.9124985        -5.33267448E-04
   43.0312500        -4.92240593E-04
   43.1500015        -4.48269129E-04
   43.2687492        -4.07437619E-04
   43.3875008        -3.75541014E-04
   43.5062485        -3.57630459E-04
   43.6250000        -3.57652112E-04
   43.7437515        -3.78210068E-04
   43.8624992        -4.20467550E-04
   43.9812508        -4.84188058E-04
   44.0999985        -5.67901996E-04
   44.2187500        -6.69176748E-04
   44.3375015        -7.84954871E-04
   44.4562492        -9.11920099E-04
   44.5750008        -1.04685128E-03
   44.6937485        -1.18692522E-03
   44.8125000        -1.32993888E-03
   44.9312515        -1.47442683E-03
   45.0499992        -1.61966751E-03
   45.1687508        -1.76558027E-03
   45.2874985        -1.91252993E-03
   45.4062500        -2.06106296E-03
   45.5250015        -2.21161079E-03
   45.6437492        -2.36419728E-03
   45.7625008        -2.51818588E-03
   45.8812485        -2.67209951E-03
