  -1.50000000         0.00000000    
  -1.38499999        -1.09703013E-09
  -1.26999998        -5.10236076E-09
  -1.15499997        -1.63016907E-08
  -1.03999996        -4.40967618E-08
 -0.925000012        -1.07713696E-07
 -0.810000002        -2.43891208E-07
 -0.694999993        -5.18329500E-07
 -0.579999983        -1.04113803E-06
 -0.465000004        -1.98553857E-06
 -0.349999994        -3.60786476E-06
 -0.234999999        -6.26590781E-06
 -0.119999997        -1.04324454E-05
  -4.99999989E-03    -1.67016988E-05
  0.109999999        -2.57884021E-05
  0.224999994        -3.85212734E-05
  0.340000004        -5.58344218E-05
  0.455000013        -7.87602112E-05
  0.569999993        -1.08426124E-04
  0.685000002        -1.46055972E-04
  0.800000012        -1.92973603E-04
  0.915000021        -2.50606245E-04
   1.02999997        -3.20483872E-04
   1.14499998        -4.04231047E-04
   1.25999999        -5.03548945E-04
   1.37500000        -6.20184350E-04
   1.49000001        -7.55883870E-04
   1.60500002        -9.12331510E-04
   1.72000003        -1.09106791E-03
   1.83500004        -1.29339157E-03
   1.95000005        -1.52024231E-03
   2.06500006        -1.77207310E-03
   2.18000007        -2.04871409E-03
   2.29500008        -2.34923791E-03
   2.41000009        -2.67183851E-03
   2.52500010        -3.01373703E-03
   2.64000010        -3.37112159E-03
   2.75500011        -3.73913976E-03
   2.86999989        -4.11194935E-03
   2.98499990        -4.48283600E-03
   3.09999990        -4.84439777E-03
   3.21499991        -5.18879341E-03
   3.32999992        -5.50804520E-03
   3.44499993        -5.79438126E-03
   3.55999994        -6.04060059E-03
   3.67499995        -6.24042936E-03
   3.78999996        -6.38885936E-03
   3.90499997        -6.48242468E-03
   4.01999998        -6.51941122E-03
   4.13500023        -6.49996893E-03
   4.25000000        -6.42612064E-03
   4.36499977        -6.30166475E-03
   4.48000002        -6.13196567E-03
   4.59499979        -5.92365768E-03
   4.71000004        -5.68426820E-03
   4.82499981        -5.42180100E-03
   4.94000006        -5.14429482E-03
   5.05499983        -4.85940091E-03
   5.17000008        -4.57401248E-03
   5.28499985        -4.29395726E-03
   5.40000010        -4.02379641E-03
   5.51499987        -3.76672903E-03
   5.63000011        -3.52460751E-03
   5.74499989        -3.29806074E-03
   5.86000013        -3.08670592E-03
   5.97499990        -2.88942782E-03
   6.09000015        -2.70469021E-03
   6.20499992        -2.53085513E-03
   6.32000017        -2.36647064E-03
   6.43499994        -2.21050228E-03
   6.55000019        -2.06248392E-03
   6.66499996        -1.92257680E-03
   6.78000021        -1.79152889E-03
   6.89499998        -1.67054532E-03
   7.01000023        -1.56108243E-03
   7.12500000        -1.46459171E-03
   7.23999977        -1.38224475E-03
   7.35500002        -1.31467101E-03
   7.46999979        -1.26174011E-03
   7.58500004        -1.22242072E-03
   7.69999981        -1.19473343E-03
   7.81500006        -1.17581373E-03
   7.92999983        -1.16208184E-03
   8.04500008        -1.14951259E-03
   8.15999985        -1.13397953E-03
   8.27499962        -1.11164630E-03
   8.39000034        -1.07936293E-03
   8.50500011        -1.03503303E-03
   8.61999989        -9.77906864E-04
   8.73499966        -9.08771530E-04
   8.85000038        -8.30009987E-04
   8.96500015        -7.45516794E-04
   9.07999992        -6.60470221E-04
   9.19499969        -5.80974389E-04
   9.31000042        -5.13597974E-04
   9.42500019        -4.64844110E-04
   9.53999996        -4.40601027E-04
   9.65499973        -4.45615471E-04
   9.77000046        -4.83041775E-04
   9.88500023        -5.54105500E-04
   10.0000000        -6.57915662E-04
   10.1149998        -7.91445025E-04
   10.2299995        -9.49686801E-04
   10.3450003        -1.12597400E-03
   10.4600000        -1.31244084E-03
   10.5749998        -1.50058558E-03
   10.6899996        -1.68188964E-03
   10.8050003        -1.84843969E-03
   10.9200001        -1.99349900E-03
   11.0349998        -2.11197929E-03
   11.1499996        -2.20077438E-03
   11.2650003        -2.25892523E-03
   11.3800001        -2.28760787E-03
   11.4949999        -2.28994642E-03
   11.6099997        -2.27066851E-03
   11.7250004        -2.23564333E-03
   11.8400002        -2.19134032E-03
   11.9549999        -2.14426522E-03
   12.0699997        -2.10042088E-03
   12.1850004        -2.06484413E-03
   12.3000002        -2.04126164E-03
   12.4150000        -2.03188928E-03
   12.5299997        -2.03739223E-03
   12.6450005        -2.05700286E-03
   12.7600002        -2.08878214E-03
   12.8750000        -2.12998898E-03
   12.9899998        -2.17751786E-03
   13.1049995        -2.22835946E-03
   13.2200003        -2.28002900E-03
   13.3350000        -2.33091996E-03
   13.4499998        -2.38053990E-03
   13.5649996        -2.42960732E-03
   13.6800003        -2.47999327E-03
   13.7950001        -2.53450964E-03
   13.9099998        -2.59657181E-03
   14.0249996        -2.66976142E-03
   14.1400003        -2.75734020E-03
   14.2550001        -2.86176079E-03
   14.3699999        -2.98423134E-03
   14.4849997        -3.12437839E-03
   14.6000004        -3.28005198E-03
   14.7150002        -3.44729540E-03
   14.8299999        -3.62049416E-03
   14.9449997        -3.79269454E-03
   15.0600004        -3.95607064E-03
   15.1750002        -4.10250388E-03
   15.2900000        -4.22422308E-03
   15.4049997        -4.31444868E-03
   15.5200005        -4.36798809E-03
   15.6350002        -4.38172044E-03
   15.7500000        -4.35493467E-03
   15.8649998        -4.28947620E-03
   15.9799995        -4.18969709E-03
   16.0949993        -4.06220416E-03
   16.2099991        -3.91542353E-03
   16.3250008        -3.75902001E-03
   16.4400005        -3.60321486E-03
   16.5550003        -3.45806358E-03
   16.6700001        -3.33274808E-03
   16.7849998        -3.23494803E-03
   16.8999996        -3.17033683E-03
   17.0149994        -3.14224535E-03
   17.1299992        -3.15151527E-03
   17.2450008        -3.19655286E-03
   17.3600006        -3.27356555E-03
   17.4750004        -3.37696262E-03
   17.5900002        -3.49987275E-03
   17.7049999        -3.63473222E-03
   17.8199997        -3.77388718E-03
   17.9349995        -3.91015783E-03
   18.0499992        -4.03731549E-03
   18.1650009        -4.15043160E-03
   18.2800007        -4.24607797E-03
   18.3950005        -4.32236958E-03
   18.5100002        -4.37884592E-03
   18.6250000        -4.41622781E-03
   18.7399998        -4.43607243E-03
   18.8549995        -4.44036769E-03
   18.9699993        -4.43112524E-03
   19.0849991        -4.41000098E-03
   19.2000008        -4.37800214E-03
   19.3150005        -4.33530007E-03
   19.4300003        -4.28117719E-03
   19.5450001        -4.21410799E-03
   19.6599998        -4.13197326E-03
   19.7749996        -4.03237389E-03
   19.8899994        -3.91302444E-03
   20.0049992        -3.77216679E-03
   20.1200008        -3.60897928E-03
   20.2350006        -3.42391455E-03
   20.3500004        -3.21894418E-03
   20.4650002        -2.99767032E-03
   20.5799999        -2.76528788E-03
   20.6949997        -2.52839457E-03
   20.8099995        -2.29465985E-03
   20.9249992        -2.07237480E-03
   21.0400009        -1.86992192E-03
   21.1550007        -1.69520313E-03
   21.2700005        -1.55508192E-03
   21.3850002        -1.45487988E-03
   21.5000000        -1.39797432E-03
   21.6149998        -1.38553092E-03
   21.7299995        -1.41639507E-03
   21.8449993        -1.48714904E-03
   21.9599991        -1.59233296E-03
   22.0750008        -1.72480941E-03
   22.1900005        -1.87624095E-03
   22.3050003        -2.03764345E-03
   22.4200001        -2.19996646E-03
   22.5349998        -2.35465798E-03
   22.6499996        -2.49416823E-03
   22.7649994        -2.61235470E-03
   22.8799992        -2.70476309E-03
   22.9950008        -2.76876823E-03
   23.1100006        -2.80356896E-03
   23.2250004        -2.81005120E-03
   23.3400002        -2.79053557E-03
   23.4549999        -2.74844165E-03
   23.5699997        -2.68790196E-03
   23.6849995        -2.61336402E-03
   23.7999992        -2.52921646E-03
   23.9150009        -2.43946840E-03
   24.0300007        -2.34751077E-03
   24.1450005        -2.25596805E-03
   24.2600002        -2.16665305E-03
   24.3750000        -2.08061188E-03
   24.4899998        -1.99825317E-03
   24.6049995        -1.91953441E-03
   24.7199993        -1.84418086E-03
   24.8349991        -1.77191326E-03
   24.9500008        -1.70265103E-03
   25.0650005        -1.63667137E-03
   25.1800003        -1.57470640E-03
   25.2950001        -1.51796546E-03
   25.4099998        -1.46808173E-03
   25.5249996        -1.42698991E-03
   25.6399994        -1.39674544E-03
   25.7549992        -1.37930887E-03
   25.8700008        -1.37631304E-03
   25.9850006        -1.38884271E-03
   26.1000004        -1.41724723E-03
   26.2150002        -1.46100880E-03
   26.3299999        -1.51868060E-03
   26.4449997        -1.58790371E-03
   26.5599995        -1.66550488E-03
   26.6749992        -1.74766826E-03
   26.7900009        -1.83016958E-03
   26.9050007        -1.90865318E-03
   27.0200005        -1.97893195E-03
   27.1350002        -2.03728466E-03
   27.2500000        -2.08072760E-03
   27.3649998        -2.10723956E-03
   27.4799995        -2.11592368E-03
   27.5949993        -2.10709148E-03
   27.7099991        -2.08226591E-03
   27.8250008        -2.04410125E-03
   27.9400005        -1.99622870E-03
   28.0550003        -1.94303726E-03
   28.1700001        -1.88940519E-03
   28.2849998        -1.84040517E-03
   28.3999996        -1.80099835E-03
   28.5149994        -1.77573820E-03
   28.6299992        -1.76850776E-03
   28.7450008        -1.78229786E-03
   28.8600006        -1.81904493E-03
   28.9750004        -1.87953142E-03
   29.0900002        -1.96335604E-03
   29.2049999        -2.06896896E-03
   29.3199997        -2.19376991E-03
   29.4349995        -2.33425666E-03
   29.5499992        -2.48621753E-03
   29.6650009        -2.64495262E-03
   29.7800007        -2.80550751E-03
   29.8950005        -2.96291267E-03
   30.0100002        -3.11240903E-03
   30.1250000        -3.24965315E-03
   30.2399998        -3.37088923E-03
   30.3549995        -3.47308232E-03
   30.4699993        -3.55400983E-03
   30.5849991        -3.61230620E-03
   30.7000008        -3.64746293E-03
   30.8150005        -3.65978666E-03
   30.9300003        -3.65032023E-03
   31.0450001        -3.62073467E-03
   31.1599998        -3.57320067E-03
   31.2749996        -3.51024652E-03
   31.3899994        -3.43461498E-03
   31.5049992        -3.34912702E-03
   31.6200008        -3.25656193E-03
   31.7350006        -3.15955817E-03
   31.8500004        -3.06054368E-03
   31.9650002        -2.96169543E-03
   32.0800018        -2.86492868E-03
   32.1949997        -2.77191517E-03
   32.3100014        -2.68412335E-03
   32.4249992        -2.60287314E-03
   32.5400009        -2.52939994E-03
   32.6549988        -2.46491306E-03
   32.7700005        -2.41064397E-03
   32.8849983        -2.36787135E-03
   33.0000000        -2.33792118E-03
   33.1150017        -2.32213270E-03
   33.2299995        -2.32179556E-03
   33.3450012        -2.33805343E-03
   33.4599991        -2.37179222E-03
   33.5750008        -2.42350949E-03
   33.6899986        -2.49319035E-03
   33.8050003        -2.58019776E-03
   33.9199982        -2.68319109E-03
   34.0349998        -2.80009024E-03
   34.1500015        -2.92809005E-03
   34.2649994        -3.06373741E-03
   34.3800011        -3.20306816E-03
   34.4949989        -3.34180007E-03
   34.6100006        -3.47557361E-03
   34.7249985        -3.60022299E-03
   34.8400002        -3.71206203E-03
   34.9550018        -3.80815729E-03
   35.0699997        -3.88657139E-03
   35.1850014        -3.94654879E-03
   35.2999992        -3.98863014E-03
   35.4150009        -4.01467504E-03
   35.5299988        -4.02779318E-03
   35.6450005        -4.03217506E-03
   35.7599983        -4.03283583E-03
   35.8750000        -4.03528567E-03
   35.9900017        -4.04514885E-03
   36.1049995        -4.06775950E-03
   36.2200012        -4.10776259E-03
   36.3349991        -4.16875351E-03
   36.4500008        -4.25298512E-03
   36.5649986        -4.36116010E-03
   36.6800003        -4.49233409E-03
   36.7949982        -4.64393385E-03
   36.9099998        -4.81188903E-03
   37.0250015        -4.99086874E-03
   37.1399994        -5.17460471E-03
   37.2550011        -5.35627594E-03
   37.3699989        -5.52892219E-03
   37.4850006        -5.68585237E-03
   37.5999985        -5.82102081E-03
   37.7150002        -5.92933828E-03
   37.8300018        -6.00690115E-03
   37.9449997        -6.05111104E-03
   38.0600014        -6.06069714E-03
   38.1749992        -6.03563106E-03
   38.2900009        -5.97695541E-03
   38.4049988        -5.88654680E-03
   38.5200005        -5.76683553E-03
   38.6349983        -5.62051684E-03
   38.7500000        -5.45028644E-03
   38.8650017        -5.25861559E-03
   38.9799995        -5.04760584E-03
   39.0950012        -4.81891725E-03
   39.2099991        -4.57379222E-03
   39.3250008        -4.31316020E-03
   39.4399986        -4.03780956E-03
   39.5550003        -3.74860782E-03
   39.6699982        -3.44674522E-03
   39.7849998        -3.13396216E-03
   39.9000015        -2.81274086E-03
   40.0149994        -2.48642731E-03
   40.1300011        -2.15926697E-03
   40.2449989        -1.83634018E-03
   40.3600006        -1.52339600E-03
   40.4749985        -1.22659211E-03
   40.5900002        -9.52156144E-04
   40.7050018        -7.05999963E-04
   40.8199997        -4.93313768E-04
   40.9350014        -3.18180391E-04
   41.0499992        -1.83241529E-04
   41.1650009        -8.94516343E-05
   41.2799988        -3.59422374E-05
   41.3950005        -2.00161394E-05
   41.5099983        -3.72745671E-05
   41.6250000        -8.18743429E-05
   41.7400017        -1.46893290E-04
   41.8549995        -2.24782852E-04
   41.9700012        -3.07867216E-04
   42.0849991        -3.88853718E-04
   42.2000008        -4.61310934E-04
   42.3149986        -5.20079688E-04
   42.4300003        -5.61582041E-04
   42.5449982        -5.84006251E-04
   42.6599998        -5.87355345E-04
   42.7750015        -5.73356578E-04
   42.8899994        -5.45243849E-04
   43.0050011        -5.07433375E-04
   43.1199989        -4.65123652E-04
   43.2350006        -4.23852878E-04
   43.3499985        -3.89054505E-04
   43.4650002        -3.65646556E-04
   43.5800018        -3.57688288E-04
   43.6949997        -3.68130248E-04
   43.8100014        -3.98674951E-04
   43.9249992        -4.49753134E-04
   44.0400009        -5.20612346E-04
   44.1549988        -6.09501381E-04
   44.2700005        -7.13929301E-04
   44.3849983        -8.30966805E-04
