  -1.50000000       0.00000000    
  -1.38499999      -3.96584277E-09
  -1.26999998      -1.80003195E-08
  -1.15499997      -5.60391555E-08
  -1.03999996      -1.47898675E-07
 -0.925000012      -3.53118111E-07
 -0.810000002      -7.82474956E-07
 -0.694999993      -1.62784193E-06
 -0.579999983      -3.19838114E-06
 -0.465000004      -5.95716438E-06
 -0.349999994      -1.05483787E-05
 -0.234999999      -1.78034152E-05
 -0.119999997      -2.87165440E-05
  -4.99999989E-03  -4.43883837E-05
  0.109999999      -6.59466314E-05
  0.224999994      -9.44644780E-05
  0.340000004      -1.30903194E-04
  0.455000013      -1.76103291E-04
  0.569999993      -2.30838370E-04
  0.685000002      -2.95930484E-04
  0.800000012      -3.72411159E-04
  0.915000021      -4.61701566E-04
   1.02999997      -5.65781316E-04
   1.14499998      -6.87317573E-04
   1.25999999      -8.29730765E-04
   1.37500000      -9.97182215E-04
   1.49000001      -1.19447440E-03
   1.60500002      -1.42686337E-03
   1.72000003      -1.69978861E-03
   1.83500004      -2.01853248E-03
   1.95000005      -2.38782889E-03
   2.06500006      -2.81144236E-03
   2.18000007      -3.29175079E-03
   2.29500008      -3.82935675E-03
   2.41000009      -4.42276569E-03
   2.52500010      -5.06815780E-03
   2.64000010      -5.75927692E-03
   2.75500011      -6.48746546E-03
   2.86999989      -7.24183815E-03
   2.98499990      -8.00961629E-03
   3.09999990      -8.77659395E-03
   3.21499991      -9.52772237E-03
   3.32999992      -1.02477763E-02
   3.44499993      -1.09220762E-02
   3.55999994      -1.15371961E-02
   3.67499995      -1.20816305E-02
   3.78999996      -1.25463707E-02
   3.90499997      -1.29253380E-02
   4.01999998      -1.32156527E-02
   4.13500023      -1.34177115E-02
   4.25000000      -1.35350628E-02
   4.36499977      -1.35741029E-02
   4.48000002      -1.35435853E-02
   4.59499979      -1.34540023E-02
   4.71000004      -1.33168828E-02
   4.82499981      -1.31440368E-02
   4.94000006      -1.29468422E-02
   5.05499983      -1.27355875E-02
   5.17000008      -1.25189461E-02
   5.28499985      -1.23036150E-02
   5.40000010      -1.20941391E-02
   5.51499987      -1.18929222E-02
   5.63000011      -1.17004365E-02
   5.74499989      -1.15155820E-02
   5.86000013      -1.13361692E-02
   5.97499990      -1.11594778E-02
   6.09000015      -1.09828161E-02
   6.20499992      -1.08040515E-02
   6.32000017      -1.06220366E-02
   6.43499994      -1.04368981E-02
   6.55000019      -1.02501549E-02
   6.66499996      -1.00646596E-02
   6.78000021      -9.88435652E-03
   6.89499998      -9.71389096E-03
   7.01000023      -9.55810305E-03
   7.12500000      -9.42145381E-03
   7.23999977      -9.30745993E-03
   7.35500002      -9.21817124E-03
   7.46999979      -9.15378425E-03
   7.58500004      -9.11240187E-03
   7.69999981      -9.09000915E-03
   7.81500006      -9.08065774E-03
   7.92999983      -9.07685421E-03
   8.04500008      -9.07014590E-03
   8.15999985      -9.05182771E-03
   8.27499962      -9.01373662E-03
   8.39000034      -8.94904509E-03
   8.50500011      -8.85298662E-03
   8.61999989      -8.72343592E-03
   8.73499966      -8.56128708E-03
   8.85000038      -8.37058295E-03
   8.96500015      -8.15837272E-03
   9.07999992      -7.93429464E-03
   9.19499969      -7.70991296E-03
   9.31000042      -7.49785965E-03
   9.42500019      -7.31084077E-03
   9.53999996      -7.16059376E-03
   9.65499973      -7.05688819E-03
   9.77000046      -7.00664939E-03
   9.88500023      -7.01328926E-03
   10.0000000      -7.07630767E-03
   10.1149998      -7.19119888E-03
   10.2299995      -7.34968297E-03
   10.3450003      -7.54025206E-03
   10.4600000      -7.74897961E-03
   10.5749998      -7.96053745E-03
   10.6899996      -8.15933663E-03
   10.8050003      -8.33068974E-03
   10.9200001      -8.46190192E-03
   11.0349998      -8.54320172E-03
   11.1499996      -8.56842101E-03
   11.2650003      -8.53538699E-03
   11.3800001      -8.44597071E-03
   11.4949999      -8.30581225E-03
   11.6099997      -8.12374055E-03
   11.7250004      -7.91094638E-03
   11.8400002      -7.67998025E-03
   11.9549999      -7.44367624E-03
   12.0699997      -7.21408986E-03
   12.1850004      -7.00155273E-03
   12.3000002      -6.81392616E-03
   12.4150000      -6.65611168E-03
   12.5299997      -6.52986532E-03
   12.6450005      -6.43392745E-03
   12.7600002      -6.36443729E-03
   12.8750000      -6.31559966E-03
   12.9899998      -6.28052605E-03
   13.1049995      -6.25215843E-03
   13.2200003      -6.22419454E-03
   13.3350000      -6.19190186E-03
   13.4499998      -6.15274766E-03
   13.5649996      -6.10677851E-03
   13.6800003      -6.05669618E-03
   13.7950001      -6.00763224E-03
   13.9099998      -5.96662611E-03
   14.0249996      -5.94186410E-03
   14.1400003      -5.94174815E-03
   14.2550001      -5.97388390E-03
   14.3699999      -6.04409119E-03
   14.4849997      -6.15553930E-03
   14.6000004      -6.30809553E-03
   14.7150002      -6.49796100E-03
   14.8299999      -6.71764277E-03
   14.9449997      -6.95627509E-03
   15.0600004      -7.20027508E-03
   15.1750002      -7.43429130E-03
   15.2900000      -7.64235482E-03
   15.4049997      -7.80915609E-03
   15.5200005      -7.92131666E-03
   15.6350002      -7.96856545E-03
   15.7500000      -7.94469193E-03
   15.8649998      -7.84821343E-03
   15.9799995      -7.68266572E-03
   16.0949993      -7.45650427E-03
   16.2099991      -7.18261208E-03
   16.3250008      -6.87744748E-03
   16.4400005      -6.55990141E-03
   16.5550003      -6.24995725E-03
   16.6700001      -5.96726453E-03
   16.7849998      -5.72974142E-03
   16.8999996      -5.55232679E-03
   17.0149994      -5.44597721E-03
   17.1299992      -5.41699771E-03
   17.2450008      -5.46674430E-03
   17.3600006      -5.59172826E-03
   17.4750004      -5.78409480E-03
   17.5900002      -6.03242870E-03
   17.7049999      -6.32280717E-03
   17.8199997      -6.64000353E-03
   17.9349995      -6.96872687E-03
   18.0499992      -7.29479315E-03
   18.1650009      -7.60612218E-03
   18.2800007      -7.89347757E-03
   18.3950005      -8.15089513E-03
   18.5100002      -8.37577414E-03
   18.6250000      -8.56862776E-03
   18.7399998      -8.73254612E-03
   18.8549995      -8.87242239E-03
   18.9699993      -8.99403263E-03
   19.0849991      -9.10307560E-03
   19.2000008      -9.20426380E-03
   19.3150005      -9.30056442E-03
   19.4300003      -9.39267501E-03
   19.5450001      -9.47878417E-03
   19.6599998      -9.55464132E-03
   19.7749996      -9.61394981E-03
   19.8899994      -9.64901689E-03
   20.0049992      -9.65162367E-03
   20.1200008      -9.61401872E-03
   20.2350006      -9.52993426E-03
   20.3500004      -9.39553045E-03
   20.4650002      -9.21015255E-03
   20.5799999      -8.97684321E-03
   20.6949997      -8.70253146E-03
   20.8099995      -8.39787256E-03
   20.9249992      -8.07674415E-03
   21.0400009      -7.75543181E-03
   21.1550007      -7.45156035E-03
   21.2700005      -7.18286308E-03
   21.3850002      -6.96588960E-03
   21.5000000      -6.81475969E-03
   21.6149998      -6.74007135E-03
   21.7299995      -6.74805650E-03
   21.8449993      -6.84005301E-03
   21.9599991      -7.01234862E-03
   22.0750008      -7.25640217E-03
   22.1900005      -7.55943125E-03
   22.3050003      -7.90531281E-03
   22.4200001      -8.27572867E-03
   22.5349998      -8.65145121E-03
   22.6499996      -9.01367981E-03
   22.7649994      -9.34529584E-03
   22.8799992      -9.63195786E-03
   22.9950008      -9.86294635E-03
   23.1100006      -1.00316824E-02
   23.2250004      -1.01359095E-02
   23.3400002      -1.01775238E-02
   23.4549999      -1.01620853E-02
   23.5699997      -1.00980587E-02
   23.6849995      -9.99587122E-03
   23.7999992      -9.86687280E-03
   23.9150009      -9.72229429E-03
   24.0300007      -9.57229454E-03
   24.1450005      -9.42518748E-03
   24.2600002      -9.28689912E-03
   24.3750000      -9.16070305E-03
   24.4899998      -9.04723816E-03
   24.6049995      -8.94480199E-03
   24.7199993      -8.84986855E-03
   24.8349991      -8.75778031E-03
   24.9500008      -8.66353232E-03
   25.0650005      -8.56255740E-03
   25.1800003      -8.45145434E-03
   25.2950001      -8.32855888E-03
   25.4099998      -8.19431152E-03
   25.5249996      -8.05138610E-03
   25.6399994      -7.90456124E-03
   25.7549992      -7.76035199E-03
   25.8700008      -7.62642641E-03
   25.9850006      -7.51088234E-03
   26.1000004      -7.42143346E-03
   26.2150002      -7.36460369E-03
   26.3299999      -7.34499190E-03
   26.4449997      -7.36469496E-03
   26.5599995      -7.42293848E-03
   26.6749992      -7.51595804E-03
   26.7900009      -7.63714779E-03
   26.9050007      -7.77747016E-03
   27.0200005      -7.92609062E-03
   27.1350002      -8.07119627E-03
   27.2500000      -8.20091460E-03
   27.3649998      -8.30427371E-03
   27.4799995      -8.37210286E-03
   27.5949993      -8.39781202E-03
   27.7099991      -8.37797951E-03
   27.8250008      -8.31268728E-03
   27.9400005      -8.20559356E-03
   28.0550003      -8.06372240E-03
   28.1700001      -7.89698865E-03
   28.2849998      -7.71750184E-03
   28.3999996      -7.53870420E-03
   28.5149994      -7.37441098E-03
   28.6299992      -7.23782927E-03
   28.7450008      -7.14063551E-03
   28.8600006      -7.09218578E-03
   28.9750004      -7.09890760E-03
   29.0900002      -7.16392556E-03
   29.2049999      -7.28694256E-03
   29.3199997      -7.46436976E-03
   29.4349995      -7.68969581E-03
   29.5499992      -7.95404986E-03
   29.6650009      -8.24691169E-03
   29.7800007      -8.55690055E-03
   29.8950005      -8.87257885E-03
   30.0100002      -9.18320939E-03
   30.1250000      -9.47939605E-03
   30.2399998      -9.75358207E-03
   30.3549995      -1.00003472E-02
   30.4699993      -1.02165192E-02
   30.5849991      -1.04010794E-02
   30.7000008      -1.05548976E-02
   30.8150005      -1.06803291E-02
   30.9300003      -1.07807117E-02
   31.0450001      -1.08598275E-02
   31.1599998      -1.09213702E-02
   31.2749996      -1.09684821E-02
   31.3899994      -1.10033872E-02
   31.5049992      -1.10271648E-02
   31.6200008      -1.10396706E-02
   31.7350006      -1.10396165E-02
   31.8500004      -1.10247834E-02
   31.9650002      -1.09923556E-02
   32.0800018      -1.09393233E-02
   32.1949997      -1.08629325E-02
   32.3100014      -1.07611120E-02
   32.4249992      -1.06328446E-02
   32.5400009      -1.04784481E-02
   32.6549988      -1.02997264E-02
   32.7700005      -1.00999773E-02
   32.8849983      -9.88385174E-03
   33.0000000      -9.65707190E-03
   33.1150017      -9.42602754E-03
   33.2299995      -9.19729657E-03
   33.3450012      -8.97710212E-03
   33.4599991      -8.77078809E-03
   33.5750008      -8.58232286E-03
   33.6899986      -8.41390621E-03
   33.8050003      -8.26569926E-03
   33.9199982      -8.13570060E-03
   34.0349998      -8.01979750E-03
   34.1500015      -7.91198853E-03
   34.2649994      -7.80475326E-03
   34.3800011      -7.68956961E-03
   34.4949989      -7.55751925E-03
   34.6100006      -7.39995111E-03
   34.7249985      -7.20915245E-03
   34.8400002      -6.97897561E-03
   34.9550018      -6.70538284E-03
   35.0699997      -6.38685469E-03
   35.1850014      -6.02464844E-03
   35.2999992      -5.62287355E-03
   35.4150009      -5.18838549E-03
   35.5299988      -4.73050028E-03
   35.6450005      -4.26055351E-03
   35.7599983      -3.79132899E-03
   35.8750000      -3.33639863E-03
   35.9900017      -2.90941959E-03
   36.1049995      -2.52343086E-03
   36.2200012      -2.19020294E-03
   36.3349991      -1.91967376E-03
   36.4500008      -1.71951065E-03
   36.5649986      -1.59481971E-03
   36.6800003      -1.54801959E-03
   36.7949982      -1.57887407E-03
   36.9099998      -1.68467895E-03
   37.0250015      -1.86057761E-03
   37.1399994      -2.09997874E-03
   37.2550011      -2.39503593E-03
   37.3699989      -2.73715355E-03
   37.4850006      -3.11747729E-03
   37.5999985      -3.52733652E-03
   37.7150002      -3.95860290E-03
   37.8300018      -4.40395065E-03
   37.9449997      -4.85700043E-03
   38.0600014      -5.31234872E-03
   38.1749992      -5.76549117E-03
   38.2900009      -6.21265871E-03
   38.4049988      -6.65059173E-03
   38.5200005      -7.07628345E-03
   38.6349983      -7.48673128E-03
   38.7500000      -7.87872262E-03
   38.8650017      -8.24868679E-03
   38.9799995      -8.59264005E-03
   39.0950012      -8.90622940E-03
   39.2099991      -9.18488111E-03
   39.3250008      -9.42404941E-03
   39.4399986      -9.61954147E-03
   39.5550003      -9.76789463E-03
   39.6699982      -9.86677036E-03
   39.7849998      -9.91532113E-03
   39.9000015      -9.91450530E-03
   40.0149994      -9.86730028E-03
   40.1300011      -9.77878645E-03
   40.2449989      -9.65608750E-03
   40.3600006      -9.50815622E-03
   40.4749985      -9.34540760E-03
   40.5900002      -9.17920936E-03
   40.7050018      -9.02127661E-03
   40.8199997      -8.88298359E-03
   40.9350014      -8.77466705E-03
   41.0499992      -8.70495476E-03
   41.1650009      -8.68016947E-03
   41.2799988      -8.70386790E-03
   41.3950005      -8.77653994E-03
   41.5099983      -8.89551174E-03
   41.6250000      -9.05505009E-03
   41.7400017      -9.24667530E-03
   41.8549995      -9.45966784E-03
   41.9700012      -9.68171936E-03
   42.0849991      -9.89971124E-03
   42.2000008      -1.01005342E-02
   42.3149986      -1.02719087E-02
   42.4300003      -1.04031470E-02
   42.5449982      -1.04857925E-02
   42.6599998      -1.05140992E-02
   42.7750015      -1.04853064E-02
   42.8899994      -1.03997206E-02
   43.0050011      -1.02605578E-02
   43.1199989      -1.00736059E-02
   43.2350006      -9.84671712E-03
   43.3499985      -9.58917476E-03
   43.4650002      -9.31099802E-03
   43.5800018      -9.02222935E-03
   43.6949997      -8.73227324E-03
   43.8100014      -8.44934024E-03
   43.9249992      -8.18001851E-03
   44.0400009      -7.92903639E-03
   44.1549988      -7.69919669E-03
   44.2700005      -7.49150151E-03
   44.3849983      -7.30543956E-03
