  -1.50000000        -3.85284930E-18
  -1.38125002        -1.16974197E-09
  -1.26250005        -5.53733770E-09
  -1.14374995        -1.80220852E-08
  -1.02499998        -4.96379187E-08
 -0.906250000        -1.23273253E-07
 -0.787500024        -2.83186893E-07
 -0.668749988        -6.09141409E-07
 -0.550000012        -1.23531515E-06
 -0.431250006        -2.37279778E-06
 -0.312500000        -4.33291189E-06
 -0.193749994        -7.54750545E-06
  -7.50000030E-02    -1.25824527E-05
   4.37499993E-02    -2.01421808E-05
  0.162499994        -3.10657597E-05
  0.281250000        -4.63178076E-05
  0.400000006        -6.69786677E-05
  0.518750012        -9.42380939E-05
  0.637499988        -1.29394248E-04
  0.756250024        -1.73857014E-04
  0.875000000        -2.29152734E-04
  0.993749976        -2.96925544E-04
   1.11249995        -3.78931931E-04
   1.23125005        -4.77023073E-04
   1.35000002        -5.93114062E-04
   1.46875000        -7.29134423E-04
   1.58749998        -8.86959955E-04
   1.70624995        -1.06832187E-03
   1.82500005        -1.27469434E-03
   1.94375002        -1.50716060E-03
   2.06250000        -1.76626269E-03
   2.18125010        -2.05184170E-03
   2.29999995        -2.36288086E-03
   2.41875005        -2.69736233E-03
   2.53749990        -3.05215572E-03
   2.65625000        -3.42295319E-03
   2.77500010        -3.80426645E-03
   2.89374995        -4.18949453E-03
   3.01250005        -4.57107695E-03
   3.13124990        -4.94072493E-03
   3.25000000        -5.28972642E-03
   3.36875010        -5.60932001E-03
   3.48749995        -5.89110469E-03
   3.60625005        -6.12746738E-03
   3.72499990        -6.31200429E-03
   3.84375000        -6.43988326E-03
   3.96250010        -6.50814641E-03
   4.08125019        -6.51590154E-03
   4.19999981        -6.46439753E-03
   4.31874990        -6.35696994E-03
   4.43750000        -6.19884906E-03
   4.55625010        -5.99685544E-03
   4.67500019        -5.75898727E-03
   4.79374981        -5.49394405E-03
   4.91249990        -5.21061290E-03
   5.03125000        -4.91756340E-03
   5.15000010        -4.62259306E-03
   5.26875019        -4.33234870E-03
   5.38749981        -4.05206718E-03
   5.50624990        -3.78544256E-03
   5.62500000        -3.53463204E-03
   5.74375010        -3.30039021E-03
   5.86250019        -3.08231404E-03
   5.98124981        -2.87916674E-03
   6.09999990        -2.68924865E-03
   6.21875000        -2.51076836E-03
   6.33750010        -2.34217569E-03
   6.45625019        -2.18242407E-03
   6.57499981        -2.03113281E-03
   6.69374990        -1.88863277E-03
   6.81250000        -1.75589684E-03
   6.93125010        -1.63436087E-03
   7.05000019        -1.52566342E-03
   7.16874981        -1.43133290E-03
   7.28749990        -1.35246548E-03
   7.40625000        -1.28943194E-03
   7.52500010        -1.24165707E-03
   7.64375019        -1.20749930E-03
   7.76249981        -1.18425733E-03
   7.88124990        -1.16830994E-03
   8.00000000        -1.15538156E-03
   8.11874962        -1.14091462E-03
   8.23750019        -1.12051191E-03
   8.35624981        -1.09040679E-03
   8.47500038        -1.04791066E-03
   8.59375000        -9.91787063E-04
   8.71249962        -9.22509294E-04
   8.83125019        -8.42366426E-04
   8.94999981        -7.55397312E-04
   9.06875038        -6.67149085E-04
   9.18750000        -5.84274472E-04
   9.30624962        -5.13998733E-04
   9.42500019        -4.63501114E-04
   9.54374981        -4.39268333E-04
   9.66250038        -4.46477177E-04
   9.78125000        -4.88468562E-04
   9.89999962        -5.66363218E-04
   10.0187502        -6.78860291E-04
   10.1374998        -8.22243921E-04
   10.2562504        -9.90599161E-04
   10.3750000        -1.17622444E-03
   10.4937496        -1.37020682E-03
   10.6125002        -1.56310480E-03
   10.7312498        -1.74568442E-03
   10.8500004        -1.90963608E-03
   10.9687500        -2.04820954E-03
   11.0874996        -2.15670699E-03
   11.2062502        -2.23279302E-03
   11.3249998        -2.27659266E-03
   11.4437504        -2.29057134E-03
   11.5625000        -2.27921363E-03
   11.6812496        -2.24853656E-03
   11.8000002        -2.20548268E-03
   11.9187498        -2.15726276E-03
   12.0375004        -2.11070431E-03
   12.1562500        -2.07167701E-03
   12.2749996        -2.04464723E-03
   12.3937502        -2.03239894E-03
   12.5124998        -2.03594961E-03
   12.6312504        -2.05465802E-03
   12.7500000        -2.08650809E-03
   12.8687496        -2.12853309E-03
   12.9875002        -2.17732531E-03
   13.1062498        -2.22957623E-03
   13.2250004        -2.28258083E-03
   13.3437500        -2.33464804E-03
   13.4624996        -2.38537043E-03
   13.5812502        -2.43571890E-03
   13.6999998        -2.48795119E-03
   13.8187504        -2.54533836E-03
   13.9375000        -2.61174119E-03
   14.0562496        -2.69107847E-03
   14.1750002        -2.78674904E-03
   14.2937498        -2.90106772E-03
   14.4125004        -3.03478702E-03
   14.5312500        -3.18675418E-03
   14.6499996        -3.35375639E-03
   14.7687502        -3.53057077E-03
   14.8874998        -3.71023361E-03
   15.0062504        -3.88450455E-03
   15.1250000        -4.04448900E-03
   15.2437496        -4.18136735E-03
   15.3625002        -4.28715581E-03
   15.4812498        -4.35544038E-03
   15.6000004        -4.38199472E-03
   15.7187500        -4.36523929E-03
   15.8374996        -4.30648029E-03
   15.9562502        -4.20991145E-03
   16.0750008        -4.08236682E-03
   16.1937504        -3.93284950E-03
   16.3125000        -3.77187063E-03
   16.4312496        -3.61066218E-03
   16.5499992        -3.46032833E-03
   16.6687508        -3.33101233E-03
   16.7875004        -3.23115499E-03
   16.9062500        -3.16690607E-03
   17.0249996        -3.14173708E-03
   17.1437492        -3.15628923E-03
   17.2625008        -3.20845912E-03
   17.3812504        -3.29370634E-03
   17.5000000        -3.40555119E-03
   17.6187496        -3.53620504E-03
   17.7374992        -3.67726851E-03
   17.8562508        -3.82043235E-03
   17.9750004        -3.95811256E-03
   18.0937500        -4.08396311E-03
   18.2124996        -4.19322308E-03
   18.3312492        -4.28287452E-03
   18.4500008        -4.35160752E-03
   18.5687504        -4.39961068E-03
   18.6875000        -4.42821439E-03
   18.8062496        -4.43944521E-03
   18.9249992        -4.43554064E-03
   19.0437508        -4.41848626E-03
   19.1625004        -4.38963110E-03
   19.2812500        -4.34942218E-03
   19.3999996        -4.29729652E-03
   19.5187492        -4.23173746E-03
   19.6375008        -4.15048935E-03
   19.7562504        -4.05091047E-03
   19.8750000        -3.93041875E-03
   19.9937496        -3.78698413E-03
   20.1124992        -3.61960498E-03
   20.2312508        -3.42871924E-03
   20.3500004        -3.21649155E-03
   20.4687500        -2.98694475E-03
   20.5874996        -2.74591241E-03
   20.7062492        -2.50080158E-03
   20.8250008        -2.26018997E-03
   20.9437504        -2.03328161E-03
   21.0625000        -1.82927225E-03
   21.1812496        -1.65667734E-03
   21.2999992        -1.52268412E-03
   21.4187508        -1.43258902E-03
   21.5375004        -1.38936518E-03
   21.6562500        -1.39340851E-03
   21.7749996        -1.44247781E-03
   21.8937492        -1.53183809E-03
   22.0125008        -1.65459595E-03
   22.1312504        -1.80219137E-03
   22.2500000        -1.96500937E-03
   22.3687496        -2.13305000E-03
   22.4874992        -2.29660748E-03
   22.6062508        -2.44689547E-03
   22.7250004        -2.57657026E-03
   22.8437500        -2.68011447E-03
   22.9624996        -2.75405380E-03
   23.0812492        -2.79699964E-03
   23.2000008        -2.80952547E-03
   23.3187504        -2.79389671E-03
   23.4375000        -2.75369431E-03
   23.5562496        -2.69336835E-03
   23.6749992        -2.61777197E-03
   23.7937508        -2.53171846E-03
   23.9125004        -2.43960647E-03
   24.0312500        -2.34513381E-03
   24.1499996        -2.25113099E-03
   24.2687492        -2.15951074E-03
   24.3875008        -2.07133149E-03
   24.5062504        -1.98695785E-03
   24.6250000        -1.90628599E-03
   24.7437496        -1.82900578E-03
   24.8624992        -1.75486109E-03
   24.9812508        -1.68387813E-03
   25.1000004        -1.61653350E-03
   25.2187500        -1.55383814E-03
   25.3374996        -1.49733352E-03
   25.4562492        -1.44899602E-03
   25.5750008        -1.41106104E-03
   25.6937504        -1.38579041E-03
   25.8125000        -1.37520384E-03
   25.9312496        -1.38081098E-03
   26.0499992        -1.40337041E-03
   26.1687508        -1.44270412E-03
   26.2875004        -1.49759138E-03
   26.4062500        -1.56575511E-03
   26.5249996        -1.64394628E-03
   26.6437492        -1.72812096E-03
   26.7625008        -1.81369821E-03
   26.8812504        -1.89587602E-03
   27.0000000        -1.96998101E-03
   27.1187496        -2.03181780E-03
   27.2374992        -2.07799627E-03
   27.3562508        -2.10620021E-03
   27.4750004        -2.11538351E-03
   27.5937500        -2.10587331E-03
   27.7124996        -2.07937253E-03
   27.8312492        -2.03886628E-03
   27.9500008        -1.98843330E-03
   28.0687504        -1.93298410E-03
   28.1875000        -1.87794154E-03
   28.3062496        -1.82889169E-03
   28.4249992        -1.79122505E-03
   28.5437508        -1.76979706E-03
   28.6625004        -1.76862930E-03
   28.7812500        -1.79066986E-03
   28.8999996        -1.83762342E-03
   29.0187492        -1.90986507E-03
   29.1375008        -2.00643274E-03
   29.2562504        -2.12510000E-03
   29.3750000        -2.26251851E-03
   29.4937496        -2.41441815E-03
   29.6124992        -2.57584988E-03
   29.7312508        -2.74145720E-03
   29.8500004        -2.90575321E-03
   29.9687500        -3.06339352E-03
   30.0874996        -3.20942700E-03
   30.2062492        -3.33951134E-03
   30.3250008        -3.45008378E-03
   30.4437504        -3.53848049E-03
   30.5625000        -3.60300369E-03
   30.6812496        -3.64293111E-03
   30.7999992        -3.65847419E-03
   30.9187508        -3.65069276E-03
   31.0375004        -3.62137076E-03
   31.1562500        -3.57286609E-03
   31.2749996        -3.50794545E-03
   31.3937492        -3.42961703E-03
   31.5125008        -3.34097119E-03
   31.6312504        -3.24504031E-03
   31.7500000        -3.14468914E-03
   31.8687496        -3.04253376E-03
   31.9874992        -2.94090365E-03
   32.1062508        -2.84183654E-03
   32.2249985        -2.74710590E-03
   32.3437500        -2.65827472E-03
   32.4625015        -2.57676444E-03
   32.5812492        -2.50392966E-03
   32.7000008        -2.44112336E-03
   32.8187485        -2.38974323E-03
   32.9375000        -2.35124864E-03
   33.0562515        -2.32714089E-03
   33.1749992        -2.31890567E-03
   33.2937508        -2.32791528E-03
   33.4124985        -2.35530175E-03
   33.5312500        -2.40181061E-03
   33.6500015        -2.46764813E-03
   33.7687492        -2.55234307E-03
   33.8875008        -2.65463977E-03
   34.0062485        -2.77243950E-03
   34.1250000        -2.90280301E-03
   34.2437515        -3.04202596E-03
   34.3624992        -3.18579026E-03
   34.4812508        -3.32938274E-03
   34.5999985        -3.46797449E-03
   34.7187500        -3.59693961E-03
   34.8375015        -3.71219171E-03
   34.9562492        -3.81050794E-03
   35.0750008        -3.88981216E-03
   35.1937485        -3.94939166E-03
   35.3125000        -3.99002107E-03
   35.4312515        -4.01397655E-03
   35.5499992        -4.02493589E-03
   35.6687508        -4.02775360E-03
   35.7874985        -4.02814476E-03
   35.9062500        -4.03227285E-03
   36.0250015        -4.04629111E-03
   36.1437492        -4.07586712E-03
   36.2625008        -4.12572175E-03
   36.3812485        -4.19923663E-03
   36.5000000        -4.29814542E-03
   36.6187515        -4.42235218E-03
   36.7374992        -4.56987973E-03
   36.8562508        -4.73696366E-03
   36.9749985        -4.91827819E-03
   37.0937500        -5.10727754E-03
   37.2125015        -5.29662473E-03
   37.3312492        -5.47866616E-03
   37.4500008        -5.64592099E-03
   37.5687485        -5.79153420E-03
   37.6875000        -5.90966502E-03
   37.8062515        -5.99577045E-03
   37.9249992        -6.04677573E-03
   38.0437508        -6.06111065E-03
   38.1624985        -6.03862572E-03
   38.2812500        -5.98039618E-03
   38.4000015        -5.88844484E-03
   38.5187492        -5.76541666E-03
   38.6375008        -5.61424065E-03
   38.7562485        -5.43782022E-03
   38.8750000        -5.23878075E-03
   38.9937515        -5.01930993E-03
   39.1124992        -4.78109391E-03
   39.2312508        -4.52536531E-03
   39.3499985        -4.25304705E-03
   39.4687500        -3.96497501E-03
   39.5875015        -3.66216828E-03
   39.7062492        -3.34611372E-03
   39.8250008        -3.01902206E-03
   39.9437485        -2.68402579E-03
   40.0625000        -2.34527979E-03
   40.1812515        -2.00795266E-03
   40.2999992        -1.67808833E-03
   40.4187508        -1.36235100E-03
   40.5374985        -1.06766378E-03
   40.6562500        -8.00772104E-04
   40.7750015        -5.67769981E-04
   40.8937492        -3.73630930E-04
   41.0125008        -2.21791925E-04
   41.1312485        -1.13829286E-04
   41.2500000        -4.92654399E-05
   41.3687515        -2.55254436E-05
   41.4874992        -3.80590063E-05
   41.6062508        -8.06180542E-05
   41.7249985        -1.45675105E-04
   41.8437500        -2.24945514E-04
   41.9625015        -3.09972675E-04
   42.0812492        -3.92727845E-04
   42.2000008        -4.66171768E-04
   42.3187485        -5.24731760E-04
   42.4375000        -5.64655755E-04
   42.5562515        -5.84211550E-04
   42.6749992        -5.83721267E-04
   42.7937508        -5.65428869E-04
   42.9124985        -5.33215818E-04
   43.0312500        -4.92197229E-04
   43.1500015        -4.48234525E-04
   43.2687492        -4.07411921E-04
   43.3875008        -3.75524804E-04
   43.5062485        -3.57624056E-04
   43.6250000        -3.57655517E-04
   43.7437515        -3.78223107E-04
   43.8624992        -4.20490105E-04
   43.9812508        -4.84219490E-04
   44.0999985        -5.67941577E-04
   44.2187500        -6.69223838E-04
   44.3375015        -7.85008539E-04
   44.4562492        -9.11979296E-04
   44.5750008        -1.04691484E-03
   44.6937485        -1.18699239E-03
   44.8125000        -1.33000850E-03
   44.9312515        -1.47449807E-03
   45.0499992        -1.61973957E-03
   45.1687508        -1.76565314E-03
   45.2874985        -1.91260327E-03
   45.4062500        -2.06113607E-03
   45.5250015        -2.21168366E-03
   45.6437492        -2.36426969E-03
   45.7625008        -2.51825736E-03
   45.8812485        -2.67217029E-03
