  -1.50000000         1.80753109E-18
  -1.38125002         1.51505627E-10
  -1.26250005         1.57395641E-09
  -1.14374995         7.75847653E-09
  -1.02499998         2.74150587E-08
 -0.906250000         8.02392606E-08
 -0.787500024         2.07769631E-07
 -0.668749988         4.92093761E-07
 -0.550000012         1.08502661E-06
 -0.431250006         2.24877112E-06
 -0.312500000         4.40533813E-06
 -0.193749994         8.18619264E-06
  -7.50000030E-02     1.44669639E-05
   4.37499993E-02     2.43672839E-05
  0.162499994         3.91962858E-05
  0.281250000         6.03324734E-05
  0.400000006         8.90427909E-05
  0.518750012         1.26265659E-04
  0.637499988         1.72400585E-04
  0.756250024         2.27155062E-04
  0.875000000         2.89492804E-04
  0.993749976         3.57707555E-04
   1.11249995         4.29616892E-04
   1.23125005         5.02841838E-04
   1.35000002         5.75118058E-04
   1.46875000         6.44576969E-04
   1.58749998         7.09948072E-04
   1.70624995         7.70649815E-04
   1.82500005         8.26764328E-04
   1.94375002         8.78910592E-04
   2.06250000         9.28043562E-04
   2.18125010         9.75214876E-04
   2.29999995         1.02132256E-03
   2.41875005         1.06687960E-03
   2.53749990         1.11182372E-03
   2.65625000         1.15539250E-03
   2.77500010         1.19608955E-03
   2.89374995         1.23176374E-03
   3.01250005         1.25981588E-03
   3.13124990         1.27752917E-03
   3.25000000         1.28249370E-03
   3.36875010         1.27306534E-03
   3.48749995         1.24877889E-03
   3.60625005         1.21062994E-03
   3.72499990         1.16114481E-03
   3.84375000         1.10420142E-03
   3.96250010         1.04460411E-03
   4.08125019         9.87471314E-04
   4.19999981         9.37536824E-04
   4.31874990         8.98488914E-04
   4.43750000         8.72463628E-04
   4.55625010         8.59785301E-04
   4.67500019         8.58990592E-04
   4.79374981         8.67121678E-04
   4.91249990         8.80226435E-04
   5.03125000         8.93967692E-04
   5.15000010         9.04238841E-04
   5.26875019         9.07695212E-04
   5.38749981         9.02131200E-04
   5.50624990         8.86676775E-04
   5.62500000         8.61804700E-04
   5.74375010         8.29172204E-04
   5.86250019         7.91329425E-04
   5.98124981         7.51334068E-04
   6.09999990         7.12316716E-04
   6.21875000         6.77045377E-04
   6.33750010         6.47534674E-04
   6.45625019         6.24761393E-04
   6.57499981         6.08525297E-04
   6.69374990         5.97493083E-04
   6.81250000         5.89429983E-04
   6.93125010         5.81593835E-04
   7.05000019         5.71227458E-04
   7.16874981         5.56064304E-04
   7.28749990         5.34745806E-04
   7.40625000         5.07070275E-04
   7.52500010         4.74019093E-04
   7.64375019         4.37559385E-04
   7.76249981         4.00265650E-04
   7.88124990         3.64846346E-04
   8.00000000         3.33675125E-04
   8.11874962         3.08422284E-04
   8.23750019         2.89849122E-04
   8.35624981         2.77788495E-04
   8.47500038         2.71289406E-04
   8.59375000         2.68872303E-04
   8.71249962         2.68823991E-04
   8.83125019         2.69469485E-04
   8.94999981         2.69374286E-04
   9.06875038         2.67461262E-04
   9.18750000         2.63045891E-04
   9.30624962         2.55812658E-04
   9.42500019         2.45759642E-04
   9.54374981         2.33127590E-04
   9.66250038         2.18327958E-04
   9.78125000         2.01869232E-04
   9.89999962         1.84284625E-04
   10.0187502         1.66062571E-04
   10.1374998         1.47592538E-04
   10.2562504         1.29141481E-04
   10.3750000         1.10873516E-04
   10.4937496         9.29169182E-05
   10.6125002         7.54645371E-05
   10.7312498         5.88764415E-05
   10.8500004         4.37455601E-05
   10.9687500         3.08873059E-05
   11.0874996         2.12310315E-05
   11.2062502         1.56200840E-05
   11.3249998         1.45599706E-05
   11.4437504         1.79758172E-05
   11.5625000         2.50521662E-05
   11.6812496         3.42154344E-05
   11.8000002         4.32884335E-05
   11.9187498         4.98050249E-05
   12.0375004         5.14288513E-05
   12.1562500         4.63907418E-05
   12.2749996         3.38517639E-05
   12.3937502         1.41099135E-05
   12.5124998        -1.13949345E-05
   12.6312504        -4.02786463E-05
   12.7500000        -6.95739363E-05
   12.8687496        -9.61838596E-05
   12.9875002        -1.17342934E-04
   13.1062498        -1.31011431E-04
   13.2250004        -1.36148388E-04
   13.3437500        -1.32833185E-04
   13.4624996        -1.22235753E-04
   13.5812502        -1.06450927E-04
   13.6999998        -8.82251625E-05
   13.8187504        -7.06062347E-05
   13.9375000        -5.65522132E-05
   14.0562496        -4.85365199E-05
   14.1750002        -4.81930510E-05
   14.2937498        -5.60484223E-05
   14.4125004        -7.13928384E-05
   14.5312500        -9.23246844E-05
   14.6499996        -1.15988994E-04
   14.7687502        -1.38988820E-04
   14.8874998        -1.57917573E-04
   15.0062504        -1.69925202E-04
   15.1250000        -1.73213048E-04
   15.2437496        -1.67359147E-04
   15.3625002        -1.53404282E-04
   15.4812498        -1.33673137E-04
   15.6000004        -1.11362315E-04
   15.7187500        -8.99768929E-05
   15.8374996        -7.27229926E-05
   15.9562502        -6.19749917E-05
   16.0750008        -5.89111442E-05
   16.1937504        -6.33739110E-05
   16.3125000        -7.39618336E-05
   16.4312496        -8.83144603E-05
   16.5499992        -1.03522631E-04
   16.6687508        -1.16583004E-04
   16.7875004        -1.24821454E-04
   16.9062500        -1.26231738E-04
   17.0249996        -1.19695418E-04
   17.1437492        -1.05075276E-04
   17.2625008        -8.31865909E-05
   17.3812504        -5.56607993E-05
   17.5000000        -2.47207245E-05
   17.6187496         7.11219627E-06
   17.7374992         3.73461371E-05
   17.8562508         6.38486890E-05
   17.9750004         8.51309451E-05
   18.0937500         1.00541722E-04
   18.2124996         1.10329696E-04
   18.3312492         1.15554903E-04
   18.4500008         1.17859345E-04
   18.5687504         1.19134282E-04
   18.6875000         1.21152836E-04
   18.8062496         1.25243314E-04
   18.9249992         1.32075133E-04
   19.0437508         1.41602824E-04
   19.1625004         1.53173169E-04
   19.2812500         1.65762773E-04
   19.3999996         1.78281174E-04
   19.5187492         1.89859056E-04
   19.6375008         2.00050170E-04
   19.7562504         2.08902537E-04
   19.8750000         2.16888977E-04
   19.9937496         2.24728021E-04
   20.1124992         2.33148981E-04
   20.2312508         2.42667244E-04
   20.3500004         2.53425882E-04
   20.4687500         2.65136070E-04
   20.5874996         2.77123909E-04
   20.7062492         2.88459793E-04
   20.8250008         2.98137369E-04
   20.9437504         3.05260037E-04
   21.0625000         3.09203810E-04
   21.1812496         3.09733790E-04
   21.2999992         3.07068316E-04
   21.4187508         3.01888562E-04
   21.5375004         2.95296108E-04
   21.6562500         2.88717449E-04
   21.7749996         2.83758913E-04
   21.8937492         2.82011082E-04
   22.0125008         2.84821726E-04
   22.1312504         2.93062913E-04
   22.2500000         3.06935835E-04
   22.3687496         3.25862347E-04
   22.4874992         3.48503585E-04
   22.6062508         3.72929208E-04
   22.7250004         3.96923482E-04
   22.8437500         4.18382609E-04
   22.9624996         4.35724971E-04
   23.0812492         4.48227656E-04
   23.2000008         4.56205220E-04
   23.3187504         4.60985146E-04
   23.4375000         4.64670826E-04
   23.5562496         4.69739782E-04
   23.6749992         4.78556613E-04
   23.7937508         4.92904568E-04
   23.9125004         5.13629988E-04
   24.0312500         5.40469773E-04
   24.1499996         5.72088175E-04
   24.2687492         6.06304617E-04
   24.3875008         6.40459184E-04
   24.5062504         6.71840680E-04
   24.6250000         6.98101008E-04
   24.7437496         7.17591145E-04
   24.8624992         7.29581283E-04
   24.9812508         7.34343892E-04
   25.1000004         7.33105931E-04
   25.2187500         7.27881503E-04
   25.3374996         7.21209391E-04
   25.4562492         7.15819362E-04
   25.5750008         7.14261725E-04
   25.6937504         7.18536845E-04
   25.8125000         7.29777326E-04
   25.9312496         7.48030201E-04
   26.0499992         7.72190455E-04
   26.1687508         8.00114649E-04
   26.2875004         8.28915625E-04
   26.4062500         8.55402322E-04
   26.5249996         8.76594801E-04
   26.6437492         8.90217838E-04
   26.7625008         8.95079225E-04
   26.8812504         8.91251257E-04
   27.0000000         8.80018633E-04
   27.1187496         8.63604597E-04
   27.2374992         8.44732567E-04
   27.3562508         8.26119678E-04
   27.4750004         8.10003607E-04
   27.5937500         7.97796471E-04
   27.7124996         7.89921032E-04
   27.8312492         7.85843702E-04
   27.9500008         7.84276112E-04
   28.0687504         7.83485768E-04
   28.1875000         7.81645766E-04
   28.3062496         7.77158421E-04
   28.4249992         7.68904050E-04
   28.5437508         7.56391557E-04
   28.6625004         7.39806448E-04
   28.7812500         7.19965145E-04
   28.8999996         6.98192278E-04
   29.0187492         6.76137279E-04
   29.1375008         6.55548123E-04
   29.2562504         6.38022320E-04
   29.3750000         6.24765293E-04
   29.4937496         6.16389967E-04
   29.6124992         6.12796808E-04
   29.7312508         6.13169803E-04
   29.8500004         6.16104458E-04
   29.9687500         6.19857223E-04
   30.0874996         6.22677442E-04
   30.2062492         6.23154978E-04
   30.3250008         6.20507344E-04
   30.4437504         6.14734541E-04
   30.5625000         6.06602058E-04
   30.6812496         5.97448961E-04
   30.7999992         5.88864845E-04
   30.9187508         5.82310255E-04
   31.0375004         5.78773092E-04
   31.1562500         5.78540785E-04
   31.2749996         5.81140688E-04
   31.3937492         5.85454691E-04
   31.5125008         5.89973584E-04
   31.6312504         5.93122211E-04
   31.7500000         5.93577744E-04
   31.8687496         5.90509153E-04
   31.9874992         5.83693327E-04
   32.1062508         5.73499128E-04
   32.2249985         5.60756773E-04
   32.3437500         5.46556432E-04
   32.4625015         5.32022386E-04
   32.5812492         5.18104411E-04
   32.7000008         5.05415665E-04
   32.8187485         4.94128850E-04
   32.9375000         4.83935932E-04
   33.0562515         4.74068424E-04
   33.1749992         4.63379838E-04
   33.2937508         4.50487860E-04
   33.4124985         4.33972658E-04
   33.5312500         4.12616762E-04
   33.6500015         3.85656196E-04
   33.7687492         3.53000214E-04
   33.8875008         3.15367070E-04
   34.0062485         2.74289487E-04
   34.1250000         2.31964426E-04
   34.2437515         1.90953710E-04
   34.3624992         1.53780114E-04
   34.4812508         1.22492886E-04
   34.5999985         9.82953497E-05
   34.7187500         8.13185761E-05
   34.8375015         7.05950952E-05
   34.9562492         6.42462328E-05
   35.0750008         5.98462248E-05
   35.1937485         5.48837816E-05
   35.3125000         4.72274878E-05
   35.4312515         3.54956537E-05
   35.5499992         1.92643402E-05
   35.6687508        -9.20733953E-07
   35.7874985        -2.37142594E-05
   35.9062500        -4.72769934E-05
   36.0250015        -6.96494681E-05
   36.1437492        -8.91206873E-05
   36.2625008        -1.04535138E-04
   36.3812485        -1.15494775E-04
   36.5000000        -1.22440979E-04
   36.6187515        -1.26613217E-04
   36.7374992        -1.29896885E-04
   36.8562508        -1.34580754E-04
   36.9749985        -1.43045909E-04
   37.0937500        -1.57419956E-04
   37.2125015        -1.79235794E-04
   37.3312492        -2.09142236E-04
   37.4500008        -2.46720185E-04
   37.5687485        -2.90448108E-04
   37.6875000        -3.37845442E-04
   37.8062515        -3.85788357E-04
   37.9249992        -4.30960994E-04
   38.0437508        -4.70366766E-04
   38.1624985        -5.01807139E-04
   38.2812500        -5.24231116E-04
   38.4000015        -5.37883199E-04
   38.5187492        -5.44214563E-04
   38.6375008        -5.45576040E-04
   38.7562485        -5.44754148E-04
   38.8750000        -5.44447161E-04
   38.9937515        -5.46786527E-04
   39.1124992        -5.52991522E-04
   39.2312508        -5.63214591E-04
   39.3499985        -5.76587452E-04
   39.4687500        -5.91437216E-04
   39.5875015        -6.05614041E-04
   39.7062492        -6.16857084E-04
   39.8250008        -6.23135536E-04
   39.9437485        -6.22915453E-04
   40.0625000        -6.15329598E-04
   40.1812515        -6.00248051E-04
   40.2999992        -5.78257663E-04
   40.4187508        -5.50567289E-04
   40.5374985        -5.18851797E-04
   40.6562500        -4.85052180E-04
   40.7750015        -4.51143482E-04
   40.8937492        -4.18896088E-04
   41.0125008        -3.89657856E-04
   41.1312485        -3.64194711E-04
   41.2500000        -3.42623942E-04
   41.3687515        -3.24461114E-04
   41.4874992        -3.08783492E-04
   41.6062508        -2.94480298E-04
   41.7249985        -2.80539592E-04
   41.8437500        -2.66304385E-04
   41.9625015        -2.51634337E-04
   42.0812492        -2.36930442E-04
   42.2000008        -2.23012452E-04
   42.3187485        -2.10878032E-04
   42.4375000        -2.01405666E-04
   42.5562515        -1.95077839E-04
   42.6749992        -1.91796775E-04
   42.7937508        -1.90840554E-04
   42.9124985        -1.90969673E-04
   43.0312500        -1.90654944E-04
   43.1500015        -1.88367980E-04
   43.2687492        -1.82862117E-04
   43.3875008        -1.73377950E-04
   43.5062485        -1.59734031E-04
   43.6250000        -1.42289588E-04
   43.7437515        -1.21804151E-04
   43.8624992        -9.92315618E-05
   43.9812508        -7.55016663E-05
   44.0999985        -5.13317391E-05
   44.2187500        -2.70965284E-05
   44.3375015        -2.77107165E-06
   44.4562492         2.20570273E-05
   44.5750008         4.81134775E-05
   44.6937485         7.63136923E-05
   44.8125000         1.07600099E-04
   44.9312515         1.42752135E-04
   45.0499992         1.82185890E-04
   45.1687508         2.25769341E-04
   45.2874985         2.72689387E-04
   45.4062500         3.21407948E-04
   45.5250015         3.69742513E-04
   45.6437492         4.15085175E-04
   45.7625008         4.54745081E-04
   45.8812485         4.86366684E-04
