  -1.50000000       0.00000000    
  -1.38499999       2.61366095E-10
  -1.26999998       1.79649506E-09
  -1.15499997       7.52440155E-09
  -1.03999996       2.44273384E-08
 -0.925000012       6.77575756E-08
 -0.810000002       1.68704503E-07
 -0.694999993       3.87273701E-07
 -0.579999983       8.32035937E-07
 -0.465000004       1.68745225E-06
 -0.349999994       3.24731809E-06
 -0.234999999       5.94947414E-06
 -0.119999997       1.04029541E-05
  -4.99999989E-03   1.73955250E-05
  0.109999999       2.78690004E-05
  0.224999994       4.28533458E-05
  0.340000004       6.33588788E-05
  0.455000013       9.02375250E-05
  0.569999993       1.24035607E-04
  0.685000002       1.64868543E-04
  0.800000012       2.12347732E-04
  0.915000021       2.65581999E-04
   1.02999997       3.23260145E-04
   1.14499998       3.83803155E-04
   1.25999999       4.45558660E-04
   1.37500000       5.07001125E-04
   1.49000001       5.66901523E-04
   1.60500002       6.24438107E-04
   1.72000003       6.79234974E-04
   1.83500004       7.31328037E-04
   1.95000005       7.81071954E-04
   2.06500006       8.29007127E-04
   2.18000007       8.75706784E-04
   2.29500008       9.21624480E-04
   2.41000009       9.66953754E-04
   2.52500010       1.01151597E-03
   2.64000010       1.05468603E-03
   2.75500011       1.09537225E-03
   2.86999989       1.13206182E-03
   2.98499990       1.16294238E-03
   3.09999990       1.18610275E-03
   3.21499991       1.19979517E-03
   3.32999992       1.20273174E-03
   3.44499993       1.19436695E-03
   3.55999994       1.17511337E-03
   3.67499995       1.14643783E-03
   3.78999996       1.11080427E-03
   3.90499997       1.07145321E-03
   4.01999998       1.03203976E-03
   4.13500023       9.96182673E-04
   4.25000000       9.66997468E-04
   4.36499977       9.46693006E-04
   4.48000002       9.36298457E-04
   4.59499979       9.35565215E-04
   4.71000004       9.43056075E-04
   4.82499981       9.56397736E-04
   4.94000006       9.72646929E-04
   5.05499983       9.88707296E-04
   5.17000008       1.00173114E-03
   5.28499985       1.00945041E-03
   5.40000010       1.01040350E-03
   5.51499987       1.00404059E-03
   5.63000011       9.90713248E-04
   5.74499989       9.71560483E-04
   5.86000013       9.48317465E-04
   5.97499990       9.23068612E-04
   6.09000015       8.97972845E-04
   6.20499992       8.74984369E-04
   6.32000017       8.55600287E-04
   6.43499994       8.40664376E-04
   6.55000019       8.30254517E-04
   6.66499996       8.23679671E-04
   6.78000021       8.19594541E-04
   6.89499998       8.16222047E-04
   7.01000023       8.11655424E-04
   7.12500000       8.04189476E-04
   7.23999977       7.92622042E-04
   7.35500002       7.76468834E-04
   7.46999979       7.56048423E-04
   7.58500004       7.32421293E-04
   7.69999981       7.07196130E-04
   7.81500006       6.82243786E-04
   7.92999983       6.59379584E-04
   8.04500008       6.40076643E-04
   8.15999985       6.25262561E-04
   8.27499962       6.15230820E-04
   8.39000034       6.09670184E-04
   8.50500011       6.07788854E-04
   8.61999989       6.08495902E-04
   8.73499966       6.10593357E-04
   8.85000038       6.12943433E-04
   8.96500015       6.14584016E-04
   9.07999992       6.14789606E-04
   9.19499969       6.13081560E-04
   9.31000042       6.09208888E-04
   9.42500019       6.03113498E-04
   9.53999996       5.94892655E-04
   9.65499973       5.84765163E-04
   9.77000046       5.73037541E-04
   9.88500023       5.60068875E-04
   10.0000000       5.46231749E-04
   10.1149998       5.31875703E-04
   10.2299995       5.17299748E-04
   10.3450003       5.02747600E-04
   10.4600000       4.88427992E-04
   10.5749998       4.74562868E-04
   10.6899996       4.61443618E-04
   10.8050003       4.49478714E-04
   10.9200001       4.39204421E-04
   11.0349998       4.31239547E-04
   11.1499996       4.26182145E-04
   11.2650003       4.24458267E-04
   11.3800001       4.26159444E-04
   11.4949999       4.30907297E-04
   11.6099997       4.37793089E-04
   11.7250004       4.45420446E-04
   11.8400002       4.52059234E-04
   11.9549999       4.55893489E-04
   12.0699997       4.55317058E-04
   12.1850004       4.49221610E-04
   12.3000002       4.37214912E-04
   12.4150000       4.19724936E-04
   12.5299997       3.97966738E-04
   12.6450005       3.73778108E-04
   12.7600002       3.49356036E-04
   12.8750000       3.26942536E-04
   12.9899998       3.08515708E-04
   13.1049995       2.95530917E-04
   13.2200003       2.88747717E-04
   13.3350000       2.88156909E-04
   13.4499998       2.93005316E-04
   13.5649996       3.01905646E-04
   13.6800003       3.13012541E-04
   13.7950001       3.24242981E-04
   13.9099998       3.33522737E-04
   14.0249996       3.39036313E-04
   14.1400003       3.39459802E-04
   14.2550001       3.34148237E-04
   14.3699999       3.23251414E-04
   14.4849997       3.07730428E-04
   14.6000004       2.89258838E-04
   14.7150002       2.70007673E-04
   14.8299999       2.52336555E-04
   14.9449997       2.38433597E-04
   15.0600004       2.29962287E-04
   15.1750002       2.27781333E-04
   15.2900000       2.31791535E-04
   15.4049997       2.40944457E-04
   15.5200005       2.53415812E-04
   15.6350002       2.66911986E-04
   15.7500000       2.79054540E-04
   15.8649998       2.87770468E-04
   15.9799995       2.91617325E-04
   16.0949993       2.89990101E-04
   16.2099991       2.83180387E-04
   16.3250008       2.72289966E-04
   16.4400005       2.59026623E-04
   16.5550003       2.45428790E-04
   16.6700001       2.33568528E-04
   16.7849998       2.25280659E-04
   16.8999996       2.21948343E-04
   17.0149994       2.24365940E-04
   17.1299992       2.32680512E-04
   17.2450008       2.46407464E-04
   17.3600006       2.64511677E-04
   17.4750004       2.85538554E-04
   17.5900002       3.07787675E-04
   17.7049999       3.29510600E-04
   17.8199997       3.49118171E-04
   17.9349995       3.65370623E-04
   18.0499992       3.77527176E-04
   18.1650009       3.85426625E-04
   18.2800007       3.89481429E-04
   18.3950005       3.90581117E-04
   18.5100002       3.89916648E-04
   18.6250000       3.88758490E-04
   18.7399998       3.88228975E-04
   18.8549995       3.89117748E-04
   18.9699993       3.91775975E-04
   19.0849991       3.96111340E-04
   19.2000008       4.01678961E-04
   19.3150005       4.07842599E-04
   19.4300003       4.13963455E-04
   19.5450001       4.19568969E-04
   19.6599998       4.24460450E-04
   19.7749996       4.28737432E-04
   19.8899994       4.32737696E-04
   20.0049992       4.36914241E-04
   20.1200008       4.41684941E-04
   20.2350006       4.47295926E-04
   20.3500004       4.53731889E-04
   20.4650002       4.60691634E-04
   20.5799999       4.67632024E-04
   20.6949997       4.73863794E-04
   20.8099995       4.78676142E-04
   20.9249992       4.81460302E-04
   21.0400009       4.81813797E-04
   21.1550007       4.79609182E-04
   21.2700005       4.75024572E-04
   21.3850002       4.68538987E-04
   21.5000000       4.60897805E-04
   21.6149998       4.53052868E-04
   21.7299995       4.46077349E-04
   21.8449993       4.41060518E-04
   21.9599991       4.38981457E-04
   22.0750008       4.40573116E-04
   22.1900005       4.46195685E-04
   22.3050003       4.55742760E-04
   22.4200001       4.68607206E-04
   22.5349998       4.83729178E-04
   22.6499996       4.99732152E-04
   22.7649994       5.15135122E-04
   22.8799992       5.28609671E-04
   22.9950008       5.39231347E-04
   23.1100006       5.46674069E-04
   23.2250004       5.51298959E-04
   23.3400002       5.54114173E-04
   23.4549999       5.56603773E-04
   23.5699997       5.60456887E-04
   23.6849995       5.67249896E-04
   23.7999992       5.78142819E-04
   23.9150009       5.93653473E-04
   24.0300007       6.13548153E-04
   24.1450005       6.36869750E-04
   24.2600002       6.62088336E-04
   24.3750000       6.87344465E-04
   24.4899998       7.10733002E-04
   24.6049995       7.30580592E-04
   24.7199993       7.45671918E-04
   24.8349991       7.55399931E-04
   24.9500008       7.59826158E-04
   25.0650005       7.59656890E-04
   25.1800003       7.56144640E-04
   25.2950001       7.50932202E-04
   25.4099998       7.45855388E-04
   25.5249996       7.42721255E-04
   25.6399994       7.43081153E-04
   25.7549992       7.48021179E-04
   25.8700008       7.57994829E-04
   25.9850006       7.72726547E-04
   26.1000004       7.91211147E-04
   26.2150002       8.11821024E-04
   26.3299999       8.32517864E-04
   26.4449997       8.51143734E-04
   26.5599995       8.65745591E-04
   26.6749992       8.74878955E-04
   26.7900009       8.77831306E-04
   26.9050007       8.74721096E-04
   27.0200005       8.66452348E-04
   27.1350002       8.54531885E-04
   27.2500000       8.40787368E-04
   27.3649998       8.27043143E-04
   27.4799995       8.14818020E-04
   27.5949993       8.05100717E-04
   27.7099991       7.98239314E-04
   27.8250008       7.93955929E-04
   27.9400005       7.91467552E-04
   28.0550003       7.89680227E-04
   28.1700001       7.87410478E-04
   28.2849998       7.83592928E-04
   28.3999996       7.77440611E-04
   28.5149994       7.68546714E-04
   28.6299992       7.56920432E-04
   28.7450008       7.42968696E-04
   28.8600006       7.27433246E-04
   28.9750004       7.11295463E-04
   29.0900002       6.95657858E-04
   29.2049999       6.81609206E-04
   29.3199997       6.70084206E-04
   29.4349995       6.61730475E-04
   29.5499992       6.56803953E-04
   29.6650009       6.55113079E-04
   29.7800007       6.56033051E-04
   29.8950005       6.58596167E-04
   30.0100002       6.61654340E-04
   30.1250000       6.64085674E-04
   30.2399998       6.65008440E-04
   30.3549995       6.63952669E-04
   30.4699993       6.60951599E-04
   30.5849991       6.56525139E-04
   30.7000008       6.51556475E-04
   30.8150005       6.47087407E-04
   30.9300003       6.44077954E-04
   31.0450001       6.43185631E-04
   31.1599998       6.44616841E-04
   31.2749996       6.48080721E-04
   31.3899994       6.52855088E-04
   31.5049992       6.57943659E-04
   31.6200008       6.62283797E-04
   31.7350006       6.64954714E-04
   31.8500004       6.65340805E-04
   31.9650002       6.63217506E-04
   32.0800018       6.58750068E-04
   32.1949997       6.52415853E-04
   32.3100014       6.44875981E-04
   32.4249992       6.36828830E-04
   32.5400009       6.28874404E-04
   32.6549988       6.21412008E-04
   32.7700005       6.14576740E-04
   32.8849983       6.08218368E-04
   33.0000000       6.01914187E-04
   33.1150017       5.95011399E-04
   33.2299995       5.86695212E-04
   33.3450012       5.76083432E-04
   33.4599991       5.62343921E-04
   33.5750008       5.44830458E-04
   33.6899986       5.23219816E-04
   33.8050003       4.97628935E-04
   33.9199982       4.68681741E-04
   34.0349998       4.37500072E-04
   34.1500015       4.05604718E-04
   34.2649994       3.74728057E-04
   34.3800011       3.46565328E-04
   34.4949989       3.22505919E-04
   34.6100006       3.03400389E-04
   34.7249985       2.89411721E-04
   34.8400002       2.79987697E-04
   34.9550018       2.73964921E-04
   35.0699997       2.69785436E-04
   35.1850014       2.65782553E-04
   35.2999992       2.60479545E-04
   35.4150009       2.52839527E-04
   35.5299988       2.42420268E-04
   35.6450005       2.29410201E-04
   35.7599983       2.14545013E-04
   35.8750000       1.98931491E-04
   35.9900017       1.83816606E-04
   36.1049995       1.70349726E-04
   36.2200012       1.59375675E-04
   36.3349991       1.51288681E-04
   36.4500008       1.45961094E-04
   36.5649986       1.42746721E-04
   36.6800003       1.40553821E-04
   36.7949982       1.37972253E-04
   36.9099998       1.33444177E-04
   37.0250015       1.25460370E-04
   37.1399994       1.12766196E-04
   37.2550011       9.45555948E-05
   37.3699989       7.06272185E-05
   37.4850006       4.14747337E-05
   37.5999985       8.28704106E-06
   37.7150002      -2.71555746E-05
   37.8300018      -6.26878609E-05
   37.9449997      -9.60441466E-05
   38.0600014      -1.25180450E-04
   38.1749992      -1.48576903E-04
   38.2900009      -1.65465230E-04
   38.4049988      -1.75933907E-04
   38.5200005      -1.80887815E-04
   38.6349983      -1.81868876E-04
   38.7500000      -1.80769275E-04
   38.8650017      -1.79494862E-04
   38.9799995      -1.79641225E-04
   39.0950012      -1.82242497E-04
   39.2099991      -1.87633545E-04
   39.3250008      -1.95440283E-04
   39.4399986      -2.04687181E-04
   39.5550003      -2.13990133E-04
   39.6699982      -2.21790237E-04
   39.7849998      -2.26584481E-04
   39.9000015      -2.27120516E-04
   40.0149994      -2.22532937E-04
   40.1300011      -2.12416344E-04
   40.2449989      -1.96840847E-04
   40.3600006      -1.76319110E-04
   40.4749985      -1.51737302E-04
   40.5900002      -1.24257102E-04
   40.7050018      -9.51963884E-05
   40.8199997      -6.58933204E-05
   40.9350014      -3.75647542E-05
   41.0499992      -1.11743129E-05
   41.1650009       1.26695895E-05
   41.2799988       3.37658203E-05
   41.3950005       5.23054478E-05
   41.5099983       6.87871288E-05
   41.6250000       8.38739725E-05
   41.7400017       9.82205165E-05
   41.8549995       1.12305213E-04
   41.9700012       1.26310988E-04
   42.0849991       1.40081713E-04
   42.2000008       1.53168075E-04
   42.3149986       1.64954748E-04
   42.4300003       1.74835863E-04
   42.5449982       1.82397271E-04
   42.6599998       1.87558588E-04
   42.7750015       1.90638792E-04
   42.8899994       1.92330539E-04
   43.0050011       1.93587926E-04
   43.1199989       1.95458371E-04
   43.2350006       1.98898255E-04
   43.3499985       2.04616284E-04
   43.4650002       2.12978281E-04
   43.5800018       2.23990559E-04
   43.6949997       2.37357512E-04
   43.8100014       2.52593571E-04
   43.9249992       2.69160140E-04
   44.0400009       2.86595168E-04
   44.1549988       3.04609828E-04
   44.2700005       3.23141663E-04
   44.3849983       3.42358690E-04
