  -1.50000000        -8.69276082E-18
  -1.38125002        -7.28029081E-10
  -1.26250005        -3.70779962E-09
  -1.14374995        -1.29268676E-08
  -1.02499998        -3.77494054E-08
 -0.906250000        -9.84796387E-08
 -0.787500024        -2.36176788E-07
 -0.668749988        -5.28611736E-07
 -0.550000012        -1.11411441E-06
 -0.431250006        -2.22421454E-06
 -0.312500000        -4.22430185E-06
 -0.193749994        -7.65916320E-06
  -7.50000030E-02    -1.32976484E-05
   4.37499993E-02    -2.21685441E-05
  0.162499994        -3.55786033E-05
  0.281250000        -5.51040685E-05
  0.400000006        -8.25491297E-05
  0.518750012        -1.19868200E-04
  0.637499988        -1.69053645E-04
  0.756250024        -2.31995669E-04
  0.875000000        -3.10325937E-04
  0.993749976        -4.05259983E-04
   1.11249995        -5.17455570E-04
   1.23125005        -6.46902947E-04
   1.35000002        -7.92860053E-04
   1.46875000        -9.53842362E-04
   1.58749998        -1.12766842E-03
   1.70624995        -1.31156016E-03
   1.82500005        -1.50228816E-03
   1.94375002        -1.69635017E-03
   2.06250000        -1.89016829E-03
   2.18125010        -2.08028709E-03
   2.29999995        -2.26355973E-03
   2.41875005        -2.43730634E-03
   2.53749990        -2.59943563E-03
   2.65625000        -2.74852524E-03
   2.77500010        -2.88385432E-03
   2.89374995        -3.00539611E-03
   3.01250005        -3.11377039E-03
   3.13124990        -3.21016950E-03
   3.25000000        -3.29626049E-03
   3.36875010        -3.37407831E-03
   3.48749995        -3.44591378E-03
   3.60625005        -3.51420464E-03
   3.72499990        -3.58143449E-03
   3.84375000        -3.65003827E-03
   3.96250010        -3.72231728E-03
   4.08125019        -3.80035979E-03
   4.19999981        -3.88596277E-03
   4.31874990        -3.98055883E-03
   4.43750000        -4.08513891E-03
   4.55625010        -4.20017634E-03
   4.67500019        -4.32555424E-03
   4.79374981        -4.46050009E-03
   4.91249990        -4.60353401E-03
   5.03125000        -4.75244317E-03
   5.15000010        -4.90428368E-03
   5.26875019        -5.05542755E-03
   5.38749981        -5.20165358E-03
   5.50624990        -5.33828791E-03
   5.62500000        -5.46039455E-03
   5.74375010        -5.56300906E-03
   5.86250019        -5.64140407E-03
   5.98124981        -5.69137279E-03
   6.09999990        -5.70951449E-03
   6.21875000        -5.69349481E-03
   6.33750010        -5.64226974E-03
   6.45625019        -5.55624580E-03
   6.57499981        -5.43736247E-03
   6.69374990        -5.28909080E-03
   6.81250000        -5.11633419E-03
   6.93125010        -4.92524216E-03
   7.05000019        -4.72294027E-03
   7.16874981        -4.51719062E-03
   7.28749990        -4.31601238E-03
   7.40625000        -4.12727427E-03
   7.52500010        -3.95829277E-03
   7.64375019        -3.81546211E-03
   7.76249981        -3.70393670E-03
   7.88124990        -3.62738618E-03
   8.00000000        -3.58783803E-03
   8.11874962        -3.58561589E-03
   8.23750019        -3.61936749E-03
   8.35624981        -3.68618616E-03
   8.47500038        -3.78180435E-03
   8.59375000        -3.90084879E-03
   8.71249962        -4.03713435E-03
   8.83125019        -4.18398110E-03
   8.94999981        -4.33453033E-03
   9.06875038        -4.48204484E-03
   9.18750000        -4.62018279E-03
   9.30624962        -4.74323146E-03
   9.42500019        -4.84629255E-03
   9.54374981        -4.92542889E-03
   9.66250038        -4.97776084E-03
   9.78125000        -5.00152027E-03
   9.89999962        -4.99607157E-03
   10.0187502        -4.96189622E-03
   10.1374998        -4.90055140E-03
   10.2562504        -4.81459918E-03
   10.3750000        -4.70751617E-03
   10.4937496        -4.58357297E-03
   10.6125002        -4.44769533E-03
   10.7312498        -4.30529239E-03
   10.8500004        -4.16206708E-03
   10.9687500        -4.02379734E-03
   11.0874996        -3.89610324E-03
   11.2062502        -3.78419971E-03
   11.3249998        -3.69264977E-03
   11.4437504        -3.62513121E-03
   11.5625000        -3.58422846E-03
   11.6812496        -3.57126747E-03
   11.8000002        -3.58620798E-03
   11.9187498        -3.62760364E-03
   12.0375004        -3.69263929E-03
   12.1562500        -3.77724902E-03
   12.2749996        -3.87631217E-03
   12.3937502        -3.98391858E-03
   12.5124998        -4.09368798E-03
   12.6312504        -4.19912674E-03
   12.7500000        -4.29399731E-03
   12.8687496        -4.37267683E-03
   12.9875002        -4.43047984E-03
   13.1062498        -4.46392363E-03
   13.2250004        -4.47091926E-03
   13.3437500        -4.45087114E-03
   13.4624996        -4.40468593E-03
   13.5812502        -4.33468400E-03
   13.6999998        -4.24443092E-03
   13.8187504        -4.13849251E-03
   13.9375000        -4.02214425E-03
   14.0562496        -3.90104647E-03
   14.1750002        -3.78091750E-03
   14.2937498        -3.66722071E-03
   14.4125004        -3.56489024E-03
   14.5312500        -3.47810658E-03
   14.6499996        -3.41013656E-03
   14.7687502        -3.36323725E-03
   14.8874998        -3.33862682E-03
   15.0062504        -3.33651411E-03
   15.1250000        -3.35617736E-03
   15.2437496        -3.39607964E-03
   15.3625002        -3.45400837E-03
   15.4812498        -3.52722337E-03
   15.6000004        -3.61260539E-03
   15.7187500        -3.70679586E-03
   15.8374996        -3.80631885E-03
   15.9562502        -3.90769029E-03
   16.0750008        -4.00750572E-03
   16.1937504        -4.10252111E-03
   16.3125000        -4.18972084E-03
   16.4312496        -4.26638173E-03
   16.5499992        -4.33013821E-03
   16.6687508        -4.37904708E-03
   16.7875004        -4.41165222E-03
   16.9062500        -4.42704884E-03
   17.0249996        -4.42493474E-03
   17.1437492        -4.40565217E-03
   17.2625008        -4.37020278E-03
   17.3812504        -4.32023592E-03
   17.5000000        -4.25800029E-03
   17.6187496        -4.18625865E-03
   17.7374992        -4.10816912E-03
   17.8562508        -4.02712962E-03
   17.9750004        -3.94660421E-03
   18.0937500        -3.86993494E-03
   18.2124996        -3.80015397E-03
   18.3312492        -3.73981684E-03
   18.4500008        -3.69086163E-03
   18.5687504        -3.65451374E-03
   18.6875000        -3.63124022E-03
   18.8062496        -3.62076261E-03
   18.9249992        -3.62212327E-03
   19.0437508        -3.63380299E-03
   19.1625004        -3.65387858E-03
   19.2812500        -3.68020497E-03
   19.3999996        -3.71060683E-03
   19.5187492        -3.74306063E-03
   19.6375008        -3.77585343E-03
   19.7562504        -3.80769838E-03
   19.8750000        -3.83780384E-03
   19.9937496        -3.86588485E-03
   20.1124992        -3.89212160E-03
   20.2312508        -3.91706964E-03
   20.3500004        -3.94152896E-03
   20.4687500        -3.96639341E-03
   20.5874996        -3.99248861E-03
   20.7062492        -4.02042083E-03
   20.8250008        -4.05045180E-03
   20.9437504        -4.08241060E-03
   21.0625000        -4.11565043E-03
   21.1812496        -4.14906256E-03
   21.2999992        -4.18113172E-03
   21.4187508        -4.21004370E-03
   21.5375004        -4.23382316E-03
   21.6562500        -4.25048964E-03
   21.7749996        -4.25822427E-03
   21.8937492        -4.25552577E-03
   22.0125008        -4.24133940E-03
   22.1312504        -4.21516038E-03
   22.2500000        -4.17708838E-03
   22.3687496        -4.12784331E-03
   22.4874992        -4.06873692E-03
   22.6062508        -4.00160626E-03
   22.7250004        -3.92871816E-03
   22.8437500        -3.85265052E-03
   22.9624996        -3.77616775E-03
   23.0812492        -3.70209222E-03
   23.2000008        -3.63318576E-03
   23.3187504        -3.57204373E-03
   23.4375000        -3.52100772E-03
   23.5562496        -3.48209520E-03
   23.6749992        -3.45694646E-03
   23.7937508        -3.44678690E-03
   23.9125004        -3.45239649E-03
   24.0312500        -3.47408699E-03
   24.1499996        -3.51168239E-03
   24.2687492        -3.56450118E-03
   24.3875008        -3.63133964E-03
   24.5062504        -3.71046318E-03
   24.6250000        -3.79960611E-03
   24.7437496        -3.89598869E-03
   24.8624992        -3.99635825E-03
   24.9812508        -4.09705844E-03
   25.1000004        -4.19412972E-03
   25.2187500        -4.28345148E-03
   25.3374996        -4.36090678E-03
   25.4562492        -4.42258455E-03
   25.5750008        -4.46498999E-03
   25.6937504        -4.48526535E-03
   25.8125000        -4.48139524E-03
   25.9312496        -4.45238687E-03
   26.0499992        -4.39840555E-03
   26.1687508        -4.32084827E-03
   26.2875004        -4.22235345E-03
   26.4062500        -4.10673209E-03
   26.5249996        -3.97882052E-03
   26.6437492        -3.84426466E-03
   26.7625008        -3.70924338E-03
   26.8812504        -3.58014437E-03
   27.0000000        -3.46321799E-03
   27.1187496        -3.36422864E-03
   27.2374992        -3.28812539E-03
   27.3562508        -3.23875831E-03
   27.4750004        -3.21865594E-03
   27.5937500        -3.22887860E-03
   27.7124996        -3.26895993E-03
   27.8312492        -3.33693530E-03
   27.9500008        -3.42945592E-03
   28.0687504        -3.54197947E-03
   28.1875000        -3.66902002E-03
   28.3062496        -3.80444457E-03
   28.4249992        -3.94179067E-03
   28.5437508        -4.07459261E-03
   28.6625004        -4.19668853E-03
   28.7812500        -4.30250075E-03
   28.8999996        -4.38727066E-03
   29.0187492        -4.44724550E-03
   29.1375008        -4.47980547E-03
   29.2562504        -4.48353542E-03
   29.3750000        -4.45824442E-03
   29.4937496        -4.40493505E-03
   29.6124992        -4.32573119E-03
   29.7312508        -4.22377093E-03
   29.8500004        -4.10307338E-03
   29.9687500        -3.96837993E-03
   30.0874996        -3.82498326E-03
   30.2062492        -3.67854140E-03
   30.3250008        -3.53488047E-03
   30.4437504        -3.39979213E-03
   30.5625000        -3.27882566E-03
   30.6812496        -3.17707891E-03
   30.7999992        -3.09899449E-03
   30.9187508        -3.04816593E-03
   31.0375004        -3.02716391E-03
   31.1562500        -3.03739193E-03
   31.2749996        -3.07897991E-03
   31.3937492        -3.15072713E-03
   31.5125008        -3.25010321E-03
   31.6312504        -3.37330997E-03
   31.7500000        -3.51541210E-03
   31.8687496        -3.67052853E-03
   31.9874992        -3.83208529E-03
   32.1062508        -3.99311306E-03
   32.2249985        -4.14658058E-03
   32.3437500        -4.28574160E-03
   32.4625015        -4.40447684E-03
   32.5812492        -4.49760864E-03
   32.7000008        -4.56117140E-03
   32.8187485        -4.59261658E-03
   32.9375000        -4.59093880E-03
   33.0562515        -4.55671735E-03
   33.1749992        -4.49206540E-03
   33.2937508        -4.40049637E-03
   33.4124985        -4.28670971E-03
   33.5312500        -4.15631896E-03
   33.6500015        -4.01553139E-03
   33.7687492        -3.87080829E-03
   33.8875008        -3.72852432E-03
   34.0062485        -3.59464670E-03
   34.1250000        -3.47445533E-03
   34.2437515        -3.37231532E-03
   34.3624992        -3.29151703E-03
   34.4812508        -3.23418411E-03
   34.5999985        -3.20125348E-03
   34.7187500        -3.19251791E-03
   34.8375015        -3.20672733E-03
   34.9562492        -3.24173155E-03
   35.0750008        -3.29465466E-03
   35.1937485        -3.36208590E-03
   35.3125000        -3.44027136E-03
   35.4312515        -3.52530065E-03
   35.5499992        -3.61327222E-03
   35.6687508        -3.70044075E-03
   35.7874985        -3.78333684E-03
   35.9062500        -3.85886291E-03
   36.0250015        -3.92436655E-03
   36.1437492        -3.97769269E-03
   36.2625008        -4.01722221E-03
   36.3812485        -4.04189387E-03
   36.5000000        -4.05122014E-03
   36.6187515        -4.04528528E-03
   36.7374992        -4.02473984E-03
   36.8562508        -3.99077311E-03
   36.9749985        -3.94507777E-03
   37.0937500        -3.88978864E-03
   37.2125015        -3.82740633E-03
   37.3312492        -3.76069499E-03
   37.4500008        -3.69256409E-03
   37.5687485        -3.62593401E-03
   37.6875000        -3.56359011E-03
   37.8062515        -3.50803928E-03
   37.9249992        -3.46137211E-03
   38.0437508        -3.42514715E-03
   38.1624985        -3.40030226E-03
   38.2812500        -3.38710658E-03
   38.4000015        -3.38515406E-03
   38.5187492        -3.39340558E-03
   38.6375008        -3.41027416E-03
   38.7562485        -3.43375234E-03
   38.8750000        -3.46156699E-03
   38.9937515        -3.49135604E-03
   39.1124992        -3.52084613E-03
   39.2312508        -3.54801957E-03
   39.3499985        -3.57125769E-03
   39.4687500        -3.58944573E-03
   39.5875015        -3.60203208E-03
   39.7062492        -3.60903516E-03
   39.8250008        -3.61100165E-03
   39.9437485        -3.60891642E-03
   40.0625000        -3.60407680E-03
   40.1812515        -3.59794032E-03
   40.2999992        -3.59196356E-03
   40.4187508        -3.58744408E-03
   40.5374985        -3.58538446E-03
   40.6562500        -3.58638796E-03
   40.7750015        -3.59059684E-03
   40.8937492        -3.59767792E-03
   41.0125008        -3.60685796E-03
   41.1312485        -3.61700077E-03
   41.2500000        -3.62672377E-03
   41.3687515        -3.63453617E-03
   41.4874992        -3.63899209E-03
   41.6062508        -3.63883493E-03
   41.7249985        -3.63313081E-03
   41.8437500        -3.62136960E-03
   41.9625015        -3.60352919E-03
   42.0812492        -3.58009990E-03
   42.2000008        -3.55206337E-03
   42.3187485        -3.52083240E-03
   42.4375000        -3.48815741E-03
   42.5562515        -3.45600909E-03
   42.6749992        -3.42644518E-03
   42.7937508        -3.40147712E-03
   42.9124985        -3.38294357E-03
   43.0312500        -3.37239983E-03
   43.1500015        -3.37103405E-03
   43.2687492        -3.37960734E-03
   43.3875008        -3.39842332E-03
   43.5062485        -3.42732575E-03
   43.6250000        -3.46571510E-03
   43.7437515        -3.51258577E-03
   43.8624992        -3.56657198E-03
   43.9812508        -3.62600177E-03
   44.0999985        -3.68895265E-03
   44.2187500        -3.75330402E-03
   44.3375015        -3.81679344E-03
   44.4562492        -3.87706817E-03
   44.5750008        -3.93174356E-03
   44.6937485        -3.97846336E-03
   44.8125000        -4.01497306E-03
   44.9312515        -4.03919909E-03
   45.0499992        -4.04934539E-03
   45.1687508        -4.04399354E-03
   45.2874985        -4.02221084E-03
   45.4062500        -3.98365594E-03
   45.5250015        -3.92867345E-03
   45.6437492        -3.85836582E-03
   45.7625008        -3.77463503E-03
   45.8812485        -3.68018262E-03
