  -1.50000000       0.00000000    
  -1.38499999      -6.20486218E-10
  -1.26999998      -3.06841574E-09
  -1.15499997      -1.04008695E-08
  -1.03999996      -2.96153555E-08
 -0.925000012      -7.55630225E-08
 -0.810000002      -1.77743317E-07
 -0.694999993      -3.91222699E-07
 -0.579999983      -8.12835538E-07
 -0.465000004      -1.60330819E-06
 -0.349999994      -3.01491582E-06
 -0.234999999      -5.42281941E-06
 -0.119999997      -9.35660319E-06
  -4.99999989E-03  -1.55271318E-05
  0.109999999      -2.48430388E-05
  0.224999994      -3.84112500E-05
  0.340000004      -5.75168815E-05
  0.455000013      -8.35798564E-05
  0.569999993      -1.18087890E-04
  0.685000002      -1.62508804E-04
  0.800000012      -2.18187895E-04
  0.915000021      -2.86238646E-04
   1.02999997      -3.67437548E-04
   1.14499998      -4.62133175E-04
   1.25999999      -5.70180011E-04
   1.37500000      -6.90904562E-04
   1.49000001      -8.23108014E-04
   1.60500002      -9.65107000E-04
   1.72000003      -1.11480930E-03
   1.83500004      -1.26981875E-03
   1.95000005      -1.42756070E-03
   2.06500006      -1.58541847E-03
   2.18000007      -1.74087030E-03
   2.29500008      -1.89161638E-03
   2.41000009      -2.03568768E-03
   2.52500010      -2.17152969E-03
   2.64000010      -2.29805848E-03
   2.75500011      -2.41468404E-03
   2.86999989      -2.52130767E-03
   2.98499990      -2.61829025E-03
   3.09999990      -2.70640268E-03
   3.21499991      -2.78676022E-03
   3.32999992      -2.86074658E-03
   3.44499993      -2.92993896E-03
   3.55999994      -2.99602957E-03
   3.67499995      -3.06075648E-03
   3.78999996      -3.12583661E-03
   3.90499997      -3.19290766E-03
   4.01999998      -3.26347514E-03
   4.13500023      -3.33886174E-03
   4.25000000      -3.42015945E-03
   4.36499977      -3.50818201E-03
   4.48000002      -3.60341603E-03
   4.59499979      -3.70597327E-03
   4.71000004      -3.81554384E-03
   4.82499981      -3.93135659E-03
   4.94000006      -4.05214913E-03
   5.05499983      -4.17615613E-03
   5.17000008      -4.30111401E-03
   5.28499985      -4.42430144E-03
   5.40000010      -4.54260269E-03
   5.51499987      -4.65260912E-03
   5.63000011      -4.75075049E-03
   5.74499989      -4.83345520E-03
   5.86000013      -4.89733228E-03
   5.97499990      -4.93936380E-03
   6.09000015      -4.95710224E-03
   6.20499992      -4.94884793E-03
   6.32000017      -4.91380505E-03
   6.43499994      -4.85219667E-03
   6.55000019      -4.76532988E-03
   6.66499996      -4.65560379E-03
   6.78000021      -4.52645216E-03
   6.89499998      -4.38222988E-03
   7.01000023      -4.22803685E-03
   7.12500000      -4.06949734E-03
   7.23999977      -3.91249964E-03
   7.35500002      -3.76291946E-03
   7.46999979      -3.62633681E-03
   7.58500004      -3.50776734E-03
   7.69999981      -3.41142411E-03
   7.81500006      -3.34052346E-03
   7.92999983      -3.29714664E-03
   8.04500008      -3.28216283E-03
   8.15999985      -3.29521694E-03
   8.27499962      -3.33478325E-03
   8.39000034      -3.39827198E-03
   8.50500011      -3.48218600E-03
   8.61999989      -3.58231389E-03
   8.73499966      -3.69394384E-03
   8.85000038      -3.81208956E-03
   8.96500015      -3.93170910E-03
   9.07999992      -4.04791255E-03
   9.19499969      -4.15614527E-03
   9.31000042      -4.25234158E-03
   9.42500019      -4.33304813E-03
   9.53999996      -4.39551240E-03
   9.65499973      -4.43774229E-03
   9.77000046      -4.45853267E-03
   9.88500023      -4.45747189E-03
   10.0000000      -4.43492457E-03
   10.1149998      -4.39199572E-03
   10.2299995      -4.33048140E-03
   10.3450003      -4.25280398E-03
   10.4600000      -4.16193344E-03
   10.5749998      -4.06129705E-03
   10.6899996      -3.95467225E-03
   10.8050003      -3.84606607E-03
   10.9200001      -3.73957842E-03
   11.0349998      -3.63925425E-03
   11.1499996      -3.54892621E-03
   11.2650003      -3.47205135E-03
   11.3800001      -3.41155287E-03
   11.4949999      -3.36967246E-03
   11.6099997      -3.34784365E-03
   11.7250004      -3.34659708E-03
   11.8400002      -3.36550339E-03
   11.9549999      -3.40316561E-03
   12.0699997      -3.45726055E-03
   12.1850004      -3.52463452E-03
   12.3000002      -3.60144582E-03
   12.4150000      -3.68335657E-03
   12.5299997      -3.76575440E-03
   12.6450005      -3.84399621E-03
   12.7600002      -3.91366053E-03
   12.8750000      -3.97078879E-03
   12.9899998      -4.01210133E-03
   13.1049995      -4.03517624E-03
   13.2200003      -4.03857650E-03
   13.3350000      -4.02191421E-03
   13.4499998      -3.98585852E-03
   13.5649996      -3.93207557E-03
   13.6800003      -3.86311230E-03
   13.7950001      -3.78223392E-03
   13.9099998      -3.69322207E-03
   14.0249996      -3.60015524E-03
   14.1400003      -3.50717967E-03
   14.2550001      -3.41829169E-03
   14.3699999      -3.33714159E-03
   14.4849997      -3.26687167E-03
   14.6000004      -3.20999580E-03
   14.7150002      -3.16832261E-03
   14.8299999      -3.14292661E-03
   14.9449997      -3.13415960E-03
   15.0600004      -3.14170006E-03
   15.1750002      -3.16462829E-03
   15.2900000      -3.20152286E-03
   15.4049997      -3.25056468E-03
   15.5200005      -3.30964429E-03
   15.6350002      -3.37646087E-03
   15.7500000      -3.44861276E-03
   15.8649998      -3.52367293E-03
   15.9799995      -3.59925209E-03
   16.0949993      -3.67304799E-03
   16.2099991      -3.74288764E-03
   16.3250008      -3.80676170E-03
   16.4400005      -3.86285689E-03
   16.5550003      -3.90959391E-03
   16.6700001      -3.94566078E-03
   16.7849998      -3.97005398E-03
   16.8999996      -3.98211787E-03
   17.0149994      -3.98158375E-03
   17.1299992      -3.96859879E-03
   17.2450008      -3.94374458E-03
   17.3600006      -3.90803674E-03
   17.4750004      -3.86290601E-03
   17.5900002      -3.81015195E-03
   17.7049999      -3.75187374E-03
   17.8199997      -3.69037851E-03
   17.9349995      -3.62807070E-03
   18.0499992      -3.56733170E-03
   18.1650009      -3.51039320E-03
   18.2800007      -3.45921982E-03
   18.3950005      -3.41540505E-03
   18.5100002      -3.38009140E-03
   18.6250000      -3.35392309E-03
   18.7399998      -3.33703193E-03
   18.8549995      -3.32906260E-03
   18.9699993      -3.32923164E-03
   19.0849991      -3.33641679E-03
   19.2000008      -3.34927044E-03
   19.3150005      -3.36634321E-03
   19.4300003      -3.38621205E-03
   19.5450001      -3.40759661E-03
   19.6599998      -3.42945475E-03
   19.7749996      -3.45105142E-03
   19.8899994      -3.47199151E-03
   20.0049992      -3.49221611E-03
   20.1200008      -3.51196318E-03
   20.2350006      -3.53169604E-03
   20.3500004      -3.55200889E-03
   20.4650002      -3.57351871E-03
   20.5799999      -3.59675195E-03
   20.6949997      -3.62204341E-03
   20.8099995      -3.64944874E-03
   20.9249992      -3.67868878E-03
   21.0400009      -3.70912463E-03
   21.1550007      -3.73976864E-03
   21.2700005      -3.76933115E-03
   21.3850002      -3.79629969E-03
   21.5000000      -3.81903909E-03
   21.6149998      -3.83591233E-03
   21.7299995      -3.84540227E-03
   21.8449993      -3.84623092E-03
   21.9599991      -3.83746298E-03
   22.0750008      -3.81858507E-03
   22.1900005      -3.78955877E-03
   22.3050003      -3.75083857E-03
   22.4200001      -3.70335882E-03
   22.5349998      -3.64849088E-03
   22.6499996      -3.58797493E-03
   22.7649994      -3.52383242E-03
   22.8799992      -3.45826871E-03
   22.9950008      -3.39356996E-03
   23.1100006      -3.33200605E-03
   23.2250004      -3.27573810E-03
   23.3400002      -3.22674355E-03
   23.4549999      -3.18675209E-03
   23.5699997      -3.15720029E-03
   23.6849995      -3.13919759E-03
   23.7999992      -3.13350605E-03
   23.9150009      -3.14052845E-03
   24.0300007      -3.16030206E-03
   24.1450005      -3.19249555E-03
   24.2600002      -3.23640881E-03
   24.3750000      -3.29097244E-03
   24.4899998      -3.35475337E-03
   24.6049995      -3.42596276E-03
   24.7199993      -3.50247417E-03
   24.8349991      -3.58185521E-03
   24.9500008      -3.66141484E-03
   25.0650005      -3.73827014E-03
   25.1800003      -3.80943599E-03
   25.2950001      -3.87193239E-03
   25.4099998      -3.92291136E-03
   25.5249996      -3.95979639E-03
   25.6399994      -3.98042565E-03
   25.7549992      -3.98319215E-03
   25.8700008      -3.96716734E-03
   25.9850006      -3.93220456E-03
   26.1000004      -3.87900206E-03
   26.2150002      -3.80912866E-03
   26.3299999      -3.72499810E-03
   26.4449997      -3.62979504E-03
   26.5599995      -3.52735072E-03
   26.6749992      -3.42197553E-03
   26.7900009      -3.31825390E-03
   26.9050007      -3.22081731E-03
   27.0200005      -3.13410326E-03
   27.1350002      -3.06212064E-03
   27.2500000      -3.00823268E-03
   27.3649998      -2.97497190E-03
   27.4799995      -2.96390196E-03
   27.5949993      -2.97552929E-03
   27.7099991      -3.00927693E-03
   27.8250008      -3.06351460E-03
   27.9400005      -3.13564786E-03
   28.0550003      -3.22225597E-03
   28.1700001      -3.31927184E-03
   28.2849998      -3.42218857E-03
   28.3999996      -3.52628483E-03
   28.5149994      -3.62684927E-03
   28.6299992      -3.71939759E-03
   28.7450008      -3.79986782E-03
   28.8600006      -3.86478566E-03
   28.9750004      -3.91139369E-03
   29.0900002      -3.93774221E-03
   29.2049999      -3.94274015E-03
   29.3199997      -3.92616773E-03
   29.4349995      -3.88865313E-03
   29.5499992      -3.83162173E-03
   29.6650009      -3.75721906E-03
   29.7800007      -3.66821513E-03
   29.8950005      -3.56789469E-03
   30.0100002      -3.45993857E-03
   30.1250000      -3.34829697E-03
   30.2399998      -3.23706050E-03
   30.3549995      -3.13032768E-03
   30.4699993      -3.03207315E-03
   30.5849991      -2.94601591E-03
   30.7000008      -2.87549081E-03
   30.8150005      -2.82332487E-03
   30.9300003      -2.79172463E-03
   31.0450001      -2.78217508E-03
   31.1599998      -2.79535865E-03
   31.2749996      -2.83110025E-03
   31.3899994      -2.88833911E-03
   31.5049992      -2.96513853E-03
   31.6200008      -3.05873202E-03
   31.7350006      -3.16561037E-03
   31.8500004      -3.28164711E-03
   31.9650002      -3.40225967E-03
   32.0800018      -3.52260168E-03
   32.1949997      -3.63777508E-03
   32.3100014      -3.74305388E-03
   32.4249992      -3.83410673E-03
   32.5400009      -3.90720554E-03
   32.6549988      -3.95940710E-03
   32.7700005      -3.98869812E-03
   32.8849983      -3.99409188E-03
   33.0000000      -3.97567172E-03
   33.1150017      -3.93457757E-03
   33.2299995      -3.87293613E-03
   33.3450012      -3.79374041E-03
   33.4599991      -3.70068196E-03
   33.5750008      -3.59795336E-03
   33.6899986      -3.49002611E-03
   33.8050003      -3.38142272E-03
   33.9199982      -3.27649666E-03
   34.0349998      -3.17922840E-03
   34.1500015      -3.09305545E-03
   34.2649994      -3.02073918E-03
   34.3800011      -2.96427589E-03
   34.4949989      -2.92485696E-03
   34.6100006      -2.90287170E-03
   34.7249985      -2.89795268E-03
   34.8400002      -2.90905638E-03
   34.9550018      -2.93456833E-03
   35.0699997      -2.97242706E-03
   35.1850014      -3.02025443E-03
   35.2999992      -3.07548512E-03
   35.4150009      -3.13548744E-03
   35.5299988      -3.19766998E-03
   35.6450005      -3.25957080E-03
   35.7599983      -3.31892679E-03
   35.8750000      -3.37372674E-03
   35.9900017      -3.42224538E-03
   36.1049995      -3.46306618E-03
   36.2200012      -3.49509320E-03
   36.3349991      -3.51755554E-03
   36.4500008      -3.53000942E-03
   36.5649986      -3.53233539E-03
   36.6800003      -3.52473278E-03
   36.7949982      -3.50771449E-03
   36.9099998      -3.48209171E-03
   37.0250015      -3.44895571E-03
   37.1399994      -3.40964762E-03
   37.2550011      -3.36571899E-03
   37.3699989      -3.31887905E-03
   37.4850006      -3.27092898E-03
   37.5999985      -3.22368811E-03
   37.7150002      -3.17891152E-03
   37.8300018      -3.13820457E-03
   37.9449997      -3.10294144E-03
   38.0600014      -3.07419244E-03
   38.1749992      -3.05266678E-03
   38.2900009      -3.03867646E-03
   38.4049988      -3.03212507E-03
   38.5200005      -3.03252228E-03
   38.6349983      -3.03902850E-03
   38.7500000      -3.05052218E-03
   38.8650017      -3.06568830E-03
   38.9799995      -3.08311917E-03
   39.0950012      -3.10142199E-03
   39.2099991      -3.11932084E-03
   39.3250008      -3.13574914E-03
   39.4399986      -3.14991851E-03
   39.5550003      -3.16136586E-03
   39.6699982      -3.16996593E-03
   39.7849998      -3.17591522E-03
   39.9000015      -3.17968661E-03
   40.0149994      -3.18195811E-03
   40.1300011      -3.18352389E-03
   40.2449989      -3.18519538E-03
   40.3600006      -3.18770134E-03
   40.4749985      -3.19159823E-03
   40.5900002      -3.19719850E-03
   40.7050018      -3.20452335E-03
   40.8199997      -3.21328477E-03
   40.9350014      -3.22290137E-03
   41.0499992      -3.23254243E-03
   41.1650009      -3.24120093E-03
   41.2799988      -3.24778492E-03
   41.3950005      -3.25122243E-03
   41.5099983      -3.25056794E-03
   41.6250000      -3.24510201E-03
   41.7400017      -3.23441392E-03
   41.8549995      -3.21846223E-03
   41.9700012      -3.19760432E-03
   42.0849991      -3.17259505E-03
   42.2000008      -3.14455503E-03
   42.3149986      -3.11490754E-03
   42.4300003      -3.08529451E-03
   42.5449982      -3.05747427E-03
   42.6599998      -3.03321099E-03
   42.7750015      -3.01416591E-03
   42.8899994      -3.00179375E-03
   43.0050011      -2.99725891E-03
   43.1199989      -3.00136814E-03
   43.2350006      -3.01453006E-03
   43.3499985      -3.03673977E-03
   43.4650002      -3.06758424E-03
   43.5800018      -3.10627441E-03
   43.6949997      -3.15168803E-03
   43.8100014      -3.20242904E-03
   43.9249992      -3.25688883E-03
   44.0400009      -3.31331254E-03
   44.1549988      -3.36986058E-03
   44.2700005      -3.42466636E-03
   44.3849983      -3.47588724E-03
