  -1.50000000         6.55268452E-18
  -1.38125002        -2.51197929E-09
  -1.26250005        -1.21114354E-08
  -1.14374995        -4.01318232E-08
  -1.02499998        -1.12280098E-07
 -0.906250000        -2.82600013E-07
 -0.787500024        -6.56895622E-07
 -0.668749988        -1.42852889E-06
 -0.550000012        -2.92797313E-06
 -0.431250006        -5.68438509E-06
 -0.312500000        -1.04931887E-05
 -0.193749994        -1.84794844E-05
  -7.50000030E-02    -3.11446383E-05
   4.37499993E-02    -5.03838710E-05
  0.162499994        -7.84659424E-05
  0.281250000        -1.17971256E-04
  0.400000006        -1.71689200E-04
  0.518750012        -2.42479713E-04
  0.637499988        -3.33105505E-04
  0.756250024        -4.46044840E-04
  0.875000000        -5.83295536E-04
  0.993749976        -7.46186473E-04
   1.11249995        -9.35213291E-04
   1.23125005        -1.14991865E-03
   1.35000002        -1.38883211E-03
   1.46875000        -1.64948206E-03
   1.58749998        -1.92848372E-03
   1.70624995        -2.22169911E-03
   1.82500005        -2.52445647E-03
   1.94375002        -2.83181155E-03
   2.06250000        -3.13883135E-03
   2.18125010        -3.44087253E-03
   2.29999995        -3.73383751E-03
   2.41875005        -4.01438586E-03
   2.53749990        -4.28009033E-03
   2.65625000        -4.52952692E-03
   2.77500010        -4.76229843E-03
   2.89374995        -4.97899670E-03
   3.01250005        -5.18110441E-03
   3.13124990        -5.37086139E-03
   3.25000000        -5.55109931E-03
   3.36875010        -5.72505780E-03
   3.48749995        -5.89620555E-03
   3.60625005        -6.06806064E-03
   3.72499990        -6.24403404E-03
   3.84375000        -6.42728386E-03
   3.96250010        -6.62059244E-03
   4.08125019        -6.82625361E-03
   4.19999981        -7.04597821E-03
   4.31874990        -7.28080329E-03
   4.43750000        -7.53100729E-03
   4.55625010        -7.79603655E-03
   4.67500019        -8.07443447E-03
   4.79374981        -8.36379360E-03
   4.91249990        -8.66072439E-03
   5.03125000        -8.96087009E-03
   5.15000010        -9.25895479E-03
   5.26875019        -9.54889879E-03
   5.38749981        -9.82398540E-03
   5.50624990        -1.00770975E-02
   5.62500000        -1.03010116E-02
   5.74375010        -1.04887383E-02
   5.86250019        -1.06338989E-02
   5.98124981        -1.07311131E-02
   6.09999990        -1.07763642E-02
   6.21875000        -1.07673369E-02
   6.33750010        -1.07036745E-02
   6.45625019        -1.05871400E-02
   6.57499981        -1.04216775E-02
   6.69374990        -1.02133378E-02
   6.81250000        -9.97007638E-03
   6.93125010        -9.70144104E-03
   7.05000019        -9.41814017E-03
   7.16874981        -9.13154334E-03
   7.28749990        -8.85312445E-03
   7.40625000        -8.59389361E-03
   7.52500010        -8.36384576E-03
   7.64375019        -8.17147177E-03
   7.76249981        -8.02335516E-03
   7.88124990        -7.92386942E-03
   8.00000000        -7.87501689E-03
   8.11874962        -7.87638593E-03
   8.23750019        -7.92524219E-03
   8.35624981        -8.01674183E-03
   8.47500038        -8.14423244E-03
   8.59375000        -8.29964317E-03
   8.71249962        -8.47391039E-03
   8.83125019        -8.65743496E-03
   8.94999981        -8.84052366E-03
   9.06875038        -9.01381206E-03
   9.18750000        -9.16863792E-03
   9.30624962        -9.29735415E-03
   9.42500019        -9.39358212E-03
   9.54374981        -9.45239048E-03
   9.66250038        -9.47041344E-03
   9.78125000        -9.44590941E-03
   9.89999962        -9.37875826E-03
   10.0187502        -9.27041937E-03
   10.1374998        -9.12383758E-03
   10.2562504        -8.94332025E-03
   10.3750000        -8.73437338E-03
   10.4937496        -8.50350130E-03
   10.6125002        -8.25798139E-03
   10.7312498        -8.00560135E-03
   10.8500004        -7.75437010E-03
   10.9687500        -7.51220668E-03
   11.0874996        -7.28661241E-03
   11.2062502        -7.08434125E-03
   11.3249998        -6.91108545E-03
   11.4437504        -6.77118776E-03
   11.5625000        -6.66740211E-03
   11.6812496        -6.60072081E-03
   11.8000002        -6.57028472E-03
   11.9187498        -6.57338928E-03
   12.0375004        -6.60558976E-03
   12.1562500        -6.66091079E-03
   12.2749996        -6.73215091E-03
   12.3937502        -6.81126444E-03
   12.5124998        -6.88980706E-03
   12.6312504        -6.95941038E-03
   12.7500000        -7.01225689E-03
   12.8687496        -7.04153068E-03
   12.9875002        -7.04180216E-03
   13.1062498        -7.00933253E-03
   13.2250004        -6.94226846E-03
   13.3437500        -6.84071844E-03
   13.4624996        -6.70671277E-03
   13.5812502        -6.54403819E-03
   13.6999998        -6.35797903E-03
   13.8187504        -6.15497259E-03
   13.9375000        -5.94221195E-03
   14.0562496        -5.72722126E-03
   14.1750002        -5.51743526E-03
   14.2937498        -5.31981094E-03
   14.4125004        -5.14049456E-03
   14.5312500        -4.98455949E-03
   14.6499996        -4.85582650E-03
   14.7687502        -4.75677010E-03
   14.8874998        -4.68850881E-03
   15.0062504        -4.65086661E-03
   15.1250000        -4.64249635E-03
   15.2437496        -4.66103945E-03
   15.3625002        -4.70331684E-03
   15.4812498        -4.76552872E-03
   15.6000004        -4.84344969E-03
   15.7187500        -4.93260380E-03
   15.8374996        -5.02842991E-03
   15.9562502        -5.12641715E-03
   16.0750008        -5.22222184E-03
   16.1937504        -5.31176711E-03
   16.3125000        -5.39133186E-03
   16.4312496        -5.45762759E-03
   16.5499992        -5.50787617E-03
   16.6687508        -5.53988153E-03
   16.7875004        -5.55210048E-03
   16.9062500        -5.54370228E-03
   17.0249996        -5.51462267E-03
   17.1437492        -5.46559179E-03
   17.2625008        -5.39813889E-03
   17.3812504        -5.31456247E-03
   17.5000000        -5.21786045E-03
   17.6187496        -5.11162356E-03
   17.7374992        -4.99988673E-03
   17.8562508        -4.88694897E-03
   17.9750004        -4.77717305E-03
   18.0937500        -4.67476994E-03
   18.2124996        -4.58359113E-03
   18.3312492        -4.50694188E-03
   18.4500008        -4.44742618E-03
   18.5687504        -4.40684427E-03
   18.6875000        -4.38613677E-03
   18.8062496        -4.38539824E-03
   18.9249992        -4.40393761E-03
   19.0437508        -4.44039702E-03
   19.1625004        -4.49290499E-03
   19.2812500        -4.55925427E-03
   19.3999996        -4.63708909E-03
   19.5187492        -4.72408207E-03
   19.6375008        -4.81808186E-03
   19.7562504        -4.91723185E-03
   19.8750000        -5.02002984E-03
   19.9937496        -5.12534706E-03
   20.1124992        -5.23239328E-03
   20.2312508        -5.34063717E-03
   20.3500004        -5.44970110E-03
   20.4687500        -5.55923628E-03
   20.5874996        -5.66879287E-03
   20.7062492        -5.77771198E-03
   20.8250008        -5.88504458E-03
   20.9437504        -5.98950777E-03
   21.0625000        -6.08949130E-03
   21.1812496        -6.18311437E-03
   21.2999992        -6.26832200E-03
   21.4187508        -6.34302292E-03
   21.5375004        -6.40524831E-03
   21.6562500        -6.45332504E-03
   21.7749996        -6.48603588E-03
   21.8937492        -6.50276756E-03
   22.0125008        -6.50361413E-03
   22.1312504        -6.48944452E-03
   22.2500000        -6.46191416E-03
   22.3687496        -6.42342679E-03
   22.4874992        -6.37704413E-03
   22.6062508        -6.32635504E-03
   22.7250004        -6.27530692E-03
   22.8437500        -6.22802367E-03
   22.9624996        -6.18860731E-03
   23.0812492        -6.16095169E-03
   23.2000008        -6.14856463E-03
   23.3187504        -6.15442218E-03
   23.4375000        -6.18084567E-03
   23.5562496        -6.22941740E-03
   23.6749992        -6.30092621E-03
   23.7937508        -6.39534742E-03
   23.9125004        -6.51184469E-03
   24.0312500        -6.64880173E-03
   24.1499996        -6.80386694E-03
   24.2687492        -6.97401632E-03
   24.3875008        -7.15563027E-03
   24.5062504        -7.34458258E-03
   24.6250000        -7.53634283E-03
   24.7437496        -7.72609236E-03
   24.8624992        -7.90885650E-03
   24.9812508        -8.07965454E-03
   25.1000004        -8.23366363E-03
   25.2187500        -8.36640038E-03
   25.3374996        -8.47391039E-03
   25.4562492        -8.55295733E-03
   25.5750008        -8.60121008E-03
   25.6937504        -8.61740671E-03
   25.8125000        -8.60149041E-03
   25.9312496        -8.55469517E-03
   26.0499992        -8.47958121E-03
   26.1687508        -8.37999769E-03
   26.2875004        -8.26098211E-03
   26.4062500        -8.12857877E-03
   26.5249996        -7.98959658E-03
   26.6437492        -7.85130542E-03
   26.7625008        -7.72108650E-03
   26.8812504        -7.60606397E-03
   27.0000000        -7.51272682E-03
   27.1187496        -7.44657591E-03
   27.2374992        -7.41180917E-03
   27.3562508        -7.41107436E-03
   27.4750004        -7.44529767E-03
   27.5937500        -7.51360692E-03
   27.7124996        -7.61335110E-03
   27.8312492        -7.74022052E-03
   27.9500008        -7.88845401E-03
   28.0687504        -8.05113278E-03
   28.1875000        -8.22052453E-03
   28.3062496        -8.38847738E-03
   28.4249992        -8.54683015E-03
   28.5437508        -8.68780538E-03
   28.6625004        -8.80439393E-03
   28.7812500        -8.89067445E-03
   28.8999996        -8.94207507E-03
   29.0187492        -8.95556528E-03
   29.1375008        -8.92976671E-03
   29.2562504        -8.86497647E-03
   29.3750000        -8.76312144E-03
   29.4937496        -8.62764381E-03
   29.6124992        -8.46331846E-03
   29.7312508        -8.27602763E-03
   29.8500004        -8.07250571E-03
   29.9687500        -7.86005426E-03
   30.0874996        -7.64624542E-03
   30.2062492        -7.43863592E-03
   30.3250008        -7.24447938E-03
   30.4437504        -7.07046222E-03
   30.5625000        -6.92246016E-03
   30.6812496        -6.80532539E-03
   30.7999992        -6.72270777E-03
   30.9187508        -6.67691091E-03
   31.0375004        -6.66879537E-03
   31.1562500        -6.69772411E-03
   31.2749996        -6.76156022E-03
   31.3937492        -6.85671903E-03
   31.5125008        -6.97827246E-03
   31.6312504        -7.12011382E-03
   31.7500000        -7.27517297E-03
   31.8687496        -7.43568409E-03
   31.9874992        -7.59349158E-03
   32.1062508        -7.74039282E-03
   32.2249985        -7.86849111E-03
   32.3437500        -7.97055289E-03
   32.4625015        -8.04034527E-03
   32.5812492        -8.07294250E-03
   32.7000008        -8.06496851E-03
   32.8187485        -8.01477954E-03
   32.9375000        -7.92255905E-03
   33.0562515        -7.79032148E-03
   33.1749992        -7.62182707E-03
   33.2937508        -7.42240390E-03
   33.4124985        -7.19868531E-03
   33.5312500        -6.95828814E-03
   33.6500015        -6.70943363E-03
   33.7687492        -6.46054465E-03
   33.8875008        -6.21983968E-03
   34.0062485        -5.99494670E-03
   34.1250000        -5.79255726E-03
   34.2437515        -5.61814057E-03
   34.3624992        -5.47573855E-03
   34.4812508        -5.36783412E-03
   34.5999985        -5.29531902E-03
   34.7187500        -5.25753153E-03
   34.8375015        -5.25238551E-03
   34.9562492        -5.27654961E-03
   35.0750008        -5.32568526E-03
   35.1937485        -5.39470930E-03
   35.3125000        -5.47807245E-03
   35.4312515        -5.57003543E-03
   35.5499992        -5.66492788E-03
   35.6687508        -5.75737702E-03
   35.7874985        -5.84249711E-03
   35.9062500        -5.91604272E-03
   36.0250015        -5.97451301E-03
   36.1437492        -6.01521926E-03
   36.2625008        -6.03631139E-03
   36.3812485        -6.03677891E-03
   36.5000000        -6.01642067E-03
   36.6187515        -5.97579917E-03
   36.7374992        -5.91617823E-03
   36.8562508        -5.83944889E-03
   36.9749985        -5.74804936E-03
   37.0937500        -5.64487092E-03
   37.2125015        -5.53316204E-03
   37.3312492        -5.41641889E-03
   37.4500008        -5.29826945E-03
   37.5687485        -5.18234819E-03
   37.6875000        -5.07216761E-03
   37.8062515        -4.97098640E-03
   37.9249992        -4.88168327E-03
   38.0437508        -4.80664242E-03
   38.1624985        -4.74765152E-03
   38.2812500        -4.70583374E-03
   38.4000015        -4.68160445E-03
   38.5187492        -4.67466749E-03
   38.6375008        -4.68404917E-03
   38.7562485        -4.70817601E-03
   38.8750000        -4.74498002E-03
   38.9937515        -4.79204068E-03
   39.1124992        -4.84674145E-03
   39.2312508        -4.90643643E-03
   39.3499985        -4.96861199E-03
   39.4687500        -5.03103063E-03
   39.5875015        -5.09184832E-03
   39.7062492        -5.14968811E-03
   39.8250008        -5.20368060E-03
   39.9437485        -5.25344862E-03
   40.0625000        -5.29905502E-03
   40.1812515        -5.34091843E-03
   40.2999992        -5.37969545E-03
   40.4187508        -5.41615672E-03
   40.5374985        -5.45106316E-03
   40.6562500        -5.48505038E-03
   40.7750015        -5.51854679E-03
   40.8937492        -5.55172097E-03
   41.0125008        -5.58447139E-03
   41.1312485        -5.61645627E-03
   41.2500000        -5.64716011E-03
   41.3687515        -5.67599013E-03
   41.4874992        -5.70239313E-03
   41.6062508        -5.72597561E-03
   41.7249985        -5.74661558E-03
   41.8437500        -5.76455332E-03
   41.9625015        -5.78044541E-03
   42.0812492        -5.79538057E-03
   42.2000008        -5.81084890E-03
   42.3187485        -5.82866464E-03
   42.4375000        -5.85085014E-03
   42.5562515        -5.87949343E-03
   42.6749992        -5.91658289E-03
   42.7937508        -5.96384471E-03
   42.9124985        -6.02258649E-03
   43.0312500        -6.09357143E-03
   43.1500015        -6.17692200E-03
   43.2687492        -6.27207523E-03
   43.3875008        -6.37777708E-03
   43.5062485        -6.49213186E-03
   43.6250000        -6.61268784E-03
   43.7437515        -6.73656072E-03
   43.8624992        -6.86058123E-03
   43.9812508        -6.98145526E-03
   44.0999985        -7.09592272E-03
   44.2187500        -7.20090745E-03
   44.3375015        -7.29364948E-03
   44.4562492        -7.37180933E-03
   44.5750008        -7.43354810E-03
   44.6937485        -7.47757591E-03
   44.8125000        -7.50317890E-03
   44.9312515        -7.51022669E-03
   45.0499992        -7.49915978E-03
   45.1687508        -7.47097610E-03
   45.2874985        -7.42720440E-03
   45.4062500        -7.36987777E-03
   45.5250015        -7.30150333E-03
   45.6437492        -7.22502731E-03
   45.7625008        -7.14378804E-03
   45.8812485        -7.06145493E-03
