  -1.50000000         0.00000000    
  -1.38499999        -2.35583308E-09
  -1.26999998        -1.11508021E-08
  -1.15499997        -3.62518868E-08
  -1.03999996        -9.95858045E-08
 -0.925000012        -2.46496796E-07
 -0.810000002        -5.64660183E-07
 -0.694999993        -1.21295420E-06
 -0.579999983        -2.46165996E-06
 -0.465000004        -4.74312810E-06
 -0.349999994        -8.70884469E-06
 -0.234999999        -1.52854573E-05
 -0.119999997        -2.57199554E-05
  -4.99999989E-03    -4.16038420E-05
  0.109999999        -6.48681671E-05
  0.224999994        -9.77447926E-05
  0.340000004        -1.42693490E-04
  0.455000013        -2.02297204E-04
  0.569999993        -2.79130763E-04
  0.685000002        -3.75608943E-04
  0.800000012        -4.93822328E-04
  0.915000021        -6.35371427E-04
   1.02999997        -8.01212329E-04
   1.14499998        -9.91528039E-04
   1.25999999        -1.20564143E-03
   1.37500000        -1.44198060E-03
   1.49000001        -1.69810641E-03
   1.60500002        -1.97080034E-03
   1.72000003        -2.25621229E-03
   1.83500004        -2.55005411E-03
   1.95000005        -2.84782588E-03
   2.06500006        -3.14505701E-03
   2.18000007        -3.43754399E-03
   2.29500008        -3.72156664E-03
   2.41000009        -3.99406860E-03
   2.52500010        -4.25279187E-03
   2.64000010        -4.49635601E-03
   2.75500011        -4.72428603E-03
   2.86999989        -4.93698241E-03
   2.98499990        -5.13564935E-03
   3.09999990        -5.32218348E-03
   3.21499991        -5.49903652E-03
   3.32999992        -5.66906389E-03
   3.44499993        -5.83536830E-03
   3.55999994        -6.00114791E-03
   3.67499995        -6.16955338E-03
   3.78999996        -6.34356169E-03
   3.90499997        -6.52586157E-03
   4.01999998        -6.71875710E-03
   4.13500023        -6.92407787E-03
   4.25000000        -7.14310026E-03
   4.36499977        -7.37647526E-03
   4.48000002        -7.62415770E-03
   4.59499979        -7.88534712E-03
   4.71000004        -8.15843046E-03
   4.82499981        -8.44094995E-03
   4.94000006        -8.72958545E-03
   5.05499983        -9.02017113E-03
   5.17000008        -9.30775609E-03
   5.28499985        -9.58670583E-03
   5.40000010        -9.85085685E-03
   5.51499987        -1.00937271E-02
   5.63000011        -1.03087658E-02
   5.74499989        -1.04896501E-02
   5.86000013        -1.06306095E-02
   5.97499990        -1.07267452E-02
   6.09000015        -1.07743554E-02
   6.20499992        -1.07712103E-02
   6.32000017        -1.07167875E-02
   6.43499994        -1.06124142E-02
   6.55000019        -1.04613332E-02
   6.66499996        -1.02686593E-02
   6.78000021        -1.00412304E-02
   6.89499998        -9.78736300E-03
   7.01000023        -9.51650925E-03
   7.12500000        -9.23885033E-03
   7.23999977        -8.96482822E-03
   7.35500002        -8.70466605E-03
   7.46999979        -8.46789218E-03
   7.58500004        -8.26289225E-03
   7.69999981        -8.09653196E-03
   7.81500006        -7.97385536E-03
   7.92999983        -7.89788086E-03
   8.04500008        -7.86951184E-03
   8.15999985        -7.88754597E-03
   8.27499962        -7.94879626E-03
   8.39000034        -8.04829691E-03
   8.50500011        -8.17959290E-03
   8.61999989        -8.33507814E-03
   8.73499966        -8.50637071E-03
   8.85000038        -8.68469849E-03
   8.96500015        -8.86127912E-03
   9.07999992        -9.02766921E-03
   9.19499969        -9.17608012E-03
   9.31000042        -9.29963775E-03
   9.42500019        -9.39259492E-03
   9.53999996        -9.45048407E-03
   9.65499973        -9.47021134E-03
   9.77000046        -9.45011713E-03
   9.88500023        -9.38996486E-03
   10.0000000        -9.29091591E-03
   10.1149998        -9.15545039E-03
   10.2299995        -8.98726750E-03
   10.3450003        -8.79114773E-03
   10.4600000        -8.57279450E-03
   10.5749998        -8.33864417E-03
   10.6899996        -8.09564907E-03
   10.8050003        -7.85103999E-03
   10.9200001        -7.61207100E-03
   11.0349998        -7.38573633E-03
   11.1499996        -7.17849983E-03
   11.2650003        -6.99601416E-03
   11.3800001        -6.84286421E-03
   11.4949999        -6.72234176E-03
   11.6099997        -6.63626846E-03
   11.7250004        -6.58487435E-03
   11.8400002        -6.56675594E-03
   11.9549999        -6.57890877E-03
   12.0699997        -6.61685131E-03
   12.1850004        -6.67482475E-03
   12.3000002        -6.74607186E-03
   12.4150000        -6.82317885E-03
   12.5299997        -6.89845951E-03
   12.6450005        -6.96436269E-03
   12.7600002        -7.01387320E-03
   12.8750000        -7.04089273E-03
   12.9899998        -7.04056118E-03
   13.1049995        -7.00951274E-03
   13.2200003        -6.94603985E-03
   13.3350000        -6.85016112E-03
   13.4499998        -6.72358973E-03
   13.5649996        -6.56960299E-03
   13.6800003        -6.39282959E-03
   13.7950001        -6.19896548E-03
   13.9099998        -5.99443866E-03
   14.0249996        -5.78605244E-03
   14.1400003        -5.58062317E-03
   14.2550001        -5.38464123E-03
   14.3699999        -5.20396698E-03
   14.4849997        -5.04358811E-03
   14.6000004        -4.90743946E-03
   14.7150002        -4.79829451E-03
   14.8299999        -4.71772673E-03
   14.9449997        -4.66613565E-03
   15.0600004        -4.64282557E-03
   15.1750002        -4.64613223E-03
   15.2900000        -4.67356993E-03
   15.4049997        -4.72200289E-03
   15.5200005        -4.78781015E-03
   15.6350002        -4.86705452E-03
   15.7500000        -4.95562563E-03
   15.8649998        -5.04937628E-03
   15.9799995        -5.14423102E-03
   16.0949993        -5.23628760E-03
   16.2099991        -5.32189291E-03
   16.3250008        -5.39772119E-03
   16.4400005        -5.46083739E-03
   16.5550003        -5.50876232E-03
   16.6700001        -5.53953182E-03
   16.7849998        -5.55175636E-03
   16.8999996        -5.54467319E-03
   17.0149994        -5.51818823E-03
   17.1299992        -5.47290407E-03
   17.2450008        -5.41012362E-03
   17.3600006        -5.33183059E-03
   17.4750004        -5.24063455E-03
   17.5900002        -5.13968756E-03
   17.7049999        -5.03256405E-03
   17.8199997        -4.92311548E-03
   17.9349995        -4.81530419E-03
   18.0499992        -4.71302122E-03
   18.1650009        -4.61990992E-03
   18.2800007        -4.53919359E-03
   18.3950005        -4.47353628E-03
   18.5100002        -4.42492822E-03
   18.6250000        -4.39462392E-03
   18.7399998        -4.38311929E-03
   18.8549995        -4.39018430E-03
   18.9699993        -4.41493420E-03
   19.0849991        -4.45594452E-03
   19.2000008        -4.51138942E-03
   19.3150005        -4.57919994E-03
   19.4300003        -4.65721870E-03
   19.5450001        -4.74334881E-03
   19.6599998        -4.83567500E-03
   19.7749996        -4.93255258E-03
   19.8899994        -5.03265625E-03
   20.0049992        -5.13498951E-03
   20.1200008        -5.23884734E-03
   20.2350006        -5.34375384E-03
   20.3500004        -5.44936582E-03
   20.4650002        -5.55536756E-03
   20.5799999        -5.66136325E-03
   20.6949997        -5.76678058E-03
   20.8099995        -5.87079814E-03
   20.9249992        -5.97230624E-03
   21.0400009        -6.06990326E-03
   21.1550007        -6.16193702E-03
   21.2700005        -6.24657935E-03
   21.3850002        -6.32193545E-03
   21.5000000        -6.38617622E-03
   21.6149998        -6.43767975E-03
   21.7299995        -6.47517806E-03
   21.8449993        -6.49788417E-03
   21.9599991        -6.50559971E-03
   22.0750008        -6.49878616E-03
   22.1900005        -6.47859694E-03
   22.3050003        -6.44686632E-03
   22.4200001        -6.40605437E-03
   22.5349998        -6.35915762E-03
   22.6499996        -6.30957820E-03
   22.7649994        -6.26097945E-03
   22.8799992        -6.21712022E-03
   22.9950008        -6.18169084E-03
   23.1100006        -6.15815166E-03
   23.2250004        -6.14959048E-03
   23.3400002        -6.15859963E-03
   23.4549999        -6.18717819E-03
   23.5699997        -6.23666542E-03
   23.6849995        -6.30769553E-03
   23.7999992        -6.40018517E-03
   23.9150009        -6.51333667E-03
   24.0300007        -6.64566550E-03
   24.1450005        -6.79504033E-03
   24.2600002        -6.95873750E-03
   24.3750000        -7.13350670E-03
   24.4899998        -7.31564546E-03
   24.6049995        -7.50108622E-03
   24.7199993        -7.68549461E-03
   24.8349991        -7.86437746E-03
   24.9500008        -8.03320855E-03
   25.0650005        -8.18756502E-03
   25.1800003        -8.32327548E-03
   25.2950001        -8.43658112E-03
   25.4099998        -8.52429494E-03
   25.5249996        -8.58396292E-03
   25.6399994        -8.61400925E-03
   25.7549992        -8.61386675E-03
   25.8700008        -8.58406909E-03
   25.9850006        -8.52630194E-03
   26.1000004        -8.44340678E-03
   26.2150002        -8.33932497E-03
   26.3299999        -8.21898691E-03
   26.4449997        -8.08813795E-03
   26.5599995        -7.95311108E-03
   26.6749992        -7.82055873E-03
   26.7900009        -7.69715011E-03
   26.9050007        -7.58924987E-03
   27.0200005        -7.50260474E-03
   27.1350002        -7.44204503E-03
   27.2500000        -7.41122523E-03
   27.3649998        -7.41241779E-03
   27.4799995        -7.44637568E-03
   27.5949993        -7.51227001E-03
   27.7099991        -7.60770869E-03
   27.8250008        -7.72883603E-03
   27.9400005        -7.87050836E-03
   28.0550003        -8.02653469E-03
   28.1700001        -8.18997249E-03
   28.2849998        -8.35345406E-03
   28.3999996        -8.50953348E-03
   28.5149994        -8.65103491E-03
   28.6299992        -8.77137575E-03
   28.7450008        -8.86485633E-03
   28.8600006        -8.92690290E-03
   28.9750004        -8.95425212E-03
   29.0900002        -8.94506462E-03
   29.2049999        -8.89897998E-03
   29.3199997        -8.81709810E-03
   29.4349995        -8.70190933E-03
   29.5499992        -8.55716132E-03
   29.6650009        -8.38768855E-03
   29.7800007        -8.19920190E-03
   29.8950005        -7.99806137E-03
   30.0100002        -7.79102463E-03
   30.1250000        -7.58499978E-03
   30.2399998        -7.38679571E-03
   30.3549995        -7.20288372E-03
   30.4699993        -7.03917677E-03
   30.5849991        -6.90082973E-03
   30.7000008        -6.79206196E-03
   30.8150005        -6.71601063E-03
   30.9300003        -6.67461706E-03
   31.0450001        -6.66854624E-03
   31.1599998        -6.69714762E-03
   31.2749996        -6.75845426E-03
   31.3899994        -6.84922794E-03
   31.5049992        -6.96505047E-03
   31.6200008        -7.10045733E-03
   31.7350006        -7.24912155E-03
   31.8500004        -7.40407221E-03
   31.9650002        -7.55795417E-03
   32.0800018        -7.70330941E-03
   32.1949997        -7.83288013E-03
   32.3100014        -7.93991145E-03
   32.4249992        -8.01844057E-03
   32.5400009        -8.06357339E-03
   32.6549988        -8.07170477E-03
   32.7700005        -8.04069918E-03
   32.8849983        -7.96999689E-03
   33.0000000        -7.86065962E-03
   33.1150017        -7.71532673E-03
   33.2299995        -7.53810676E-03
   33.3450012        -7.33439066E-03
   33.4599991        -7.11060641E-03
   33.5750008        -6.87392056E-03
   33.6899986        -6.63190754E-03
   33.8050003        -6.39220467E-03
   33.9199982        -6.16216566E-03
   34.0349998        -5.94854308E-03
   34.1500015        -5.75720053E-03
   34.2649994        -5.59288496E-03
   34.3800011        -5.45906136E-03
   34.4949989        -5.35781216E-03
   34.6100006        -5.28981537E-03
   34.7249985        -5.25438925E-03
   34.8400002        -5.24959527E-03
   34.9550018        -5.27240196E-03
   35.0699997        -5.31888241E-03
   35.1850014        -5.38444053E-03
   35.2999992        -5.46404906E-03
   35.4150009        -5.55248559E-03
   35.5299988        -5.64455753E-03
   35.6450005        -5.73530374E-03
   35.7599983        -5.82016353E-03
   35.8750000        -5.89511264E-03
   35.9900017        -5.95676759E-03
   36.1049995        -6.00244850E-03
   36.2200012        -6.03021402E-03
   36.3349991        -6.03886833E-03
   36.4500008        -6.02794299E-03
   36.5649986        -5.99766150E-03
   36.6800003        -5.94889093E-03
   36.7949982        -5.88308368E-03
   36.9099998        -5.80220623E-03
   37.0250015        -5.70867024E-03
   37.1399994        -5.60524687E-03
   37.2550011        -5.49498247E-03
   37.3699989        -5.38110314E-03
   37.4850006        -5.26691321E-03
   37.5999985        -5.15569048E-03
   37.7150002        -5.05057489E-03
   37.8300018        -4.95445775E-03
   37.9449997        -4.86987783E-03
   38.0600014        -4.79892455E-03
   38.1749992        -4.74315789E-03
   38.2900009        -4.70354967E-03
   38.4049988        -4.68044961E-03
   38.5200005        -4.67358483E-03
   38.6349983        -4.68208781E-03
   38.7500000        -4.70455736E-03
   38.8650017        -4.73915227E-03
   38.9799995        -4.78370395E-03
   39.0950012        -4.83585056E-03
   39.2099991        -4.89317765E-03
   39.3250008        -4.95335553E-03
   39.4399986        -5.01426961E-03
   39.5550003        -5.07412385E-03
   39.6699982        -5.13151800E-03
   39.7849998        -5.18549094E-03
   39.9000015        -5.23552485E-03
   40.0149994        -5.28151542E-03
   40.1300011        -5.32370945E-03
   40.2449989        -5.36261545E-03
   40.3600006        -5.39890351E-03
   40.4749985        -5.43329259E-03
   40.5900002        -5.46645047E-03
   40.7050018        -5.49890567E-03
   40.8199997        -5.53098274E-03
   40.9350014        -5.56277158E-03
   41.0499992        -5.59412781E-03
   41.1650009        -5.62470639E-03
   41.2799988        -5.65402675E-03
   41.3950005        -5.68155712E-03
   41.5099983        -5.70681505E-03
   41.6250000        -5.72947087E-03
   41.7400017        -5.74943842E-03
   41.8549995        -5.76695381E-03
   41.9700012        -5.78261819E-03
   42.0849991        -5.79741038E-03
   42.2000008        -5.81266219E-03
   42.3149986        -5.82999410E-03
   42.4300003        -5.85121941E-03
   42.5449982        -5.87822543E-03
   42.6599998        -5.91283292E-03
   42.7750015        -5.95665816E-03
   42.8899994        -6.01097709E-03
   43.0050011        -6.07661065E-03
   43.1199989        -6.15383638E-03
   43.2350006        -6.24233484E-03
   43.3499985        -6.34117704E-03
   43.4650002        -6.44884724E-03
   43.5800018        -6.56330585E-03
   43.6949997        -6.68208255E-03
   43.8100014        -6.80239638E-03
   43.9249992        -6.92128669E-03
   44.0400009        -7.03574996E-03
   44.1549988        -7.14287953E-03
   44.2700005        -7.23998109E-03
   44.3849983        -7.32468301E-03
