  -1.50000000        -1.63871759E-18
  -1.38125002        -2.42287834E-09
  -1.26250005        -1.00681685E-08
  -1.14374995        -2.82293051E-08
  -1.02499998        -6.66292763E-08
 -0.906250000        -1.41441618E-07
 -0.787500024        -2.75395365E-07
 -0.668749988        -4.91605647E-07
 -0.550000012        -7.93916854E-07
 -0.431250006        -1.12463090E-06
 -0.312500000        -1.29194598E-06
 -0.193749994        -8.66787730E-07
  -7.50000030E-02     9.37043524E-07
   4.37499993E-02     5.36687912E-06
  0.162499994         1.41701612E-05
  0.281250000         2.95132613E-05
  0.400000006         5.37365668E-05
  0.518750012         8.89327566E-05
  0.637499988         1.36378716E-04
  0.756250024         1.95895875E-04
  0.875000000         2.65247072E-04
  0.993749976         3.39689432E-04
   1.11249995         4.11789893E-04
   1.23125005         4.71576874E-04
   1.35000002         5.07051707E-04
   1.46875000         5.05031436E-04
   1.58749998         4.52243403E-04
   1.70624995         3.36553727E-04
   1.82500005         1.48188148E-04
   1.94375002        -1.19199591E-04
   2.06250000        -4.67743463E-04
   2.18125010        -8.94961238E-04
   2.29999995        -1.39378582E-03
   2.41875005        -1.95303280E-03
   2.53749990        -2.55825184E-03
   2.65625000        -3.19286971E-03
   2.77500010        -3.83949140E-03
   2.89374995        -4.48121829E-03
   3.01250005        -5.10283373E-03
   3.13124990        -5.69173787E-03
   3.25000000        -6.23853737E-03
   3.36875010        -6.73724944E-03
   3.48749995        -7.18512433E-03
   3.60625005        -7.58214341E-03
   3.72499990        -7.93028902E-03
   3.84375000        -8.23269878E-03
   3.96250010        -8.49283859E-03
   4.08125019        -8.71381722E-03
   4.19999981        -8.89791735E-03
   4.31874990        -9.04641766E-03
   4.43750000        -9.15970653E-03
   4.55625010        -9.23764054E-03
   4.67500019        -9.28009395E-03
   4.79374981        -9.28757992E-03
   4.91249990        -9.26184095E-03
   5.03125000        -9.20629222E-03
   5.15000010        -9.12624039E-03
   5.26875019        -9.02881380E-03
   5.38749981        -8.92260019E-03
   5.50624990        -8.81701149E-03
   5.62500000        -8.72146245E-03
   5.74375010        -8.64445046E-03
   5.86250019        -8.59266333E-03
   5.98124981        -8.57023336E-03
   6.09999990        -8.57823808E-03
   6.21875000        -8.61453451E-03
   6.33750010        -8.67394544E-03
   6.45625019        -8.74878932E-03
   6.57499981        -8.82971101E-03
   6.69374990        -8.90668668E-03
   6.81250000        -8.97011533E-03
   6.93125010        -9.01184324E-03
   7.05000019        -9.02600586E-03
   7.16874981        -9.00959596E-03
   7.28749990        -8.96268245E-03
   7.40625000        -8.88827536E-03
   7.52500010        -8.79185554E-03
   7.64375019        -8.68064631E-03
   7.76249981        -8.56272038E-03
   7.88124990        -8.44606292E-03
   8.00000000        -8.33771192E-03
   8.11874962        -8.24307837E-03
   8.23750019        -8.16552714E-03
   8.35624981        -8.10625125E-03
   8.47500038        -8.06445070E-03
   8.59375000        -8.03775992E-03
   8.71249962        -8.02284945E-03
   8.83125019        -8.01611785E-03
   8.94999981        -8.01433623E-03
   9.06875038        -8.01518094E-03
   9.18750000        -8.01754650E-03
   9.30624962        -8.02161265E-03
   9.42500019        -8.02865345E-03
   9.54374981        -8.04061908E-03
   9.66250038        -8.05956498E-03
   9.78125000        -8.08701571E-03
   9.89999962        -8.12337082E-03
   10.0187502        -8.16745032E-03
   10.1374998        -8.21626559E-03
   10.2562504        -8.26505665E-03
   10.3750000        -8.30761902E-03
   10.4937496        -8.33688024E-03
   10.6125002        -8.34566541E-03
   10.7312498        -8.32756329E-03
   10.8500004        -8.27776361E-03
   10.9687500        -8.19376670E-03
   11.0874996        -8.07587150E-03
   11.2062502        -7.92735256E-03
   11.3249998        -7.75431655E-03
   11.4437504        -7.56522501E-03
   11.5625000        -7.37015484E-03
   11.6812496        -7.17986142E-03
   11.8000002        -7.00477092E-03
   11.9187498        -6.85400795E-03
   12.0375004        -6.73457421E-03
   12.1562500        -6.65077381E-03
   12.2749996        -6.60394412E-03
   12.3937502        -6.59250375E-03
   12.5124998        -6.61231345E-03
   12.6312504        -6.65728329E-03
   12.7500000        -6.72013359E-03
   12.8687496        -6.79322006E-03
   12.9875002        -6.86930073E-03
   13.1062498        -6.94216369E-03
   13.2250004        -7.00703496E-03
   13.3437500        -7.06073828E-03
   13.4624996        -7.10160146E-03
   13.5812502        -7.12915789E-03
   13.6999998        -7.14369537E-03
   13.8187504        -7.14575592E-03
   13.9375000        -7.13566551E-03
   14.0562496        -7.11318618E-03
   14.1750002        -7.07734842E-03
   14.2937498        -7.02650240E-03
   14.4125004        -6.95858058E-03
   14.5312500        -6.87154196E-03
   14.6499996        -6.76392298E-03
   14.7687502        -6.63542422E-03
   14.8874998        -6.48741936E-03
   15.0062504        -6.32331520E-03
   15.1250000        -6.14868198E-03
   15.2437496        -5.97112067E-03
   15.3625002        -5.79984765E-03
   15.4812498        -5.64504415E-03
   15.6000004        -5.51702222E-03
   15.7187500        -5.42530511E-03
   15.8374996        -5.37772058E-03
   15.9562502        -5.37962001E-03
   16.0750008        -5.43330843E-03
   16.1937504        -5.53775672E-03
   16.3125000        -5.68862353E-03
   16.4312496        -5.87858306E-03
   16.5499992        -6.09792257E-03
   16.6687508        -6.33532368E-03
   16.7875004        -6.57874811E-03
   16.9062500        -6.81632012E-03
   17.0249996        -7.03711016E-03
   17.1437492        -7.23174820E-03
   17.2625008        -7.39281252E-03
   17.3812504        -7.51496991E-03
   17.5000000        -7.59489695E-03
   17.6187496        -7.63101177E-03
   17.7374992        -7.62309367E-03
   17.8562508        -7.57186487E-03
   17.9750004        -7.47861015E-03
   18.0937500        -7.34490855E-03
   18.2124996        -7.17250863E-03
   18.3312492        -6.96337316E-03
   18.4500008        -6.71987562E-03
   18.5687504        -6.44509541E-03
   18.6875000        -6.14316296E-03
   18.8062496        -5.81956655E-03
   18.9249992        -5.48135443E-03
   19.0437508        -5.13716415E-03
   19.1625004        -4.79704840E-03
   19.2812500        -4.47207922E-03
   19.3999996        -4.17375518E-03
   19.5187492        -3.91326612E-03
   19.6375008        -3.70068406E-03
   19.7562504        -3.54417111E-03
   19.8750000        -3.44929798E-03
   19.9937496        -3.41854943E-03
   20.1124992        -3.45108286E-03
   20.2312508        -3.54276947E-03
   20.3500004        -3.68652120E-03
   20.4687500        -3.87286535E-03
   20.5874996        -4.09070821E-03
   20.7062492        -4.32819687E-03
   20.8250008        -4.57359385E-03
   20.9437504        -4.81605856E-03
   21.0625000        -5.04627312E-03
   21.1812496        -5.25684468E-03
   21.2999992        -5.44247217E-03
   21.4187508        -5.59987780E-03
   21.5375004        -5.72754862E-03
   21.6562500        -5.82534680E-03
   21.7749996        -5.89406444E-03
   21.8937492        -5.93499560E-03
   22.0125008        -5.94960013E-03
   22.1312504        -5.93929971E-03
   22.2500000        -5.90543449E-03
   22.3687496        -5.84937353E-03
   22.4874992        -5.77274896E-03
   22.6062508        -5.67775732E-03
   22.7250004        -5.56746172E-03
   22.8437500        -5.44602983E-03
   22.9624996        -5.31883491E-03
   23.0812492        -5.19238552E-03
   23.2000008        -5.07405540E-03
   23.3187504        -4.97162994E-03
   23.4375000        -4.89270967E-03
   23.5562496        -4.84403083E-03
   23.6749992        -4.83079115E-03
   23.7937508        -4.85606352E-03
   23.9125004        -4.92038066E-03
   24.0312500        -5.02154604E-03
   24.1499996        -5.15471492E-03
   24.2687492        -5.31273708E-03
   24.3875008        -5.48673514E-03
   24.5062504        -5.66685619E-03
   24.6250000        -5.84310945E-03
   24.7437496        -6.00620359E-03
   24.8624992        -6.14828663E-03
   24.9812508        -6.26350334E-03
   25.1000004        -6.34832447E-03
   25.2187500        -6.40160404E-03
   25.3374996        -6.42439071E-03
   25.4562492        -6.41950872E-03
   25.5750008        -6.39099441E-03
   25.6937504        -6.34345459E-03
   25.8125000        -6.28144573E-03
   25.9312496        -6.20895531E-03
   26.0499992        -6.12904644E-03
   26.1687508        -6.04371168E-03
   26.2875004        -5.95393684E-03
   26.4062500        -5.85995289E-03
   26.5249996        -5.76162059E-03
   26.6437492        -5.65887708E-03
   26.7625008        -5.55216055E-03
   26.8812504        -5.44273807E-03
   27.0000000        -5.33287274E-03
   27.1187496        -5.22579672E-03
   27.2374992        -5.12547931E-03
   27.3562508        -5.03622228E-03
   27.4750004        -4.96212626E-03
   27.5937500        -4.90651466E-03
   27.7124996        -4.87139123E-03
   27.8312492        -4.85702418E-03
   27.9500008        -4.86172084E-03
   28.0687504        -4.88184439E-03
   28.1875000        -4.91208769E-03
   28.3062496        -4.94598458E-03
   28.4249992        -4.97660646E-03
   28.5437508        -4.99736378E-03
   28.6625004        -5.00281667E-03
   28.7812500        -4.98938793E-03
   28.8999996        -4.95589338E-03
   29.0187492        -4.90380777E-03
   29.1375008        -4.83723730E-03
   29.2562504        -4.76258853E-03
   29.3750000        -4.68797050E-03
   29.4937496        -4.62240214E-03
   29.6124992        -4.57491260E-03
   29.7312508        -4.55364725E-03
   29.8500004        -4.56507457E-03
   29.9687500        -4.61339206E-03
   30.0874996        -4.70019132E-03
   30.2062492        -4.82441112E-03
   30.3250008        -4.98257158E-03
   30.4437504        -5.16924961E-03
   30.5625000        -5.37772151E-03
   30.6812496        -5.60068153E-03
   30.7999992        -5.83094079E-03
   30.9187508        -6.06201682E-03
   31.0375004        -6.28854381E-03
   31.1562500        -6.50645792E-03
   31.2749996        -6.71295263E-03
   31.3937492        -6.90623000E-03
   31.5125008        -7.08510540E-03
   31.6312504        -7.24853668E-03
   31.7500000        -7.39517575E-03
   31.8687496        -7.52301933E-03
   31.9874992        -7.62923341E-03
   32.1062508        -7.71018863E-03
   32.2249985        -7.76172429E-03
   32.3437500        -7.77960708E-03
   32.4625015        -7.76014058E-03
   32.5812492        -7.70082697E-03
   32.7000008        -7.60100223E-03
   32.8187485        -7.46233901E-03
   32.9375000        -7.28913816E-03
   33.0562515        -7.08835153E-03
   33.1749992        -6.86930632E-03
   33.2937508        -6.64315047E-03
   33.4124985        -6.42206799E-03
   33.5312500        -6.21833373E-03
   33.6500015        -6.04332332E-03
   33.7687492        -5.90657350E-03
   33.8875008        -5.81500400E-03
   34.0062485        -5.77238668E-03
   34.1250000        -5.77910990E-03
   34.2437515        -5.83226699E-03
   34.3624992        -5.92604978E-03
   34.4812508        -6.05239021E-03
   34.5999985        -6.20177435E-03
   34.7187500        -6.36412669E-03
   34.8375015        -6.52966416E-03
   34.9562492        -6.68962300E-03
   35.0750008        -6.83678687E-03
   35.1937485        -6.96577365E-03
   35.3125000        -7.07306759E-03
   35.4312515        -7.15683401E-03
   35.5499992        -7.21655414E-03
   35.6687508        -7.25257536E-03
   35.7874985        -7.26565020E-03
   35.9062500        -7.25655071E-03
   36.0250015        -7.22582033E-03
   36.1437492        -7.17370259E-03
   36.2625008        -7.10026501E-03
   36.3812485        -7.00568035E-03
   36.5000000        -6.89063128E-03
   36.6187515        -6.75675226E-03
   36.7374992        -6.60703937E-03
   36.8562508        -6.44613709E-03
   36.9749985        -6.28044270E-03
   37.0937500        -6.11798232E-03
   37.2125015        -5.96803613E-03
   37.3312492        -5.84054738E-03
   37.4500008        -5.74536109E-03
   37.5687485        -5.69136674E-03
   37.6875000        -5.68564516E-03
   37.8062515        -5.73272631E-03
   37.9249992        -5.83403651E-03
   38.0437508        -5.98761672E-03
   38.1624985        -6.18814770E-03
   38.2812500        -6.42728200E-03
   38.4000015        -6.69426145E-03
   38.5187492        -6.97673718E-03
   38.6375008        -7.26171769E-03
   38.7562485        -7.53653236E-03
   38.8750000        -7.78971333E-03
   38.9937515        -8.01170617E-03
   39.1124992        -8.19534436E-03
   39.2312508        -8.33605044E-03
   39.3499985        -8.43177550E-03
   39.4687500        -8.48269463E-03
   39.5875015        -8.49073194E-03
   39.7062492        -8.45899433E-03
   39.8250008        -8.39119405E-03
   39.9437485        -8.29115044E-03
   40.0625000        -8.16243887E-03
   40.1812515        -8.00821371E-03
   40.2999992        -7.83123542E-03
   40.4187508        -7.63407396E-03
   40.5374985        -7.41942273E-03
   40.6562500        -7.19048455E-03
   40.7750015        -6.95131859E-03
   40.8937492        -6.70709554E-03
   41.0125008        -6.46418054E-03
   41.1312485        -6.23001950E-03
   41.2500000        -6.01280620E-03
   41.3687515        -5.82096633E-03
   41.4874992        -5.66250365E-03
   41.6062508        -5.54427737E-03
   41.7249985        -5.47131756E-03
   41.8437500        -5.44624543E-03
   41.9625015        -5.46889193E-03
   42.0812492        -5.53616742E-03
   42.2000008        -5.64220734E-03
   42.3187485        -5.77879557E-03
   42.4375000        -5.93602052E-03
   42.5562515        -6.10309700E-03
   42.6749992        -6.26926776E-03
   42.7937508        -6.42468361E-03
   42.9124985        -6.56116335E-03
   43.0312500        -6.67275768E-03
   43.1500015        -6.75606029E-03
   43.2687492        -6.81023858E-03
   43.3875008        -6.83679944E-03
   43.5062485        -6.83913054E-03
   43.6250000        -6.82188384E-03
   43.7437515        -6.79028919E-03
   43.8624992        -6.74948562E-03
   43.9812508        -6.70395093E-03
   44.0999985        -6.65709376E-03
   44.2187500        -6.61105197E-03
   44.3375015        -6.56670379E-03
   44.4562492        -6.52386760E-03
   44.5750008        -6.48166286E-03
   44.6937485        -6.43893983E-03
   44.8125000        -6.39473135E-03
   44.9312515        -6.34863367E-03
   45.0499992        -6.30106218E-03
   45.1687508        -6.25334121E-03
   45.2874985        -6.20760815E-03
   45.4062500        -6.16654893E-03
   45.5250015        -6.13300176E-03
   45.6437492        -6.10949006E-03
   45.7625008        -6.09775353E-03
   45.8812485        -6.09835796E-03
