  -1.50000000         0.00000000    
  -1.38499999         3.96458588E-10
  -1.26999998         2.78689272E-09
  -1.15499997         1.18941363E-08
  -1.03999996         3.92748802E-08
 -0.925000012         1.10639846E-07
 -0.810000002         2.79334472E-07
 -0.694999993         6.49289575E-07
 -0.579999983         1.41085525E-06
 -0.465000004         2.89156583E-06
 -0.349999994         5.62019113E-06
 -0.234999999         1.03959792E-05
 -0.119999997         1.83463508E-05
  -4.99999989E-03     3.09473689E-05
  0.109999999         4.99754096E-05
  0.224999994         7.73591601E-05
  0.340000004         1.14911316E-04
  0.455000013         1.63939345E-04
  0.569999993         2.24761883E-04
  0.685000002         2.96186015E-04
  0.800000012         3.75023956E-04
  0.915000021         4.55739268E-04
   1.02999997         5.30308753E-04
   1.14499998         5.88365190E-04
   1.25999999         6.17653364E-04
   1.37500000         6.04788132E-04
   1.49000001         5.36261708E-04
   1.60500002         3.99606681E-04
   1.72000003         1.84595949E-04
   1.83500004        -1.15653638E-04
   1.95000005        -5.03800926E-04
   2.06500006        -9.77730379E-04
   2.18000007        -1.53040362E-03
   2.29500008        -2.15013884E-03
   2.41000009        -2.82129715E-03
   2.52500010        -3.52530438E-03
   2.64000010        -4.24190704E-03
   2.75500011        -4.95052617E-03
   2.86999989        -5.63157210E-03
   2.98499990        -6.26758905E-03
   3.09999990        -6.84412289E-03
   3.21499991        -7.35023851E-03
   3.32999992        -7.77866924E-03
   3.44499993        -8.12560879E-03
   3.55999994        -8.39022081E-03
   3.67499995        -8.57394654E-03
   3.78999996        -8.67974013E-03
   3.90499997        -8.71133525E-03
   4.01999998        -8.67265649E-03
   4.13500023        -8.56744684E-03
   4.25000000        -8.39916058E-03
   4.36499977        -8.17110110E-03
   4.48000002        -7.88678695E-03
   4.59499979        -7.55044119E-03
   4.71000004        -7.16752047E-03
   4.82499981        -6.74516289E-03
   4.94000006        -6.29246235E-03
   5.05499983        -5.82047692E-03
   5.17000008        -5.34193963E-03
   5.28499985        -4.87066759E-03
   5.40000010        -4.42071073E-03
   5.51499987        -4.00533201E-03
   5.63000011        -3.63592640E-03
   5.74499989        -3.32101551E-03
   5.86000013        -3.06544406E-03
   5.97499990        -2.86988518E-03
   6.09000015        -2.73073604E-03
   6.20499992        -2.64042709E-03
   6.32000017        -2.58813635E-03
   6.43499994        -2.56083393E-03
   6.55000019        -2.54454976E-03
   6.66499996        -2.52573239E-03
   6.78000021        -2.49254261E-03
   6.89499998        -2.43594404E-03
   7.01000023        -2.35046586E-03
   7.12500000        -2.23456183E-03
   7.23999977        -2.09052861E-03
   7.35500002        -1.92400371E-03
   7.46999979        -1.74311781E-03
   7.58500004        -1.55740941E-03
   7.69999981        -1.37664238E-03
   7.81500006        -1.20967615E-03
   7.92999983        -1.06352603E-03
   8.04500008        -9.42726503E-04
   8.15999985        -8.49063916E-04
   8.27499962        -7.81701063E-04
   8.39000034        -7.37656781E-04
   8.50500011        -7.12562178E-04
   8.61999989        -7.01573619E-04
   8.73499966        -7.00307311E-04
   8.85000038        -7.05654791E-04
   8.96500015        -7.16359005E-04
   9.07999992        -7.33262161E-04
   9.19499969        -7.59184302E-04
   9.31000042        -7.98443391E-04
   9.42500019        -8.56077822E-04
   9.53999996        -9.36877390E-04
   9.65499973        -1.04435859E-03
   9.77000046        -1.17983238E-03
   9.88500023        -1.34170544E-03
   10.0000000        -1.52512977E-03
   10.1149998        -1.72207225E-03
   10.2299995        -1.92182418E-03
   10.3450003        -2.11191108E-03
   10.4600000        -2.27930956E-03
   10.5749998        -2.41183676E-03
   10.6899996        -2.49954476E-03
   10.8050003        -2.53595482E-03
   10.9200001        -2.51896796E-03
   11.0349998        -2.45133811E-03
   11.1499996        -2.34063086E-03
   11.2650003        -2.19865981E-03
   11.3800001        -2.04045186E-03
   11.4949999        -1.88285147E-03
   11.6099997        -1.74291548E-03
   11.7250004        -1.63628033E-03
   11.8400002        -1.57568138E-03
   11.9549999        -1.56979403E-03
   12.0699997        -1.62251969E-03
   12.1850004        -1.73279282E-03
   12.3000002        -1.89491734E-03
   12.4150000        -2.09938083E-03
   12.5299997        -2.33403663E-03
   12.6450005        -2.58550071E-03
   12.7600002        -2.84059113E-03
   12.8750000        -3.08763026E-03
   12.9899998        -3.31745879E-03
   13.1049995        -3.52404616E-03
   13.2200003        -3.70463938E-03
   13.3350000        -3.85945314E-03
   13.4499998        -3.99096729E-03
   13.5649996        -4.10294533E-03
   13.6800003        -4.19932650E-03
   13.7950001        -4.28316090E-03
   13.9099998        -4.35574539E-03
   14.0249996        -4.41609882E-03
   14.1400003        -4.46085352E-03
   14.2550001        -4.48460178E-03
   14.3699999        -4.48065111E-03
   14.4849997        -4.44210414E-03
   14.6000004        -4.36311495E-03
   14.7150002        -4.24015336E-03
   14.8299999        -4.07309877E-03
   14.9449997        -3.86600499E-03
   15.0600004        -3.62740178E-03
   15.1750002        -3.37007432E-03
   15.2900000        -3.11030750E-03
   15.4049997        -2.86665722E-03
   15.5200005        -2.65837181E-03
   15.6350002        -2.50362931E-03
   15.7500000        -2.41778605E-03
   15.8649998        -2.41183047E-03
   15.9799995        -2.49122130E-03
   16.0949993        -2.65524327E-03
   16.2099991        -2.89695314E-03
   16.3250008        -3.20372917E-03
   16.4400005        -3.55835585E-03
   16.5550003        -3.94052966E-03
   16.6700001        -4.32860851E-03
   16.7849998        -4.70142020E-03
   16.8999996        -5.03992336E-03
   17.0149994        -5.32855466E-03
   17.1299992        -5.55612519E-03
   17.2450008        -5.71619160E-03
   17.3600006        -5.80689637E-03
   17.4750004        -5.83032938E-03
   17.5900002        -5.79152908E-03
   17.7049999        -5.69727179E-03
   17.8199997        -5.55483205E-03
   17.9349995        -5.37087768E-03
   18.0499992        -5.15064923E-03
   18.1650009        -4.89753345E-03
   18.2800007        -4.61306330E-03
   18.3950005        -4.29734634E-03
   18.5100002        -3.94983357E-03
   18.6250000        -3.57031031E-03
   18.7399998        -3.15995794E-03
   18.8549995        -2.72230967E-03
   18.9699993        -2.26395018E-03
   19.0849991        -1.79483450E-03
   19.2000008        -1.32814527E-03
   19.3150005        -8.79672705E-04
   19.4300003        -4.66765050E-04
   19.5450001        -1.06949126E-04
   19.6599998         1.83626427E-04
   19.7749996         3.91749549E-04
   19.8899994         5.08520519E-04
   20.0049992         5.30378777E-04
   20.1200008         4.59651637E-04
   20.2350006         3.04548535E-04
   20.3500004         7.85904558E-05
   20.4650002        -2.00473456E-04
   20.5799999        -5.12149360E-04
   20.6949997        -8.34925158E-04
   20.8099995        -1.14805554E-03
   20.9249992        -1.43321732E-03
   21.0400009        -1.67586445E-03
   21.1550007        -1.86614948E-03
   21.2700005        -1.99933024E-03
   21.3850002        -2.07564468E-03
   21.5000000        -2.09969305E-03
   21.6149998        -2.07942841E-03
   21.7299995        -2.02489435E-03
   21.8449993        -1.94687501E-03
   21.9599991        -1.85562379E-03
   22.0750008        -1.75982423E-03
   22.1900005        -1.66589441E-03
   22.3050003        -1.57770095E-03
   22.4200001        -1.49669277E-03
   22.5349998        -1.42240513E-03
   22.6499996        -1.35323906E-03
   22.7649994        -1.28738384E-03
   22.8799992        -1.22373609E-03
   22.9950008        -1.16266927E-03
   23.1100006        -1.10653031E-03
   23.2250004        -1.05978304E-03
   23.3400002        -1.02876208E-03
   23.4549999        -1.02105748E-03
   23.5699997        -1.04460667E-03
   23.6849995        -1.10660330E-03
   23.7999992        -1.21236930E-03
   23.9150009        -1.36433961E-03
   24.0300007        -1.56130211E-03
   24.1450005        -1.79800426E-03
   24.2600002        -2.06519780E-03
   24.3750000        -2.35013757E-03
   24.4899998        -2.63749622E-03
   24.6049995        -2.91060656E-03
   24.7199993        -3.15290084E-03
   24.8349991        -3.34939035E-03
   24.9500008        -3.48802772E-03
   25.0650005        -3.56079615E-03
   25.1800003        -3.56441317E-03
   25.2950001        -3.50057078E-03
   25.4099998        -3.37569159E-03
   25.5249996        -3.20023904E-03
   25.6399994        -2.98765907E-03
   25.7549992        -2.75308453E-03
   25.8700008        -2.51194392E-03
   25.9850006        -2.27863225E-03
   26.1000004        -2.06538499E-03
   26.2150002        -1.88146613E-03
   26.3299999        -1.73274137E-03
   26.4449997        -1.62165961E-03
   26.5599995        -1.54761330E-03
   26.6749992        -1.50760496E-03
   26.7900009        -1.49711512E-03
   26.9050007        -1.51104212E-03
   27.0200005        -1.54458825E-03
   27.1350002        -1.59397395E-03
   27.2500000        -1.65689492E-03
   27.3649998        -1.73267163E-03
   27.4799995        -1.82208756E-03
   27.5949993        -1.92695204E-03
   27.7099991        -2.04946473E-03
   27.8250008        -2.19148095E-03
   27.9400005        -2.35379441E-03
   28.0550003        -2.53554434E-03
   28.1700001        -2.73384457E-03
   28.2849998        -2.94369506E-03
   28.3999996        -3.15820356E-03
   28.5149994        -3.36909946E-03
   28.6299992        -3.56748444E-03
   28.7450008        -3.74473608E-03
   28.8600006        -3.89344851E-03
   28.9750004        -4.00829641E-03
   29.0900002        -4.08671563E-03
   29.2049999        -4.12930688E-03
   29.3199997        -4.13990999E-03
   29.4349995        -4.12532734E-03
   29.5499992        -4.09472641E-03
   29.6650009        -4.05877177E-03
   29.7800007        -4.02859272E-03
   29.8950005        -4.01468528E-03
   30.0100002        -4.02587233E-03
   30.1250000        -4.06843005E-03
   30.2399998        -4.14546859E-03
   30.3549995        -4.25662752E-03
   30.4699993        -4.39811219E-03
   30.5849991        -4.56305081E-03
   30.7000008        -4.74213576E-03
   30.8150005        -4.92445566E-03
   30.9300003        -5.09844394E-03
   31.0450001        -5.25282789E-03
   31.1599998        -5.37748868E-03
   31.2749996        -5.46415430E-03
   31.3899994        -5.50686615E-03
   31.5049992        -5.50219323E-03
   31.6200008        -5.44920051E-03
   31.7350006        -5.34920162E-03
   31.8500004        -5.20535419E-03
   31.9650002        -5.02215885E-03
   32.0800018        -4.80494741E-03
   32.1949997        -4.55941632E-03
   32.3100014        -4.29126294E-03
   32.4249992        -4.00596252E-03
   32.5400009        -3.70869087E-03
   32.6549988        -3.40438099E-03
   32.7700005        -3.09788343E-03
   32.8849983        -2.79417820E-03
   33.0000000        -2.49858829E-03
   33.1150017        -2.21693702E-03
   33.2299995        -1.95560534E-03
   33.3450012        -1.72145828E-03
   33.4599991        -1.52162695E-03
   33.5750008        -1.36315566E-03
   33.6899986        -1.25253981E-03
   33.8050003        -1.19520188E-03
   33.9199982        -1.19495718E-03
   34.0349998        -1.25353225E-03
   34.1500015        -1.37019053E-03
   34.2649994        -1.54151453E-03
   34.3800011        -1.76137709E-03
   34.4949989        -2.02111597E-03
   34.6100006        -2.30990420E-03
   34.7249985        -2.61529419E-03
   34.8400002        -2.92388885E-03
   34.9550018        -3.22208973E-03
   35.0699997        -3.49686085E-03
   35.1850014        -3.73645034E-03
   35.2999992        -3.93101526E-03
   35.4150009        -4.07310855E-03
   35.5299988        -4.15800186E-03
   35.6450005        -4.18382883E-03
   35.7599983        -4.15155524E-03
   35.8750000        -4.06478858E-03
   35.9900017        -3.92945763E-03
   36.1049995        -3.75339412E-03
   36.2200012        -3.54585215E-03
   36.3349991        -3.31700314E-03
   36.4500008        -3.07743833E-03
   36.5649986        -2.83770240E-03
   36.6800003        -2.60788109E-03
   36.7949982        -2.39725132E-03
   36.9099998        -2.21399916E-03
   37.0250015        -2.06500501E-03
   37.1399994        -1.95569056E-03
   37.2550011        -1.88992009E-03
   37.3699989        -1.86995056E-03
   37.4850006        -1.89642096E-03
   37.5999985        -1.96837937E-03
   37.7150002        -2.08334299E-03
   37.8300018        -2.23738863E-03
   37.9449997        -2.42527784E-03
   38.0600014        -2.64060916E-03
   38.1749992        -2.87600514E-03
   38.2900009        -3.12332413E-03
   38.4049988        -3.37389694E-03
   38.5200005        -3.61878611E-03
   38.6349983        -3.84905376E-03
   38.7500000        -4.05603787E-03
   38.8650017        -4.23162896E-03
   38.9799995        -4.36853291E-03
   39.0950012        -4.46052663E-03
   39.2099991        -4.50268714E-03
   39.3250008        -4.49159555E-03
   39.4399986        -4.42550890E-03
   39.5550003        -4.30449145E-03
   39.6699982        -4.13049851E-03
   39.7849998        -3.90740391E-03
   39.9000015        -3.64096044E-03
   40.0149994        -3.33868689E-03
   40.1300011        -3.00967437E-03
   40.2449989        -2.66430667E-03
   40.3600006        -2.31389655E-03
   40.4749985        -1.97024830E-03
   40.5900002        -1.64515909E-03
   40.7050018        -1.34988257E-03
   40.8199997        -1.09458552E-03
   40.9350014        -8.87829170E-04
   41.0499992        -7.36115908E-04
   41.1650009        -6.43532199E-04
   41.2799988        -6.11524563E-04
   41.3950005        -6.38827914E-04
   41.5099983        -7.21562421E-04
   41.6250000        -8.53494799E-04
   41.7400017        -1.02645217E-03
   41.8549995        -1.23085664E-03
   41.9700012        -1.45634229E-03
   42.0849991        -1.69240322E-03
   42.2000008        -1.92902086E-03
   42.3149986        -2.15721992E-03
   42.4300003        -2.36950768E-03
   42.5449982        -2.56016455E-03
   42.6599998        -2.72537069E-03
   42.7750015        -2.86316848E-03
   42.8899994        -2.97327875E-03
   43.0050011        -3.05680465E-03
   43.1199989        -3.11586657E-03
   43.2350006        -3.15321633E-03
   43.3499985        -3.17188003E-03
   43.4650002        -3.17486865E-03
   43.5800018        -3.16498987E-03
   43.6949997        -3.14477016E-03
   43.8100014        -3.11648590E-03
   43.9249992        -3.08228377E-03
   44.0400009        -3.04435659E-03
   44.1549988        -3.00513208E-03
   44.2700005        -2.96743005E-03
   44.3849983        -2.93454365E-03
