  -1.50000000         0.00000000    
  -1.38499999        -2.27227082E-09
  -1.26999998        -9.33601552E-09
  -1.15499997        -2.58457096E-08
  -1.03999996        -6.02124430E-08
 -0.925000012        -1.26361442E-07
 -0.810000002        -2.44156041E-07
 -0.694999993        -4.35258841E-07
 -0.579999983        -7.08987272E-07
 -0.465000004        -1.03099251E-06
 -0.349999994        -1.26802229E-06
 -0.234999999        -1.10655685E-06
 -0.119999997         4.71768224E-08
  -4.99999989E-03     3.16444789E-06
  0.109999999         9.65302388E-06
  0.224999994         2.13341627E-05
  0.340000004         4.02970945E-05
  0.455000013         6.86083731E-05
  0.569999993         1.07883614E-04
  0.685000002         1.58764524E-04
  0.800000012         2.20375528E-04
  0.915000021         2.89852673E-04
   1.02999997         3.62038525E-04
   1.14499998         4.29420266E-04
   1.25999999         4.82355827E-04
   1.37500000         5.09594742E-04
   1.49000001         4.99058282E-04
   1.60500002         4.38806484E-04
   1.72000003         3.18092847E-04
   1.83500004         1.28391446E-04
   1.95000005        -1.35718466E-04
   2.06500006        -4.75911773E-04
   2.18000007        -8.89796822E-04
   2.29500008        -1.37095328E-03
   2.41000009        -1.90933014E-03
   2.52500010        -2.49196216E-03
   2.64000010        -3.10392887E-03
   2.75500011        -3.72945773E-03
   2.86999989        -4.35304968E-03
   2.98499990        -4.96051600E-03
   3.09999990        -5.53982332E-03
   3.21499991        -6.08166540E-03
   3.32999992        -6.57972228E-03
   3.44499993        -7.03059975E-03
   3.55999994        -7.43348524E-03
   3.67499995        -7.78957922E-03
   3.78999996        -8.10140185E-03
   3.90499997        -8.37206934E-03
   4.01999998        -8.60464014E-03
   4.13500023        -8.80162138E-03
   4.25000000        -8.96468852E-03
   4.36499977        -9.09464527E-03
   4.48000002        -9.19161178E-03
   4.59499979        -9.25540738E-03
   4.71000004        -9.28605162E-03
   4.82499981        -9.28429049E-03
   4.94000006        -9.25207604E-03
   5.05499983        -9.19289608E-03
   5.17000008        -9.11191199E-03
   5.28499985        -9.01584234E-03
   5.40000010        -8.91261920E-03
   5.51499987        -8.81081726E-03
   5.63000011        -8.71894509E-03
   5.74499989        -8.64465628E-03
   5.86000013        -8.59399512E-03
   5.97499990        -8.57076515E-03
   6.09000015        -8.57609510E-03
   6.20499992        -8.60828348E-03
   6.32000017        -8.66292790E-03
   6.43499994        -8.73334985E-03
   6.55000019        -8.81126244E-03
   6.66499996        -8.88760854E-03
   6.78000021        -8.95348284E-03
   6.89499998        -9.00103245E-03
   7.01000023        -9.02422238E-03
   7.12500000        -9.01939906E-03
   7.23999977        -8.98558367E-03
   7.35500002        -8.92447121E-03
   7.46999979        -8.84013623E-03
   7.58500004        -8.73849913E-03
   7.69999981        -8.62662029E-03
   7.81500006        -8.51191022E-03
   7.92999983        -8.40134267E-03
   8.04500008        -8.30078498E-03
   8.15999985        -8.21449701E-03
   8.27499962        -8.14486668E-03
   8.39000034        -8.09239410E-03
   8.50500011        -8.05590861E-03
   8.61999989        -8.03298689E-03
   8.73499966        -8.02049041E-03
   8.85000038        -8.01515300E-03
   8.96500015        -8.01412296E-03
   9.07999992        -8.01538769E-03
   9.19499969        -8.01802613E-03
   9.31000042        -8.02224223E-03
   9.42500019        -8.02919455E-03
   9.53999996        -8.04063957E-03
   9.65499973        -8.05844460E-03
   9.77000046        -8.08404759E-03
   9.88500023        -8.11794400E-03
   10.0000000        -8.15928821E-03
   10.1149998        -8.20566155E-03
   10.2299995        -8.25306494E-03
   10.3450003        -8.29614885E-03
   10.4600000        -8.32865294E-03
   10.5749998        -8.34403001E-03
   10.6899996        -8.33615568E-03
   10.8050003        -8.30006693E-03
   10.9200001        -8.23261309E-03
   11.0349998        -8.13295878E-03
   11.1499996        -8.00284557E-03
   11.2650003        -7.84660317E-03
   11.3800001        -7.67087610E-03
   11.4949999        -7.48410216E-03
   11.6099997        -7.29579851E-03
   11.7250004        -7.11572682E-03
   11.8400002        -6.95303408E-03
   11.9549999        -6.81545958E-03
   12.0699997        -6.70869369E-03
   12.1850004        -6.63595926E-03
   12.3000002        -6.59785047E-03
   12.4150000        -6.59243669E-03
   12.5299997        -6.61561498E-03
   12.6450005        -6.66165398E-03
   12.7600002        -6.72385329E-03
   12.8750000        -6.79524941E-03
   12.9899998        -6.86926348E-03
   13.1049995        -6.94023306E-03
   13.2200003        -7.00375997E-03
   13.3350000        -7.05685653E-03
   13.4499998        -7.09788036E-03
   13.5649996        -7.12629268E-03
   13.6800003        -7.14228954E-03
   13.7950001        -7.14637619E-03
   13.9099998        -7.13895215E-03
   14.0249996        -7.11998669E-03
   14.1400003        -7.08883209E-03
   14.2550001        -7.04420684E-03
   14.3699999        -6.98436424E-03
   14.4849997        -6.90741977E-03
   14.6000004        -6.81179017E-03
   14.7150002        -6.69669081E-03
   14.8299999        -6.56260550E-03
   14.9449997        -6.41166326E-03
   15.0600004        -6.24785759E-03
   15.1750002        -6.07705489E-03
   15.2900000        -5.90678025E-03
   15.4049997        -5.74578065E-03
   15.5200005        -5.60340984E-03
   15.6350002        -5.48888138E-03
   15.7500000        -5.41048404E-03
   15.8649998        -5.37482789E-03
   15.9799995        -5.38621610E-03
   16.0949993        -5.44620492E-03
   16.2099991        -5.55340014E-03
   16.3250008        -5.70351724E-03
   16.4400005        -5.88968536E-03
   16.5550003        -6.10297080E-03
   16.6700001        -6.33305172E-03
   16.7849998        -6.56897249E-03
   16.8999996        -6.79989671E-03
   17.0149994        -7.01578800E-03
   17.1299992        -7.20794220E-03
   17.2450008        -7.36934599E-03
   17.3600006        -7.49482960E-03
   17.4750004        -7.58102955E-03
   17.5900002        -7.62619171E-03
   17.7049999        -7.62986112E-03
   17.8199997        -7.59252813E-03
   17.9349995        -7.51528377E-03
   18.0499992        -7.39955250E-03
   18.1650009        -7.24693155E-03
   18.2800007        -7.05916854E-03
   18.3950005        -6.83827326E-03
   18.5100002        -6.58673095E-03
   18.6250000        -6.30778400E-03
   18.7399998        -6.00571465E-03
   18.8549995        -5.68607496E-03
   18.9699993        -5.35580749E-03
   19.0849991        -5.02320705E-03
   19.2000008        -4.69771028E-03
   19.3150005        -4.38950537E-03
   19.4300003        -4.10899008E-03
   19.5450001        -3.86612513E-03
   19.6599998        -3.66974459E-03
   19.7749996        -3.52689228E-03
   19.8899994        -3.44226486E-03
   20.0049992        -3.41781299E-03
   20.1200008        -3.45255644E-03
   20.2350006        -3.54263419E-03
   20.3500004        -3.68158799E-03
   20.4650002        -3.86084965E-03
   20.5799999        -4.07038815E-03
   20.6949997        -4.29944135E-03
   20.8099995        -4.53726295E-03
   20.9249992        -4.77380771E-03
   21.0400009        -5.00028953E-03
   21.1550007        -5.20956889E-03
   21.2700005        -5.39634051E-03
   21.3850002        -5.55712823E-03
   21.5000000        -5.69010619E-03
   21.6149998        -5.79479663E-03
   21.7299995        -5.87169640E-03
   21.8449993        -5.92189701E-03
   21.9599991        -5.94675634E-03
   22.0750008        -5.94766531E-03
   22.1900005        -5.92593942E-03
   22.3050003        -5.88284433E-03
   22.4200001        -5.81973884E-03
   22.5349998        -5.73830027E-03
   22.6499996        -5.64078940E-03
   22.7649994        -5.53029403E-03
   22.8799992        -5.41090127E-03
   22.9950008        -5.28774364E-03
   23.1100006        -5.16690174E-03
   23.2250004        -5.05513651E-03
   23.3400002        -4.95948410E-03
   23.4549999        -4.88673104E-03
   23.5699997        -4.84283641E-03
   23.6849995        -4.83236462E-03
   23.7999992        -4.85799415E-03
   23.9150009        -4.92016692E-03
   24.0300007        -5.01693506E-03
   24.1450005        -5.14401449E-03
   24.2600002        -5.29506849E-03
   24.3750000        -5.46218082E-03
   24.4899998        -5.63648017E-03
   24.6049995        -5.80884889E-03
   24.7199993        -5.97064150E-03
   24.8349991        -6.11434132E-03
   24.9500008        -6.23407820E-03
   25.0650005        -6.32597180E-03
   25.1800003        -6.38825353E-03
   25.2950001        -6.42117718E-03
   25.4099998        -6.42673112E-03
   25.5249996        -6.40820200E-03
   25.6399994        -6.36964524E-03
   25.7549992        -6.31533889E-03
   25.8700008        -6.24928530E-03
   25.9850006        -6.17482513E-03
   26.1000004        -6.09440356E-03
   26.2150002        -6.00951770E-03
   26.3299999        -5.92082599E-03
   26.4449997        -5.82840666E-03
   26.5599995        -5.73210791E-03
   26.6749992        -5.63193019E-03
   26.7900009        -5.52837458E-03
   26.9050007        -5.42270206E-03
   27.0200005        -5.31705189E-03
   27.1350002        -5.21439733E-03
   27.2500000        -5.11833373E-03
   27.3649998        -5.03272656E-03
   27.4799995        -4.96125873E-03
   27.5949993        -4.90693981E-03
   27.7099991        -4.87164594E-03
   27.8250008        -4.85575711E-03
   27.9400005        -4.85794991E-03
   28.0550003        -4.87518590E-03
   28.1700001        -4.90290998E-03
   28.2849998        -4.93545085E-03
   28.3999996        -4.96658264E-03
   28.5149994        -4.99019027E-03
   28.6299992        -5.00096427E-03
   28.7450008        -4.99504432E-03
   28.8600006        -4.97052725E-03
   28.9750004        -4.92778374E-03
   29.0900002        -4.86953836E-03
   29.2049999        -4.80069965E-03
   29.3199997        -4.72794939E-03
   29.4349995        -4.65914188E-03
   29.5499992        -4.60257707E-03
   29.6650009        -4.56622243E-03
   29.7800007        -4.55697579E-03
   29.8950005        -4.58004512E-03
   30.0100002        -4.63851076E-03
   30.1250000        -4.73311450E-03
   30.2399998        -4.86228801E-03
   30.3549995        -5.02240844E-03
   30.4699993        -5.20823756E-03
   30.5849991        -5.41349081E-03
   30.7000008        -5.63145475E-03
   30.8150005        -5.85557753E-03
   30.9300003        -6.07996248E-03
   31.0450001        -6.29971363E-03
   31.1599998        -6.51109032E-03
   31.2749996        -6.71147648E-03
   31.3899994        -6.89917710E-03
   31.5049992        -7.07308855E-03
   31.6200008        -7.23230233E-03
   31.7350006        -7.37571530E-03
   31.8500004        -7.50170927E-03
   31.9650002        -7.60796759E-03
   32.0800018        -7.69145461E-03
   32.1949997        -7.74858659E-03
   32.3100014        -7.77557399E-03
   32.4249992        -7.76889781E-03
   32.5400009        -7.72586418E-03
   32.6549988        -7.64516369E-03
   32.7700005        -7.52735091E-03
   32.8849983        -7.37518491E-03
   33.0000000        -7.19376327E-03
   33.1150017        -6.99041970E-03
   33.2299995        -6.77438453E-03
   33.3450012        -6.55622175E-03
   33.4599991        -6.34709978E-03
   33.5750008        -6.15796680E-03
   33.6899986        -5.99870877E-03
   33.8050003        -5.87738352E-03
   33.9199982        -5.79960598E-03
   34.0349998        -5.76815009E-03
   34.1500015        -5.78280259E-03
   34.2649994        -5.84048359E-03
   34.3800011        -5.93561260E-03
   34.4949989        -6.06067758E-03
   34.6100006        -6.20693481E-03
   34.7249985        -6.36516605E-03
   34.8400002        -6.52640965E-03
   34.9550018        -6.68258732E-03
   35.0699997        -6.82697119E-03
   35.1850014        -6.95444737E-03
   35.2999992        -7.06157554E-03
   35.4150009        -7.14645674E-03
   35.5299988        -7.20844651E-03
   35.6450005        -7.24777952E-03
   35.7599983        -7.26516871E-03
   35.8750000        -7.26144668E-03
   35.9900017        -7.23730586E-03
   36.1049995        -7.19317887E-03
   36.2200012        -7.12927524E-03
   36.3349991        -7.04576308E-03
   36.4500008        -6.94306940E-03
   36.5649986        -6.82224706E-03
   36.6800003        -6.68534543E-03
   36.7949982        -6.53571449E-03
   36.9099998        -6.37819385E-03
   37.0250015        -6.21912535E-03
   37.1399994        -6.06617378E-03
   37.2550011        -5.92794642E-03
   37.3699989        -5.81344636E-03
   37.4850006        -5.73139498E-03
   37.5999985        -5.68949943E-03
   37.7150002        -5.69374580E-03
   37.8300018        -5.74778672E-03
   37.9449997        -5.85250463E-03
   38.0600014        -6.00580126E-03
   38.1749992        -6.20263722E-03
   38.2900009        -6.43532956E-03
   38.4049988        -6.69408124E-03
   38.5200005        -6.96767867E-03
   38.6349983        -7.24429544E-03
   38.7500000        -7.51232123E-03
   38.8650017        -7.76112545E-03
   38.9799995        -7.98168872E-03
   39.0950012        -8.16704798E-03
   39.2099991        -8.31252057E-03
   39.3250008        -8.41569994E-03
   39.4399986        -8.47624987E-03
   39.5550003        -8.49553850E-03
   39.6699982        -8.47616605E-03
   39.7849998        -8.42146575E-03
   39.9000015        -8.33503995E-03
   40.0149994        -8.22039507E-03
   40.1300011        -8.08070693E-03
   40.2449989        -7.91876484E-03
   40.3600006        -7.73705170E-03
   40.4749985        -7.53796520E-03
   40.5900002        -7.32411863E-03
   40.7050018        -7.09865894E-03
   40.8199997        -6.86554937E-03
   40.9350014        -6.62974454E-03
   41.0499992        -6.39722124E-03
   41.1650009        -6.17484096E-03
   41.2799988        -5.97003382E-03
   41.3950005        -5.79033885E-03
   41.5099983        -5.64283831E-03
   41.6250000        -5.53354435E-03
   41.7400017        -5.46682486E-03
   41.8549995        -5.44492062E-03
   41.9700012        -5.46762627E-03
   42.0849991        -5.53217623E-03
   42.2000008        -5.63336397E-03
   42.3149986        -5.76388370E-03
   42.4300003        -5.91486972E-03
   42.5449982        -6.07658271E-03
   42.6599998        -6.23917114E-03
   42.7750015        -6.39343308E-03
   42.8899994        -6.53149094E-03
   43.0050011        -6.64732652E-03
   43.1199989        -6.73710881E-03
   43.2350006        -6.79930206E-03
   43.3499985        -6.83454331E-03
   43.4650002        -6.84531685E-03
   43.5800018        -6.83547417E-03
   43.6949997        -6.80966908E-03
   43.8100014        -6.77276170E-03
   43.9249992        -6.72927918E-03
   44.0400009        -6.68298174E-03
   44.1549988        -6.63658325E-03
   44.2700005        -6.59164460E-03
   44.3849983        -6.54864497E-03
