  -1.50000000       0.00000000    
  -1.38499999      -5.62189961E-10
  -1.26999998      -1.97930450E-09
  -1.15499997      -4.28628111E-09
  -1.03999996      -6.68263045E-09
 -0.925000012      -5.96321792E-09
 -0.810000002       7.20787696E-09
 -0.694999993       5.60866766E-08
 -0.579999983       1.92296795E-07
 -0.465000004       5.19654520E-07
 -0.349999994       1.22890935E-06
 -0.234999999       2.64174764E-06
 -0.119999997       5.25705082E-06
  -4.99999989E-03   9.78570915E-06
  0.109999999       1.71544125E-05
  0.224999994       2.84565576E-05
  0.340000004       4.48322608E-05
  0.455000013       6.72706010E-05
  0.569999993       9.63437124E-05
  0.685000002       1.31901383E-04
  0.800000012       1.72770451E-04
  0.915000021       2.16512402E-04
   1.02999997       2.59291584E-04
   1.14499998       2.95895676E-04
   1.25999999       3.19930899E-04
   1.37500000       3.24191322E-04
   1.49000001       3.01176246E-04
   1.60500002       2.43708448E-04
   1.72000003       1.45589569E-04
   1.83500004       2.22181120E-06
   1.95000005      -1.88875449E-04
   2.06500006      -4.27713298E-04
   2.18000007      -7.11689005E-04
   2.29500008      -1.03566877E-03
   2.41000009      -1.39229337E-03
   2.52500010      -1.77247450E-03
   2.64000010      -2.16603116E-03
   2.75500011      -2.56239879E-03
   2.86999989      -2.95133865E-03
   2.98499990      -3.32357315E-03
   3.09999990      -3.67128802E-03
   3.21499991      -3.98845645E-03
   3.32999992      -4.27096430E-03
   3.44499993      -4.51653916E-03
   3.55999994      -4.72451141E-03
   3.67499995      -4.89545614E-03
   3.78999996      -5.03076660E-03
   3.90499997      -5.13223466E-03
   4.01999998      -5.20169036E-03
   4.13500023      -5.24074724E-03
   4.25000000      -5.25069144E-03
   4.36499977      -5.23250783E-03
   4.48000002      -5.18704392E-03
   4.59499979      -5.11526270E-03
   4.71000004      -5.01854625E-03
   4.82499981      -4.89898724E-03
   4.94000006      -4.75961342E-03
   5.05499983      -4.60449886E-03
   5.17000008      -4.43873322E-03
   5.28499985      -4.26822621E-03
   5.40000010      -4.09937277E-03
   5.51499987      -3.93859530E-03
   5.63000011      -3.79182352E-03
   5.74499989      -3.66396806E-03
   5.86000013      -3.55845341E-03
   5.97499990      -3.47687164E-03
   6.09000015      -3.41880508E-03
   6.20499992      -3.38184671E-03
   6.32000017      -3.36182443E-03
   6.43499994      -3.35320691E-03
   6.55000019      -3.34965414E-03
   6.66499996      -3.34464689E-03
   6.78000021      -3.33213015E-03
   6.89499998      -3.30709573E-03
   7.01000023      -3.26604024E-03
   7.12500000      -3.20724957E-03
   7.23999977      -3.13088275E-03
   7.35500002      -3.03884991E-03
   7.46999979      -2.93450360E-03
   7.58500004      -2.82219145E-03
   7.69999981      -2.70672305E-03
   7.81500006      -2.59281951E-03
   7.92999983      -2.48461613E-03
   8.04500008      -2.38527288E-03
   8.15999985      -2.29673879E-03
   8.27499962      -2.21969257E-03
   8.39000034      -2.15365831E-03
   8.50500011      -2.09726859E-03
   8.61999989      -2.04863516E-03
   8.73499966      -2.00576708E-03
   8.85000038      -1.96697190E-03
   8.96500015      -1.93118083E-03
   9.07999992      -1.89815031E-03
   9.19499969      -1.86850631E-03
   9.31000042      -1.84362684E-03
   9.42500019      -1.82537665E-03
   9.53999996      -1.81573106E-03
   9.65499973      -1.81634363E-03
   9.77000046      -1.82812021E-03
   9.88500023      -1.85086404E-03
   10.0000000      -1.88304763E-03
   10.1149998      -1.92175282E-03
   10.2299995      -1.96279888E-03
   10.3450003      -2.00105482E-03
   10.4600000      -2.03090534E-03
   10.5749998      -2.04682234E-03
   10.6899996      -2.04397575E-03
   10.8050003      -2.01880862E-03
   10.9200001      -1.96950813E-03
   11.0349998      -1.89631095E-03
   11.1499996      -1.80159765E-03
   11.2650003      -1.68976432E-03
   11.3800001      -1.56687608E-03
   11.4949999      -1.44014030E-03
   11.6099997      -1.31725636E-03
   11.7250004      -1.20571337E-03
   11.8400002      -1.11211615E-03
   11.9549999      -1.04161061E-03
   12.0699997      -9.97472787E-04
   12.1850004      -9.80903045E-04
   12.3000002      -9.91040026E-04
   12.4150000      -1.02518674E-03
   12.5299997      -1.07921264E-03
   12.6450005      -1.14807708E-03
   12.7600002      -1.22640748E-03
   12.8750000      -1.30905677E-03
   12.9899998      -1.39157602E-03
   13.1049995      -1.47054601E-03
   13.2200003      -1.54373457E-03
   13.3350000      -1.61006965E-03
   13.4499998      -1.66944310E-03
   13.5649996      -1.72238657E-03
   13.6800003      -1.76967122E-03
   13.7950001      -1.81190076E-03
   13.9099998      -1.84916169E-03
   14.0249996      -1.88078987E-03
   14.1400003      -1.90529239E-03
   14.2550001      -1.92044419E-03
   14.3699999      -1.92355260E-03
   14.4849997      -1.91185647E-03
   14.6000004      -1.88301073E-03
   14.7150002      -1.83558895E-03
   14.8299999      -1.76953420E-03
   14.9449997      -1.68649119E-03
   15.0600004      -1.58996636E-03
   15.1750002      -1.48528256E-03
   15.2900000      -1.37931725E-03
   15.4049997      -1.28004467E-03
   15.5200005      -1.19592203E-03
   15.6350002      -1.13518164E-03
   15.7500000      -1.10510644E-03
   15.8649998      -1.11136481E-03
   15.9799995      -1.15747994E-03
   16.0949993      -1.24449225E-03
   16.2099991      -1.37084909E-03
   16.3250008      -1.53253437E-03
   16.4400005      -1.72342022E-03
   16.5550003      -1.93579600E-03
   16.6700001      -2.16101552E-03
   16.7849998      -2.39018723E-03
   16.8999996      -2.61483015E-03
   17.0149994      -2.82743084E-03
   17.1299992      -3.02184210E-03
   17.2450008      -3.19349673E-03
   17.3600006      -3.33942496E-03
   17.4750004      -3.45809734E-03
   17.5900002      -3.54912900E-03
   17.7049999      -3.61290155E-03
   17.8199997      -3.65016935E-03
   17.9349995      -3.66170797E-03
   18.0499992      -3.64806363E-03
   18.1650009      -3.60943913E-03
   18.2800007      -3.54573317E-03
   18.3950005      -3.45672551E-03
   18.5100002      -3.34237935E-03
   18.6250000      -3.20321252E-03
   18.7399998      -3.04067484E-03
   18.8549995      -2.85747158E-03
   18.9699993      -2.65777227E-03
   19.0849991      -2.44726008E-03
   19.2000008      -2.23299721E-03
   19.3150005      -2.02310155E-03
   19.4300003      -1.82626361E-03
   19.5450001      -1.65114261E-03
   19.6599998      -1.50570669E-03
   19.7749996      -1.39658782E-03
   19.8899994      -1.32852292E-03
   20.0049992      -1.30394520E-03
   20.1200008      -1.32277270E-03
   20.2350006      -1.38242031E-03
   20.3500004      -1.47803477E-03
   20.4650002      -1.60292920E-03
   20.5799999      -1.74916722E-03
   20.6949997      -1.90823642E-03
   20.8099995      -2.07173522E-03
   20.9249992      -2.23200326E-03
   21.0400009      -2.38262932E-03
   21.1550007      -2.51879357E-03
   21.2700005      -2.63741310E-03
   21.3850002      -2.73709605E-03
   21.5000000      -2.81792157E-03
   21.6149998      -2.88109249E-03
   21.7299995      -2.92851240E-03
   21.8449993      -2.96235504E-03
   21.9599991      -2.98468210E-03
   22.0750008      -2.99716135E-03
   22.1900005      -3.00092087E-03
   22.3050003      -2.99654854E-03
   22.4200001      -2.98423227E-03
   22.5349998      -2.96401000E-03
   22.6499996      -2.93608359E-03
   22.7649994      -2.90114223E-03
   22.8799992      -2.86063738E-03
   22.9950008      -2.81695928E-03
   23.1100006      -2.77347397E-03
   23.2250004      -2.73440359E-03
   23.3400002      -2.70455331E-03
   23.4549999      -2.68890569E-03
   23.5699997      -2.69213272E-03
   23.6849995      -2.71807564E-03
   23.7999992      -2.76926300E-03
   23.9150009      -2.84652412E-03
   24.0300007      -2.94875330E-03
   24.1450005      -3.07285902E-03
   24.2600002      -3.21390876E-03
   24.3750000      -3.36546567E-03
   24.4899998      -3.52008012E-03
   24.6049995      -3.66988755E-03
   24.7199993      -3.80724738E-03
   24.8349991      -3.92535748E-03
   24.9500008      -4.01877519E-03
   25.0650005      -4.08379408E-03
   25.1800003      -4.11863578E-03
   25.2950001      -4.12344607E-03
   25.4099998      -4.10010153E-03
   25.5249996      -4.05185530E-03
   25.6399994      -3.98287829E-03
   25.7549992      -3.89774772E-03
   25.8700008      -3.80095071E-03
   25.9850006      -3.69646517E-03
   26.1000004      -3.58745945E-03
   26.2150002      -3.47614614E-03
   26.3299999      -3.36379115E-03
   26.4449997      -3.25087178E-03
   26.5599995      -3.13734356E-03
   26.6749992      -3.02297273E-03
   26.7900009      -2.90767872E-03
   26.9050007      -2.79182917E-03
   27.0200005      -2.67644296E-03
   27.1350002      -2.56326585E-03
   27.2500000      -2.45470344E-03
   27.3649998      -2.35362002E-03
   27.4799995      -2.26302305E-03
   27.5949993      -2.18568137E-03
   27.7099991      -2.12372630E-03
   27.8250008      -2.07829452E-03
   27.9400005      -2.04926846E-03
   28.0550003      -2.03515473E-03
   28.1700001      -2.03312724E-03
   28.2849998      -2.03924067E-03
   28.3999996      -2.04879581E-03
   28.5149994      -2.05681915E-03
   28.6299992      -2.05860264E-03
   28.7450008      -2.05024122E-03
   28.8600006      -2.02910183E-03
   28.9750004      -1.99416978E-03
   29.0900002      -1.94622530E-03
   29.2049999      -1.88783009E-03
   29.3199997      -1.82312040E-03
   29.4349995      -1.75742875E-03
   29.5499992      -1.69677567E-03
   29.6650009      -1.64728810E-03
   29.7800007      -1.61460799E-03
   29.8950005      -1.60335738E-03
   30.0100002      -1.61671615E-03
   30.1250000      -1.65615662E-03
   30.2399998      -1.72135991E-03
   30.3549995      -1.81031425E-03
   30.4699993      -1.91957783E-03
   30.5849991      -2.04466609E-03
   30.7000008      -2.18051067E-03
   30.8150005      -2.32193363E-03
   30.9300003      -2.46407301E-03
   31.0450001      -2.60271854E-03
   31.1599998      -2.73451512E-03
   31.2749996      -2.85702315E-03
   31.3899994      -2.96864053E-03
   31.5049992      -3.06840730E-03
   31.6200008      -3.15573835E-03
   31.7350006      -3.23012588E-03
   31.8500004      -3.29087139E-03
   31.9650002      -3.33688734E-03
   32.0800018      -3.36661050E-03
   32.1949997      -3.37804295E-03
   32.3100014      -3.36892647E-03
   32.4249992      -3.33702681E-03
   32.5400009      -3.28049902E-03
   32.6549988      -3.19828093E-03
   32.7700005      -3.09046288E-03
   32.8849983      -2.95857666E-03
   33.0000000      -2.80575873E-03
   33.1150017      -2.63675558E-03
   33.2299995      -2.45775422E-03
   33.3450012      -2.27604806E-03
   33.4599991      -2.09956197E-03
   33.5750008      -1.93628669E-03
   33.6899986      -1.79367408E-03
   33.8050003      -1.67806074E-03
   33.9199982      -1.59417721E-03
   34.0349998      -1.54479442E-03
   34.1500015      -1.53054332E-03
   34.2649994      -1.54992240E-03
   34.3800011      -1.59948878E-03
   34.4949989      -1.67420798E-03
   34.6100006      -1.76792056E-03
   34.7249985      -1.87387224E-03
   34.8400002      -1.98525074E-03
   34.9550018      -2.09567230E-03
   35.0699997      -2.19957135E-03
   35.1850014      -2.29246169E-03
   35.2999992      -2.37105135E-03
   35.4150009      -2.43321783E-03
   35.5299988      -2.47786217E-03
   35.6450005      -2.50468124E-03
   35.7599983      -2.51389924E-03
   35.8750000      -2.50600884E-03
   35.9900017      -2.48156255E-03
   36.1049995      -2.44104816E-03
   36.2200012      -2.38486635E-03
   36.3349991      -2.31341179E-03
   36.4500008      -2.22723978E-03
   36.5649986      -2.12729117E-03
   36.6800003      -2.01513385E-03
   36.7949982      -1.89317460E-03
   36.9099998      -1.76480087E-03
   37.0250015      -1.63441524E-03
   37.1399994      -1.50734407E-03
   37.2550011      -1.38961035E-03
   37.3699989      -1.28758536E-03
   37.4850006      -1.20754738E-03
   37.5999985      -1.15519052E-03
   37.7150002      -1.13513181E-03
   37.8300018      -1.15047465E-03
   37.9449997      -1.20247516E-03
   38.0600014      -1.29035220E-03
   38.1749992      -1.41126651E-03
   38.2900009      -1.56047405E-03
   38.4049988      -1.73163984E-03
   38.5200005      -1.91728375E-03
   38.6349983      -2.10930989E-03
   38.7500000      -2.29956745E-03
   38.8650017      -2.48038792E-03
   38.9799995      -2.64504459E-03
   39.0950012      -2.78809783E-03
   39.2099991      -2.90559535E-03
   39.3250008      -2.99512222E-03
   39.4399986      -3.05571221E-03
   39.5550003      -3.08763864E-03
   39.6699982      -3.09213158E-03
   39.7849998      -3.07105854E-03
   39.9000015      -3.02661839E-03
   40.0149994      -2.96108751E-03
   40.1300011      -2.87664682E-03
   40.2449989      -2.77531007E-03
   40.3600006      -2.65895040E-03
   40.4749985      -2.52941041E-03
   40.5900002      -2.38867151E-03
   40.7050018      -2.23903940E-03
   40.8199997      -2.08331319E-03
   40.9350014      -1.92489161E-03
   41.0499992      -1.76779414E-03
   41.1650009      -1.61657401E-03
   41.2799988      -1.47612311E-03
   41.3950005      -1.35138177E-03
   41.5099983      -1.24698190E-03
   41.6250000      -1.16686046E-03
   41.7400017      -1.11389160E-03
   41.8549995      -1.08957977E-03
   41.9700012      -1.09385711E-03
   42.0849991      -1.12501241E-03
   42.2000008      -1.17976801E-03
   42.3149986      -1.25350326E-03
   42.4300003      -1.34060357E-03
   42.5449982      -1.43490441E-03
   42.6599998      -1.53018313E-03
   42.7750015      -1.62064959E-03
   42.8899994      -1.70138536E-03
   43.0050011      -1.76868658E-03
   43.1199989      -1.82028033E-03
   43.2350006      -1.85539410E-03
   43.3499985      -1.87468145E-03
   43.4650002      -1.88001641E-03
   43.5800018      -1.87418936E-03
   43.6949997      -1.86054164E-03
   43.8100014      -1.84258621E-03
   43.9249992      -1.82365696E-03
   44.0400009      -1.80662435E-03
   44.1549988      -1.79370539E-03
   44.2700005      -1.78638205E-03
   44.3849983      -1.78542710E-03
