  -1.50000000        -1.63871759E-18
  -1.38125002        -2.42287834E-09
  -1.26250005        -1.00681667E-08
  -1.14374995        -2.82292945E-08
  -1.02499998        -6.66292337E-08
 -0.906250000        -1.41441461E-07
 -0.787500024        -2.75394967E-07
 -0.668749988        -4.91604737E-07
 -0.550000012        -7.93914694E-07
 -0.431250006        -1.12462601E-06
 -0.312500000        -1.29193552E-06
 -0.193749994        -8.66766413E-07
  -7.50000030E-02     9.37084963E-07
   4.37499993E-02     5.36695097E-06
  0.162499994         1.41702831E-05
  0.281250000         2.95134596E-05
  0.400000006         5.37368651E-05
  0.518750012         8.89332077E-05
  0.637499988         1.36379371E-04
  0.756250024         1.95896777E-04
  0.875000000         2.65248324E-04
  0.993749976         3.39691003E-04
   1.11249995         4.11791843E-04
   1.23125005         4.71579231E-04
   1.35000002         5.07054501E-04
   1.46875000         5.05034579E-04
   1.58749998         4.52246808E-04
   1.70624995         3.36557161E-04
   1.82500005         1.48191437E-04
   1.94375002        -1.19196709E-04
   2.06250000        -4.67741251E-04
   2.18125010        -8.94959841E-04
   2.29999995        -1.39378570E-03
   2.41875005        -1.95303385E-03
   2.53749990        -2.55825417E-03
   2.65625000        -3.19287344E-03
   2.77500010        -3.83949652E-03
   2.89374995        -4.48122388E-03
   3.01250005        -5.10283932E-03
   3.13124990        -5.69174252E-03
   3.25000000        -6.23853970E-03
   3.36875010        -6.73724711E-03
   3.48749995        -7.18511548E-03
   3.60625005        -7.58212619E-03
   3.72499990        -7.93025922E-03
   3.84375000        -8.23265221E-03
   3.96250010        -8.49277154E-03
   4.08125019        -8.71372409E-03
   4.19999981        -8.89779162E-03
   4.31874990        -9.04625375E-03
   4.43750000        -9.15949605E-03
   4.55625010        -9.23737697E-03
   4.67500019        -9.27976985E-03
   4.79374981        -9.28718876E-03
   4.91249990        -9.26137622E-03
   5.03125000        -9.20574740E-03
   5.15000010        -9.12560988E-03
   5.26875019        -9.02809296E-03
   5.38749981        -8.92178155E-03
   5.50624990        -8.81608855E-03
   5.62500000        -8.72042682E-03
   5.74375010        -8.64329282E-03
   5.86250019        -8.59137066E-03
   5.98124981        -8.56878702E-03
   6.09999990        -8.57661571E-03
   6.21875000        -8.61270726E-03
   6.33750010        -8.67187697E-03
   6.45625019        -8.74643959E-03
   6.57499981        -8.82702880E-03
   6.69374990        -8.90361704E-03
   6.81250000        -8.96659587E-03
   6.93125010        -9.00780875E-03
   7.05000019        -9.02138930E-03
   7.16874981        -9.00432654E-03
   7.28749990        -8.95669311E-03
   7.40625000        -8.88149906E-03
   7.52500010        -8.78423266E-03
   7.64375019        -8.67212284E-03
   7.76249981        -8.55325069E-03
   7.88124990        -8.43560975E-03
   8.00000000        -8.32624827E-03
   8.11874962        -8.23059026E-03
   8.23750019        -8.15200713E-03
   8.35624981        -8.09170585E-03
   8.47500038        -8.04889575E-03
   8.59375000        -8.02121963E-03
   8.71249962        -8.00536107E-03
   8.83125019        -7.99772330E-03
   8.94999981        -7.99508765E-03
   9.06875038        -7.99513701E-03
   9.18750000        -7.99677148E-03
   9.30624962        -8.00017640E-03
   9.42500019        -8.00662767E-03
   9.54374981        -8.01808015E-03
   9.66250038        -8.03658646E-03
   9.78125000        -8.06367118E-03
   9.89999962        -8.09972733E-03
   10.0187502        -8.14357027E-03
   10.1374998        -8.19220208E-03
   10.2562504        -8.24085530E-03
   10.3750000        -8.28331336E-03
   10.4937496        -8.31249263E-03
   10.6125002        -8.32121074E-03
   10.7312498        -8.30304530E-03
   10.8500004        -8.25317856E-03
   10.9687500        -8.16910807E-03
   11.0874996        -8.05113185E-03
   11.2062502        -7.90253002E-03
   11.3249998        -7.72941299E-03
   11.4437504        -7.54025765E-03
   11.5625000        -7.34515255E-03
   11.6812496        -7.15487171E-03
   11.8000002        -6.97986037E-03
   11.9187498        -6.82926364E-03
   12.0375004        -6.71010371E-03
   12.1562500        -6.62670424E-03
   12.2749996        -6.58041798E-03
   12.3937502        -6.56967890E-03
   12.5124998        -6.59035798E-03
   12.6312504        -6.63637184E-03
   12.7500000        -6.70044450E-03
   12.8687496        -6.77492982E-03
   12.9875002        -6.85257977E-03
   13.1062498        -6.92717265E-03
   13.2250004        -6.99392054E-03
   13.3437500        -7.04962807E-03
   13.4624996        -7.09260348E-03
   13.5812502        -7.12235412E-03
   13.6999998        -7.13914214E-03
   13.8187504        -7.14347931E-03
   13.9375000        -7.13566178E-03
   14.0562496        -7.11541995E-03
   14.1750002        -7.08175311E-03
   14.2937498        -7.03298254E-03
   14.4125004        -6.96701370E-03
   14.5312500        -6.88178232E-03
   14.6499996        -6.77580805E-03
   14.7687502        -6.64877892E-03
   14.8874998        -6.50206441E-03
   15.0062504        -6.33907458E-03
   15.1250000        -6.16539223E-03
   15.2437496        -5.98863512E-03
   15.3625002        -5.81804523E-03
   15.4812498        -5.66383731E-03
   15.6000004        -5.53635927E-03
   15.7187500        -5.44517301E-03
   15.8374996        -5.39814588E-03
   15.9562502        -5.40066976E-03
   16.0750008        -5.45508647E-03
   16.1937504        -5.56039764E-03
   16.3125000        -5.71228936E-03
   16.4312496        -5.90345543E-03
   16.5499992        -6.12419518E-03
   16.6687508        -6.36319490E-03
   16.7875004        -6.60841120E-03
   16.9062500        -6.84795668E-03
   17.0249996        -7.07088271E-03
   17.1437492        -7.26779271E-03
   17.2625008        -7.43122911E-03
   17.3812504        -7.55582051E-03
   17.5000000        -7.63819739E-03
   17.6187496        -7.67672947E-03
   17.7374992        -7.67114153E-03
   17.8562508        -7.62210134E-03
   17.9750004        -7.53083825E-03
   18.0937500        -7.39887264E-03
   18.2124996        -7.22790044E-03
   18.3312492        -7.01983646E-03
   18.4500008        -6.77700760E-03
   18.5687504        -6.50245883E-03
   18.6875000        -6.20029122E-03
   18.8062496        -5.87597722E-03
   18.9249992        -5.53655950E-03
   19.0437508        -5.19068213E-03
   19.1625004        -4.84841736E-03
   19.2812500        -4.52086702E-03
   19.3999996        -4.21957206E-03
   19.5187492        -3.95577261E-03
   19.6375008        -3.73959891E-03
   19.7562504        -3.57927661E-03
   19.8750000        -3.48044280E-03
   19.9937496        -3.44564882E-03
   20.1124992        -3.47411679E-03
   20.2312508        -3.56177962E-03
   20.3500004        -3.70160397E-03
   20.4687500        -3.88416625E-03
   20.5874996        -4.09841212E-03
   20.7062492        -4.33252193E-03
   20.8250008        -4.57477989E-03
   20.9437504        -4.81436076E-03
   21.0625000        -5.04195178E-03
   21.1812496        -5.25015965E-03
   21.2999992        -5.43367583E-03
   21.4187508        -5.58920903E-03
   21.5375004        -5.71522908E-03
   21.6562500        -5.81157813E-03
   21.7749996        -5.87902498E-03
   21.8937492        -5.91884041E-03
   22.0125008        -5.93245961E-03
   22.1312504        -5.92128048E-03
   22.2500000        -5.88662038E-03
   22.3687496        -5.82982739E-03
   22.4874992        -5.75251505E-03
   22.6062508        -5.65686263E-03
   22.7250004        -5.54592116E-03
   22.8437500        -5.42384945E-03
   22.9624996        -5.29601518E-03
   23.0812492        -5.16892551E-03
   23.2000008        -5.04995650E-03
   23.3187504        -4.94690100E-03
   23.4375000        -4.86736884E-03
   23.5562496        -4.81811073E-03
   23.6749992        -4.80433973E-03
   23.7937508        -4.82914736E-03
   23.9125004        -4.89308266E-03
   24.0312500        -4.99396818E-03
   24.1499996        -5.12697361E-03
   24.2687492        -5.28496178E-03
   24.3875008        -5.45906322E-03
   24.5062504        -5.63942734E-03
   24.6250000        -5.81606291E-03
   24.7437496        -5.97967021E-03
   24.8624992        -6.12238422E-03
   24.9812508        -6.23833248E-03
   25.1000004        -6.32396340E-03
   25.2187500        -6.37810817E-03
   25.3374996        -6.40178937E-03
   25.4562492        -6.39780844E-03
   25.5750008        -6.37017703E-03
   25.6937504        -6.32348191E-03
   25.8125000        -6.26226282E-03
   25.9312496        -6.19049324E-03
   26.0499992        -6.11122791E-03
   26.1687508        -6.02645474E-03
   26.2875004        -5.93715860E-03
   26.4062500        -5.84357139E-03
   26.5249996        -5.74555807E-03
   26.6437492        -5.64306090E-03
   26.7625008        -5.53652458E-03
   26.8812504        -5.42722130E-03
   27.0000000        -5.31741977E-03
   27.1187496        -5.21035772E-03
   27.2374992        -5.11000911E-03
   27.3562508        -5.02067665E-03
   27.4750004        -4.94646467E-03
   27.5937500        -4.89069708E-03
   27.7124996        -4.85537853E-03
   27.8312492        -4.84077679E-03
   27.9500008        -4.84519731E-03
   28.0687504        -4.86500096E-03
   28.1875000        -4.89487639E-03
   28.3062496        -4.92835278E-03
   28.4249992        -4.95849643E-03
   28.5437508        -4.97871265E-03
   28.6625004        -4.98355506E-03
   28.7812500        -4.96944366E-03
   28.8999996        -4.93519241E-03
   29.0187492        -4.88227746E-03
   29.1375008        -4.81481198E-03
   29.2562504        -4.73921373E-03
   29.3750000        -4.66360990E-03
   29.4937496        -4.59704408E-03
   29.6124992        -4.54857666E-03
   29.7312508        -4.52638837E-03
   29.8500004        -4.53698914E-03
   29.9687500        -4.58462117E-03
   30.0874996        -4.67092032E-03
   30.2062492        -4.79486817E-03
   30.3250008        -4.95302305E-03
   30.4437504        -5.13999444E-03
   30.5625000        -5.34908287E-03
   30.6812496        -5.57299471E-03
   30.7999992        -5.80454292E-03
   30.9187508        -6.03723479E-03
   31.0375004        -6.26568124E-03
   31.1562500        -6.48578350E-03
   31.2749996        -6.69469032E-03
   31.3937492        -6.89055072E-03
   31.5125008        -7.07211811E-03
   31.6312504        -7.23828562E-03
   31.7500000        -7.38763763E-03
   31.8687496        -7.51810241E-03
   31.9874992        -7.62677984E-03
   32.1062508        -7.70997722E-03
   32.2249985        -7.76347565E-03
   32.3437500        -7.78299430E-03
   32.4625015        -7.76479160E-03
   32.5812492        -7.70633901E-03
   32.7000008        -7.60695012E-03
   32.8187485        -7.46828923E-03
   32.9375000        -7.29465857E-03
   33.0562515        -7.09302444E-03
   33.1749992        -6.87274290E-03
   33.2937508        -6.64500380E-03
   33.4124985        -6.42204471E-03
   33.5312500        -6.21620426E-03
   33.6500015        -6.03893260E-03
   33.7687492        -5.89984655E-03
   33.8875008        -5.80595247E-03
   34.0062485        -5.76110557E-03
   34.1250000        -5.76577708E-03
   34.2437515        -5.81713580E-03
   34.3624992        -5.90943778E-03
   34.4812508        -6.03466714E-03
   34.5999985        -6.18334394E-03
   34.7187500        -6.34540943E-03
   34.8375015        -6.51107682E-03
   34.9562492        -6.67155860E-03
   35.0750008        -6.81959791E-03
   35.1937485        -6.94975443E-03
   35.3125000        -7.05844257E-03
   35.4312515        -7.14374473E-03
   35.5499992        -7.20505556E-03
   35.6687508        -7.24263350E-03
   35.7874985        -7.25714536E-03
   35.9062500        -7.24928267E-03
   36.0250015        -7.21951853E-03
   36.1437492        -7.16803921E-03
   36.2625008        -7.09486892E-03
   36.3812485        -7.00015388E-03
   36.5000000        -6.88456651E-03
   36.6187515        -6.74974825E-03
   36.7374992        -6.59871846E-03
   36.8562508        -6.43616263E-03
   36.9749985        -6.26853062E-03
   37.0937500        -6.10391423E-03
   37.2125015        -5.95167093E-03
   37.3312492        -5.82183152E-03
   37.4500008        -5.72433136E-03
   37.5687485        -5.66815399E-03
   37.6875000        -5.66047803E-03
   37.8062515        -5.70592517E-03
   37.9249992        -5.80600929E-03
   38.0437508        -5.95884817E-03
   38.1624985        -6.15918543E-03
   38.2812500        -6.39872579E-03
   38.4000015        -6.66673807E-03
   38.5187492        -6.95088459E-03
   38.6375008        -7.23815942E-03
   38.7562485        -7.51585746E-03
   38.8750000        -7.77245592E-03
   38.9937515        -7.99832493E-03
   39.1124992        -8.18620436E-03
   39.2312508        -8.33141524E-03
   39.3499985        -8.43179319E-03
   39.4687500        -8.48739594E-03
   39.5875015        -8.50003213E-03
   39.7062492        -8.47269781E-03
   39.8250008        -8.40900280E-03
   39.9437485        -8.31267796E-03
   40.0625000        -8.18722323E-03
   40.1812515        -8.03573523E-03
   40.2999992        -7.86093716E-03
   40.4187508        -7.66537338E-03
   40.5374985        -7.45173357E-03
   40.6562500        -7.22323032E-03
   40.7750015        -6.98394841E-03
   40.8937492        -6.73909392E-03
   41.0125008        -6.49508229E-03
   41.1312485        -6.25941344E-03
   41.2500000        -6.04034727E-03
   41.3687515        -5.84637839E-03
   41.4874992        -5.68558136E-03
   41.6062508        -5.56489127E-03
   41.7249985        -5.48941176E-03
   41.8437500        -5.46183810E-03
   41.9625015        -5.48206968E-03
   42.0812492        -5.54708019E-03
   42.2000008        -5.65106282E-03
   42.3187485        -5.78584895E-03
   42.4375000        -5.94156608E-03
   42.5562515        -6.10745512E-03
   42.6749992        -6.27277698E-03
   42.7937508        -6.42768573E-03
   42.9124985        -6.56399503E-03
   43.0312500        -6.67574024E-03
   43.1500015        -6.75949035E-03
   43.2687492        -6.81438390E-03
   43.3875008        -6.84189284E-03
   43.5062485        -6.84536994E-03
   43.6250000        -6.82943081E-03
   43.7437515        -6.79927319E-03
   43.8624992        -6.76000677E-03
   43.9812508        -6.71608467E-03
   44.0999985        -6.67089736E-03
   44.2187500        -6.62656780E-03
   44.3375015        -6.58396492E-03
   44.4562492        -6.54290337E-03
   44.5750008        -6.50249701E-03
   44.6937485        -6.46159565E-03
   44.8125000        -6.41922932E-03
   44.9312515        -6.37498777E-03
   45.0499992        -6.32927846E-03
   45.1687508        -6.28341222E-03
   45.2874985        -6.23950828E-03
   45.4062500        -6.20023068E-03
   45.5250015        -6.16839109E-03
   45.6437492        -6.14648033E-03
   45.7625008        -6.13620784E-03
   45.8812485        -6.13810448E-03
