  -1.50000000         7.06721526E-18
  -1.38125002         4.22736124E-10
  -1.26250005         3.07324899E-09
  -1.14374995         1.34065701E-08
  -1.02499998         4.50439437E-08
 -0.906250000         1.28846764E-07
 -0.787500024         3.29829447E-07
 -0.668749988         7.76122704E-07
 -0.550000012         1.70413739E-06
 -0.431250006         3.52187772E-06
 -0.312500000         6.88688715E-06
 -0.193749994         1.27862058E-05
  -7.50000030E-02     2.25941440E-05
   4.37499993E-02     3.80728234E-05
  0.162499994         6.12751610E-05
  0.281250000         9.43150153E-05
  0.400000006         1.38987612E-04
  0.518750012         1.96253779E-04
  0.637499988         2.65638635E-04
  0.756250024         3.44630069E-04
  0.875000000         4.28185158E-04
  0.993749976         5.08457422E-04
   1.11249995         5.74838545E-04
   1.23125005         6.14372198E-04
   1.35000002         6.12543779E-04
   1.46875000         5.54395199E-04
   1.58749998         4.25860606E-04
   1.70624995         2.15178836E-04
   1.82500005        -8.57811756E-05
   1.94375002        -4.80444403E-04
   2.06250000        -9.66841297E-04
   2.18125010        -1.53740123E-03
   2.29999995        -2.17926432E-03
   2.41875005        -2.87508732E-03
   2.53749990        -3.60425538E-03
   2.65625000        -4.34436882E-03
   2.77500010        -5.07283537E-03
   2.89374995        -5.76839503E-03
   3.01250005        -6.41241809E-03
   3.13124990        -6.98984647E-03
   3.25000000        -7.48970220E-03
   3.36875010        -7.90514704E-03
   3.48749995        -8.23312905E-03
   3.60625005        -8.47371668E-03
   3.72499990        -8.62923730E-03
   3.84375000        -8.70337989E-03
   3.96250010        -8.70039780E-03
   4.08125019        -8.62452015E-03
   4.19999981        -8.47967435E-03
   4.31874990        -8.26951303E-03
   4.43750000        -7.99773820E-03
   4.55625010        -7.66863022E-03
   4.67500019        -7.28766620E-03
   4.79374981        -6.86209649E-03
   4.91249990        -6.40133675E-03
   5.03125000        -5.91706857E-03
   5.15000010        -5.42298891E-03
   5.26875019        -4.93418379E-03
   5.38749981        -4.46617417E-03
   5.50624990        -4.03373735E-03
   5.62500000        -3.64963966E-03
   5.74375010        -3.32344160E-03
   5.86250019        -3.06053879E-03
   5.98124981        -2.86158011E-03
   6.09999990        -2.72235204E-03
   6.21875000        -2.63417396E-03
   6.33750010        -2.58477242E-03
   6.45625019        -2.55954708E-03
   6.57499981        -2.54309061E-03
   6.69374990        -2.52077985E-03
   6.81250000        -2.48025870E-03
   6.93125010        -2.41263071E-03
   7.05000019        -2.31322856E-03
   7.16874981        -2.18186900E-03
   7.28749990        -2.02257768E-03
   7.40625000        -1.84283161E-03
   7.52500010        -1.65242713E-03
   7.64375019        -1.46213430E-03
   7.76249981        -1.28231698E-03
   7.88124990        -1.12170517E-03
   8.00000000        -9.86474450E-04
   8.11874962        -8.79747269E-04
   8.23750019        -8.01564951E-04
   8.35624981        -7.49314320E-04
   8.47500038        -7.18526193E-04
   8.59375000        -7.03910657E-04
   8.71249962        -7.00463599E-04
   8.83125019        -7.04466773E-04
   8.94999981        -7.14224298E-04
   9.06875038        -7.30414875E-04
   9.18750000        -7.56000343E-04
   9.30624962        -7.95693893E-04
   9.42500019        -8.55061342E-04
   9.54374981        -9.39384918E-04
   9.66250038        -1.05245900E-03
   9.78125000        -1.19550352E-03
   9.89999962        -1.36637175E-03
   10.0187502        -1.55919057E-03
   10.1374998        -1.76451833E-03
   10.2562504        -1.97003339E-03
   10.3750000        -2.16169027E-03
   10.4937496        -2.32521724E-03
   10.6125002        -2.44776951E-03
   10.7312498        -2.51953304E-03
   10.8500004        -2.53506191E-03
   10.9687500        -2.49417196E-03
   11.0874996        -2.40225391E-03
   11.2062502        -2.26995395E-03
   11.3249998        -2.11223634E-03
   11.4437504        -1.94693508E-03
   11.5625000        -1.79295696E-03
   11.6812496        -1.66835019E-03
   11.8000002        -1.58847182E-03
   11.9187498        -1.56447012E-03
   12.0375004        -1.60226156E-03
   12.1562500        -1.70211925E-03
   12.2749996        -1.85890717E-03
   12.3937502        -2.06291652E-03
   12.5124998        -2.30118120E-03
   12.6312504        -2.55908840E-03
   12.7500000        -2.82207248E-03
   12.8687496        -3.07716709E-03
   12.9875002        -3.31421825E-03
   13.1062498        -3.52661707E-03
   13.2250004        -3.71146924E-03
   13.3437500        -3.86921433E-03
   13.4624996        -4.00277134E-03
   13.5812502        -4.11636196E-03
   13.6999998        -4.21420624E-03
   13.8187504        -4.29929979E-03
   13.9375000        -4.37247055E-03
   14.0562496        -4.43187170E-03
   14.1750002        -4.47300030E-03
   14.2937498        -4.48925653E-03
   14.4125004        -4.47297702E-03
   14.5312500        -4.41680243E-03
   14.6499996        -4.31518489E-03
   14.7687502        -4.16581286E-03
   14.8874998        -3.97073897E-03
   15.0062504        -3.73702357E-03
   15.1250000        -3.47676943E-03
   15.2437496        -3.20650497E-03
   15.3625002        -2.94595119E-03
   15.4812498        -2.71629868E-03
   15.6000004        -2.53818627E-03
   15.7187500        -2.42961198E-03
   15.8374996        -2.40402832E-03
   15.9562502        -2.46885279E-03
   16.0750008        -2.62457156E-03
   16.1937504        -2.86455266E-03
   16.3125000        -3.17559065E-03
   16.4312496        -3.53911705E-03
   16.5499992        -3.93293332E-03
   16.6687508        -4.33325768E-03
   16.7875004        -4.71684523E-03
   16.9062500        -5.06292935E-03
   17.0249996        -5.35477744E-03
   17.1437492        -5.58068557E-03
   17.2625008        -5.73433936E-03
   17.3812504        -5.81453042E-03
   17.5000000        -5.82431955E-03
   17.6187496        -5.76978968E-03
   17.7374992        -5.65860374E-03
   17.8562508        -5.49857644E-03
   17.9750004        -5.29647246E-03
   18.0937500        -5.05720032E-03
   18.2124996        -4.78350976E-03
   18.3312492        -4.47620917E-03
   18.4500008        -4.13487153E-03
   18.5687504        -3.75888566E-03
   18.6875000        -3.34868906E-03
   18.8062496        -2.90697045E-03
   18.9249992        -2.43963767E-03
   19.0437508        -1.95637485E-03
   19.1625004        -1.47066801E-03
   19.2812500        -9.99251264E-04
   19.3999996        -5.61002526E-04
   19.5187492        -1.75404610E-04
   19.6375008         1.39258496E-04
   19.7562504         3.67750356E-04
   19.8750000         4.99546179E-04
   19.9937496         5.30098914E-04
   20.1124992         4.61537828E-04
   20.2312508         3.02700355E-04
   20.3500004         6.84763654E-05
   20.4687500        -2.21468668E-04
   20.5874996        -5.44451235E-04
   20.7062492        -8.76808481E-04
   20.8250008        -1.19598641E-03
   20.9437504        -1.48244284E-03
   21.0625000        -1.72115793E-03
   21.1812496        -1.90259400E-03
   21.2999992        -2.02302285E-03
   21.4187508        -2.08421121E-03
   21.5375004        -2.09254329E-03
   21.6562500        -2.05771625E-03
   21.7749996        -1.99120003E-03
   21.8937492        -1.90467387E-03
   22.0125008        -1.80863729E-03
   22.1312504        -1.71137380E-03
   22.2500000        -1.61837705E-03
   22.3687496        -1.53228745E-03
   22.4874992        -1.45331223E-03
   22.6062508        -1.38002948E-03
   22.7250004        -1.31043093E-03
   22.8437500        -1.24301866E-03
   22.9624996        -1.17777358E-03
   23.0812492        -1.11683062E-03
   23.2000008        -1.06474187E-03
   23.3187504        -1.02827267E-03
   23.4375000        -1.01574184E-03
   23.5562496        -1.03598798E-03
   23.6749992        -1.09709962E-03
   23.7937508        -1.20508496E-03
   23.9125004        -1.36267184E-03
   24.0312500        -1.56841427E-03
   24.1499996        -1.81624806E-03
   24.2687492        -2.09557824E-03
   24.3875008        -2.39191880E-03
   24.5062504        -2.68802489E-03
   24.6250000        -2.96540372E-03
   24.7437496        -3.20602977E-03
   24.8624992        -3.39406705E-03
   24.9812508        -3.51740187E-03
   25.1000004        -3.56879993E-03
   25.2187500        -3.54656042E-03
   25.3374996        -3.45459301E-03
   25.4562492        -3.30191897E-03
   25.5750008        -3.10166157E-03
   25.6937504        -2.86965957E-03
   25.8125000        -2.62286980E-03
   25.9312496        -2.37775594E-03
   26.0499992        -2.14884640E-03
   26.1687508        -1.94762100E-03
   26.2875004        -1.78183732E-03
   26.4062500        -1.65534765E-03
   26.5249996        -1.56839169E-03
   26.6437492        -1.51828944E-03
   26.7625008        -1.50041177E-03
   26.8812504        -1.50927494E-03
   27.0000000        -1.53959543E-03
   27.1187496        -1.58715877E-03
   27.2374992        -1.64938718E-03
   27.3562508        -1.72553759E-03
   27.4750004        -1.81652314E-03
   27.5937500        -1.92440080E-03
   27.7124996        -2.05161888E-03
   27.8312492        -2.20015342E-03
   27.9500008        -2.37067440E-03
   28.0687504        -2.56188004E-03
   28.1875000        -2.77011213E-03
   28.3062496        -2.98932241E-03
   28.4249992        -3.21141630E-03
   28.5437508        -3.42693785E-03
   28.6625004        -3.62601853E-03
   28.7812500        -3.79946665E-03
   28.8999996        -3.93985771E-03
   29.0187492        -4.04248247E-03
   29.1375008        -4.10602009E-03
   29.2562504        -4.13284265E-03
   29.3750000        -4.12890501E-03
   29.4937496        -4.10321727E-03
   29.6124992        -4.06695902E-03
   29.7312508        -4.03233618E-03
   29.8500004        -4.01130132E-03
   29.9687500        -4.01429879E-03
   30.0874996        -4.04916378E-03
   30.2062492        -4.12029866E-03
   30.3250008        -4.22821846E-03
   30.4437504        -4.36950196E-03
   30.5625000        -4.53713909E-03
   30.6812496        -4.72123316E-03
   30.7999992        -4.90995217E-03
   30.9187508        -5.09062875E-03
   31.0375004        -5.25087072E-03
   31.1562500        -5.37957391E-03
   31.2749996        -5.46772592E-03
   31.3937492        -5.50894067E-03
   31.5125008        -5.49968891E-03
   31.6312504        -5.43922978E-03
   31.7500000        -5.32929832E-03
   31.8687496        -5.17360587E-03
   31.9874992        -4.97725140E-03
   32.1062508        -4.74613439E-03
   32.2249985        -4.48643975E-03
   32.3437500        -4.20426857E-03
   32.4625015        -3.90543928E-03
   32.5812492        -3.59546137E-03
   32.7000008        -3.27966129E-03
   32.8187485        -2.96340417E-03
   32.9375000        -2.65235174E-03
   33.0562515        -2.35268520E-03
   33.1749992        -2.07122834E-03
   33.2937508        -1.81542907E-03
   33.4124985        -1.59316557E-03
   33.5312500        -1.41238444E-03
   33.6500015        -1.28059182E-03
   33.7687492        -1.20425061E-03
   33.8875008        -1.18814630E-03
   34.0062485        -1.23479753E-03
   34.1250000        -1.34398416E-03
   34.2437515        -1.51245459E-03
   34.3624992        -1.73385732E-03
   34.4812508        -1.99891860E-03
   34.5999985        -2.29585893E-03
   34.7187500        -2.61102151E-03
   34.8375015        -2.92965700E-03
   34.9562492        -3.23680067E-03
   35.0750008        -3.51816486E-03
   35.1937485        -3.76097835E-03
   35.3125000        -3.95470159E-03
   35.4312515        -4.09157341E-03
   35.5499992        -4.16695373E-03
   35.6687508        -4.17944975E-03
   35.7874985        -4.13083890E-03
   35.9062500        -4.02580714E-03
   36.0250015        -3.87153565E-03
   36.1437492        -3.67718865E-03
   36.2625008        -3.45334248E-03
   36.3812485        -3.21139325E-03
   36.5000000        -2.96299323E-03
   36.6187515        -2.71953316E-03
   36.7374992        -2.49169348E-03
   36.8562508        -2.28907634E-03
   36.9749985        -2.11991626E-03
   37.0937500        -1.99086801E-03
   37.2125015        -1.90686458E-03
   37.3312492        -1.87103241E-03
   37.4500008        -1.88466161E-03
   37.5687485        -1.94722053E-03
   37.6875000        -2.05641240E-03
   37.8062515        -2.20827153E-03
   37.9249992        -2.39730021E-03
   38.0437508        -2.61664251E-03
   38.1624985        -2.85829627E-03
   38.2812500        -3.11336154E-03
   38.4000015        -3.37231625E-03
   38.5187492        -3.62531794E-03
   38.6375008        -3.86252021E-03
   38.7562485        -4.07439703E-03
   38.8750000        -4.25206311E-03
   38.9937515        -4.38758591E-03
   39.1124992        -4.47428087E-03
   39.2312508        -4.50697588E-03
   39.3499985        -4.48225066E-03
   39.4687500        -4.39862907E-03
   39.5875015        -4.25672485E-03
   39.7062492        -4.05932637E-03
   39.8250008        -3.81140853E-03
   39.9437485        -3.52005963E-03
   40.0625000        -3.19431629E-03
   40.1812515        -2.84489011E-03
   40.2999992        -2.48379586E-03
   40.4187508        -2.12387368E-03
   40.5374985        -1.77823205E-03
   40.6562500        -1.45962869E-03
   40.7750015        -1.17982423E-03
   40.8937492        -9.48954024E-04
   41.0125008        -7.74960034E-04
   41.1312485        -6.63130137E-04
   41.2500000        -6.15789148E-04
   41.3687515        -6.32171170E-04
   41.4874992        -7.08494685E-04
   41.6062508        -8.38241656E-04
   41.7249985        -1.01262424E-03
   41.8437500        -1.22120418E-03
   41.9625015        -1.45261502E-03
   42.0812492        -1.69532397E-03
   42.2000008        -1.93836796E-03
   42.3187485        -2.17199931E-03
   42.4375000        -2.38818629E-03
   42.5562515        -2.58093001E-03
   42.6749992        -2.74638203E-03
   42.7937508        -2.88276258E-03
   42.9124985        -2.99011380E-03
   43.0312500        -3.06992629E-03
   43.1500015        -3.12470086E-03
   43.2687492        -3.15750390E-03
   43.3875008        -3.17157945E-03
   43.5062485        -3.17005743E-03
   43.6250000        -3.15579469E-03
   43.7437515        -3.13135004E-03
   43.8624992        -3.09908180E-03
   43.9812508        -3.06133437E-03
   44.0999985        -3.02066095E-03
   44.2187500        -2.98002991E-03
   44.3375015        -2.94295535E-03
   44.4562492        -2.91351182E-03
   44.5750008        -2.89619877E-03
   44.6937485        -2.89565488E-03
   44.8125000        -2.91623804E-03
   44.9312515        -2.96151941E-03
   45.0499992        -3.03374860E-03
   45.1687508        -3.13336821E-03
   45.2874985        -3.25865159E-03
   45.4062500        -3.40552744E-03
   45.5250015        -3.56763951E-03
   45.6437492        -3.73665756E-03
   45.7625008        -3.90283018E-03
   45.8812485        -4.05573286E-03
