  -1.50000000         7.06721526E-18
  -1.38125002         4.22736124E-10
  -1.26250005         3.07325654E-09
  -1.14374995         1.34066189E-08
  -1.02499998         4.50441249E-08
 -0.906250000         1.28847319E-07
 -0.787500024         3.29830897E-07
 -0.668749988         7.76126228E-07
 -0.550000012         1.70414501E-06
 -0.431250006         3.52189340E-06
 -0.312500000         6.88691807E-06
 -0.193749994         1.27862650E-05
  -7.50000030E-02     2.25942476E-05
   4.37499993E-02     3.80729980E-05
  0.162499994         6.12754520E-05
  0.281250000         9.43154664E-05
  0.400000006         1.38988267E-04
  0.518750012         1.96254739E-04
  0.637499988         2.65639974E-04
  0.756250024         3.44631873E-04
  0.875000000         4.28187603E-04
  0.993749976         5.08460624E-04
   1.11249995         5.74842794E-04
   1.23125005         6.14377670E-04
   1.35000002         6.12550881E-04
   1.46875000         5.54404280E-04
   1.58749998         4.25872160E-04
   1.70624995         2.15193300E-04
   1.82500005        -8.57632840E-05
   1.94375002        -4.80422634E-04
   2.06250000        -9.66815220E-04
   2.18125010        -1.53737050E-03
   2.29999995        -2.17922847E-03
   2.41875005        -2.87504611E-03
   2.53749990        -3.60420789E-03
   2.65625000        -4.34431434E-03
   2.77500010        -5.07277157E-03
   2.89374995        -5.76831913E-03
   3.01250005        -6.41232496E-03
   3.13124990        -6.98973052E-03
   3.25000000        -7.48955365E-03
   3.36875010        -7.90495332E-03
   3.48749995        -8.23287386E-03
   3.60625005        -8.47338047E-03
   3.72499990        -8.62879585E-03
   3.84375000        -8.70280620E-03
   3.96250010        -8.69966112E-03
   4.08125019        -8.62358790E-03
   4.19999981        -8.47851299E-03
   4.31874990        -8.26808810E-03
   4.43750000        -7.99601711E-03
   4.55625010        -7.66658271E-03
   4.67500019        -7.28526665E-03
   4.79374981        -6.85932348E-03
   4.91249990        -6.39817305E-03
   5.03125000        -5.91350161E-03
   5.15000010        -5.41900937E-03
   5.26875019        -4.92978236E-03
   5.38749981        -4.46134061E-03
   5.50624990        -4.02845675E-03
   5.62500000        -3.64388735E-03
   5.74375010        -3.31717939E-03
   5.86250019        -3.05371033E-03
   5.98124981        -2.85410578E-03
   6.09999990        -2.71412614E-03
   6.21875000        -2.62506003E-03
   6.33750010        -2.57460121E-03
   6.45625019        -2.54811672E-03
   6.57499981        -2.53016525E-03
   6.69374990        -2.50609289E-03
   6.81250000        -2.46351468E-03
   6.93125010        -2.39351089E-03
   7.05000019        -2.29139626E-03
   7.16874981        -2.15697684E-03
   7.28749990        -1.99427502E-03
   7.40625000        -1.81077281E-03
   7.52500010        -1.61627983E-03
   7.64375019        -1.42158743E-03
   7.76249981        -1.23708893E-03
   7.88124990        -1.07155053E-03
   8.00000000        -9.31190560E-04
   8.11874962        -8.19179288E-04
   8.23750019        -7.35610083E-04
   8.35624981        -6.77924196E-04
   8.47500038        -6.41707971E-04
   8.59375000        -6.21726562E-04
   8.71249962        -6.13029057E-04
   8.83125019        -6.11946860E-04
   8.94999981        -6.16828678E-04
   9.06875038        -6.28391630E-04
   9.18750000        -6.49628462E-04
   9.30624962        -6.85275067E-04
   9.42500019        -7.40910938E-04
   9.54374981        -8.21822789E-04
   9.66250038        -9.31800285E-04
   9.78125000        -1.07204996E-03
   9.89999962        -1.24040386E-03
   10.0187502        -1.43096049E-03
   10.1374998        -1.63424574E-03
   10.2562504        -1.83790142E-03
   10.3750000        -2.02784524E-03
   10.4937496        -2.18976941E-03
   10.6125002        -2.31079850E-03
   10.7312498        -2.38109240E-03
   10.8500004        -2.39518937E-03
   10.9687500        -2.35289871E-03
   11.0874996        -2.25961790E-03
   11.2062502        -2.12601223E-03
   11.3249998        -1.96707854E-03
   11.4437504        -1.80069625E-03
   11.5625000        -1.64582813E-03
   11.6812496        -1.52058911E-03
   11.8000002        -1.44040945E-03
   11.9187498        -1.41651474E-03
   12.0375004        -1.45489932E-03
   12.1562500        -1.55591092E-03
   12.2749996        -1.71448209E-03
   12.3937502        -1.92096224E-03
   12.5124998        -2.16242950E-03
   12.6312504        -2.42430111E-03
   12.7500000        -2.69202306E-03
   12.8687496        -2.95262132E-03
   12.9875002        -3.19591607E-03
   13.1062498        -3.41525231E-03
   13.2250004        -3.60767241E-03
   13.3437500        -3.77353490E-03
   13.4624996        -3.91566334E-03
   13.5812502        -4.03817091E-03
   13.6999998        -4.14516125E-03
   13.8187504        -4.23950702E-03
   13.9375000        -4.32191091E-03
   14.0562496        -4.39040223E-03
   14.1750002        -4.44035977E-03
   14.2937498        -4.46507474E-03
   14.4125004        -4.45679016E-03
   14.5312500        -4.40806989E-03
   14.6499996        -4.31331107E-03
   14.7687502        -4.17017052E-03
   14.8874998        -3.98069620E-03
   15.0062504        -3.75197129E-03
   15.1250000        -3.49614932E-03
   15.2437496        -3.22983461E-03
   15.3625002        -2.97284778E-03
   15.4812498        -2.74650031E-03
   15.6000004        -2.57156463E-03
   15.7187500        -2.46618246E-03
   15.8374996        -2.44395179E-03
   15.9562502        -2.51243077E-03
   16.0750008        -2.67223432E-03
   16.1937504        -2.91684223E-03
   16.3125000        -3.23313475E-03
   16.4312496        -3.60260252E-03
   16.5499992        -4.00307169E-03
   16.6687508        -4.41075210E-03
   16.7875004        -4.80235368E-03
   16.9062500        -5.15703019E-03
   17.0249996        -5.45793446E-03
   17.1437492        -5.69322053E-03
   17.2625008        -5.85640315E-03
   17.3812504        -5.94608299E-03
   17.5000000        -5.96511271E-03
   17.6187496        -5.91935823E-03
   17.7374992        -5.81626082E-03
   17.8562508        -5.66341728E-03
   17.9750004        -5.46738226E-03
   18.0937500        -5.23287198E-03
   18.2124996        -4.96246247E-03
   18.3312492        -4.65681963E-03
   18.4500008        -4.31540329E-03
   18.5687504        -3.93752754E-03
   18.6875000        -3.52359540E-03
   18.8062496        -3.07630212E-03
   18.9249992        -2.60160561E-03
   19.0437508        -2.10928218E-03
   19.1625004        -1.61295116E-03
   19.2812500        -1.12951559E-03
   19.3999996        -6.78055512E-04
   19.5187492        -2.78281805E-04
   19.6375008         5.12742190E-05
   19.7562504         2.95117090E-04
   19.8750000         4.42459597E-04
   19.9937496         4.88496851E-04
   20.1124992         4.35113034E-04
   20.2312508         2.90920463E-04
   20.3500004         7.06105493E-05
   20.4687500        -2.06317665E-04
   20.5874996        -5.17310866E-04
   20.7062492        -8.38797539E-04
   20.8250008        -1.14827522E-03
   20.9437504        -1.42621412E-03
   21.0625000        -1.65756966E-03
   21.1812496        -1.83274574E-03
   21.2999992        -1.94792647E-03
   21.4187508        -2.00476823E-03
   21.5375004        -2.00952729E-03
   21.6562500        -1.97176333E-03
   21.7749996        -1.90280541E-03
   21.8937492        -1.81419449E-03
   22.0125008        -1.71630131E-03
   22.1312504        -1.61729439E-03
   22.2500000        -1.52257073E-03
   22.3687496        -1.43469509E-03
   22.4874992        -1.35382207E-03
   22.6062508        -1.27850077E-03
   22.7250004        -1.20671734E-03
   22.8437500        -1.13698980E-03
   22.9624996        -1.06933515E-03
   23.0812492        -1.00594084E-03
   23.2000008        -9.51425347E-04
   23.3187504        -9.12629999E-04
   23.4375000        -8.97955324E-04
   23.5562496        -9.16323042E-04
   23.6749992        -9.75901552E-04
   23.7937508        -1.08277216E-03
   23.9125004        -1.23972422E-03
   24.0312500        -1.44535839E-03
   24.1499996        -1.69363781E-03
   24.2687492        -1.97397405E-03
   24.3875008        -2.27186410E-03
   24.5062504        -2.57002143E-03
   24.6250000        -2.84988829E-03
   24.7437496        -3.09335114E-03
   24.8624992        -3.28446715E-03
   24.9812508        -3.41099990E-03
   25.1000004        -3.46558308E-03
   25.2187500        -3.44637944E-03
   25.3374996        -3.35716642E-03
   25.4562492        -3.20684165E-03
   25.5750008        -3.00842151E-03
   25.6937504        -2.77765957E-03
   25.8125000        -2.53145327E-03
   25.9312496        -2.28623673E-03
   26.0499992        -2.05653813E-03
   26.1687508        -1.85386662E-03
   26.2875004        -1.68603763E-03
   26.4062500        -1.55698520E-03
   26.5249996        -1.46705017E-03
   26.6437492        -1.41366851E-03
   26.7625008        -1.39233563E-03
   26.8812504        -1.39769528E-03
   27.0000000        -1.42458966E-03
   27.1187496        -1.46892387E-03
   27.2374992        -1.52822887E-03
   27.3562508        -1.60185806E-03
   27.4750004        -1.69080612E-03
   27.5937500        -1.79719494E-03
   27.7124996        -1.92352210E-03
   27.8312492        -2.07179645E-03
   27.9500008        -2.24270532E-03
   28.0687504        -2.43494939E-03
   28.1875000        -2.64485925E-03
   28.3062496        -2.86636478E-03
   28.4249992        -3.09133786E-03
   28.5437508        -3.31028318E-03
   28.6625004        -3.51328636E-03
   28.7812500        -3.69110773E-03
   28.8999996        -3.83627578E-03
   29.0187492        -3.94403795E-03
   29.1375008        -4.01303777E-03
   29.2562504        -4.04562149E-03
   29.3750000        -4.04772954E-03
   29.4937496        -4.02837247E-03
   29.6124992        -3.99874616E-03
   29.7312508        -3.97108402E-03
   29.8500004        -3.95738147E-03
   29.9687500        -3.96813173E-03
   30.0874996        -4.01122449E-03
   30.2062492        -4.09111427E-03
   30.3250008        -4.20836080E-03
   30.4437504        -4.35957173E-03
   30.5625000        -4.53774724E-03
   30.6812496        -4.73296968E-03
   30.7999992        -4.93335770E-03
   30.9187508        -5.12615591E-03
   31.0375004        -5.29884966E-03
   31.1562500        -5.44017414E-03
   31.2749996        -5.54092415E-03
   31.3937492        -5.59449289E-03
   31.5125008        -5.59710851E-03
   31.6312504        -5.54777682E-03
   31.7500000        -5.44797536E-03
   31.8687496        -5.30116772E-03
   31.9874992        -5.11222519E-03
   32.1062508        -4.88684699E-03
   32.2249985        -4.63105738E-03
   32.3437500        -4.35084244E-03
   32.4625015        -4.05195728E-03
   32.5812492        -3.73990368E-03
   32.7000008        -3.42005584E-03
   32.8187485        -3.09788366E-03
   32.9375000        -2.77920649E-03
   33.0562515        -2.47041066E-03
   33.1749992        -2.17856793E-03
   33.2937508        -1.91140815E-03
   33.4124985        -1.67711813E-03
   33.5312500        -1.48396858E-03
   33.6500015        -1.33979728E-03
   33.7687492        -1.25139498E-03
   33.8875008        -1.22386182E-03
   34.0062485        -1.26000703E-03
   34.1250000        -1.35986740E-03
   34.2437515        -1.52040506E-03
   34.3624992        -1.73543149E-03
   34.4812508        -1.99577678E-03
   34.5999985        -2.28970265E-03
   34.7187500        -2.60352576E-03
   34.8375015        -2.92240293E-03
   34.9562492        -3.23120970E-03
   35.0750008        -3.51543957E-03
   35.1937485        -3.76204890E-03
   35.3125000        -3.96018708E-03
   35.4312515        -4.10175230E-03
   35.5499992        -4.18175291E-03
   35.6687508        -4.19844966E-03
   35.7874985        -4.15329402E-03
   35.9062500        -4.05068183E-03
   36.0250015        -3.89755750E-03
   36.1437492        -3.70290969E-03
   36.2625008        -3.47720878E-03
   36.3812485        -3.23182251E-03
   36.5000000        -2.97845015E-03
   36.6187515        -2.72860238E-03
   36.7374992        -2.49314797E-03
   36.8562508        -2.28193542E-03
   36.9749985        -2.10349215E-03
   37.0937500        -1.96480146E-03
   37.2125015        -1.87114498E-03
   37.3312492        -1.82600564E-03
   37.4500008        -1.83102384E-03
   37.5687485        -1.88599923E-03
   37.6875000        -1.98893645E-03
   37.8062515        -2.13612989E-03
   37.9249992        -2.32229196E-03
   38.0437508        -2.54071970E-03
   38.1624985        -2.78349943E-03
   38.2812500        -3.04175029E-03
   38.4000015        -3.30589851E-03
   38.5187492        -3.56597663E-03
   38.6375008        -3.81194195E-03
   38.7562485        -4.03400324E-03
   38.8750000        -4.22295183E-03
   38.9937515        -4.37047752E-03
   39.1124992        -4.46947850E-03
   39.2312508        -4.51434078E-03
   39.3499985        -4.50119190E-03
   39.4687500        -4.42811102E-03
   39.5875015        -4.29529138E-03
   39.7062492        -4.10514325E-03
   39.8250008        -3.86232045E-03
   39.9437485        -3.57366004E-03
   40.0625000        -3.24802683E-03
   40.1812515        -2.89604836E-03
   40.2999992        -2.52974220E-03
   40.4187508        -2.16203951E-03
   40.5374985        -1.80622074E-03
   40.6562500        -1.47528795E-03
   40.7750015        -1.18130830E-03
   40.8937492        -9.34771087E-04
   41.0125008        -7.44004734E-04
   41.1312485        -6.14702643E-04
   41.2500000        -5.49598190E-04
   41.3687515        -5.48323675E-04
   41.4874992        -6.07473368E-04
   41.6062508        -7.20871496E-04
   41.7249985        -8.80030915E-04
   41.8437500        -1.07476558E-03
   41.9625015        -1.29390822E-03
   42.0812492        -1.52607041E-03
   42.2000008        -1.76037697E-03
   42.3187485        -1.98711362E-03
   42.4375000        -2.19822978E-03
   42.5562515        -2.38766056E-03
   42.6749992        -2.55144737E-03
   42.7937508        -2.68766610E-03
   42.9124985        -2.79618474E-03
   43.0312500        -2.87829945E-03
   43.1500015        -2.93630501E-03
   43.2687492        -2.97305896E-03
   43.3875008        -2.99160113E-03
   43.5062485        -2.99487170E-03
   43.6250000        -2.98555847E-03
   43.7437515        -2.96607800E-03
   43.8624992        -2.93867779E-03
   43.9812508        -2.90562608E-03
   44.0999985        -2.86943442E-03
   44.2187500        -2.83306325E-03
   44.3375015        -2.80005112E-03
   44.4562492        -2.77452078E-03
   44.5750008        -2.76104035E-03
   44.6937485        -2.76432908E-03
   44.8125000        -2.78883032E-03
   44.9312515        -2.83819623E-03
   45.0499992        -2.91474629E-03
   45.1687508        -3.01897572E-03
   45.2874985        -3.14918766E-03
   45.4062500        -3.30131478E-03
   45.5250015        -3.46897845E-03
   45.6437492        -3.64379981E-03
   45.7625008        -3.81595595E-03
   45.8812485        -3.97493364E-03
