  -1.50000000         0.00000000    
  -1.38499999         3.46950491E-09
  -1.26999998         1.19127304E-08
  -1.15499997         2.58752912E-08
  -1.03999996         4.45226647E-08
 -0.925000012         6.32837498E-08
 -0.810000002         6.62957902E-08
 -0.694999993         9.27089516E-09
 -0.579999983        -2.10880671E-07
 -0.465000004        -7.98694600E-07
 -0.349999994        -2.10371218E-06
 -0.234999999        -4.63793913E-06
 -0.119999997        -9.02406555E-06
  -4.99999989E-03    -1.58247258E-05
  0.109999999        -2.52180653E-05
  0.224999994        -3.65294400E-05
  0.340000004        -4.76979440E-05
  0.455000013        -5.48287026E-05
  0.569999993        -5.20232643E-05
  0.685000002        -3.16595433E-05
  0.800000012         1.48033614E-05
  0.915000021         9.55722207E-05
   1.02999997         2.17055465E-04
   1.14499998         3.82531347E-04
   1.25999999         5.91297052E-04
   1.37500000         8.38539680E-04
   1.49000001         1.11597660E-03
   1.60500002         1.41310017E-03
   1.72000003         1.71870377E-03
   1.83500004         2.02231458E-03
   1.95000005         2.31522578E-03
   2.06500006         2.59098527E-03
   2.18000007         2.84538022E-03
   2.29500008         3.07610445E-03
   2.41000009         3.28235095E-03
   2.52500010         3.46451509E-03
   2.64000010         3.62408301E-03
   2.75500011         3.76363448E-03
   2.86999989         3.88680701E-03
   2.98499990         3.99806257E-03
   3.09999990         4.10217652E-03
   3.21499991         4.20350721E-03
   3.32999992         4.30522067E-03
   3.44499993         4.40871203E-03
   3.55999994         4.51343181E-03
   3.67499995         4.61720908E-03
   3.78999996         4.71700262E-03
   3.90499997         4.80987411E-03
   4.01999998         4.89389151E-03
   4.13500023         4.96871257E-03
   4.25000000         5.03569515E-03
   4.36499977         5.09753497E-03
   4.48000002         5.15759364E-03
   4.59499979         5.21913031E-03
   4.71000004         5.28467633E-03
   4.82499981         5.35568036E-03
   4.94000006         5.43246232E-03
   5.05499983         5.51438844E-03
   5.17000008         5.60012693E-03
   5.28499985         5.68786543E-03
   5.40000010         5.77542884E-03
   5.51499987         5.86032681E-03
   5.63000011         5.93981566E-03
   5.74499989         6.01107720E-03
   5.86000013         6.07156660E-03
   5.97499990         6.11948967E-03
   6.09000015         6.15430810E-03
   6.20499992         6.17709616E-03
   6.32000017         6.19061571E-03
   6.43499994         6.19902648E-03
   6.55000019         6.20726822E-03
   6.66499996         6.22024294E-03
   6.78000021         6.24198467E-03
   6.89499998         6.27500238E-03
   7.01000023         6.31992798E-03
   7.12500000         6.37550233E-03
   7.23999977         6.43885927E-03
   7.35500002         6.50599878E-03
   7.46999979         6.57233456E-03
   7.58500004         6.63323468E-03
   7.69999981         6.68450957E-03
   7.81500006         6.72284933E-03
   7.92999983         6.74620550E-03
   8.04500008         6.75411941E-03
   8.15999985         6.74794381E-03
   8.27499962         6.73089130E-03
   8.39000034         6.70783827E-03
   8.50500011         6.68485090E-03
   8.61999989         6.66845916E-03
   8.73499966         6.66478369E-03
   8.85000038         6.67865807E-03
   8.96500015         6.71291212E-03
   9.07999992         6.76793279E-03
   9.19499969         6.84157573E-03
   9.31000042         6.92940177E-03
   9.42500019         7.02517387E-03
   9.53999996         7.12150615E-03
   9.65499973         7.21058063E-03
   9.77000046         7.28485966E-03
   9.88500023         7.33776251E-03
   10.0000000         7.36429123E-03
   10.1149998         7.36155966E-03
   10.2299995         7.32918410E-03
   10.3450003         7.26945419E-03
   10.4600000         7.18720490E-03
   10.5749998         7.08935829E-03
   10.6899996         6.98415702E-03
   10.8050003         6.88018883E-03
   10.9200001         6.78536994E-03
   11.0349998         6.70606270E-03
   11.1499996         6.64647343E-03
   11.2650003         6.60841260E-03
   11.3800001         6.59139361E-03
   11.4949999         6.59298943E-03
   11.6099997         6.60931645E-03
   11.7250004         6.63553737E-03
   11.8400002         6.66632131E-03
   11.9549999         6.69625588E-03
   12.0699997         6.72024721E-03
   12.1850004         6.73394231E-03
   12.3000002         6.73417607E-03
   12.4150000         6.71937596E-03
   12.5299997         6.68982510E-03
   12.6450005         6.64766971E-03
   12.7600002         6.59660017E-03
   12.8750000         6.54123584E-03
   12.9899998         6.48631575E-03
   13.1049995         6.43589208E-03
   13.2200003         6.39272062E-03
   13.3350000         6.35799579E-03
   13.4499998         6.33146148E-03
   13.5649996         6.31182222E-03
   13.6800003         6.29728846E-03
   13.7950001         6.28605671E-03
   13.9099998         6.27659541E-03
   14.0249996         6.26767427E-03
   14.1400003         6.25821436E-03
   14.2550001         6.24708273E-03
   14.3699999         6.23298064E-03
   14.4849997         6.21451158E-03
   14.6000004         6.19041454E-03
   14.7150002         6.15985785E-03
   14.8299999         6.12263661E-03
   14.9449997         6.07915316E-03
   15.0600004         6.03013206E-03
   15.1750002         5.97614562E-03
   15.2900000         5.91713097E-03
   15.4049997         5.85210230E-03
   15.5200005         5.77921420E-03
   15.6350002         5.69622125E-03
   15.7500000         5.60121657E-03
   15.8649998         5.49343880E-03
   15.9799995         5.37387608E-03
   16.0949993         5.24546858E-03
   16.2099991         5.11283055E-03
   16.3250008         4.98157414E-03
   16.4400005         4.85744234E-03
   16.5550003         4.74550202E-03
   16.6700001         4.64960746E-03
   16.7849998         4.57221083E-03
   16.8999996         4.51447628E-03
   17.0149994         4.47652768E-03
   17.1299992         4.45764698E-03
   17.2450008         4.45629610E-03
   17.3600006         4.46995860E-03
   17.4750004         4.49491711E-03
   17.5900002         4.52616345E-03
   17.7049999         4.55762073E-03
   17.8199997         4.58275899E-03
   17.9349995         4.59553301E-03
   18.0499992         4.59142961E-03
   18.1650009         4.56832582E-03
   18.2800007         4.52690804E-03
   18.3950005         4.47049318E-03
   18.5100002         4.40430548E-03
   18.6250000         4.33439668E-03
   18.7399998         4.26651305E-03
   18.8549995         4.20520734E-03
   18.9699993         4.15336667E-03
   19.0849991         4.11218917E-03
   19.2000008         4.08148440E-03
   19.3150005         4.06007608E-03
   19.4300003         4.04612115E-03
   19.5450001         4.03722702E-03
   19.6599998         4.03040741E-03
   19.7749996         4.02200874E-03
   19.8899994         4.00780002E-03
   20.0049992         3.98335001E-03
   20.1200008         3.94470710E-03
   20.2350006         3.88924545E-03
   20.3500004         3.81643348E-03
   20.4650002         3.72826913E-03
   20.5799999         3.62919853E-03
   20.6949997         3.52549134E-03
   20.8099995         3.42421932E-03
   20.9249992         3.33209755E-03
   21.0400009         3.25449044E-03
   21.1550007         3.19481571E-03
   21.2700005         3.15442472E-03
   21.3850002         3.13289603E-03
   21.5000000         3.12854373E-03
   21.6149998         3.13892169E-03
   21.7299995         3.16115539E-03
   21.8449993         3.19205015E-03
   21.9599991         3.22805252E-03
   22.0750008         3.26521299E-03
   22.1900005         3.29930708E-03
   22.3050003         3.32618970E-03
   22.4200001         3.34234163E-03
   22.5349998         3.34545807E-03
   22.6499996         3.33488313E-03
   22.7649994         3.31171462E-03
   22.8799992         3.27851740E-03
   22.9950008         3.23870988E-03
   23.1100006         3.19580501E-03
   23.2250004         3.15273087E-03
   23.3400002         3.11143091E-03
   23.4549999         3.07282270E-03
   23.5699997         3.03707970E-03
   23.6849995         3.00408271E-03
   23.7999992         2.97384523E-03
   23.9150009         2.94675073E-03
   24.0300007         2.92353751E-03
   24.1450005         2.90506240E-03
   24.2600002         2.89198081E-03
   24.3750000         2.88448506E-03
   24.4899998         2.88221426E-03
   24.6049995         2.88436050E-03
   24.7199993         2.88990606E-03
   24.8349991         2.89786980E-03
   24.9500008         2.90744565E-03
   25.0650005         2.91797053E-03
   25.1800003         2.92874570E-03
   25.2950001         2.93881493E-03
   25.4099998         2.94683175E-03
   25.5249996         2.95112305E-03
   25.6399994         2.94998242E-03
   25.7549992         2.94212834E-03
   25.8700008         2.92718969E-03
   25.9850006         2.90606241E-03
   26.1000004         2.88100704E-03
   26.2150002         2.85545038E-03
   26.3299999         2.83353869E-03
   26.4449997         2.81956396E-03
   26.5599995         2.81741191E-03
   26.6749992         2.83013657E-03
   26.7900009         2.85971654E-03
   26.9050007         2.90696300E-03
   27.0200005         2.97151832E-03
   27.1350002         3.05187143E-03
   27.2500000         3.14536691E-03
   27.3649998         3.24822892E-03
   27.4799995         3.35567235E-03
   27.5949993         3.46217561E-03
   27.7099991         3.56195401E-03
   27.8250008         3.64959915E-03
   27.9400005         3.72078246E-03
   28.0550003         3.77286971E-03
   28.1700001         3.80530278E-03
   28.2849998         3.81965563E-03
   28.3999996         3.81935784E-03
   28.5149994         3.80917173E-03
   28.6299992         3.79455159E-03
   28.7450008         3.78103624E-03
   28.8600006         3.77376308E-03
   28.9750004         3.77714401E-03
   29.0900002         3.79466359E-03
   29.2049999         3.82873765E-03
   29.3199997         3.88057600E-03
   29.4349995         3.95003660E-03
   29.5499992         4.03552642E-03
   29.6650009         4.13401844E-03
   29.7800007         4.24126955E-03
   29.8950005         4.35226643E-03
   30.0100002         4.46184911E-03
   30.1250000         4.56538890E-03
   30.2399998         4.65937797E-03
   30.3549995         4.74177767E-03
   30.4699993         4.81205666E-03
   30.5849991         4.87094466E-03
   30.7000008         4.92000068E-03
   30.8150005         4.96114511E-03
   30.9300003         4.99629322E-03
   31.0450001         5.02717029E-03
   31.1599998         5.05529204E-03
   31.2749996         5.08204196E-03
   31.3899994         5.10872621E-03
   31.5049992         5.13653597E-03
   31.6200008         5.16638067E-03
   31.7350006         5.19866170E-03
   31.8500004         5.23307920E-03
   31.9650002         5.26859006E-03
   32.0800018         5.30357100E-03
   32.1949997         5.33617241E-03
   32.3100014         5.36475424E-03
   32.4249992         5.38827525E-03
   32.5400009         5.40649099E-03
   32.6549988         5.41990809E-03
   32.7700005         5.42951468E-03
   32.8849983         5.43640973E-03
   33.0000000         5.44147147E-03
   33.1150017         5.44520514E-03
   33.2299995         5.44781610E-03
   33.3450012         5.44947479E-03
   33.4599991         5.45064313E-03
   33.5750008         5.45232650E-03
   33.6899986         5.45611698E-03
   33.8050003         5.46400947E-03
   33.9199982         5.47803659E-03
   34.0349998         5.49986120E-03
   34.1500015         5.53046213E-03
   34.2649994         5.57002146E-03
   34.3800011         5.61802322E-03
   34.4949989         5.67349140E-03
   34.6100006         5.73523529E-03
   34.7249985         5.80197852E-03
   34.8400002         5.87231200E-03
   34.9550018         5.94449416E-03
   35.0699997         6.01621484E-03
   35.1850014         6.08446961E-03
   35.2999992         6.14566216E-03
   35.4150009         6.19598059E-03
   35.5299988         6.23196689E-03
   35.6450005         6.25112932E-03
   35.7599983         6.25241688E-03
   35.8750000         6.23639766E-03
   35.9900017         6.20510709E-03
   36.1049995         6.16161851E-03
   36.2200012         6.10949099E-03
   36.3349991         6.05226867E-03
   36.4500008         5.99315902E-03
   36.5649986         5.93493693E-03
   36.6800003         5.88000007E-03
   36.7949982         5.83045930E-03
   36.9099998         5.78812696E-03
   37.0250015         5.75433439E-03
   37.1399994         5.72961383E-03
   37.2550011         5.71336225E-03
   37.3699989         5.70365181E-03
   37.4850006         5.69732720E-03
   37.5999985         5.69043588E-03
   37.7150002         5.67891076E-03
   37.8300018         5.65933995E-03
   37.9449997         5.62959863E-03
   38.0600014         5.58917504E-03
   38.1749992         5.53911272E-03
   38.2900009         5.48163522E-03
   38.4049988         5.41960308E-03
   38.5200005         5.35601191E-03
   38.6349983         5.29367523E-03
   38.7500000         5.23516396E-03
   38.8650017         5.18292189E-03
   38.9799995         5.13942260E-03
   39.0950012         5.10719791E-03
   39.2099991         5.08863805E-03
   39.3250008         5.08557493E-03
   39.4399986         5.09876339E-03
   39.5550003         5.12746023E-03
   39.6699982         5.16927103E-03
   39.7849998         5.22037363E-03
   39.9000015         5.27607184E-03
   40.0149994         5.33154001E-03
   40.1300011         5.38251922E-03
   40.2449989         5.42578660E-03
   40.3600006         5.45926718E-03
   40.4749985         5.48182847E-03
   40.5900002         5.49289957E-03
   40.7050018         5.49211027E-03
   40.8199997         5.47913322E-03
   40.9350014         5.45379939E-03
   41.0499992         5.41642774E-03
   41.1650009         5.36821876E-03
   41.2799988         5.31149749E-03
   41.3950005         5.24966186E-03
   41.5099983         5.18679107E-03
   41.6250000         5.12699690E-03
   41.7400017         5.07373037E-03
   41.8549995         5.02924295E-03
   41.9700012         4.99437749E-03
   42.0849991         4.96872375E-03
   42.2000008         4.95105004E-03
   42.3149986         4.93982434E-03
   42.4300003         4.93361754E-03
   42.5449982         4.93125943E-03
   42.6599998         4.93171671E-03
   42.7750015         4.93380707E-03
   42.8899994         4.93591791E-03
   43.0050011         4.93592303E-03
   43.1199989         4.93137864E-03
   43.2350006         4.91998577E-03
   43.3499985         4.90017002E-03
   43.4650002         4.87156911E-03
   43.5800018         4.83524939E-03
   43.6949997         4.79354942E-03
   43.8100014         4.74959984E-03
   43.9249992         4.70666308E-03
   44.0400009         4.66751447E-03
   44.1549988         4.63405298E-03
   44.2700005         4.60722111E-03
   44.3849983         4.58721770E-03
