  -1.50000000       0.00000000    
  -1.38499999      -1.39578826E-09
  -1.26999998      -6.13011153E-09
  -1.15499997      -1.84075652E-08
  -1.03999996      -4.68954546E-08
 -0.925000012      -1.08289221E-07
 -0.810000002      -2.32361671E-07
 -0.694999993      -4.67958245E-07
 -0.579999983      -8.88306090E-07
 -0.465000004      -1.59271997E-06
 -0.349999994      -2.70094552E-06
 -0.234999999      -4.33688456E-06
 -0.119999997      -6.60101932E-06
  -4.99999989E-03  -9.53550989E-06
  0.109999999      -1.30915478E-05
  0.224999994      -1.71128831E-05
  0.340000004      -2.13502972E-05
  0.455000013      -2.55176528E-05
  0.569999993      -2.93915491E-05
  0.685000002      -3.29458344E-05
  0.800000012      -3.65020715E-05
  0.915000021      -4.08705964E-05
   1.02999997      -4.74556655E-05
   1.14499998      -5.83014516E-05
   1.25999999      -7.60633702E-05
   1.37500000      -1.03899074E-04
   1.49000001      -1.45283513E-04
   1.60500002      -2.03761971E-04
   1.72000003      -2.82663415E-04
   1.83500004      -3.84800951E-04
   1.95000005      -5.12189639E-04
   2.06500006      -6.65810076E-04
   2.18000007      -8.45443748E-04
   2.29500008      -1.04959786E-03
   2.41000009      -1.27553008E-03
   2.52500010      -1.51937292E-03
   2.64000010      -1.77634845E-03
   2.75500011      -2.04105489E-03
   2.86999989      -2.30779639E-03
   2.98499990      -2.57093064E-03
   3.09999990      -2.82519823E-03
   3.21499991      -3.06600751E-03
   3.32999992      -3.28964763E-03
   3.44499993      -3.49341868E-03
   3.55999994      -3.67566478E-03
   3.67499995      -3.83571885E-03
   3.78999996      -3.97376716E-03
   3.90499997      -4.09065839E-03
   4.01999998      -4.18767659E-03
   4.13500023      -4.26631235E-03
   4.25000000      -4.32805577E-03
   4.36499977      -4.37423727E-03
   4.48000002      -4.40592691E-03
   4.59499979      -4.42391541E-03
   4.71000004      -4.42875409E-03
   4.82499981      -4.42086766E-03
   4.94000006      -4.40069987E-03
   5.05499983      -4.36889008E-03
   5.17000008      -4.32643201E-03
   5.28499985      -4.27480787E-03
   5.40000010      -4.21606516E-03
   5.51499987      -4.15281905E-03
   5.63000011      -4.08817735E-03
   5.74499989      -4.02558688E-03
   5.86000013      -3.96861369E-03
   5.97499990      -3.92067619E-03
   6.09000015      -3.88476113E-03
   6.20499992      -3.86314606E-03
   6.32000017      -3.85716860E-03
   6.43499994      -3.86706251E-03
   6.55000019      -3.89188458E-03
   6.66499996      -3.92954657E-03
   6.78000021      -3.97694856E-03
   6.89499998      -4.03021090E-03
   7.01000023      -4.08498105E-03
   7.12500000      -4.13678680E-03
   7.23999977      -4.18140739E-03
   7.35500002      -4.21522325E-03
   7.46999979      -4.23550699E-03
   7.58500004      -4.24063951E-03
   7.69999981      -4.23021661E-03
   7.81500006      -4.20504482E-03
   7.92999983      -4.16703010E-03
   8.04500008      -4.11896314E-03
   8.15999985      -4.06423444E-03
   8.27499962      -4.00650501E-03
   8.39000034      -3.94936558E-03
   8.50500011      -3.89602548E-03
   8.61999989      -3.84905539E-03
   8.73499966      -3.81021458E-03
   8.85000038      -3.78037547E-03
   8.96500015      -3.75954830E-03
   9.07999992      -3.74700082E-03
   9.19499969      -3.74145620E-03
   9.31000042      -3.74133745E-03
   9.42500019      -3.74503247E-03
   9.53999996      -3.75114381E-03
   9.65499973      -3.75869148E-03
   9.77000046      -3.76724522E-03
   9.88500023      -3.77696706E-03
   10.0000000      -3.78856109E-03
   10.1149998      -3.80313513E-03
   10.2299995      -3.82198812E-03
   10.3450003      -3.84635432E-03
   10.4600000      -3.87713080E-03
   10.5749998      -3.91462678E-03
   10.6899996      -3.95836635E-03
   10.8050003      -4.00697207E-03
   10.9200001      -4.05814964E-03
   11.0349998      -4.10878472E-03
   11.1499996      -4.15514084E-03
   11.2650003      -4.19315323E-03
   11.3800001      -4.21877997E-03
   11.4949999      -4.22838563E-03
   11.6099997      -4.21911292E-03
   11.7250004      -4.18920489E-03
   11.8400002      -4.13824385E-03
   11.9549999      -4.06727474E-03
   12.0699997      -3.97880282E-03
   12.1850004      -3.87665932E-03
   12.3000002      -3.76574416E-03
   12.4150000      -3.65167065E-03
   12.5299997      -3.54034337E-03
   12.6450005      -3.43750976E-03
   12.7600002      -3.34832980E-03
   12.8750000      -3.27700051E-03
   12.9899998      -3.22647463E-03
   13.1049995      -3.19829420E-03
   13.2200003      -3.19255912E-03
   13.3350000      -3.20802140E-03
   13.4499998      -3.24229547E-03
   13.5649996      -3.29216151E-03
   13.6800003      -3.35391890E-03
   13.7950001      -3.42376065E-03
   13.9099998      -3.49811651E-03
   14.0249996      -3.57393804E-03
   14.1400003      -3.64889274E-03
   14.2550001      -3.72144743E-03
   14.3699999      -3.79084027E-03
   14.4849997      -3.85694439E-03
   14.6000004      -3.92005080E-03
   14.7150002      -3.98059422E-03
   14.8299999      -4.03886428E-03
   14.9449997      -4.09473712E-03
   15.0600004      -4.14746813E-03
   15.1750002      -4.19557514E-03
   15.2900000      -4.23682854E-03
   15.4049997      -4.26836358E-03
   15.5200005      -4.28689504E-03
   15.6350002      -4.28902963E-03
   15.7500000      -4.27163485E-03
   15.8649998      -4.23222780E-03
   15.9799995      -4.16933792E-03
   16.0949993      -4.08280781E-03
   16.2099991      -3.97399208E-03
   16.3250008      -3.84582020E-03
   16.4400005      -3.70272435E-03
   16.5550003      -3.55041795E-03
   16.6700001      -3.39555088E-03
   16.7849998      -3.24526243E-03
   16.8999996      -3.10668023E-03
   17.0149994      -2.98640132E-03
   17.1299992      -2.89001525E-03
   17.2450008      -2.82170391E-03
   17.3600006      -2.78396253E-03
   17.4750004      -2.77746492E-03
   17.5900002      -2.80108559E-03
   17.7049999      -2.85207084E-03
   17.8199997      -2.92634498E-03
   17.9349995      -3.01891402E-03
   18.0499992      -3.12432693E-03
   18.1650009      -3.23714688E-03
   18.2800007      -3.35238478E-03
   18.3950005      -3.46585386E-03
   18.5100002      -3.57440952E-03
   18.6250000      -3.67606012E-03
   18.7399998      -3.76993627E-03
   18.8549995      -3.85613553E-03
   18.9699993      -3.93546186E-03
   19.0849991      -4.00909828E-03
   19.2000008      -4.07825271E-03
   19.3150005      -4.14382387E-03
   19.4300003      -4.20612609E-03
   19.5450001      -4.26471327E-03
   19.6599998      -4.31831554E-03
   19.7749996      -4.36490914E-03
   19.8899994      -4.40190453E-03
   20.0049992      -4.42643696E-03
   20.1200008      -4.43572178E-03
   20.2350006      -4.42744000E-03
   20.3500004      -4.40010149E-03
   20.4650002      -4.35334351E-03
   20.5799999      -4.28812904E-03
   20.6949997      -4.20680875E-03
   20.8099995      -4.11304366E-03
   20.9249992      -4.01157979E-03
   21.0400009      -3.90789611E-03
   21.1550007      -3.80776101E-03
   21.2700005      -3.71673494E-03
   21.3850002      -3.63966706E-03
   21.5000000      -3.58024682E-03
   21.6149998      -3.54064396E-03
   21.7299995      -3.52128642E-03
   21.8449993      -3.52079328E-03
   21.9599991      -3.53607768E-03
   22.0750008      -3.56260710E-03
   22.1900005      -3.59480083E-03
   22.3050003      -3.62652214E-03
   22.4200001      -3.65162315E-03
   22.5349998      -3.66448285E-03
   22.6499996      -3.66048911E-03
   22.7649994      -3.63642047E-03
   22.8799992      -3.59068485E-03
   22.9950008      -3.52340145E-03
   23.1100006      -3.43631790E-03
   23.2250004      -3.33257369E-03
   23.3400002      -3.21634300E-03
   23.4549999      -3.09239165E-03
   23.5699997      -2.96560279E-03
   23.6849995      -2.84051779E-03
   23.7999992      -2.72094342E-03
   23.9150009      -2.60966527E-03
   24.0300007      -2.50829733E-03
   24.1450005      -2.41727545E-03
   24.2600002      -2.33599590E-03
   24.3750000      -2.26307544E-03
   24.4899998      -2.19670124E-03
   24.6049995      -2.13502464E-03
   24.7199993      -2.07655109E-03
   24.8349991      -2.02047732E-03
   24.9500008      -1.96693488E-03
   25.0650005      -1.91710540E-03
   25.1800003      -1.87319319E-03
   25.2950001      -1.83825521E-03
   25.4099998      -1.81589986E-03
   25.5249996      -1.80989248E-03
   25.6399994      -1.82370411E-03
   25.7549992      -1.86005840E-03
   25.8700008      -1.92052603E-03
   25.9850006      -2.00521480E-03
   26.1000004      -2.11259490E-03
   26.2150002      -2.23948108E-03
   26.3299999      -2.38118460E-03
   26.4449997      -2.53182021E-03
   26.5599995      -2.68474501E-03
   26.6749992      -2.83308700E-03
   26.7900009      -2.97031063E-03
   26.9050007      -3.09076719E-03
   27.0200005      -3.19017214E-03
   27.1350002      -3.26596107E-03
   27.2500000      -3.31748975E-03
   27.3649998      -3.34605877E-03
   27.4799995      -3.35475639E-03
   27.5949993      -3.34814074E-03
   27.7099991      -3.33178765E-03
   27.8250008      -3.31175677E-03
   27.9400005      -3.29402578E-03
   28.0550003      -3.28394584E-03
   28.1700001      -3.28578195E-03
   28.2849998      -3.30237206E-03
   28.3999996      -3.33494321E-03
   28.5149994      -3.38309421E-03
   28.6299992      -3.44494521E-03
   28.7450008      -3.51742888E-03
   28.8600006      -3.59669141E-03
   28.9750004      -3.67855094E-03
   29.0900002      -3.75896692E-03
   29.2049999      -3.83446272E-03
   29.3199997      -3.90245696E-03
   29.4349995      -3.96146718E-03
   29.5499992      -4.01116768E-03
   29.6650009      -4.05229488E-03
   29.7800007      -4.08641575E-03
   29.8950005      -4.11559129E-03
   30.0100002      -4.14197147E-03
   30.1250000      -4.16737795E-03
   30.2399998      -4.19292413E-03
   30.3549995      -4.21871711E-03
   30.4699993      -4.24368726E-03
   30.5849991      -4.26556263E-03
   30.7000008      -4.28100396E-03
   30.8150005      -4.28588688E-03
   30.9300003      -4.27570287E-03
   31.0450001      -4.24604444E-03
   31.1599998      -4.19311924E-03
   31.2749996      -4.11423901E-03
   31.3899994      -4.00822889E-03
   31.5049992      -3.87571123E-03
   31.6200008      -3.71923018E-03
   31.7350006      -3.54319555E-03
   31.8500004      -3.35365068E-03
   31.9650002      -3.15787969E-03
   32.0800018      -2.96388892E-03
   32.1949997      -2.77981721E-03
   32.3100014      -2.61332025E-03
   32.4249992      -2.47099949E-03
   32.5400009      -2.35792273E-03
   32.6549988      -2.27728300E-03
   32.7700005      -2.23022909E-03
   32.8849983      -2.21587718E-03
   33.0000000      -2.23150081E-03
   33.1150017      -2.27287784E-03
   33.2299995      -2.33474886E-03
   33.3450012      -2.41134642E-03
   33.4599991      -2.49693193E-03
   33.5750008      -2.58628908E-03
   33.6899986      -2.67512258E-03
   33.8050003      -2.76032579E-03
   33.9199982      -2.84009194E-03
   34.0349998      -2.91386712E-03
   34.1500015      -2.98215379E-03
   34.2649994      -3.04619642E-03
   34.3800011      -3.10759177E-03
   34.4949989      -3.16787069E-03
   34.6100006      -3.22810491E-03
   34.7249985      -3.28859081E-03
   34.8400002      -3.34864599E-03
   34.9550018      -3.40654654E-03
   35.0699997      -3.45961680E-03
   35.1850014      -3.50446254E-03
   35.2999992      -3.53732193E-03
   35.4150009      -3.55449901E-03
   35.5299988      -3.55282868E-03
   35.6450005      -3.53012048E-03
   35.7599983      -3.48552992E-03
   35.8750000      -3.41981021E-03
   35.9900017      -3.33541562E-03
   36.1049995      -3.23643559E-03
   36.2200012      -3.12835933E-03
   36.3349991      -3.01769353E-03
   36.4500008      -2.91146338E-03
   36.5649986      -2.81664939E-03
   36.6800003      -2.73960712E-03
   36.7949982      -2.68553523E-03
   36.9099998      -2.65804143E-03
   37.0250015      -2.65884469E-03
   37.1399994      -2.68765283E-03
   37.2550011      -2.74221809E-03
   37.3699989      -2.81857001E-03
   37.4850006      -2.91139819E-03
   37.5999985      -3.01454659E-03
   37.7150002      -3.12156929E-03
   37.8300018      -3.22629069E-03
   37.9449997      -3.32331634E-03
   38.0600014      -3.40844062E-03
   38.1749992      -3.47892009E-03
   38.2900009      -3.53358407E-03
   38.4049988      -3.57277552E-03
   38.5200005      -3.59814358E-03
   38.6349983      -3.61230457E-03
   38.7500000      -3.61842220E-03
   38.8650017      -3.61975189E-03
   38.9799995      -3.61920474E-03
   39.0950012      -3.61897657E-03
   39.2099991      -3.62028670E-03
   39.3250008      -3.62325506E-03
   39.4399986      -3.62692587E-03
   39.5550003      -3.62943648E-03
   39.6699982      -3.62830865E-03
   39.7849998      -3.62082804E-03
   39.9000015      -3.60446330E-03
   40.0149994      -3.57727753E-03
   40.1300011      -3.53828003E-03
   40.2449989      -3.48767522E-03
   40.3600006      -3.42697999E-03
   40.4749985      -3.35898343E-03
   40.5900002      -3.28755728E-03
   40.7050018      -3.21733090E-03
   40.8199997      -3.15326103E-03
   40.9350014      -3.10014351E-03
   41.0499992      -3.06211668E-03
   41.1650009      -3.04221245E-03
   41.2799988      -3.04200128E-03
   41.3950005      -3.06137395E-03
   41.5099983      -3.09848320E-03
   41.6250000      -3.14985937E-03
   41.7400017      -3.21068615E-03
   41.8549995      -3.27521376E-03
   41.9700012      -3.33727221E-03
   42.0849991      -3.39082908E-03
   42.2000008      -3.43053951E-03
   42.3149986      -3.45223420E-03
   42.4300003      -3.45329638E-03
   42.5449982      -3.43289063E-03
   42.6599998      -3.39202373E-03
   42.7750015      -3.33343027E-03
   42.8899994      -3.26129957E-03
   43.0050011      -3.18087428E-03
   43.1199989      -3.09795979E-03
   43.2350006      -3.01839900E-03
   43.3499985      -2.94756494E-03
   43.4650002      -2.88992259E-03
   43.5800018      -2.84870155E-03
   43.6949997      -2.82570976E-03
   43.8100014      -2.82130367E-03
   43.9249992      -2.83450773E-03
   44.0400009      -2.86326790E-03
   44.1549988      -2.90480349E-03
   44.2700005      -2.95601436E-03
   44.3849983      -3.01389256E-03
