  -1.50000000         1.99475618E-18
  -1.38125002        -2.21844965E-09
  -1.26250005        -1.02035127E-08
  -1.14374995        -3.22124762E-08
  -1.02499998        -8.61812879E-08
 -0.906250000        -2.08287815E-07
 -0.787500024        -4.66132491E-07
 -0.668749988        -9.76540150E-07
 -0.550000012        -1.92592120E-06
 -0.431250006        -3.58829948E-06
 -0.312500000        -6.33357422E-06
 -0.193749994        -1.06179568E-05
  -7.50000030E-02    -1.69513332E-05
   4.37499993E-02    -2.58427681E-05
  0.162499994        -3.77338838E-05
  0.281250000        -5.29371209E-05
  0.400000006        -7.15986025E-05
  0.518750012        -9.37018194E-05
  0.637499988        -1.19119446E-04
  0.756250024        -1.47709768E-04
  0.875000000        -1.79444149E-04
  0.993749976        -2.14545973E-04
   1.11249995        -2.53619568E-04
   1.23125005        -2.97748629E-04
   1.35000002        -3.48547270E-04
   1.46875000        -4.08150256E-04
   1.58749998        -4.79135400E-04
   1.70624995        -5.64375194E-04
   1.82500005        -6.66823762E-04
   1.94375002        -7.89249432E-04
   2.06250000        -9.33934993E-04
   2.18125010        -1.10236905E-03
   2.29999995        -1.29496097E-03
   2.41875005        -1.51081022E-03
   2.53749990        -1.74756034E-03
   2.65625000        -2.00136239E-03
   2.77500010        -2.26696348E-03
   2.89374995        -2.53792387E-03
   3.01250005        -2.80695432E-03
   3.13124990        -3.06635234E-03
   3.25000000        -3.30850063E-03
   3.36875010        -3.52638797E-03
   3.48749995        -3.71410348E-03
   3.60625005        -3.86725785E-03
   3.72499990        -3.98328900E-03
   3.84375000        -4.06162115E-03
   3.96250010        -4.10366151E-03
   4.08125019        -4.11262922E-03
   4.19999981        -4.09323582E-03
   4.31874990        -4.05124715E-03
   4.43750000        -3.99297196E-03
   4.55625010        -3.92472232E-03
   4.67500019        -3.85230477E-03
   4.79374981        -3.78058921E-03
   4.91249990        -3.71319219E-03
   5.03125000        -3.65230790E-03
   5.15000010        -3.59868817E-03
   5.26875019        -3.55177769E-03
   5.38749981        -3.50997085E-03
   5.50624990        -3.47096473E-03
   5.62500000        -3.43215838E-03
   5.74375010        -3.39105818E-03
   5.86250019        -3.34563991E-03
   5.98124981        -3.29463417E-03
   6.09999990        -3.23770219E-03
   6.21875000        -3.17549496E-03
   6.33750010        -3.10959155E-03
   6.45625019        -3.04233097E-03
   6.57499981        -2.97656399E-03
   6.69374990        -2.91535188E-03
   6.81250000        -2.86165345E-03
   6.93125010        -2.81803007E-03
   7.05000019        -2.78640026E-03
   7.16874981        -2.76786811E-03
   7.28749990        -2.76263547E-03
   7.40625000        -2.77000479E-03
   7.52500010        -2.78846431E-03
   7.64375019        -2.81584146E-03
   7.76249981        -2.84950808E-03
   7.88124990        -2.88660871E-03
   8.00000000        -2.92429584E-03
   8.11874962        -2.95994431E-03
   8.23750019        -2.99133174E-03
   8.35624981        -3.01676942E-03
   8.47500038        -3.03518004E-03
   8.59375000        -3.04611446E-03
   8.71249962        -3.04971915E-03
   8.83125019        -3.04665044E-03
   8.94999981        -3.03795515E-03
   9.06875038        -3.02492199E-03
   9.18750000        -3.00891930E-03
   9.30624962        -2.99123372E-03
   9.42500019        -2.97291903E-03
   9.54374981        -2.95467000E-03
   9.66250038        -2.93673272E-03
   9.78125000        -2.91885762E-03
   9.89999962        -2.90030451E-03
   10.0187502        -2.87990109E-03
   10.1374998        -2.85615446E-03
   10.2562504        -2.82740872E-03
   10.3750000        -2.79204035E-03
   10.4937496        -2.74867378E-03
   10.6125002        -2.69639748E-03
   10.7312498        -2.63496093E-03
   10.8500004        -2.56492780E-03
   10.9687500        -2.48776423E-03
   11.0874996        -2.40584696E-03
   11.2062502        -2.32237857E-03
   11.3249998        -2.24120962E-03
   11.4437504        -2.16657715E-03
   11.5625000        -2.10277387E-03
   11.6812496        -2.05377699E-03
   11.8000002        -2.02287314E-03
   11.9187498        -2.01230962E-03
   12.0375004        -2.02301634E-03
   12.1562500        -2.05442752E-03
   12.2749996        -2.10442464E-03
   12.3937502        -2.16942094E-03
   12.5124998        -2.24457984E-03
   12.6312504        -2.32415809E-03
   12.7500000        -2.40194029E-03
   12.8687496        -2.47173291E-03
   12.9875002        -2.52786698E-03
   13.1062498        -2.56566424E-03
   13.2250004        -2.58182106E-03
   13.3437500        -2.57467502E-03
   13.4624996        -2.54432368E-03
   13.5812502        -2.49259151E-03
   13.6999998        -2.42284476E-03
   13.8187504        -2.33967463E-03
   13.9375000        -2.24848557E-03
   14.0562496        -2.15502526E-03
   14.1750002        -2.06490699E-03
   14.2937498        -1.98316853E-03
   14.4125004        -1.91390875E-03
   14.5312500        -1.86003139E-03
   14.6499996        -1.82311703E-03
   14.7687502        -1.80342572E-03
   14.8874998        -1.80002057E-03
   15.0062504        -1.81099214E-03
   15.1250000        -1.83375028E-03
   15.2437496        -1.86534936E-03
   15.3625002        -1.90280809E-03
   15.4812498        -1.94339058E-03
   15.6000004        -1.98482093E-03
   15.7187500        -2.02541449E-03
   15.8374996        -2.06411816E-03
   15.9562502        -2.10046419E-03
   16.0750008        -2.13445094E-03
   16.1937504        -2.16637226E-03
   16.3125000        -2.19661929E-03
   16.4312496        -2.22548656E-03
   16.5499992        -2.25300109E-03
   16.6687508        -2.27880175E-03
   16.7875004        -2.30208016E-03
   16.9062500        -2.32159160E-03
   17.0249996        -2.33573350E-03
   17.1437492        -2.34268513E-03
   17.2625008        -2.34059291E-03
   17.3812504        -2.32778117E-03
   17.5000000        -2.30297074E-03
   17.6187496        -2.26547965E-03
   17.7374992        -2.21538916E-03
   17.8562508        -2.15365482E-03
   17.9750004        -2.08215648E-03
   18.0937500        -2.00367137E-03
   18.2124996        -1.92177703E-03
   18.3312492        -1.84068282E-03
   18.4500008        -1.76500052E-03
   18.5687504        -1.69946800E-03
   18.6875000        -1.64864538E-03
   18.8062496        -1.61660113E-03
   18.9249992        -1.60661316E-03
   19.0437508        -1.62090641E-03
   19.1625004        -1.66044780E-03
   19.2812500        -1.72481837E-03
   19.3999996        -1.81217422E-03
   19.5187492        -1.91930705E-03
   19.6375008        -2.04180204E-03
   19.7562504        -2.17429013E-03
   19.8750000        -2.31077545E-03
   19.9937496        -2.44502281E-03
   20.1124992        -2.57096905E-03
   20.2312508        -2.68313615E-03
   20.3500004        -2.77700345E-03
   20.4687500        -2.84931506E-03
   20.5874996        -2.89829122E-03
   20.7062492        -2.92372401E-03
   20.8250008        -2.92694848E-03
   20.9437504        -2.91068992E-03
   21.0625000        -2.87879887E-03
   21.1812496        -2.83589750E-03
   21.2999992        -2.78696907E-03
   21.4187508        -2.73692934E-03
   21.5375004        -2.69021513E-03
   21.6562500        -2.65043485E-03
   21.7749996        -2.62010819E-03
   21.8937492        -2.60052038E-03
   22.0125008        -2.59170192E-03
   22.1312504        -2.59253220E-03
   22.2500000        -2.60095741E-03
   22.3687496        -2.61428999E-03
   22.4874992        -2.62956205E-03
   22.6062508        -2.64389208E-03
   22.7250004        -2.65482441E-03
   22.8437500        -2.66060582E-03
   22.9624996        -2.66037299E-03
   23.0812492        -2.65422906E-03
   23.2000008        -2.64320639E-03
   23.3187504        -2.62912153E-03
   23.4375000        -2.61434074E-03
   23.5562496        -2.60148477E-03
   23.6749992        -2.59310682E-03
   23.7937508        -2.59138038E-03
   23.9125004        -2.59783166E-03
   24.0312500        -2.61314726E-03
   24.1499996        -2.63707526E-03
   24.2687492        -2.66843149E-03
   24.3875008        -2.70521012E-03
   24.5062504        -2.74478085E-03
   24.6250000        -2.78415624E-03
   24.7437496        -2.82029505E-03
   24.8624992        -2.85041076E-03
   24.9812508        -2.87225191E-03
   25.1000004        -2.88432487E-03
   25.2187500        -2.88603781E-03
   25.3374996        -2.87774880E-03
   25.4562492        -2.86071980E-03
   25.5750008        -2.83697597E-03
   25.6937504        -2.80909264E-03
   25.8125000        -2.77992734E-03
   25.9312496        -2.75232736E-03
   26.0499992        -2.72884173E-03
   26.1687508        -2.71146651E-03
   26.2875004        -2.70144828E-03
   26.4062500        -2.69916281E-03
   26.5249996        -2.70408369E-03
   26.6437492        -2.71484023E-03
   26.7625008        -2.72935932E-03
   26.8812504        -2.74507981E-03
   27.0000000        -2.75921542E-03
   27.1187496        -2.76904530E-03
   27.2374992        -2.77220388E-03
   27.3562508        -2.76694540E-03
   27.4750004        -2.75235367E-03
   27.5937500        -2.72848597E-03
   27.7124996        -2.69642891E-03
   27.8312492        -2.65826471E-03
   27.9500008        -2.61694472E-03
   28.0687504        -2.57608364E-03
   28.1875000        -2.53968290E-03
   28.3062496        -2.51181121E-03
   28.4249992        -2.49626278E-03
   28.5437508        -2.49622203E-03
   28.6625004        -2.51396559E-03
   28.7812500        -2.55062198E-03
   28.8999996        -2.60601495E-03
   29.0187492        -2.67860410E-03
   29.1375008        -2.76553049E-03
   29.2562504        -2.86276825E-03
   29.3750000        -2.96537136E-03
   29.4937496        -3.06779984E-03
   29.6124992        -3.16430070E-03
   29.7312508        -3.24931438E-03
   29.8500004        -3.31787253E-03
   29.9687500        -3.36595881E-03
   30.0874996        -3.39079788E-03
   30.2062492        -3.39105166E-03
   30.3250008        -3.36690620E-03
   30.4437504        -3.32003972E-03
   30.5625000        -3.25347646E-03
   30.6812496        -3.17134196E-03
   30.7999992        -3.07853380E-03
   30.9187508        -2.98034865E-03
   31.0375004        -2.88208714E-03
   31.1562500        -2.78868154E-03
   31.2749996        -2.70436937E-03
   31.3937492        -2.63244845E-03
   31.5125008        -2.57512671E-03
   31.6312504        -2.53347959E-03
   31.7500000        -2.50750920E-03
   31.8687496        -2.49629933E-03
   31.9874992        -2.49823974E-03
   32.1062508        -2.51129270E-03
   32.2249985        -2.53327284E-03
   32.3437500        -2.56210379E-03
   32.4625015        -2.59602815E-03
   32.5812492        -2.63374066E-03
   32.7000008        -2.67444085E-03
   32.8187485        -2.71779369E-03
   32.9375000        -2.76380987E-03
   33.0562515        -2.81266216E-03
   33.1749992        -2.86446256E-03
   33.2937508        -2.91903061E-03
   33.4124985        -2.97568529E-03
   33.5312500        -3.03308922E-03
   33.6500015        -3.08916951E-03
   33.7687492        -3.14113172E-03
   33.8875008        -3.18557234E-03
   34.0062485        -3.21868458E-03
   34.1250000        -3.23653920E-03
   34.2437515        -3.23541788E-03
   34.3624992        -3.21216532E-03
   34.4812508        -3.16452398E-03
   34.5999985        -3.09142028E-03
   34.7187500        -2.99316738E-03
   34.8375015        -2.87156436E-03
   34.9562492        -2.72987457E-03
   35.0750008        -2.57268501E-03
   35.1937485        -2.40565161E-03
   35.3125000        -2.23515159E-03
   35.4312515        -2.06787093E-03
   35.5499992        -1.91036053E-03
   35.6687508        -1.76860066E-03
   35.7874985        -1.64760638E-03
   35.9062500        -1.55110878E-03
   36.0250015        -1.48133584E-03
   36.1437492        -1.43891107E-03
   36.2625008        -1.42287242E-03
   36.3812485        -1.43081066E-03
   36.5000000        -1.45911018E-03
   36.6187515        -1.50327047E-03
   36.7374992        -1.55828067E-03
   36.8562508        -1.61901372E-03
   36.9749985        -1.68061000E-03
   37.0937500        -1.73881883E-03
   37.2125015        -1.79027277E-03
   37.3312492        -1.83267647E-03
   37.4500008        -1.86489848E-03
   37.5687485        -1.88696326E-03
   37.6875000        -1.89994869E-03
   37.8062515        -1.90580252E-03
   37.9249992        -1.90709648E-03
   38.0437508        -1.90673978E-03
   38.1624985        -1.90767972E-03
   38.2812500        -1.91261433E-03
   38.4000015        -1.92373933E-03
   38.5187492        -1.94255263E-03
   38.6375008        -1.96972908E-03
   38.7562485        -2.00507650E-03
   38.8750000        -2.04757182E-03
   38.9937515        -2.09547789E-03
   39.1124992        -2.14652158E-03
   39.2312508        -2.19812361E-03
   39.3499985        -2.24765087E-03
   39.4687500        -2.29267450E-03
   39.5875015        -2.33120308E-03
   39.7062492        -2.36187153E-03
   39.8250008        -2.38406775E-03
   39.9437485        -2.39798147E-03
   40.0625000        -2.40457430E-03
   40.1812515        -2.40546884E-03
   40.2999992        -2.40277010E-03
   40.4187508        -2.39883550E-03
   40.5374985        -2.39601778E-03
   40.6562500        -2.39640358E-03
   40.7750015        -2.40158173E-03
   40.8937492        -2.41245958E-03
   41.0125008        -2.42915167E-03
   41.1312485        -2.45095557E-03
   41.2500000        -2.47641490E-03
   41.3687515        -2.50346889E-03
   41.4874992        -2.52967211E-03
   41.6062508        -2.55246274E-03
   41.7249985        -2.56944960E-03
   41.8437500        -2.57868972E-03
   41.9625015        -2.57892068E-03
   42.0812492        -2.56972504E-03
   42.2000008        -2.55160546E-03
   42.3187485        -2.52595847E-03
   42.4375000        -2.49494798E-03
   42.5562515        -2.46128929E-03
   42.6749992        -2.42796517E-03
   42.7937508        -2.39790394E-03
   42.9124985        -2.37365137E-03
   43.0312500        -2.35707755E-03
   43.1500015        -2.34914478E-03
   43.2687492        -2.34976923E-03
   43.3875008        -2.35779095E-03
   43.5062485        -2.37105903E-03
   43.6250000        -2.38662446E-03
   43.7437515        -2.40102597E-03
   43.8624992        -2.41063745E-03
   43.9812508        -2.41204677E-03
   44.0999985        -2.40242272E-03
   44.2187500        -2.37983954E-03
   44.3375015        -2.34351889E-03
   44.4562492        -2.29397207E-03
   44.5750008        -2.23301956E-03
   44.6937485        -2.16369377E-03
   44.8125000        -2.09002476E-03
   44.9312515        -2.01673713E-03
   45.0499992        -1.94887852E-03
   45.1687508        -1.89142115E-03
   45.2874985        -1.84886472E-03
   45.4062500        -1.82488025E-03
   45.5250015        -1.82202389E-03
   45.6437492        -1.84154068E-03
   45.7625008        -1.88327557E-03
   45.8812485        -1.94569211E-03
