  -1.50000000       0.00000000    
  -1.38499999      -2.15166485E-09
  -1.26999998      -9.45201872E-09
  -1.15499997      -2.83897972E-08
  -1.03999996      -7.23436884E-08
 -0.925000012      -1.67089411E-07
 -0.810000002      -3.58603103E-07
 -0.694999993      -7.22336267E-07
 -0.579999983      -1.37144843E-06
 -0.465000004      -2.45949786E-06
 -0.349999994      -4.17178353E-06
 -0.234999999      -6.70028339E-06
 -0.119999997      -1.02010817E-05
  -4.99999989E-03  -1.47403580E-05
  0.109999999      -2.02435949E-05
  0.224999994      -2.64694372E-05
  0.340000004      -3.30309049E-05
  0.455000013      -3.94804156E-05
  0.569999993      -4.54619258E-05
  0.685000002      -5.09167476E-05
  0.800000012      -5.63142858E-05
  0.915000021      -6.28688285E-05
   1.02999997      -7.27015504E-05
   1.14499998      -8.89122457E-05
   1.25999999      -1.15536866E-04
   1.37500000      -1.57381714E-04
   1.49000001      -2.19741327E-04
   1.60500002      -3.08021117E-04
   1.72000003      -4.27298743E-04
   1.83500004      -5.81865606E-04
   1.95000005      -7.74794666E-04
   2.06500006      -1.00757834E-03
   2.18000007      -1.27987599E-03
   2.29500008      -1.58939825E-03
   2.41000009      -1.93194486E-03
   2.52500010      -2.30159471E-03
   2.64000010      -2.69103446E-03
   2.75500011      -3.09199444E-03
   2.86999989      -3.49575654E-03
   2.98499990      -3.89368227E-03
   3.09999990      -4.27771779E-03
   3.21499991      -4.64082975E-03
   3.32999992      -4.97733057E-03
   3.44499993      -5.28307771E-03
   3.55999994      -5.55552496E-03
   3.67499995      -5.79363899E-03
   3.78999996      -5.99769456E-03
   3.90499997      -6.16897736E-03
   4.01999998      -6.30944455E-03
   4.13500023      -6.42136903E-03
   4.25000000      -6.50702696E-03
   4.36499977      -6.56845002E-03
   4.48000002      -6.60727685E-03
   4.59499979      -6.62471820E-03
   4.71000004      -6.62162248E-03
   4.82499981      -6.59864489E-03
   4.94000006      -6.55647228E-03
   5.05499983      -6.49608998E-03
   5.17000008      -6.41902583E-03
   5.28499985      -6.32755505E-03
   5.40000010      -6.22481294E-03
   5.51499987      -6.11480186E-03
   5.63000011      -6.00227481E-03
   5.74499989      -5.89250261E-03
   5.86000013      -5.79093909E-03
   5.97499990      -5.70281316E-03
   6.09000015      -5.63269621E-03
   6.20499992      -5.58408024E-03
   6.32000017      -5.55902533E-03
   6.43499994      -5.55790681E-03
   6.55000019      -5.57930348E-03
   6.66499996      -5.62004279E-03
   6.78000021      -5.67540247E-03
   6.89499998      -5.73946349E-03
   7.01000023      -5.80557529E-03
   7.12500000      -5.86689869E-03
   7.23999977      -5.91696845E-03
   7.35500002      -5.95023250E-03
   7.46999979      -5.96250314E-03
   7.58500004      -5.95128397E-03
   7.69999981      -5.91594214E-03
   7.81500006      -5.85770747E-03
   7.92999983      -5.77949965E-03
   8.04500008      -5.68561023E-03
   8.15999985      -5.58126392E-03
   8.27499962      -5.47211710E-03
   8.39000034      -5.36373351E-03
   8.50500011      -5.26110316E-03
   8.61999989      -5.16824331E-03
   8.73499966      -5.08792605E-03
   8.85000038      -5.02155116E-03
   8.96500015      -4.96917870E-03
   9.07999992      -4.92970366E-03
   9.19499969      -4.90115164E-03
   9.31000042      -4.88105463E-03
   9.42500019      -4.86686081E-03
   9.53999996      -4.85632196E-03
   9.65499973      -4.84781899E-03
   9.77000046      -4.84057562E-03
   9.88500023      -4.83474182E-03
   10.0000000      -4.83133225E-03
   10.1149998      -4.83202515E-03
   10.2299995      -4.83884849E-03
   10.3450003      -4.85379109E-03
   10.4600000      -4.87838173E-03
   10.5749998      -4.91330028E-03
   10.6899996      -4.95805824E-03
   10.8050003      -5.01080370E-03
   10.9200001      -5.06827980E-03
   11.0349998      -5.12594404E-03
   11.1499996      -5.17825782E-03
   11.2650003      -5.21911122E-03
   11.3800001      -5.24235610E-03
   11.4949999      -5.24238311E-03
   11.6099997      -5.21469815E-03
   11.7250004      -5.15642436E-03
   11.8400002      -5.06668724E-03
   11.9549999      -4.94682882E-03
   12.0699997      -4.80043283E-03
   12.1850004      -4.63314494E-03
   12.3000002      -4.45230305E-03
   12.4150000      -4.26641339E-03
   12.5299997      -4.08451306E-03
   12.6450005      -3.91548499E-03
   12.7600002      -3.76738771E-03
   12.8750000      -3.64686106E-03
   12.9899998      -3.55867064E-03
   13.1049995      -3.50542460E-03
   13.2200003      -3.48749105E-03
   13.3350000      -3.50311678E-03
   13.4499998      -3.54872993E-03
   13.5649996      -3.61938705E-03
   13.6800003      -3.70931812E-03
   13.7950001      -3.81250400E-03
   13.9099998      -3.92322382E-03
   14.0249996      -4.03652014E-03
   14.1400003      -4.14852845E-03
   14.2550001      -4.25664056E-03
   14.3699999      -4.35949676E-03
   14.4849997      -4.45680600E-03
   14.6000004      -4.54903161E-03
   14.7150002      -4.63697873E-03
   14.8299999      -4.72134538E-03
   14.9449997      -4.80229314E-03
   15.0600004      -4.87909792E-03
   15.1750002      -4.94992873E-03
   15.2900000      -5.01179136E-03
   15.4049997      -5.06065087E-03
   15.5200005      -5.09172631E-03
   15.6350002      -5.09993639E-03
   15.7500000      -5.08044660E-03
   15.8649998      -5.02926623E-03
   15.9799995      -4.94381972E-03
   16.0949993      -4.82343556E-03
   16.2099991      -4.66968678E-03
   16.3250008      -4.48654592E-03
   16.4400005      -4.28031338E-03
   16.5550003      -4.05933242E-03
   16.6700001      -3.83349275E-03
   16.7849998      -3.61357885E-03
   16.8999996      -3.41050653E-03
   17.0149994      -3.23452684E-03
   17.1299992      -3.09447013E-03
   17.2450008      -2.99709849E-03
   17.3600006      -2.94663222E-03
   17.4750004      -2.94449134E-03
   17.5900002      -2.98927631E-03
   17.7049999      -3.07698688E-03
   17.8199997      -3.20145674E-03
   17.9349995      -3.35495453E-03
   18.0499992      -3.52889276E-03
   18.1650009      -3.71456961E-03
   18.2800007      -3.90387443E-03
   18.3950005      -4.08988073E-03
   18.5100002      -4.26727766E-03
   18.6250000      -4.43260092E-03
   18.7399998      -4.58424492E-03
   18.8549995      -4.72226925E-03
   18.9699993      -4.84802714E-03
   19.0849991      -4.96367225E-03
   19.2000008      -5.07159904E-03
   19.3150005      -5.17389458E-03
   19.4300003      -5.27186180E-03
   19.5450001      -5.36567951E-03
   19.6599998      -5.45423338E-03
   19.7749996      -5.53514622E-03
   19.8899994      -5.60500333E-03
   20.0049992      -5.65974368E-03
   20.1200008      -5.69517817E-03
   20.2350006      -5.70756989E-03
   20.3500004      -5.69421099E-03
   20.4650002      -5.65392338E-03
   20.5799999      -5.58741624E-03
   20.6949997      -5.49746444E-03
   20.8099995      -5.38886152E-03
   20.9249992      -5.26815420E-03
   21.0400009      -5.14316931E-03
   21.1550007      -5.02238004E-03
   21.2700005      -4.91416547E-03
   21.3850002      -4.82604327E-03
   21.5000000      -4.76395013E-03
   21.6149998      -4.73164394E-03
   21.7299995      -4.73029260E-03
   21.8449993      -4.75829979E-03
   21.9599991      -4.81137959E-03
   22.0750008      -4.88288701E-03
   22.1900005      -4.96437168E-03
   22.3050003      -5.04629733E-03
   22.4200001      -5.11886552E-03
   22.5349998      -5.17286034E-03
   22.6499996      -5.20043122E-03
   22.7649994      -5.19573875E-03
   22.8799992      -5.15540550E-03
   22.9950008      -5.07872505E-03
   23.1100006      -4.96762386E-03
   23.2250004      -4.82637249E-03
   23.3400002      -4.66109626E-03
   23.4549999      -4.47912561E-03
   23.5699997      -4.28827200E-03
   23.6849995      -4.09609731E-03
   23.7999992      -3.90925724E-03
   23.9150009      -3.73298349E-03
   24.0300007      -3.57076200E-03
   24.1450005      -3.42422607E-03
   24.2600002      -3.29327653E-03
   24.3750000      -3.17640556E-03
   24.4899998      -3.07117775E-03
   24.6049995      -2.97480985E-03
   24.7199993      -2.88477703E-03
   24.8349991      -2.79936683E-03
   24.9500008      -2.71811988E-03
   25.0650005      -2.64209160E-03
   25.1800003      -2.57391087E-03
   25.2950001      -2.51761475E-03
   25.4099998      -2.47827894E-03
   25.5249996      -2.46148068E-03
   25.6399994      -2.47265073E-03
   25.7549992      -2.51638796E-03
   25.8700008      -2.59581371E-03
   25.9850006      -2.71203858E-03
   26.1000004      -2.86380947E-03
   26.2150002      -3.04738036E-03
   26.3299999      -3.25662969E-03
   26.4449997      -3.48342326E-03
   26.5599995      -3.71819083E-03
   26.6749992      -3.95066617E-03
   26.7900009      -4.17071860E-03
   26.9050007      -4.36919555E-03
   27.0200005      -4.53869300E-03
   27.1350002      -4.67417622E-03
   27.2500000      -4.77338769E-03
   27.3649998      -4.83699981E-03
   27.4799995      -4.86850180E-03
   27.5949993      -4.87382384E-03
   27.7099991      -4.86074388E-03
   27.8250008      -4.83813230E-03
   27.9400005      -4.81511001E-03
   28.0550003      -4.80021024E-03
   28.1700001      -4.80061537E-03
   28.2849998      -4.82155383E-03
   28.3999996      -4.86590667E-03
   28.5149994      -4.93405852E-03
   28.6299992      -5.02400240E-03
   28.7450008      -5.13167679E-03
   28.8600006      -5.25149237E-03
   28.9750004      -5.37698902E-03
   29.0900002      -5.50154271E-03
   29.2049999      -5.61905047E-03
   29.3199997      -5.72451251E-03
   29.4349995      -5.81445638E-03
   29.5499992      -5.88715170E-03
   29.6650009      -5.94260776E-03
   29.7800007      -5.98235009E-03
   29.8950005      -6.00901525E-03
   30.0100002      -6.02580933E-03
   30.1250000      -6.03590067E-03
   30.2399998      -6.04182808E-03
   30.3549995      -6.04497967E-03
   30.4699993      -6.04523392E-03
   30.5849991      -6.04078546E-03
   30.7000008      -6.02819957E-03
   30.8150005      -6.00269018E-03
   30.9300003      -5.95859252E-03
   31.0450001      -5.88999363E-03
   31.1599998      -5.79144154E-03
   31.2749996      -5.65867126E-03
   31.3899994      -5.48925204E-03
   31.5049992      -5.28309867E-03
   31.6200008      -5.04277227E-03
   31.7350006      -4.77353949E-03
   31.8500004      -4.48317733E-03
   31.9650002      -4.18152474E-03
   32.0800018      -3.87983304E-03
   32.1949997      -3.58995912E-03
   32.3100014      -3.32349259E-03
   32.4249992      -3.09088640E-03
   32.5400009      -2.90068216E-03
   32.6549988      -2.75889877E-03
   32.7700005      -2.66864547E-03
   32.8849983      -2.62998929E-03
   33.0000000      -2.64008739E-03
   33.1150017      -2.69356696E-03
   33.2299995      -2.78310664E-03
   33.3450012      -2.90016015E-03
   33.4599991      -3.03574349E-03
   33.5750008      -3.18120769E-03
   33.6899986      -3.32891615E-03
   33.8050003      -3.47276777E-03
   33.9199982      -3.60851246E-03
   34.0349998      -3.73383984E-03
   34.1500015      -3.84824211E-03
   34.2649994      -3.95267643E-03
   34.3800011      -4.04907810E-03
   34.4949989      -4.13978612E-03
   34.6100006      -4.22695326E-03
   34.7249985      -4.31201607E-03
   34.8400002      -4.39528981E-03
   34.9550018      -4.47573280E-03
   35.0699997      -4.55092127E-03
   35.1850014      -4.61722957E-03
   35.2999992      -4.67019854E-03
   35.4150009      -4.70505934E-03
   35.5299988      -4.71734442E-03
   35.6450005      -4.70351614E-03
   35.7599983      -4.66154423E-03
   35.8750000      -4.59135836E-03
   35.9900017      -4.49511874E-03
   36.1049995      -4.37726919E-03
   36.2200012      -4.24435362E-03
   36.3349991      -4.10460820E-03
   36.4500008      -3.96736898E-03
   36.5649986      -3.84233380E-03
   36.6800003      -3.73877096E-03
   36.7949982      -3.66473338E-03
   36.9099998      -3.62636778E-03
   37.0250015      -3.62738268E-03
   37.1399994      -3.66872968E-03
   37.2550011      -3.74853052E-03
   37.3699989      -3.86225572E-03
   37.4850006      -4.00313735E-03
   37.5999985      -4.16277349E-03
   37.7150002      -4.33186442E-03
   37.8300018      -4.50100610E-03
   37.9449997      -4.66146227E-03
   38.0600014      -4.80584288E-03
   38.1749992      -4.92862193E-03
   38.2900009      -5.02645271E-03
   38.4049988      -5.09825023E-03
   38.5200005      -5.14504779E-03
   38.6349983      -5.16965240E-03
   38.7500000      -5.17613720E-03
   38.8650017      -5.16924076E-03
   38.9799995      -5.15373796E-03
   39.0950012      -5.13385888E-03
   39.2099991      -5.11280820E-03
   39.3250008      -5.09245368E-03
   39.4399986      -5.07319719E-03
   39.5550003      -5.05405059E-03
   39.6699982      -5.03289513E-03
   39.7849998      -5.00689214E-03
   39.9000015      -4.97299572E-03
   40.0149994      -4.92849434E-03
   40.1300011      -4.87152580E-03
   40.2449989      -4.80149454E-03
   40.3600006      -4.71934164E-03
   40.4749985      -4.62762918E-03
   40.5900002      -4.53042332E-03
   40.7050018      -4.43298789E-03
   40.8199997      -4.34131362E-03
   40.9350014      -4.26153373E-03
   41.0499992      -4.19928553E-03
   41.1650009      -4.15909057E-03
   41.2799988      -4.14382294E-03
   41.3950005      -4.15431662E-03
   41.5099983      -4.18917276E-03
   41.6250000      -4.24477691E-03
   41.7400017      -4.31554392E-03
   41.8549995      -4.39436082E-03
   41.9700012      -4.47318796E-03
   42.0849991      -4.54376545E-03
   42.2000008      -4.59835073E-03
   42.3149986      -4.63041523E-03
   42.4300003      -4.63523483E-03
   42.5449982      -4.61031497E-03
   42.6599998      -4.55560908E-03
   42.7750015      -4.47350973E-03
   42.8899994      -4.36862139E-03
   43.0050011      -4.24733292E-03
   43.1199989      -4.11724346E-03
   43.2350006      -3.98649555E-03
   43.3499985      -3.86308739E-03
   43.4650002      -3.75422463E-03
   43.5800018      -3.66578856E-03
   43.6949997      -3.60195688E-03
   43.8100014      -3.56501271E-03
   43.9249992      -3.55535420E-03
   44.0400009      -3.57169146E-03
   44.1549988      -3.61139956E-03
   44.2700005      -3.67097952E-03
   44.3849983      -3.74657079E-03
