  -1.50000000        -7.91288793E-20
  -1.38125002        -1.43153089E-09
  -1.26250005        -6.38171027E-09
  -1.14374995        -1.94809324E-08
  -1.02499998        -5.04633384E-08
 -0.906250000        -1.18341241E-07
 -0.787500024        -2.57287667E-07
 -0.668749988        -5.23448477E-07
 -0.550000012        -1.00049124E-06
 -0.431250006        -1.80013740E-06
 -0.312500000        -3.05313210E-06
 -0.193749994        -4.88726664E-06
  -7.50000030E-02    -7.39299776E-06
   4.37499993E-02    -1.05835279E-05
  0.162499994        -1.43629413E-05
  0.281250000        -1.85201006E-05
  0.400000006        -2.27647015E-05
  0.518750012        -2.68142285E-05
  0.637499988        -3.05281901E-05
  0.756250024        -3.40725965E-05
  0.875000000        -3.80871497E-05
  0.993749976        -4.38230891E-05
   1.11249995        -5.32215345E-05
   1.23125005        -6.89100270E-05
   1.35000002        -9.41062899E-05
   1.46875000        -1.32430869E-04
   1.58749998        -1.87642814E-04
   1.70624995        -2.63322872E-04
   1.82500005        -3.62535706E-04
   1.94375002        -4.87507175E-04
   2.06250000        -6.39351492E-04
   2.18125010        -8.17879511E-04
   2.29999995        -1.02151034E-03
   2.41875005        -1.24729960E-03
   2.53749990        -1.49108353E-03
   2.65625000        -1.74772751E-03
   2.77500010        -2.01145443E-03
   2.89374995        -2.27622292E-03
   3.01250005        -2.53611617E-03
   3.13124990        -2.78570759E-03
   3.25000000        -3.02036386E-03
   3.36875010        -3.23646283E-03
   3.48749995        -3.43150715E-03
   3.60625005        -3.60412756E-03
   3.72499990        -3.75398621E-03
   3.84375000        -3.88159696E-03
   3.96250010        -3.98808718E-03
   4.08125019        -4.07493906E-03
   4.19999981        -4.14373958E-03
   4.31874990        -4.19597235E-03
   4.43750000        -4.23287693E-03
   4.55625010        -4.25538467E-03
   4.67500019        -4.26414702E-03
   4.79374981        -4.25962918E-03
   4.91249990        -4.24227305E-03
   5.03125000        -4.21268260E-03
   5.15000010        -4.17181803E-03
   5.26875019        -4.12114849E-03
   5.38749981        -4.06275317E-03
   5.50624990        -3.99933849E-03
   5.62500000        -3.93415894E-03
   5.74375010        -3.87085439E-03
   5.86250019        -3.81320110E-03
   5.98124981        -3.76481330E-03
   6.09999990        -3.72882164E-03
   6.21875000        -3.70756350E-03
   6.33750010        -3.70232854E-03
   6.45625019        -3.71318520E-03
   6.57499981        -3.73891648E-03
   6.69374990        -3.77707719E-03
   6.81250000        -3.82417161E-03
   6.93125010        -3.87593592E-03
   7.05000019        -3.92770441E-03
   7.16874981        -3.97481676E-03
   7.28749990        -4.01302986E-03
   7.40625000        -4.03889269E-03
   7.52500010        -4.05003875E-03
   7.64375019        -4.04537562E-03
   7.76249981        -4.02514590E-03
   7.88124990        -3.99085740E-03
   8.00000000        -3.94509127E-03
   8.11874962        -3.89121100E-03
   8.23750019        -3.83300707E-03
   8.35624981        -3.77431419E-03
   8.47500038        -3.71864904E-03
   8.59375000        -3.66890058E-03
   8.71249962        -3.62711144E-03
   8.83125019        -3.59437126E-03
   8.94999981        -3.57082416E-03
   9.06875038        -3.55579052E-03
   9.18750000        -3.54797929E-03
   9.30624962        -3.54576018E-03
   9.42500019        -3.54746124E-03
   9.54374981        -3.55164730E-03
   9.66250038        -3.55734630E-03
   9.78125000        -3.56418965E-03
   9.89999962        -3.57245025E-03
   10.0187502        -3.58297070E-03
   10.1374998        -3.59699246E-03
   10.2562504        -3.61590507E-03
   10.3750000        -3.64094879E-03
   10.4937496        -3.67291295E-03
   10.6125002        -3.71186691E-03
   10.7312498        -3.75696621E-03
   10.8500004        -3.80636146E-03
   10.9687500        -3.85723147E-03
   11.0874996        -3.90594359E-03
   11.2062502        -3.94832948E-03
   11.3249998        -3.98005219E-03
   11.4437504        -3.99702834E-03
   11.5625000        -3.99585767E-03
   11.6812496        -3.97421280E-03
   11.8000002        -3.93114798E-03
   11.9187498        -3.86728323E-03
   12.0375004        -3.78484861E-03
   12.1562500        -3.68756941E-03
   12.2749996        -3.58040980E-03
   12.3937502        -3.46919126E-03
   12.5124998        -3.36012803E-03
   12.6312504        -3.25932377E-03
   12.7500000        -3.17228143E-03
   12.8687496        -3.10347625E-03
   12.9875002        -3.05603491E-03
   13.1062498        -3.03154765E-03
   13.2250004        -3.03003564E-03
   13.3437500        -3.05006746E-03
   13.4624996        -3.08900792E-03
   13.5812502        -3.14336759E-03
   13.6999998        -3.20920907E-03
   13.8187504        -3.28256330E-03
   13.9375000        -3.35980603E-03
   14.0562496        -3.43795377E-03
   14.1750002        -3.51484492E-03
   14.2937498        -3.58919357E-03
   14.4125004        -3.66050866E-03
   14.5312500        -3.72890173E-03
   14.6499996        -3.79480771E-03
   14.7687502        -3.85866128E-03
   14.8874998        -3.92057654E-03
   15.0062504        -3.98007641E-03
   15.1250000        -4.03591059E-03
   15.2437496        -4.08599339E-03
   15.3625002        -4.12747916E-03
   15.4812498        -4.15696949E-03
   15.6000004        -4.17083409E-03
   15.7187500        -4.16561635E-03
   15.8374996        -4.13846783E-03
   15.9562502        -4.08757618E-03
   16.0750008        -4.01251623E-03
   16.1937504        -3.91449407E-03
   16.3125000        -3.79644101E-03
   16.4312496        -3.66294081E-03
   16.5499992        -3.51999048E-03
   16.6687508        -3.37460940E-03
   16.7875004        -3.23433662E-03
   16.9062500        -3.10665928E-03
   17.0249996        -2.99843191E-03
   17.1437492        -2.91534187E-03
   17.2625008        -2.86147953E-03
   17.3812504        -2.83905026E-03
   17.5000000        -2.84826057E-03
   17.6187496        -2.88738986E-03
   17.7374992        -2.95302854E-03
   17.8562508        -3.04046553E-03
   17.9750004        -3.14417342E-03
   18.0937500        -3.25834053E-03
   18.2124996        -3.37739149E-03
   18.3312492        -3.49644246E-03
   18.4500008        -3.61164007E-03
   18.5687504        -3.72035848E-03
   18.6875000        -3.82123329E-03
   18.8062496        -3.91404144E-03
   18.9249992        -3.99944419E-03
   19.0437508        -4.07863781E-03
   19.1625004        -4.15295549E-03
   19.2812500        -4.22347616E-03
   19.3999996        -4.29069391E-03
   19.5187492        -4.35428740E-03
   19.6375008        -4.41303058E-03
   19.7562504        -4.46484471E-03
   19.8750000        -4.50700196E-03
   19.9937496        -4.53644386E-03
   20.1124992        -4.55018645E-03
   20.2312508        -4.54575475E-03
   20.3500004        -4.52159857E-03
   20.4687500        -4.47742362E-03
   20.5874996        -4.41440754E-03
   20.7062492        -4.33525210E-03
   20.8250008        -4.24406910E-03
   20.9437504        -4.14609723E-03
   21.0625000        -4.04727738E-03
   21.1812496        -3.95372789E-03
   21.2999992        -3.87117174E-03
   21.4187508        -3.80438147E-03
   21.5375004        -3.75669636E-03
   21.6562500        -3.72967031E-03
   21.7749996        -3.72289028E-03
   21.8937492        -3.73398466E-03
   22.0125008        -3.75882979E-03
   22.1312504        -3.79192689E-03
   22.2500000        -3.82691994E-03
   22.3687496        -3.85719421E-03
   22.4874992        -3.87649750E-03
   22.6062508        -3.87951452E-03
   22.7250004        -3.86234256E-03
   22.8437500        -3.82281258E-03
   22.9624996        -3.76062607E-03
   23.0812492        -3.67730507E-03
   23.2000008        -3.57595156E-03
   23.3187504        -3.46086267E-03
   23.4375000        -3.33703705E-03
   23.5562496        -3.20963701E-03
   23.6749992        -3.08346492E-03
   23.7937508        -2.96251825E-03
   23.9125004        -2.84966477E-03
   24.0312500        -2.74648028E-03
   24.1499996        -2.65325513E-03
   24.2687492        -2.56917137E-03
   24.3875008        -2.49261525E-03
   24.5062504        -2.42158934E-03
   24.6250000        -2.35416554E-03
   24.7437496        -2.28891987E-03
   24.8624992        -2.22529168E-03
   24.9812508        -2.16381927E-03
   25.1000004        -2.10621906E-03
   25.2187500        -2.05529248E-03
   25.3374996        -2.01466819E-03
   25.4562492        -1.98840792E-03
   25.5750008        -1.98051846E-03
   25.6937504        -1.99442916E-03
   25.8125000        -2.03249441E-03
   25.9312496        -2.09558662E-03
   26.0499992        -2.18282756E-03
   26.1687508        -2.29149801E-03
   26.2875004        -2.41714227E-03
   26.4062500        -2.55386299E-03
   26.5249996        -2.69478257E-03
   26.6437492        -2.83262064E-03
   26.7625008        -2.96033383E-03
   26.8812504        -3.07174865E-03
   27.0000000        -3.16211698E-03
   27.1187496        -3.22854030E-03
   27.2374992        -3.27021163E-03
   27.3562508        -3.28845344E-03
   27.4750004        -3.28654447E-03
   27.5937500        -3.26935481E-03
   27.7124996        -3.24283028E-03
   27.8312492        -3.21338186E-03
   27.9500008        -3.18724592E-03
   28.0687504        -3.16988165E-03
   28.1875000        -3.16547300E-03
   28.3062496        -3.17658251E-03
   28.4249992        -3.20399203E-03
   28.5437508        -3.24674230E-03
   28.6625004        -3.30235972E-03
   28.7812500        -3.36723705E-03
   28.8999996        -3.43712163E-03
   29.0187492        -3.50764859E-03
   29.1375008        -3.57485376E-03
   29.2562504        -3.63560743E-03
   29.3750000        -3.68791400E-03
   29.4937496        -3.73105123E-03
   29.6124992        -3.76552716E-03
   29.7312508        -3.79286823E-03
   29.8500004        -3.81526863E-03
   29.9687500        -3.83514375E-03
   30.0874996        -3.85465147E-03
   30.2062492        -3.87523812E-03
   30.3250008        -3.89727694E-03
   30.4437504        -3.91984172E-03
   30.5625000        -3.94065399E-03
   30.6812496        -3.95621639E-03
   30.7999992        -3.96211864E-03
   30.9187508        -3.95349693E-03
   31.0375004        -3.92558193E-03
   31.1562500        -3.87428794E-03
   31.2749996        -3.79676814E-03
   31.3937492        -3.69187375E-03
   31.5125008        -3.56045924E-03
   31.6312504        -3.40549462E-03
   31.7500000        -3.23196896E-03
   31.8687496        -3.04658432E-03
   31.9874992        -2.85727088E-03
   32.1062508        -2.67257192E-03
   32.2249985        -2.50095548E-03
   32.3437500        -2.35012942E-03
   32.4625015        -2.22642487E-03
   32.5812492        -2.13431381E-03
   32.7000008        -2.07610731E-03
   32.8187485        -2.05186266E-03
   32.9375000        -2.05950532E-03
   33.0562515        -2.09514634E-03
   33.1749992        -2.15355796E-03
   33.2937508        -2.22875038E-03
   33.4124985        -2.31458456E-03
   33.5312500        -2.40535289E-03
   33.6500015        -2.49626534E-03
   33.7687492        -2.58379057E-03
   33.8875008        -2.66581750E-03
   34.0062485        -2.74163042E-03
   34.1250000        -2.81170732E-03
   34.2437515        -2.87737092E-03
   34.3624992        -2.94034812E-03
   34.4812508        -3.00229387E-03
   34.5999985        -3.06434184E-03
   34.7187500        -3.12674744E-03
   34.8375015        -3.18866363E-03
   34.9562492        -3.24808783E-03
   35.0750008        -3.30198416E-03
   35.1937485        -3.34657519E-03
   35.3125000        -3.37776425E-03
   35.4312515        -3.39164445E-03
   35.5499992        -3.38502997E-03
   35.6687508        -3.35594593E-03
   35.7874985        -3.30401468E-03
   35.9062500        -3.23068909E-03
   36.0250015        -3.13929748E-03
   36.1437492        -3.03488807E-03
   36.2625008        -2.92388420E-03
   36.3812485        -2.81357765E-03
   36.5000000        -2.71151611E-03
   36.6187515        -2.62484257E-03
   36.7374992        -2.55966047E-03
   36.8562508        -2.52048811E-03
   36.9749985        -2.50986125E-03
   37.0937500        -2.52812821E-03
   37.2125015        -2.57345382E-03
   37.3312492        -2.64203595E-03
   37.4500008        -2.72850739E-03
   37.5687485        -2.82647600E-03
   37.6875000        -2.92915199E-03
   37.8062515        -3.02998535E-03
   37.9249992        -3.12325126E-03
   38.0437508        -3.20452102E-03
   38.1624985        -3.27097229E-03
   38.2812500        -3.32150818E-03
   38.4000015        -3.35668004E-03
   38.5187492        -3.37843294E-03
   38.6375008        -3.38970590E-03
   38.7562485        -3.39394156E-03
   38.8750000        -3.39456555E-03
   38.9937515        -3.39450245E-03
   39.1124992        -3.39578022E-03
   39.2312508        -3.39927943E-03
   39.3499985        -3.40464618E-03
   39.4687500        -3.41038476E-03
   39.5875015        -3.41411005E-03
   39.7062492        -3.41293332E-03
   39.8250008        -3.40392604E-03
   39.9437485        -3.38460412E-03
   40.0625000        -3.35337245E-03
   40.1812515        -3.30986944E-03
   40.2999992        -3.25516472E-03
   40.4187508        -3.19178496E-03
   40.5374985        -3.12355231E-03
   40.6562500        -3.05525633E-03
   40.7750015        -2.99218902E-03
   40.8937492        -2.93959421E-03
   41.0125008        -2.90209404E-03
   41.1312485        -2.88315839E-03
   41.2500000        -2.88467598E-03
   41.3687515        -2.90668360E-03
   41.4874992        -2.94728391E-03
   41.6062508        -3.00276466E-03
   41.7249985        -3.06791300E-03
   41.8437500        -3.13649257E-03
   41.9625015        -3.20183346E-03
   42.0812492        -3.25747556E-03
   42.2000008        -3.29779345E-03
   42.3187485        -3.31854075E-03
   42.4375000        -3.31725413E-03
   42.5562515        -3.29347514E-03
   42.6749992        -3.24876956E-03
   42.7937508        -3.18654254E-03
   42.9124985        -3.11167492E-03
   43.0312500        -3.03002028E-03
   43.1500015        -2.94782338E-03
   43.2687492        -2.87111779E-03
   43.3875008        -2.80517805E-03
   43.5062485        -2.75407429E-03
   43.6250000        -2.72038300E-03
   43.7437515        -2.70507322E-03
   43.8624992        -2.70758010E-03
   43.9812508        -2.72604427E-03
   44.0999985        -2.75768503E-03
   44.2187500        -2.79925647E-03
   44.3375015        -2.84752785E-03
   44.4562492        -2.89972615E-03
   44.5750008        -2.95388838E-03
   44.6937485        -3.00907902E-03
   44.8125000        -3.06544569E-03
   44.9312515        -3.12411040E-03
   45.0499992        -3.18690785E-03
   45.1687508        -3.25600547E-03
   45.2874985        -3.33345449E-03
   45.4062500        -3.42073198E-03
   45.5250015        -3.51832714E-03
   45.6437492        -3.62543482E-03
   45.7625008        -3.73979495E-03
   45.8812485        -3.85770551E-03
