  -1.50000000         2.27212659E-18
  -1.38125002        -2.15770379E-09
  -1.26250005        -9.62163682E-09
  -1.14374995        -2.93798692E-08
  -1.02499998        -7.61264687E-08
 -0.906250000        -1.78567902E-07
 -0.787500024        -3.88316920E-07
 -0.668749988        -7.90206855E-07
 -0.550000012        -1.51072663E-06
 -0.431250006        -2.71891804E-06
 -0.312500000        -4.61286891E-06
 -0.193749994        -7.38667131E-06
  -7.50000030E-02    -1.11786067E-05
   4.37499993E-02    -1.60108375E-05
  0.162499994        -2.17410561E-05
  0.281250000        -2.80527311E-05
  0.400000006        -3.45087428E-05
  0.518750012        -4.06816580E-05
  0.637499988        -4.63554279E-05
  0.756250024        -5.17729677E-05
  0.875000000        -5.78883410E-05
  0.993749976        -6.65751941E-05
   1.11249995        -8.07460528E-05
   1.23125005        -1.04348685E-04
   1.35000002        -1.42222605E-04
   1.46875000        -1.99818111E-04
   1.58749998        -2.82798865E-04
   1.70624995        -3.96564603E-04
   1.82500005        -5.45742107E-04
   1.94375002        -7.33697612E-04
   2.06250000        -9.62124730E-04
   2.18125010        -1.23075303E-03
   2.29999995        -1.53721380E-03
   2.41875005        -1.87707890E-03
   2.53749990        -2.24407692E-03
   2.65625000        -2.63046357E-03
   2.77500010        -3.02751618E-03
   2.89374995        -3.42610106E-03
   3.01250005        -3.81725933E-03
   3.13124990        -4.19275975E-03
   3.25000000        -4.54555545E-03
   3.36875010        -4.87012090E-03
   3.48749995        -5.16262278E-03
   3.60625005        -5.42093441E-03
   3.72499990        -5.64449374E-03
   3.84375000        -5.83403697E-03
   3.96250010        -5.99124329E-03
   4.08125019        -6.11834787E-03
   4.19999981        -6.21776283E-03
   4.31874990        -6.29176479E-03
   4.43750000        -6.34227693E-03
   4.55625010        -6.37077354E-03
   4.67500019        -6.37831120E-03
   4.79374981        -6.36567501E-03
   4.91249990        -6.33361191E-03
   5.03125000        -6.28311234E-03
   5.15000010        -6.21569064E-03
   5.26875019        -6.13362296E-03
   5.38749981        -6.04009070E-03
   5.50624990        -5.93920797E-03
   5.62500000        -5.83590893E-03
   5.74375010        -5.73569769E-03
   5.86250019        -5.64428465E-03
   5.98124981        -5.56713669E-03
   6.09999990        -5.50899422E-03
   6.21875000        -5.47340838E-03
   6.33750010        -5.46235172E-03
   6.45625019        -5.47595462E-03
   6.57499981        -5.51239913E-03
   6.69374990        -5.56800002E-03
   6.81250000        -5.63746551E-03
   6.93125010        -5.71431546E-03
   7.05000019        -5.79143362E-03
   7.16874981        -5.86168421E-03
   7.28749990        -5.91853494E-03
   7.40625000        -5.95663348E-03
   7.52500010        -5.97226014E-03
   7.64375019        -5.96362678E-03
   7.76249981        -5.93098253E-03
   7.88124990        -5.87652205E-03
   8.00000000        -5.80410426E-03
   8.11874962        -5.71882352E-03
   8.23750019        -5.62647497E-03
   8.35624981        -5.53297251E-03
   8.47500038        -5.44379232E-03
   8.59375000        -5.36349183E-03
   8.71249962        -5.29535953E-03
   8.83125019        -5.24123013E-03
   8.94999981        -5.20147197E-03
   9.06875038        -5.17515372E-03
   9.18750000        -5.16034709E-03
   9.30624962        -5.15453750E-03
   9.42500019        -5.15507022E-03
   9.54374981        -5.15959272E-03
   9.66250038        -5.16641326E-03
   9.78125000        -5.17474394E-03
   9.89999962        -5.18479059E-03
   10.0187502        -5.19767124E-03
   10.1374998        -5.21518383E-03
   10.2562504        -5.23944246E-03
   10.3750000        -5.27243223E-03
   10.4937496        -5.31554827E-03
   10.6125002        -5.36917057E-03
   10.7312498        -5.43234125E-03
   10.8500004        -5.50259417E-03
   10.9687500        -5.57596423E-03
   11.0874996        -5.64719178E-03
   11.2062502        -5.71010355E-03
   11.3249998        -5.75814396E-03
   11.4437504        -5.78500051E-03
   11.5625000        -5.78525104E-03
   11.6812496        -5.75497793E-03
   11.8000002        -5.69226407E-03
   11.9187498        -5.59752062E-03
   12.0375004        -5.47360443E-03
   12.1562500        -5.32570342E-03
   12.2749996        -5.16099809E-03
   12.3937502        -4.98812413E-03
   12.5124998        -4.81649162E-03
   12.6312504        -4.65552742E-03
   12.7500000        -4.51391796E-03
   12.8687496        -4.39892197E-03
   12.9875002        -4.31583775E-03
   13.1062498        -4.26765764E-03
   13.2250004        -4.25495673E-03
   13.3437500        -4.27601021E-03
   13.4624996        -4.32712445E-03
   13.5812502        -4.40313667E-03
   13.6999998        -4.49801888E-03
   13.8187504        -4.60551819E-03
   13.9375000        -4.71975841E-03
   14.0562496        -4.83573321E-03
   14.1750002        -4.94964235E-03
   14.2937498        -5.05903177E-03
   14.4125004        -5.16274013E-03
   14.5312500        -5.26065566E-03
   14.6499996        -5.35333110E-03
   14.7687502        -5.44150872E-03
   14.8874998        -5.52562764E-03
   15.0062504        -5.60537726E-03
   15.1250000        -5.67937130E-03
   15.2437496        -5.74498856E-03
   15.3625002        -5.79840876E-03
   15.4812498        -5.83486119E-03
   15.6000004        -5.84905129E-03
   15.7187500        -5.83573617E-03
   15.8374996        -5.79037843E-03
   15.9562502        -5.70980087E-03
   16.0750008        -5.59276808E-03
   16.1937504        -5.44041535E-03
   16.3125000        -5.25646983E-03
   16.4312496        -5.04722586E-03
   16.5499992        -4.82125999E-03
   16.6687508        -4.58890898E-03
   16.7875004        -4.36155358E-03
   16.9062500        -4.15077107E-03
   17.0249996        -3.96744907E-03
   17.1437492        -3.82093433E-03
   17.2625008        -3.71831399E-03
   17.3812504        -3.66389519E-03
   17.5000000        -3.65893426E-03
   17.6187496        -3.70164029E-03
   17.7374992        -3.78745352E-03
   17.8562508        -3.90956039E-03
   17.9750004        -4.05959226E-03
   18.0937500        -4.22842940E-03
   18.2124996        -4.40702308E-03
   18.3312492        -4.58715390E-03
   18.4500008        -4.76203859E-03
   18.5687504        -4.92673926E-03
   18.6875000        -5.07832458E-03
   18.8062496        -5.21578919E-03
   18.9249992        -5.33974497E-03
   19.0437508        -5.45193348E-03
   19.1625004        -5.55463834E-03
   19.2812500        -5.65005839E-03
   19.3999996        -5.73974475E-03
   19.5187492        -5.82415937E-03
   19.6375008        -5.90242492E-03
   19.7562504        -5.97229134E-03
   19.8750000        -6.03032904E-03
   19.9937496        -6.07232284E-03
   20.1124992        -6.09382894E-03
   20.2312508        -6.09081006E-03
   20.3500004        -6.06028223E-03
   20.4687500        -6.00088714E-03
   20.5874996        -5.91330603E-03
   20.7062492        -5.80046885E-03
   20.8250008        -5.66751184E-03
   20.9437504        -5.52147813E-03
   21.0625000        -5.37078222E-03
   21.1812496        -5.22449426E-03
   21.2999992        -5.09150652E-03
   21.4187508        -4.97967517E-03
   21.5375004        -4.89503378E-03
   21.6562500        -4.84115677E-03
   21.7749996        -4.81875567E-03
   21.8937492        -4.82554827E-03
   22.0125008        -4.85642627E-03
   22.1312504        -4.90390323E-03
   22.2500000        -4.95880097E-03
   22.3687496        -5.01110498E-03
   22.4874992        -5.05090179E-03
   22.6062508        -5.06929215E-03
   22.7250004        -5.05920174E-03
   22.8437500        -5.01598977E-03
   22.9624996        -4.93781036E-03
   23.0812492        -4.82568284E-03
   23.2000008        -4.68327850E-03
   23.3187504        -4.51644883E-03
   23.4375000        -4.33255685E-03
   23.5562496        -4.13968833E-03
   23.6749992        -3.94583261E-03
   23.7937508        -3.75812943E-03
   23.9125004        -3.58225871E-03
   24.0312500        -3.42204329E-03
   24.1499996        -3.27929854E-03
   24.2687492        -3.15394392E-03
   24.3875008        -3.04434798E-03
   24.5062504        -2.94786156E-03
   24.6250000        -2.86146370E-03
   24.7437496        -2.78243492E-03
   24.8624992        -2.70897103E-03
   24.9812508        -2.64065340E-03
   25.1000004        -2.57871556E-03
   25.2187500        -2.52606510E-03
   25.3374996        -2.48705456E-03
   25.4562492        -2.46702111E-03
   25.5750008        -2.47165165E-03
   25.6937504        -2.50624120E-03
   25.8125000        -2.57493649E-03
   25.9312496        -2.68005556E-03
   26.0499992        -2.82156933E-03
   26.1687508        -2.99681048E-03
   26.2875004        -3.20045883E-03
   26.4062500        -3.42480792E-03
   26.5249996        -3.66030470E-03
   26.6437492        -3.89630208E-03
   26.7625008        -4.12195921E-03
   26.8812504        -4.32718778E-03
   27.0000000        -4.50355560E-03
   27.1187496        -4.64504119E-03
   27.2374992        -4.74856747E-03
   27.3562508        -4.81424900E-03
   27.4750004        -4.84533096E-03
   27.5937500        -4.84782644E-03
   27.7124996        -4.82988358E-03
   27.8312492        -4.80095996E-03
   27.9500008        -4.77088382E-03
   28.0687504        -4.74890880E-03
   28.1875000        -4.74285148E-03
   28.3062496        -4.75841248E-03
   28.4249992        -4.79873363E-03
   28.5437508        -4.86424565E-03
   28.6625004        -4.95279673E-03
   28.7812500        -5.06005436E-03
   28.8999996        -5.18011069E-03
   29.0187492        -5.30622760E-03
   29.1375008        -5.43162134E-03
   29.2562504        -5.55020338E-03
   29.3750000        -5.65718487E-03
   29.4937496        -5.74948080E-03
   29.6124992        -5.82587067E-03
   29.7312508        -5.88690629E-03
   29.8500004        -5.93457883E-03
   29.9687500        -5.97179448E-03
   30.0874996        -6.00173883E-03
   30.2062492        -6.02719840E-03
   30.3250008        -6.04994036E-03
   30.4437504        -6.07023481E-03
   30.5625000        -6.08657394E-03
   30.6812496        -6.09564548E-03
   30.7999992        -6.09256374E-03
   30.9187508        -6.07134076E-03
   31.0375004        -6.02555042E-03
   31.1562500        -5.94911305E-03
   31.2749996        -5.83710801E-03
   31.3937492        -5.68652619E-03
   31.5125008        -5.49686654E-03
   31.6312504        -5.27050579E-03
   31.7500000        -5.01279254E-03
   31.8687496        -4.73184278E-03
   31.9874992        -4.43804776E-03
   32.1062508        -4.14334377E-03
   32.2249985        -3.86030809E-03
   32.3437500        -3.60117457E-03
   32.4625015        -3.37686506E-03
   32.5812492        -3.19613679E-03
   32.7000008        -3.06493090E-03
   32.8187485        -2.98598409E-03
   32.9375000        -2.95874011E-03
   33.0562515        -2.97956541E-03
   33.1749992        -3.04223527E-03
   33.2937508        -3.13863996E-03
   33.4124985        -3.25962133E-03
   33.5312500        -3.39585450E-03
   33.6500015        -3.53867514E-03
   33.7687492        -3.68076726E-03
   33.8875008        -3.81664420E-03
   34.0062485        -3.94287473E-03
   34.1250000        -4.05805046E-03
   34.2437515        -4.16250341E-03
   34.3624992        -4.25782800E-03
   34.4812508        -4.34627151E-03
   34.5999985        -4.43008170E-03
   34.7187500        -4.51089069E-03
   34.8375015        -4.58922656E-03
   34.9562492        -4.66420781E-03
   35.0750008        -4.73346887E-03
   35.1937485        -4.79332730E-03
   35.3125000        -4.83917259E-03
   35.4312515        -4.86603566E-03
   35.5499992        -4.86926455E-03
   35.6687508        -4.84523177E-03
   35.7874985        -4.79197688E-03
   35.9062500        -4.70970338E-03
   36.0250015        -4.60106833E-03
   36.1437492        -4.47121169E-03
   36.2625008        -4.32751747E-03
   36.3812485        -4.17911727E-03
   36.5000000        -4.03618393E-03
   36.6187515        -3.90908541E-03
   36.7374992        -3.80748231E-03
   36.8562508        -3.73946456E-03
   36.9749985        -3.71082011E-03
   37.0937500        -3.72450915E-03
   37.2125015        -3.78040085E-03
   37.3312492        -3.87530192E-03
   37.4500008        -4.00327146E-03
   37.5687485        -4.15618904E-03
   37.6875000        -4.32451488E-03
   37.8062515        -4.49816277E-03
   37.9249992        -4.66738921E-03
   38.0437508        -4.82361438E-03
   38.1624985        -4.96008387E-03
   38.2812500        -5.07231476E-03
   38.4000015        -5.15828095E-03
   38.5187492        -5.21833403E-03
   38.6375008        -5.25487587E-03
   38.7562485        -5.27183805E-03
   38.8750000        -5.27402572E-03
   38.9937515        -5.26641961E-03
   39.1124992        -5.25351521E-03
   39.2312508        -5.23877097E-03
   39.3499985        -5.22424234E-03
   39.4687500        -5.21042384E-03
   39.5875015        -5.19632408E-03
   39.7062492        -5.17975306E-03
   39.8250008        -5.15777711E-03
   39.9437485        -5.12729073E-03
   40.0625000        -5.08561404E-03
   40.1812515        -5.03105111E-03
   40.2999992        -4.96332627E-03
   40.4187508        -4.88384487E-03
   40.5374985        -4.79573430E-03
   40.6562500        -4.70365770E-03
   40.7750015        -4.61341534E-03
   40.8937492        -4.53137513E-03
   41.0125008        -4.46379604E-03
   41.1312485        -4.41611605E-03
   41.2500000        -4.39230073E-03
   41.3687515        -4.39431611E-03
   41.4874992        -4.42179805E-03
   41.6062508        -4.47195815E-03
   41.7249985        -4.53974726E-03
   41.8437500        -4.61825868E-03
   41.9625015        -4.69933730E-03
   42.0812492        -4.77433112E-03
   42.2000008        -4.83490853E-03
   42.3187485        -4.87385364E-03
   42.4375000        -4.88576479E-03
   42.5562515        -4.86757001E-03
   42.6749992        -4.81882226E-03
   42.7937508        -4.74173389E-03
   42.9124985        -4.64095874E-03
   43.0312500        -4.52313898E-03
   43.1500015        -4.39627795E-03
   43.2687492        -4.26899781E-03
   43.3875008        -4.14976897E-03
   43.5062485        -4.04619053E-03
   43.6250000        -3.96439433E-03
   43.7437515        -3.90863325E-03
   43.8624992        -3.88108403E-03
   43.9812508        -3.88188311E-03
   44.0999985        -3.90937179E-03
   44.2187500        -3.96051211E-03
   44.3375015        -4.03141929E-03
   44.4562492        -4.11793031E-03
   44.5750008        -4.21614852E-03
   44.6937485        -4.32288274E-03
   44.8125000        -4.43594251E-03
   44.9312515        -4.55424562E-03
   45.0499992        -4.67773760E-03
   45.1687508        -4.80712950E-03
   45.2874985        -4.94350120E-03
   45.4062500        -5.08781895E-03
   45.5250015        -5.24043664E-03
   45.6437492        -5.40065067E-03
   45.7625008        -5.56636462E-03
   45.8812485        -5.73393097E-03
