  -1.50000000         3.90237385E-18
  -1.38125002        -1.20089028E-09
  -1.26250005        -5.54457680E-09
  -1.14374995        -1.75747239E-08
  -1.02499998        -4.71973003E-08
 -0.906250000        -1.14465500E-07
 -0.787500024        -2.57009589E-07
 -0.668749988        -5.40209896E-07
 -0.550000012        -1.06911398E-06
 -0.431250006        -1.99956048E-06
 -0.312500000        -3.54453664E-06
 -0.193749994        -5.97133157E-06
  -7.50000030E-02    -9.58638611E-06
   4.37499993E-02    -1.47080591E-05
  0.162499994        -2.16319931E-05
  0.281250000        -3.05977555E-05
  0.400000006        -4.17670853E-05
  0.518750012        -5.52225938E-05
  0.637499988        -7.09913511E-05
  0.756250024        -8.90923111E-05
  0.875000000        -1.09601155E-04
  0.993749976        -1.32722897E-04
   1.11249995        -1.58860916E-04
   1.23125005        -1.88671169E-04
   1.35000002        -2.23091702E-04
   1.46875000        -2.63339287E-04
   1.58749998        -3.10867530E-04
   1.70624995        -3.67284490E-04
   1.82500005        -4.34231595E-04
   1.94375002        -5.13230043E-04
   2.06250000        -6.05506531E-04
   2.18125010        -7.11812463E-04
   2.29999995        -8.32255231E-04
   2.41875005        -9.66160558E-04
   2.53749990        -1.11198425E-03
   2.65625000        -1.26728858E-03
   2.77500010        -1.42879307E-03
   2.89374995        -1.59250339E-03
   3.01250005        -1.75391452E-03
   3.13124990        -1.90827413E-03
   3.25000000        -2.05088826E-03
   3.36875010        -2.17744126E-03
   3.48749995        -2.28430331E-03
   3.60625005        -2.36879312E-03
   3.72499990        -2.42937123E-03
   3.84375000        -2.46574241E-03
   3.96250010        -2.47885589E-03
   4.08125019        -2.47080135E-03
   4.19999981        -2.44461140E-03
   4.31874990        -2.40398897E-03
   4.43750000        -2.35298602E-03
   4.55625010        -2.29566940E-03
   4.67500019        -2.23580119E-03
   4.79374981        -2.17656745E-03
   4.91249990        -2.12038076E-03
   5.03125000        -2.06876872E-03
   5.15000010        -2.02235975E-03
   5.26875019        -1.98095990E-03
   5.38749981        -1.94370619E-03
   5.50624990        -1.90927833E-03
   5.62500000        -1.87614257E-03
   5.74375010        -1.84279622E-03
   5.86250019        -1.80799025E-03
   5.98124981        -1.77090312E-03
   6.09999990        -1.73125311E-03
   6.21875000        -1.68933626E-03
   6.33750010        -1.64599507E-03
   6.45625019        -1.60252070E-03
   6.57499981        -1.56050886E-03
   6.69374990        -1.52168446E-03
   6.81250000        -1.48771901E-03
   6.93125010        -1.46006013E-03
   7.05000019        -1.43979152E-03
   7.16874981        -1.42753555E-03
   7.28749990        -1.42340595E-03
   7.40625000        -1.42701238E-03
   7.52500010        -1.43750932E-03
   7.64375019        -1.45368511E-03
   7.76249981        -1.47407490E-03
   7.88124990        -1.49708684E-03
   8.00000000        -1.52112835E-03
   8.11874962        -1.54472189E-03
   8.23750019        -1.56659959E-03
   8.35624981        -1.58577389E-03
   8.47500038        -1.60157820E-03
   8.59375000        -1.61367806E-03
   8.71249962        -1.62205508E-03
   8.83125019        -1.62696559E-03
   8.94999981        -1.62888016E-03
   9.06875038        -1.62840751E-03
   9.18750000        -1.62621064E-03
   9.30624962        -1.62292249E-03
   9.42500019        -1.61906437E-03
   9.54374981        -1.61497807E-03
   9.66250038        -1.61077466E-03
   9.78125000        -1.60630711E-03
   9.89999962        -1.60116830E-03
   10.0187502        -1.59471878E-03
   10.1374998        -1.58614456E-03
   10.2562504        -1.57454074E-03
   10.3750000        -1.55901734E-03
   10.4937496        -1.53882056E-03
   10.6125002        -1.51345739E-03
   10.7312498        -1.48281129E-03
   10.8500004        -1.44723675E-03
   10.9687500        -1.40761700E-03
   11.0874996        -1.36537640E-03
   11.2062502        -1.32243673E-03
   11.3249998        -1.28111651E-03
   11.4437504        -1.24397699E-03
   11.5625000        -1.21362449E-03
   11.6812496        -1.19248510E-03
   11.8000002        -1.18257385E-03
   11.9187498        -1.18527946E-03
   12.0375004        -1.20118971E-03
   12.1562500        -1.22997712E-03
   12.2749996        -1.27036031E-03
   12.3937502        -1.32014998E-03
   12.5124998        -1.37637905E-03
   12.6312504        -1.43550802E-03
   12.7500000        -1.49369100E-03
   12.8687496        -1.54707499E-03
   12.9875002        -1.59211003E-03
   13.1062498        -1.62583683E-03
   13.2250004        -1.64612755E-03
   13.3437500        -1.65185402E-03
   13.4624996        -1.64296944E-03
   13.5812502        -1.62049476E-03
   13.6999998        -1.58641278E-03
   13.8187504        -1.54348102E-03
   13.9375000        -1.49498403E-03
   14.0562496        -1.44444848E-03
   14.1750002        -1.39535172E-03
   14.2937498        -1.35085115E-03
   14.4125004        -1.31355913E-03
   14.5312500        -1.28538208E-03
   14.6499996        -1.26743654E-03
   14.7687502        -1.26004277E-03
   14.8874998        -1.26279227E-03
   15.0062504        -1.27467408E-03
   15.1250000        -1.29424199E-03
   15.2437496        -1.31980155E-03
   15.3625002        -1.34959456E-03
   15.4812498        -1.38196256E-03
   15.6000004        -1.41547224E-03
   15.7187500        -1.44899474E-03
   15.8374996        -1.48173422E-03
   15.9562502        -1.51320815E-03
   16.0750008        -1.54318626E-03
   16.1937504        -1.57160242E-03
   16.3125000        -1.59844966E-03
   16.4312496        -1.62367709E-03
   16.5499992        -1.64710148E-03
   16.6687508        -1.66834390E-03
   16.7875004        -1.68680283E-03
   16.9062500        -1.70166546E-03
   17.0249996        -1.71195634E-03
   17.1437492        -1.71662041E-03
   17.2625008        -1.71462924E-03
   17.3812504        -1.70510157E-03
   17.5000000        -1.68742484E-03
   17.6187496        -1.66136445E-03
   17.7374992        -1.62715325E-03
   17.8562508        -1.58554898E-03
   17.9750004        -1.53785420E-03
   18.0937500        -1.48589665E-03
   18.2124996        -1.43196806E-03
   18.3312492        -1.37872261E-03
   18.4500008        -1.32904202E-03
   18.5687504        -1.28587324E-03
   18.6875000        -1.25204644E-03
   18.8062496        -1.23008923E-03
   18.9249992        -1.22204528E-03
   19.0437508        -1.22931425E-03
   19.1625004        -1.25252455E-03
   19.2812500        -1.29145070E-03
   19.3999996        -1.34498556E-03
   19.5187492        -1.41117233E-03
   19.6375008        -1.48729724E-03
   19.7562504        -1.57003955E-03
   19.8750000        -1.65567128E-03
   19.9937496        -1.74029183E-03
   20.1124992        -1.82008243E-03
   20.2312508        -1.89155957E-03
   20.3500004        -1.95180858E-03
   20.4687500        -1.99867669E-03
   20.5874996        -2.03090999E-03
   20.7062492        -2.04822165E-03
   20.8250008        -2.05128244E-03
   20.9437504        -2.04163603E-03
   21.0625000        -2.02154578E-03
   21.1812496        -1.99378259E-03
   21.2999992        -1.96137815E-03
   21.4187508        -1.92736206E-03
   21.5375004        -1.89450779E-03
   21.6562500        -1.86511455E-03
   21.7749996        -1.84084044E-03
   21.8937492        -1.82260503E-03
   22.0125008        -1.81056920E-03
   22.1312504        -1.80418999E-03
   22.2500000        -1.80234492E-03
   22.3687496        -1.80350745E-03
   22.4874992        -1.80595729E-03
   22.6062508        -1.80799782E-03
   22.7250004        -1.80816080E-03
   22.8437500        -1.80537370E-03
   22.9624996        -1.79907575E-03
   23.0812492        -1.78926974E-03
   23.2000008        -1.77650631E-03
   23.3187504        -1.76180690E-03
   23.4375000        -1.74653076E-03
   23.5562496        -1.73220690E-03
   23.6749992        -1.72034744E-03
   23.7937508        -1.71226379E-03
   23.9125004        -1.70890766E-03
   24.0312500        -1.71075237E-03
   24.1499996        -1.71772914E-03
   24.2687492        -1.72922364E-03
   24.3875008        -1.74413307E-03
   24.5062504        -1.76097767E-03
   24.6250000        -1.77805044E-03
   24.7437496        -1.79359259E-03
   24.8624992        -1.80597184E-03
   24.9812508        -1.81384478E-03
   25.1000004        -1.81628810E-03
   25.2187500        -1.81288365E-03
   25.3374996        -1.80375041E-03
   25.4562492        -1.78951991E-03
   25.5750008        -1.77126157E-03
   25.6937504        -1.75036269E-03
   25.8125000        -1.72837928E-03
   25.9312496        -1.70687120E-03
   26.0499992        -1.68723799E-03
   26.1687508        -1.67057326E-03
   26.2875004        -1.65755115E-03
   26.4062500        -1.64835528E-03
   26.5249996        -1.64265814E-03
   26.6437492        -1.63965393E-03
   26.7625008        -1.63813960E-03
   26.8812504        -1.63664017E-03
   27.0000000        -1.63356238E-03
   27.1187496        -1.62736722E-03
   27.2374992        -1.61674153E-03
   27.3562508        -1.60075468E-03
   27.4750004        -1.57898432E-03
   27.5937500        -1.55160076E-03
   27.7124996        -1.51939923E-03
   27.8312492        -1.48377812E-03
   27.9500008        -1.44666119E-03
   28.0687504        -1.41037127E-03
   28.1875000        -1.37746253E-03
   28.3062496        -1.35052495E-03
   28.4249992        -1.33197615E-03
   28.5437508        -1.32385583E-03
   28.6625004        -1.32764142E-03
   28.7812500        -1.34409801E-03
   28.8999996        -1.37317821E-03
   29.0187492        -1.41397992E-03
   29.1375008        -1.46476959E-03
   29.2562504        -1.52306876E-03
   29.3750000        -1.58580206E-03
   29.4937496        -1.64949440E-03
   29.6124992        -1.71050383E-03
   29.7312508        -1.76527118E-03
   29.8500004        -1.81056780E-03
   29.9687500        -1.84372033E-03
   30.0874996        -1.86279416E-03
   30.2062492        -1.86672166E-03
   30.3250008        -1.85536523E-03
   30.4437504        -1.82950951E-03
   30.5625000        -1.79078523E-03
   30.6812496        -1.74153270E-03
   30.7999992        -1.68461446E-03
   30.9187508        -1.62319781E-03
   31.0375004        -1.56052271E-03
   31.1562500        -1.49967556E-03
   31.2749996        -1.44339015E-03
   31.3937492        -1.39388943E-03
   31.5125008        -1.35278329E-03
   31.6312504        -1.32102543E-03
   31.7500000        -1.29893352E-03
   31.8687496        -1.28626451E-03
   31.9874992        -1.28233281E-03
   32.1062508        -1.28615811E-03
   32.2249985        -1.29662128E-03
   32.3437500        -1.31261151E-03
   32.4625015        -1.33314647E-03
   32.5812492        -1.35745446E-03
   32.7000008        -1.38500682E-03
   32.8187485        -1.41550240E-03
   32.9375000        -1.44880498E-03
   33.0562515        -1.48484507E-03
   33.1749992        -1.52349914E-03
   33.2937508        -1.56446430E-03
   33.4124985        -1.60714355E-03
   33.5312500        -1.65056228E-03
   33.6500015        -1.69332640E-03
   33.7687492        -1.73363416E-03
   33.8875008        -1.76934223E-03
   34.0062485        -1.79808785E-03
   34.1250000        -1.81745295E-03
   34.2437515        -1.82516081E-03
   34.3624992        -1.81928324E-03
   34.4812508        -1.79844024E-03
   34.5999985        -1.76196953E-03
   34.7187500        -1.71004864E-03
   34.8375015        -1.64375466E-03
   34.9562492        -1.56505278E-03
   35.0750008        -1.47671276E-03
   35.1937485        -1.38215569E-03
   35.3125000        -1.28524669E-03
   35.4312515        -1.19004608E-03
   35.5499992        -1.10054377E-03
   35.6687508        -1.02039555E-03
   35.7874985        -9.52685135E-04
   35.9062500        -8.99730599E-04
   36.0250015        -8.62949411E-04
   36.1437492        -8.42792622E-04
   36.2625008        -8.38751555E-04
   36.3812485        -8.49434524E-04
   36.5000000        -8.72706412E-04
   36.6187515        -9.05877561E-04
   36.7374992        -9.45925945E-04
   36.8562508        -9.89733497E-04
   36.9749985        -1.03431870E-03
   37.0937500        -1.07704476E-03
   37.2125015        -1.11578987E-03
   37.3312492        -1.14906696E-03
   37.4500008        -1.17608393E-03
   37.5687485        -1.19674637E-03
   37.6875000        -1.21160201E-03
   37.8062515        -1.22173666E-03
   37.9249992        -1.22863345E-03
   38.0437508        -1.23400602E-03
   38.1624985        -1.23962469E-03
   38.2812500        -1.24714547E-03
   38.4000015        -1.25795999E-03
   38.5187492        -1.27307395E-03
   38.6375008        -1.29302673E-03
   38.7562485        -1.31785451E-03
   38.8750000        -1.34710083E-03
   38.9937515        -1.37987162E-03
   39.1124992        -1.41493103E-03
   39.2312508        -1.45082478E-03
   39.3499985        -1.48602435E-03
   39.4687500        -1.51907420E-03
   39.5875015        -1.54872891E-03
   39.7062492        -1.57406810E-03
   39.8250008        -1.59457687E-03
   39.9437485        -1.61018420E-03
   40.0625000        -1.62125472E-03
   40.1812515        -1.62853696E-03
   40.2999992        -1.63307041E-03
   40.4187508        -1.63606368E-03
   40.5374985        -1.63875369E-03
   40.6562500        -1.64226268E-03
   40.7750015        -1.64746772E-03
   40.8937492        -1.65489491E-03
   41.0125008        -1.66465365E-03
   41.1312485        -1.67641533E-03
   41.2500000        -1.68944267E-03
   41.3687515        -1.70266582E-03
   41.4874992        -1.71479839E-03
   41.6062508        -1.72448356E-03
   41.7249985        -1.73045194E-03
   41.8437500        -1.73167512E-03
   41.9625015        -1.72749837E-03
   42.0812492        -1.71773403E-03
   42.2000008        -1.70270714E-03
   42.3187485        -1.68324145E-03
   42.4375000        -1.66058994E-03
   42.5562515        -1.63631432E-03
   42.6749992        -1.61212322E-03
   42.7937508        -1.58968999E-03
   42.9124985        -1.57046691E-03
   43.0312500        -1.55551848E-03
   43.1500015        -1.54539105E-03
   43.2687492        -1.54003501E-03
   43.3875008        -1.53879018E-03
   43.5062485        -1.54043373E-03
   43.6250000        -1.54329266E-03
   43.7437515        -1.54540583E-03
   43.8624992        -1.54472212E-03
   43.9812508        -1.53931638E-03
   44.0999985        -1.52759952E-03
   44.2187500        -1.50850439E-03
   44.3375015        -1.48162548E-03
   44.4562492        -1.44730066E-03
   44.5750008        -1.40662503E-03
   44.6937485        -1.36139372E-03
   44.8125000        -1.31398020E-03
   44.9312515        -1.26715912E-03
   45.0499992        -1.22389244E-03
   45.1687508        -1.18709588E-03
   45.2874985        -1.15940976E-03
   45.4062500        -1.14299078E-03
   45.5250015        -1.13934476E-03
   45.6437492        -1.14921166E-03
   45.7625008        -1.17251091E-03
   45.8812485        -1.20834913E-03
