  -1.50000000         0.00000000    
  -1.38499999         1.23706612E-09
  -1.26999998         4.91241625E-09
  -1.15499997         1.32260753E-08
  -1.03999996         3.04947356E-08
 -0.925000012         6.47987548E-08
 -0.810000002         1.29880036E-07
 -0.694999993         2.46655304E-07
 -0.579999983         4.43502387E-07
 -0.465000004         7.54874918E-07
 -0.349999994         1.21935386E-06
 -0.234999999         1.88118372E-06
 -0.119999997         2.80303129E-06
  -4.99999989E-03     4.10023131E-06
  0.109999999         6.00535623E-06
  0.224999994         8.96414440E-06
  0.340000004         1.37495472E-05
  0.455000013         2.15635719E-05
  0.569999993         3.40835395E-05
  0.685000002         5.34085120E-05
  0.800000012         8.18775370E-05
  0.915000021         1.21763354E-04
   1.02999997         1.74884204E-04
   1.14499998         2.42210343E-04
   1.25999999         3.23556771E-04
   1.37500000         4.17443895E-04
   1.49000001         5.21170849E-04
   1.60500002         6.31096016E-04
   1.72000003         7.43067474E-04
   1.83500004         8.52910744E-04
   1.95000005         9.56871838E-04
   2.06500006         1.05193479E-03
   2.18000007         1.13597279E-03
   2.29500008         1.20774342E-03
   2.41000009         1.26677821E-03
   2.52500010         1.31323724E-03
   2.64000010         1.34778919E-03
   2.75500011         1.37155387E-03
   2.86999989         1.38609484E-03
   2.98499990         1.39342225E-03
   3.09999990         1.39594777E-03
   3.21499991         1.39634043E-03
   3.32999992         1.39726908E-03
   3.44499993         1.40106282E-03
   3.55999994         1.40935613E-03
   3.67499995         1.42281596E-03
   3.78999996         1.44102960E-03
   3.90499997         1.46260613E-03
   4.01999998         1.48547895E-03
   4.13500023         1.50734908E-03
   4.25000000         1.52616051E-03
   4.36499977         1.54049415E-03
   4.48000002         1.54978759E-03
   4.59499979         1.55433954E-03
   4.71000004         1.55512092E-03
   4.82499981         1.55346422E-03
   4.94000006         1.55073369E-03
   5.05499983         1.54807477E-03
   5.17000008         1.54629734E-03
   5.28499985         1.54590514E-03
   5.40000010         1.54722005E-03
   5.51499987         1.55052252E-03
   5.63000011         1.55612722E-03
   5.74499989         1.56434183E-03
   5.86000013         1.57530466E-03
   5.97499990         1.58876181E-03
   6.09000015         1.60386704E-03
   6.20499992         1.61910721E-03
   6.32000017         1.63241371E-03
   6.43499994         1.64147606E-03
   6.55000019         1.64419832E-03
   6.66499996         1.63918699E-03
   6.78000021         1.62614195E-03
   6.89499998         1.60603249E-03
   7.01000023         1.58099993E-03
   7.12500000         1.55400252E-03
   7.23999977         1.52828777E-03
   7.35500002         1.50682277E-03
   7.46999979         1.49182871E-03
   7.58500004         1.48451608E-03
   7.69999981         1.48506823E-03
   7.81500006         1.49283395E-03
   7.92999983         1.50663860E-03
   8.04500008         1.52509136E-03
   8.15999985         1.54679082E-03
   8.27499962         1.57037319E-03
   8.39000034         1.59442227E-03
   8.50500011         1.61731767E-03
   8.61999989         1.63712725E-03
   8.73499966         1.65164389E-03
   8.85000038         1.65861403E-03
   8.96500015         1.65613962E-03
   9.07999992         1.64315640E-03
   9.19499969         1.61985378E-03
   9.31000042         1.58789766E-03
   9.42500019         1.55035744E-03
   9.53999996         1.51132327E-03
   9.65499973         1.47528120E-03
   9.77000046         1.44638726E-03
   9.88500023         1.42781332E-03
   10.0000000         1.42131781E-03
   10.1149998         1.42712612E-03
   10.2299995         1.44412753E-03
   10.3450003         1.47029490E-03
   10.4600000         1.50318840E-03
   10.5749998         1.54039264E-03
   10.6899996         1.57976989E-03
   10.8050003         1.61949580E-03
   10.9200001         1.65791390E-03
   11.0349998         1.69332500E-03
   11.1499996         1.72383361E-03
   11.2650003         1.74736336E-03
   11.3800001         1.76187651E-03
   11.4949999         1.76575943E-03
   11.6099997         1.75825844E-03
   11.7250004         1.73981604E-03
   11.8400002         1.71217555E-03
   11.9549999         1.67818123E-03
   12.0699997         1.64129073E-03
   12.1850004         1.60491199E-03
   12.3000002         1.57173083E-03
   12.4150000         1.54321000E-03
   12.5299997         1.51939387E-03
   12.6450005         1.49906380E-03
   12.7600002         1.48019672E-03
   12.8750000         1.46058167E-03
   12.9899998         1.43842003E-03
   13.1049995         1.41273963E-03
   13.2200003         1.38352334E-03
   13.3350000         1.35154440E-03
   13.4499998         1.31799723E-03
   13.5649996         1.28406705E-03
   13.6800003         1.25059951E-03
   13.7950001         1.21798471E-03
   13.9099998         1.18628715E-03
   14.0249996         1.15556375E-03
   14.1400003         1.12623908E-03
   14.2550001         1.09938032E-03
   14.3699999         1.07674382E-03
   14.4849997         1.06054067E-03
   14.6000004         1.05296331E-03
   14.7150002         1.05560326E-03
   14.8299999         1.06893561E-03
   14.9449997         1.09203497E-03
   15.0600004         1.12263043E-03
   15.1750002         1.15749752E-03
   15.2900000         1.19309465E-03
   15.4049997         1.22626661E-03
   15.5200005         1.25482574E-03
   15.6350002         1.27785152E-03
   15.7500000         1.29564153E-03
   15.8649998         1.30934827E-03
   15.9799995         1.32043089E-03
   16.0949993         1.33010244E-03
   16.2099991         1.33893942E-03
   16.3250008         1.34676823E-03
   16.4400005         1.35283708E-03
   16.5550003         1.35618995E-03
   16.6700001         1.35609729E-03
   16.7849998         1.35237281E-03
   16.8999996         1.34546065E-03
   17.0149994         1.33625232E-03
   17.1299992         1.32569426E-03
   17.2450008         1.31432537E-03
   17.3600006         1.30191515E-03
   17.4750004         1.28734740E-03
   17.5900002         1.26881700E-03
   17.7049999         1.24430854E-03
   17.8199997         1.21222890E-03
   17.9349995         1.17200660E-03
   18.0499992         1.12447806E-03
   18.1650009         1.07193459E-03
   18.2800007         1.01780333E-03
   18.3950005         9.66043212E-04
   18.5100002         9.20422783E-04
   18.6250000         8.83870642E-04
   18.7399998         8.58069689E-04
   18.8549995         8.43380112E-04
   18.9699993         8.39078508E-04
   19.0849991         8.43802642E-04
   19.2000008         8.56036553E-04
   19.3150005         8.74471210E-04
   19.4300003         8.98133556E-04
   19.5450001         9.26261360E-04
   19.6599998         9.58003337E-04
   19.7749996         9.92080430E-04
   19.8899994         1.02656859E-03
   20.0049992         1.05892494E-03
   20.1200008         1.08629139E-03
   20.2350006         1.10601110E-03
   20.3500004         1.11622585E-03
   20.4650002         1.11636671E-03
   20.5799999         1.10738422E-03
   20.6949997         1.09163334E-03
   20.8099995         1.07242388E-03
   20.9249992         1.05335459E-03
   21.0400009         1.03760464E-03
   21.1550007         1.02737034E-03
   21.2700005         1.02358812E-03
   21.3850002         1.02599361E-03
   21.5000000         1.03346654E-03
   21.6149998         1.04452949E-03
   21.7299995         1.05783064E-03
   21.8449993         1.07245811E-03
   21.9599991         1.08800014E-03
   22.0750008         1.10436277E-03
   22.1900005         1.12143077E-03
   22.3050003         1.13872334E-03
   22.4200001         1.15518784E-03
   22.5349998         1.16922916E-03
   22.6499996         1.17898802E-03
   22.7649994         1.18279143E-03
   22.8799992         1.17963878E-03
   22.9950008         1.16956048E-03
   23.1100006         1.15372671E-03
   23.2250004         1.13425811E-03
   23.3400002         1.11378077E-03
   23.4549999         1.09485025E-03
   23.5699997         1.07940903E-03
   23.6849995         1.06843538E-03
   23.7999992         1.06187200E-03
   23.9150009         1.05884857E-03
   24.0300007         1.05811143E-03
   24.1450005         1.05851667E-03
   24.2600002         1.05943391E-03
   24.3750000         1.06093148E-03
   24.4899998         1.06370309E-03
   24.6049995         1.06876867E-03
   24.7199993         1.07706490E-03
   24.8349991         1.08906918E-03
   24.9500008         1.10458222E-03
   25.0650005         1.12274464E-03
   25.1800003         1.14227540E-03
   25.2950001         1.16184878E-03
   25.4099998         1.18047558E-03
   25.5249996         1.19775836E-03
   25.6399994         1.21392868E-03
   25.7549992         1.22965232E-03
   25.8700008         1.24566362E-03
   25.9850006         1.26235012E-03
   26.1000004         1.27942860E-03
   26.2150002         1.29582523E-03
   26.3299999         1.30980508E-03
   26.4449997         1.31932413E-03
   26.5599995         1.32249924E-03
   26.6749992         1.31805846E-03
   26.7900009         1.30564277E-03
   26.9050007         1.28587277E-03
   27.0200005         1.26017397E-03
   27.1350002         1.23042311E-03
   27.2500000         1.19853439E-03
   27.3649998         1.16610760E-03
   27.4799995         1.13424391E-03
   27.5949993         1.10356254E-03
   27.7099991         1.07438886E-03
   27.8250008         1.04702625E-03
   27.9400005         1.02199498E-03
   28.0550003         1.00014312E-03
   28.1700001         9.82578960E-04
   28.2849998         9.70439462E-04
   28.3999996         9.64571838E-04
   28.5149994         9.65238141E-04
   28.6299992         9.71947971E-04
   28.7450008         9.83487931E-04
   28.8600006         9.98152304E-04
   28.9750004         1.01411401E-03
   29.0900002         1.02983345E-03
   29.2049999         1.04438479E-03
   29.3199997         1.05761038E-03
   29.4349995         1.07006368E-03
   29.5499992         1.08276715E-03
   29.6650009         1.09686842E-03
   29.7800007         1.11330091E-03
   29.8950005         1.13254518E-03
   30.0100002         1.15455536E-03
   30.1250000         1.17884856E-03
   30.2399998         1.20470650E-03
   30.3549995         1.23140309E-03
   30.4699993         1.25836942E-03
   30.5849991         1.28523493E-03
   30.7000008         1.31173339E-03
   30.8150005         1.33751461E-03
   30.9300003         1.36194134E-03
   31.0450001         1.38395431E-03
   31.1599998         1.40207645E-03
   31.2749996         1.41457317E-03
   31.3899994         1.41973945E-03
   31.5049992         1.41623418E-03
   31.6200008         1.40337355E-03
   31.7350006         1.38129387E-03
   31.8500004         1.35094358E-03
   31.9650002         1.31391198E-03
   32.0800018         1.27214659E-03
   32.1949997         1.22764858E-03
   32.3100014         1.18222507E-03
   32.4249992         1.13736314E-03
   32.5400009         1.09423429E-03
   32.6549988         1.05379825E-03
   32.7700005         1.01694174E-03
   32.8849983         9.84578161E-04
   33.0000000         9.57655604E-04
   33.1150017         9.37055389E-04
   33.2299995         9.23410931E-04
   33.3450012         9.16909717E-04
   33.4599991         9.17151105E-04
   33.5750008         9.23121755E-04
   33.6899986         9.33309726E-04
   33.8050003         9.45938111E-04
   33.9199982         9.59257537E-04
   34.0349998         9.71817470E-04
   34.1500015         9.82642989E-04
   34.2649994         9.91279026E-04
   34.3800011         9.97698051E-04
   34.4949989         1.00211985E-03
   34.6100006         1.00481382E-03
   34.7249985         1.00594806E-03
   34.8400002         1.00554235E-03
   34.9550018         1.00352801E-03
   35.0699997         9.99885378E-04
   35.1850014         9.94793023E-04
   35.2999992         9.88726155E-04
   35.4150009         9.82451369E-04
   35.5299988         9.76907206E-04
   35.6450005         9.73001821E-04
   35.7599983         9.71389876E-04
   35.8750000         9.72302398E-04
   35.9900017         9.75491595E-04
   36.1049995         9.80311073E-04
   36.2200012         9.85912746E-04
   36.3349991         9.91496025E-04
   36.4500008         9.96533432E-04
   36.5649986         1.00089819E-03
   36.6800003         1.00485375E-03
   36.7949982         1.00891234E-03
   36.9099998         1.01361214E-03
   37.0250015         1.01929065E-03
   37.1399994         1.02593307E-03
   37.2550011         1.03314628E-03
   37.3699989         1.04026985E-03
   37.4850006         1.04658259E-03
   37.5999985         1.05153536E-03
   37.7150002         1.05492619E-03
   37.8300018         1.05695822E-03
   37.9449997         1.05815893E-03
   38.0600014         1.05919049E-03
   38.1749992         1.06061867E-03
   38.2900009         1.06272544E-03
   38.4049988         1.06543628E-03
   38.5200005         1.06839440E-03
   38.6349983         1.07116392E-03
   38.7500000         1.07349106E-03
   38.8650017         1.07553753E-03
   38.9799995         1.07799284E-03
   39.0950012         1.08201953E-03
   39.2099991         1.08902948E-03
   39.3250008         1.10035227E-03
   39.4399986         1.11689116E-03
   39.5550003         1.13886874E-03
   39.6699982         1.16574089E-03
   39.7849998         1.19630178E-03
   39.9000015         1.22894824E-03
   40.0149994         1.26201741E-03
   40.1300011         1.29408948E-03
   40.2449989         1.32417004E-03
   40.3600006         1.35169993E-03
   40.4749985         1.37640827E-03
   40.5900002         1.39807526E-03
   40.7050018         1.41630846E-03
   40.8199997         1.43042719E-03
   40.9350014         1.43951364E-03
   41.0499992         1.44263217E-03
   41.1650009         1.43915135E-03
   41.2799988         1.42906571E-03
   41.3950005         1.41319819E-03
   41.5099983         1.39320409E-03
   41.6250000         1.37134874E-03
   41.7400017         1.35010923E-03
   41.8549995         1.33170420E-03
   41.9700012         1.31767988E-03
   42.0849991         1.30867539E-03
   42.2000008         1.30442251E-03
   42.3149986         1.30397745E-03
   42.4300003         1.30609900E-03
   42.5449982         1.30965607E-03
   42.6599998         1.31393084E-03
   42.7750015         1.31873263E-03
   42.8899994         1.32429623E-03
   43.0050011         1.33101933E-03
   43.1199989         1.33914407E-03
   43.2350006         1.34850992E-03
   43.3499985         1.35847868E-03
   43.4650002         1.36807223E-03
   43.5800018         1.37628871E-03
   43.6949997         1.38249493E-03
   43.8100014         1.38675713E-03
   43.9249992         1.38998986E-03
   44.0400009         1.39384682E-03
   44.1549988         1.40037131E-03
   44.2700005         1.41148688E-03
   44.3849983         1.42847747E-03
