  -1.50000000         1.07981530E-17
  -1.38125002         1.31905986E-09
  -1.26250005         5.28770050E-09
  -1.14374995         1.44137591E-08
  -1.02499998         3.37303980E-08
 -0.906250000         7.27672074E-08
 -0.787500024         1.47756367E-07
 -0.668749988         2.83230037E-07
 -0.550000012         5.11971905E-07
 -0.431250006         8.73015324E-07
 -0.312500000         1.40975544E-06
 -0.193749994         2.17438810E-06
  -7.50000030E-02     3.24953908E-06
   4.37499993E-02     4.80003382E-06
  0.162499994         7.16339446E-06
  0.281250000         1.09743260E-05
  0.400000006         1.72977489E-05
  0.518750012         2.77239360E-05
  0.637499988         4.43685785E-05
  0.756250024         6.97300711E-05
  0.875000000         1.06388346E-04
  0.993749976         1.56577880E-04
   1.11249995         2.21716182E-04
   1.23125005         3.01998778E-04
   1.35000002         3.96170683E-04
   1.46875000         5.01545903E-04
   1.58749998         6.14285702E-04
   1.70624995         7.29876629E-04
   1.82500005         8.43699847E-04
   1.94375002         9.51562542E-04
   2.06250000         1.05008634E-03
   2.18125010         1.13689690E-03
   2.29999995         1.21062261E-03
   2.41875005         1.27076649E-03
   2.53749990         1.31753669E-03
   2.65625000         1.35171390E-03
   2.77500010         1.37459172E-03
   2.89374995         1.38797425E-03
   3.01250005         1.39417499E-03
   3.13124990         1.39594136E-03
   3.25000000         1.39625242E-03
   3.36875010         1.39798131E-03
   3.48749995         1.40347972E-03
   3.60625005         1.41418132E-03
   3.72499990         1.43034151E-03
   3.84375000         1.45100709E-03
   3.96250010         1.47424429E-03
   4.08125019         1.49758602E-03
   4.19999981         1.51858863E-03
   4.31874990         1.53535244E-03
   4.43750000         1.54687418E-03
   4.55625010         1.55315269E-03
   4.67500019         1.55504141E-03
   4.79374981         1.55391742E-03
   4.91249990         1.55129179E-03
   5.03125000         1.54848525E-03
   5.15000010         1.54645683E-03
   5.26875019         1.54580921E-03
   5.38749981         1.54692214E-03
   5.50624990         1.55012053E-03
   5.62500000         1.55576749E-03
   5.74375010         1.56422099E-03
   5.86250019         1.57564331E-03
   5.98124981         1.58973574E-03
   6.09999990         1.60550885E-03
   6.21875000         1.62120932E-03
   6.33750010         1.63448323E-03
   6.45625019         1.64277572E-03
   6.57499981         1.64388574E-03
   6.69374990         1.63652969E-03
   6.81250000         1.62074796E-03
   6.93125010         1.59802521E-03
   7.05000019         1.57107634E-03
   7.16874981         1.54334202E-03
   7.28749990         1.51833578E-03
   7.40625000         1.49900757E-03
   7.52500010         1.48729340E-03
   7.64375019         1.48394785E-03
   7.76249981         1.48866023E-03
   7.88124990         1.50036986E-03
   8.00000000         1.51764171E-03
   8.11874962         1.53895665E-03
   8.23750019         1.56283088E-03
   8.35624981         1.58774934E-03
   8.47500038         1.61199470E-03
   8.59375000         1.63349626E-03
   8.71249962         1.64983317E-03
   8.83125019         1.65846723E-03
   8.94999981         1.65719411E-03
   9.06875038         1.64470682E-03
   9.18750000         1.62110536E-03
   9.30624962         1.58817146E-03
   9.42500019         1.54929212E-03
   9.54374981         1.50900218E-03
   9.66250038         1.47224020E-03
   9.78125000         1.44349621E-03
   9.89999962         1.42606825E-03
   10.0187502         1.42160954E-03
   10.1374998         1.43006118E-03
   10.2562504         1.44994841E-03
   10.3750000         1.47891080E-03
   10.4937496         1.51428126E-03
   10.6125002         1.55353302E-03
   10.7312498         1.59448117E-03
   10.8500004         1.63522514E-03
   10.9687500         1.67392986E-03
   11.0874996         1.70859392E-03
   11.2062502         1.73695933E-03
   11.3249998         1.75666448E-03
   11.4437504         1.76563021E-03
   11.5625000         1.76257244E-03
   11.6812496         1.74746499E-03
   11.8000002         1.72177004E-03
   11.9187498         1.68831600E-03
   12.0375004         1.65080698E-03
   12.1562500         1.61307689E-03
   12.2749996         1.57828245E-03
   12.3937502         1.54826592E-03
   12.5124998         1.52326771E-03
   12.6312504         1.50206545E-03
   12.7500000         1.48248661E-03
   12.8687496         1.46212580E-03
   12.9875002         1.43904448E-03
   13.1062498         1.41224440E-03
   13.2250004         1.38179318E-03
   13.3437500         1.34860340E-03
   13.4624996         1.31398160E-03
   13.5812502         1.27913640E-03
   13.6999998         1.24484079E-03
   13.8187504         1.21136918E-03
   13.9375000         1.17872644E-03
   14.0562496         1.14706205E-03
   14.1750002         1.11709104E-03
   14.2937498         1.09033100E-03
   14.4125004         1.06902013E-03
   14.5312500         1.05570338E-03
   14.6499996         1.05258927E-03
   14.7687502         1.06087374E-03
   14.8874998         1.08025910E-03
   15.0062504         1.10883510E-03
   15.1250000         1.14338892E-03
   15.2437496         1.18006521E-03
   15.3625002         1.21519086E-03
   15.4812498         1.24602020E-03
   15.6000004         1.27118721E-03
   15.7187500         1.29074429E-03
   15.8374996         1.30580214E-03
   15.9562502         1.31791434E-03
   16.0750008         1.32842187E-03
   16.1937504         1.33797899E-03
   16.3125000         1.34639943E-03
   16.4312496         1.35285396E-03
   16.5499992         1.35630870E-03
   16.6687508         1.35602336E-03
   16.7875004         1.35190284E-03
   16.9062500         1.34455785E-03
   17.0249996         1.33504253E-03
   17.1437492         1.32436003E-03
   17.2625008         1.31292723E-03
   17.3812504         1.30020571E-03
   17.5000000         1.28466403E-03
   17.6187496         1.26412534E-03
   17.7374992         1.23641454E-03
   17.8562508         1.20011694E-03
   17.9750004         1.15520670E-03
   18.0937500         1.10333960E-03
   18.2124996         1.04770181E-03
   18.3312492         9.92451911E-04
   18.4500008         9.41912818E-04
   18.5687504         8.99749284E-04
   18.6875000         8.68365460E-04
   18.8062496         8.48672353E-04
   18.9249992         8.40254244E-04
   19.0437508         8.41831847E-04
   19.1625004         8.51830060E-04
   19.2812500         8.68836534E-04
   19.3999996         8.91800679E-04
   19.5187492         9.19920451E-04
   19.6375008         9.52303002E-04
   19.7562504         9.87563399E-04
   19.8750000         1.02356263E-03
   19.9937496         1.05743646E-03
   20.1124992         1.08596205E-03
   20.2312508         1.10618188E-03
   20.3500004         1.11610803E-03
   20.4687500         1.11527590E-03
   20.5874996         1.10496499E-03
   20.7062492         1.08798966E-03
   20.8250008         1.06810802E-03
   20.9437504         1.04920997E-03
   21.0625000         1.03451405E-03
   21.1812496         1.02600188E-03
   21.2999992         1.02422596E-03
   21.4187508         1.02851656E-03
   21.5375004         1.03747589E-03
   21.6562500         1.04956958E-03
   21.7749996         1.06360589E-03
   21.8937492         1.07894803E-03
   22.0125008         1.09541463E-03
   22.1312504         1.11293769E-03
   22.2500000         1.13114307E-03
   22.3687496         1.14903972E-03
   22.4874992         1.16496847E-03
   22.6062508         1.17685634E-03
   22.7250004         1.18271669E-03
   22.8437500         1.18122902E-03
   22.9624996         1.17220031E-03
   23.0812492         1.15674594E-03
   23.2000008         1.13710400E-03
   23.3187504         1.11613574E-03
   23.4375000         1.09665224E-03
   23.5562496         1.08077936E-03
   23.6749992         1.06954924E-03
   23.7937508         1.06283766E-03
   23.9125004         1.05964695E-03
   24.0312500         1.05862471E-03
   24.1499996         1.05863146E-03
   24.2687492         1.05916918E-03
   24.3875008         1.06052787E-03
   24.5062504         1.06362265E-03
   24.6250000         1.06959045E-03
   24.7437496         1.07930915E-03
   24.8624992         1.09301216E-03
   24.9812508         1.11014338E-03
   25.1000004         1.12949836E-03
   25.2187500         1.14959595E-03
   25.3374996         1.16914301E-03
   25.4562492         1.18741801E-03
   25.5750008         1.20443117E-03
   25.6937504         1.22079800E-03
   25.8125000         1.23736949E-03
   25.9312496         1.25474390E-03
   26.0499992         1.27283926E-03
   26.1687508         1.29067653E-03
   26.2875004         1.30646315E-03
   26.4062500         1.31795823E-03
   26.5249996         1.32300949E-03
   26.6437492         1.32009375E-03
   26.7625008         1.30869204E-03
   26.8812504         1.28939166E-03
   27.0000000         1.26369495E-03
   27.1187496         1.23361009E-03
   27.2374992         1.20117236E-03
   27.3562508         1.16805162E-03
   27.4750004         1.13536266E-03
   27.5937500         1.10371853E-03
   27.7124996         1.07347500E-03
   27.8312492         1.04504754E-03
   27.9500008         1.01915887E-03
   28.0687504         9.96909454E-04
   28.1875000         9.79626551E-04
   28.3062496         9.68541892E-04
   28.4249992         9.64408740E-04
   28.5437508         9.67202534E-04
   28.6625004         9.76017443E-04
   28.7812500         9.89217544E-04
   28.8999996         1.00480218E-03
   29.0187492         1.02088193E-03
   29.1375008         1.03611848E-03
   29.2562504         1.04999542E-03
   29.3750000         1.06284500E-03
   29.4937496         1.07563275E-03
   29.6124992         1.08958432E-03
   29.7312508         1.10578025E-03
   29.8500004         1.12484791E-03
   29.9687500         1.14683877E-03
   30.0874996         1.17130519E-03
   30.2062492         1.19752146E-03
   30.3250008         1.22474681E-03
   30.4437504         1.25241419E-03
   30.5625000         1.28017610E-03
   30.6812496         1.30778470E-03
   30.7999992         1.33486406E-03
   30.9187508         1.36067276E-03
   31.0375004         1.38396129E-03
   31.1562500         1.40300591E-03
   31.2749996         1.41582859E-03
   31.3937492         1.42055762E-03
   31.5125008         1.41581928E-03
   31.6312504         1.40104943E-03
   31.7500000         1.37662853E-03
   31.8687496         1.34380686E-03
   31.9874992         1.30444975E-03
   32.1062508         1.26069144E-03
   32.2249985         1.21460366E-03
   32.3437500         1.16797548E-03
   32.4625015         1.12224824E-03
   32.5812492         1.07859285E-03
   32.7000008         1.03806157E-03
   32.8187485         1.00172532E-03
   32.9375000         9.70715191E-04
   33.0562515         9.46134212E-04
   33.1749992         9.28858353E-04
   33.2937508         9.19295358E-04
   33.4124985         9.17194469E-04
   33.5312500         9.21587867E-04
   33.6500015         9.30900860E-04
   33.7687492         9.43213119E-04
   33.8875008         9.56598436E-04
   34.0062485         9.69445158E-04
   34.1250000         9.80666140E-04
   34.2437515         9.89746302E-04
   34.3624992         9.96630290E-04
   34.4812508         1.00151170E-03
   34.5999985         1.00460823E-03
   34.7187500         1.00601034E-03
   34.8375015         1.00565713E-03
   34.9562492         1.00343674E-03
   35.0750008         9.99359763E-04
   35.1937485         9.93725494E-04
   35.3125000         9.87195992E-04
   35.4312515         9.80737736E-04
   35.5499992         9.75429488E-04
   35.6687508         9.72199661E-04
   35.7874985         9.71580390E-04
   35.9062500         9.73566377E-04
   36.0250015         9.77635151E-04
   36.1437492         9.82924830E-04
   36.2625008         9.88514163E-04
   36.3812485         9.93707916E-04
   36.5000000         9.98232863E-04
   36.6187515         1.00227457E-03
   36.7374992         1.00635004E-03
   36.8562508         1.01105974E-03
   36.9749985         1.01681694E-03
   37.0937500         1.02365052E-03
   37.2125015         1.03115675E-03
   37.3312492         1.03861513E-03
   37.4500008         1.04522891E-03
   37.5687485         1.05039624E-03
   37.6875000         1.05391489E-03
   37.8062515         1.05604110E-03
   37.9249992         1.05738034E-03
   38.0437508         1.05865183E-03
   38.1624985         1.06041681E-03
   38.2812500         1.06287783E-03
   38.4000015         1.06582930E-03
   38.5187492         1.06879033E-03
   38.6375008         1.07127673E-03
   38.7562485         1.07311574E-03
   38.8750000         1.07468583E-03
   38.9937515         1.07698317E-03
   39.1124992         1.08147191E-03
   39.2312508         1.08975463E-03
   39.3499985         1.10315671E-03
   39.4687500         1.12235860E-03
   39.5875015         1.14718964E-03
   39.7062492         1.17665483E-03
   39.8250008         1.20917533E-03
   39.9437485         1.24296150E-03
   40.0625000         1.27639342E-03
   40.1812515         1.30827865E-03
   40.2999992         1.33791356E-03
   40.4187508         1.36494345E-03
   40.5374985         1.38909416E-03
   40.6562500         1.40989944E-03
   40.7750015         1.42654742E-03
   40.8937492         1.43792946E-03
   41.0125008         1.44289702E-03
   41.1312485         1.44064822E-03
   41.2500000         1.43111381E-03
   41.3687515         1.41519774E-03
   41.4874992         1.39476568E-03
   41.6062508         1.37236167E-03
   41.7249985         1.35071797E-03
   41.8437500         1.33220002E-03
   41.9625015         1.31834997E-03
   42.0812492         1.30966573E-03
   42.2000008         1.30567513E-03
   42.3187485         1.30526558E-03
   42.4375000         1.30715151E-03
   42.5562515         1.31031591E-03
   42.6749992         1.31427683E-03
   42.7937508         1.31910387E-03
   42.9124985         1.32519298E-03
   43.0312500         1.33290491E-03
   43.1500015         1.34222303E-03
   43.2687492         1.35257328E-03
   43.3875008         1.36289815E-03
   43.5062485         1.37197447E-03
   43.6250000         1.37887185E-03
   43.7437515         1.38338865E-03
   43.8624992         1.38630020E-03
   43.9812508         1.38930464E-03
   44.0999985         1.39465975E-03
   44.2187500         1.40460080E-03
   44.3375015         1.42071466E-03
   44.4562492         1.44346501E-03
   44.5750008         1.47201284E-03
   44.6937485         1.50439190E-03
   44.8125000         1.53797457E-03
   44.9312515         1.57008076E-03
   45.0499992         1.59852824E-03
   45.1687508         1.62195996E-03
   45.2874985         1.63986057E-03
   45.4062500         1.65228976E-03
   45.5250015         1.65945408E-03
   45.6437492         1.66130287E-03
   45.7625008         1.65731309E-03
   45.8812485         1.64656073E-03
