  -1.50000000       0.00000000    
  -1.38499999      -1.18486476E-09
  -1.26999998      -5.37321032E-09
  -1.15499997      -1.67074941E-08
  -1.03999996      -4.40270824E-08
 -0.925000012      -1.04931033E-07
 -0.810000002      -2.32050340E-07
 -0.694999993      -4.81656571E-07
 -0.579999983      -9.43890370E-07
 -0.465000004      -1.75266973E-06
 -0.349999994      -3.09210827E-06
 -0.234999999      -5.19567902E-06
 -0.119999997      -8.33509057E-06
  -4.99999989E-03  -1.27981830E-05
  0.109999999      -1.88587019E-05
  0.224999994      -2.67444193E-05
  0.340000004      -3.66122622E-05
  0.455000013      -4.85388446E-05
  0.569999993      -6.25321118E-05
  0.685000002      -7.85652010E-05
  0.800000012      -9.66291555E-05
  0.915000021      -1.16797113E-04
   1.02999997      -1.39290903E-04
   1.14499998      -1.64540150E-04
   1.25999999      -1.93224769E-04
   1.37500000      -2.26292992E-04
   1.49000001      -2.64949223E-04
   1.60500002      -3.10607982E-04
   1.72000003      -3.64813459E-04
   1.83500004      -4.29127074E-04
   1.95000005      -5.04989701E-04
   2.06500006      -5.93567907E-04
   2.18000007      -6.95597148E-04
   2.29500008      -8.11236503E-04
   2.41000009      -9.39950522E-04
   2.52500010      -1.08043232E-03
   2.64000010      -1.23058015E-03
   2.75500011      -1.38753606E-03
   2.86999989      -1.54778839E-03
   2.98499990      -1.70733663E-03
   3.09999990      -1.86190777E-03
   3.21499991      -2.00721063E-03
   3.32999992      -2.13920721E-03
   3.44499993      -2.25437875E-03
   3.55999994      -2.34996318E-03
   3.67499995      -2.42414116E-03
   3.78999996      -2.47615273E-03
   3.90499997      -2.50633270E-03
   4.01999998      -2.51606153E-03
   4.13500023      -2.50763306E-03
   4.25000000      -2.48405314E-03
   4.36499977      -2.44878815E-03
   4.48000002      -2.40548421E-03
   4.59499979      -2.35768734E-03
   4.71000004      -2.30858568E-03
   4.82499981      -2.26079975E-03
   4.94000006      -2.21623760E-03
   5.05499983      -2.17602425E-03
   5.17000008      -2.14050896E-03
   5.28499985      -2.10934645E-03
   5.40000010      -2.08163890E-03
   5.51499987      -2.05612113E-03
   5.63000011      -2.03137007E-03
   5.74499989      -2.00601295E-03
   5.86000013      -1.97891495E-03
   5.97499990      -1.94932742E-03
   6.09000015      -1.91698410E-03
   6.20499992      -1.88213727E-03
   6.32000017      -1.84553419E-03
   6.43499994      -1.80833903E-03
   6.55000019      -1.77201291E-03
   6.66499996      -1.73816527E-03
   6.78000021      -1.70839520E-03
   6.89499998      -1.68413820E-03
   7.01000023      -1.66653504E-03
   7.12500000      -1.65633287E-03
   7.23999977      -1.65382784E-03
   7.35500002      -1.65884977E-03
   7.46999979      -1.67078932E-03
   7.58500004      -1.68866129E-03
   7.69999981      -1.71119347E-03
   7.81500006      -1.73693476E-03
   7.92999983      -1.76436850E-03
   8.04500008      -1.79202191E-03
   8.15999985      -1.81856437E-03
   8.27499962      -1.84288528E-03
   8.39000034      -1.86415028E-03
   8.50500011      -1.88182981E-03
   8.61999989      -1.89570372E-03
   8.73499966      -1.90584094E-03
   8.85000038      -1.91255671E-03
   8.96500015      -1.91635487E-03
   9.07999992      -1.91785663E-03
   9.19499969      -1.91772263E-03
   9.31000042      -1.91657501E-03
   9.42500019      -1.91492459E-03
   9.53999996      -1.91310851E-03
   9.65499973      -1.91124552E-03
   9.77000046      -1.90920988E-03
   9.88500023      -1.90663000E-03
   10.0000000      -1.90291309E-03
   10.1149998      -1.89729384E-03
   10.2299995      -1.88890705E-03
   10.3450003      -1.87688018E-03
   10.4600000      -1.86043815E-03
   10.5749998      -1.83901342E-03
   10.6899996      -1.81235012E-03
   10.8050003      -1.78059295E-03
   10.9200001      -1.74434891E-03
   11.0349998      -1.70471170E-03
   11.1499996      -1.66324317E-03
   11.2650003      -1.62190676E-03
   11.3800001      -1.58295454E-03
   11.4949999      -1.54877396E-03
   11.6099997      -1.52170518E-03
   11.7250004      -1.50384346E-03
   11.8400002      -1.49684481E-03
   11.9549999      -1.50175288E-03
   12.0699997      -1.51886686E-03
   12.1850004      -1.54766289E-03
   12.3000002      -1.58678158E-03
   12.4150000      -1.63408485E-03
   12.5299997      -1.68678281E-03
   12.6450005      -1.74161780E-03
   12.7600002      -1.79509702E-03
   12.8750000      -1.84374896E-03
   12.9899998      -1.88438571E-03
   13.1049995      -1.91434566E-03
   13.2200003      -1.93169585E-03
   13.3350000      -1.93537574E-03
   13.4499998      -1.92526949E-03
   13.5649996      -1.90220040E-03
   13.6800003      -1.86784833E-03
   13.7950001      -1.82460027E-03
   13.9099998      -1.77534646E-03
   14.0249996      -1.72324374E-03
   14.1400003      -1.67146651E-03
   14.2550001      -1.62297022E-03
   14.3699999      -1.58028631E-03
   14.4849997      -1.54536648E-03
   14.6000004      -1.51948701E-03
   14.7150002      -1.50321808E-03
   14.8299999      -1.49645633E-03
   14.9449997      -1.49851223E-03
   15.0600004      -1.50823884E-03
   15.1750002      -1.52418658E-03
   15.2900000      -1.54476566E-03
   15.4049997      -1.56839972E-03
   15.5200005      -1.59365521E-03
   15.6350002      -1.61933724E-03
   15.7500000      -1.64454384E-03
   15.8649998      -1.66867732E-03
   15.9799995      -1.69141742E-03
   16.0949993      -1.71266077E-03
   16.2099991      -1.73243869E-03
   16.3250008      -1.75082346E-03
   16.4400005      -1.76783674E-03
   16.5550003      -1.78337144E-03
   16.6700001      -1.79713534E-03
   16.7849998      -1.80862460E-03
   16.8999996      -1.81713083E-03
   17.0149994      -1.82178000E-03
   17.1299992      -1.82160048E-03
   17.2450008      -1.81561406E-03
   17.3600006      -1.80294004E-03
   17.4750004      -1.78290263E-03
   17.5900002      -1.75513269E-03
   17.7049999      -1.71965314E-03
   17.8199997      -1.67693954E-03
   17.9349995      -1.62795302E-03
   18.0499992      -1.57413702E-03
   18.1650009      -1.51738001E-03
   18.2800007      -1.45994360E-03
   18.3950005      -1.40435831E-03
   18.5100002      -1.35329377E-03
   18.6250000      -1.30940892E-03
   18.7399998      -1.27519155E-03
   18.8549995      -1.25279708E-03
   18.9699993      -1.24389865E-03
   19.0849991      -1.24955736E-03
   19.2000008      -1.27012457E-03
   19.3150005      -1.30518584E-03
   19.4300003      -1.35355117E-03
   19.5450001      -1.41329609E-03
   19.6599998      -1.48185331E-03
   19.7749996      -1.55615085E-03
   19.8899994      -1.63278892E-03
   20.0049992      -1.70824421E-03
   20.1200008      -1.77908724E-03
   20.2350006      -1.84219796E-03
   20.3500004      -1.89496274E-03
   20.4650002      -1.93543790E-03
   20.5799999      -1.96246547E-03
   20.6949997      -1.97573239E-03
   20.8099995      -1.97576801E-03
   20.9249992      -1.96387665E-03
   21.0400009      -1.94201444E-03
   21.1550007      -1.91261654E-03
   21.2700005      -1.87839183E-03
   21.3850002      -1.84210041E-03
   21.5000000      -1.80633657E-03
   21.6149998      -1.77333143E-03
   21.7299995      -1.74479722E-03
   21.8449993      -1.72182359E-03
   21.9599991      -1.70483498E-03
   22.0750008      -1.69361231E-03
   22.1900005      -1.68737257E-03
   22.3050003      -1.68490014E-03
   22.4200001      -1.68471260E-03
   22.5349998      -1.68524426E-03
   22.6499996      -1.68502843E-03
   22.7649994      -1.68286113E-03
   22.8799992      -1.67792791E-03
   22.9950008      -1.66988489E-03
   23.1100006      -1.65888504E-03
   23.2250004      -1.64555025E-03
   23.3400002      -1.63089170E-03
   23.4549999      -1.61618995E-03
   23.5699997      -1.60284655E-03
   23.6849995      -1.59222411E-03
   23.7999992      -1.58549042E-03
   23.9150009      -1.58348482E-03
   24.0300007      -1.58661802E-03
   24.1450005      -1.59481808E-03
   24.2600002      -1.60752551E-03
   24.3750000      -1.62373984E-03
   24.4899998      -1.64211076E-03
   24.6049995      -1.66106329E-03
   24.7199993      -1.67894724E-03
   24.8349991      -1.69419078E-03
   24.9500008      -1.70544640E-03
   25.0650005      -1.71171303E-03
   25.1800003      -1.71242282E-03
   25.2950001      -1.70748599E-03
   25.4099998      -1.69728801E-03
   25.5249996      -1.68264401E-03
   25.6399994      -1.66471081E-03
   25.7549992      -1.64487038E-03
   25.8700008      -1.62459200E-03
   25.9850006      -1.60528952E-03
   26.1000004      -1.58818450E-03
   26.2150002      -1.57418940E-03
   26.3299999      -1.56382076E-03
   26.4449997      -1.55715062E-03
   26.5599995      -1.55380077E-03
   26.6749992      -1.55298016E-03
   26.7900009      -1.55356270E-03
   26.9050007      -1.55419938E-03
   27.0200005      -1.55345234E-03
   27.1350002      -1.54994335E-03
   27.2500000      -1.54249987E-03
   27.3649998      -1.53028825E-03
   27.4799995      -1.51292107E-03
   27.5949993      -1.49052881E-03
   27.7099991      -1.46379007E-03
   27.8250008      -1.43391546E-03
   27.9400005      -1.40258612E-03
   28.0550003      -1.37184944E-03
   28.1700001      -1.34398136E-03
   28.2849998      -1.32132205E-03
   28.3999996      -1.30609877E-03
   28.5149994      -1.30024902E-03
   28.6299992      -1.30525709E-03
   28.7450008      -1.32201565E-03
   28.8600006      -1.35072717E-03
   28.9750004      -1.39084936E-03
   29.0900002      -1.44109433E-03
   29.2049999      -1.49948162E-03
   29.3199997      -1.56344241E-03
   29.4349995      -1.62997015E-03
   29.5499992      -1.69580558E-03
   29.6650009      -1.75764423E-03
   29.7800007      -1.81235070E-03
   29.8950005      -1.85716327E-03
   30.0100002      -1.88987271E-03
   30.1250000      -1.90896366E-03
   30.2399998      -1.91370526E-03
   30.3549995      -1.90418679E-03
   30.4699993      -1.88129523E-03
   30.5849991      -1.84663781E-03
   30.7000008      -1.80241570E-03
   30.8150005      -1.75126025E-03
   30.9300003      -1.69604574E-03
   31.0450001      -1.63969304E-03
   31.1599998      -1.58498052E-03
   31.2749996      -1.53437629E-03
   31.3899994      -1.48990669E-03
   31.5049992      -1.45306857E-03
   31.6200008      -1.42479024E-03
   31.7350006      -1.40544458E-03
   31.8500004      -1.39490666E-03
   31.9650002      -1.39264879E-03
   32.0800018      -1.39786059E-03
   32.1949997      -1.40957988E-03
   32.3100014      -1.42681901E-03
   32.4249992      -1.44867355E-03
   32.5400009      -1.47440040E-03
   32.6549988      -1.50346046E-03
   32.7700005      -1.53551879E-03
   32.8849983      -1.57040742E-03
   33.0000000      -1.60805322E-03
   33.1150017      -1.64838415E-03
   33.2299995      -1.69122219E-03
   33.3450012      -1.73618074E-03
   33.4599991      -1.78257679E-03
   33.5750008      -1.82937284E-03
   33.6899986      -1.87515782E-03
   33.8050003      -1.91817118E-03
   33.9199982      -1.95637369E-03
   34.0349998      -1.98755972E-03
   34.1500015      -2.00950424E-03
   34.2649994      -2.02013319E-03
   34.3800011      -2.01769825E-03
   34.4949989      -2.00094515E-03
   34.6100006      -1.96925644E-03
   34.7249985      -1.92275399E-03
   34.8400002      -1.86235004E-03
   34.9550018      -1.78974215E-03
   35.0699997      -1.70734595E-03
   35.1850014      -1.61817367E-03
   35.2999992      -1.52566377E-03
   35.4150009      -1.43347564E-03
   35.5299988      -1.34526612E-03
   35.6450005      -1.26446295E-03
   35.7599983      -1.19405554E-03
   35.8750000      -1.13641680E-03
   35.9900017      -1.09316944E-03
   36.1049995      -1.06510741E-03
   36.2200012      -1.05217553E-03
   36.3349991      -1.05350907E-03
   36.4500008      -1.06752757E-03
   36.5649986      -1.09207549E-03
   36.6800003      -1.12459727E-03
   36.7949982      -1.16233365E-03
   36.9099998      -1.20252219E-03
   37.0250015      -1.24258921E-03
   37.1399994      -1.28031592E-03
   37.2550011      -1.31397019E-03
   37.3699989      -1.34239323E-03
   37.4850006      -1.36503787E-03
   37.5999985      -1.38195651E-03
   37.7150002      -1.39374461E-03
   37.8300018      -1.40144397E-03
   37.9449997      -1.40641793E-03
   38.0600014      -1.41020690E-03
   38.1749992      -1.41438004E-03
   38.2900009      -1.42039184E-03
   38.4049988      -1.42945489E-03
   38.5200005      -1.44244113E-03
   38.6349983      -1.45981344E-03
   38.7500000      -1.48159673E-03
   38.8650017      -1.50738680E-03
   38.9799995      -1.53639656E-03
   39.0950012      -1.56753487E-03
   39.2099991      -1.59951078E-03
   39.3250008      -1.63095328E-03
   39.4399986      -1.66053674E-03
   39.5550003      -1.68709969E-03
   39.6699982      -1.70974713E-03
   39.7849998      -1.72792608E-03
   39.9000015      -1.74146809E-03
   40.0149994      -1.75059517E-03
   40.1300011      -1.75588764E-03
   40.2449989      -1.75821816E-03
   40.3600006      -1.75865705E-03
   40.4749985      -1.75835902E-03
   40.5900002      -1.75844179E-03
   40.7050018      -1.75986812E-03
   40.8199997      -1.76334346E-03
   40.9350014      -1.76923908E-03
   41.0499992      -1.77754869E-03
   41.1650009      -1.78788474E-03
   41.2799988      -1.79951277E-03
   41.3950005      -1.81142555E-03
   41.5099983      -1.82244566E-03
   41.6250000      -1.83134980E-03
   41.7400017      -1.83700200E-03
   41.8549995      -1.83848129E-03
   41.9700012      -1.83519104E-03
   42.0849991      -1.82693708E-03
   42.2000008      -1.81396632E-03
   42.3149986      -1.79695897E-03
   42.4300003      -1.77697511E-03
   42.5449982      -1.75535853E-03
   42.6599998      -1.73360773E-03
   42.7750015      -1.71322480E-03
   42.8899994      -1.69556029E-03
   43.0050011      -1.68166705E-03
   43.1199989      -1.67218084E-03
   43.2350006      -1.66723842E-03
   43.3499985      -1.66644470E-03
   43.4650002      -1.66889222E-03
   43.5800018      -1.67323160E-03
   43.6949997      -1.67778961E-03
   43.8100014      -1.68072199E-03
   43.9249992      -1.68018963E-03
   44.0400009      -1.67454034E-03
   44.1549988      -1.66248041E-03
   44.2700005      -1.64321938E-03
   44.3849983      -1.61657482E-03
