  -1.50000000         0.00000000    
  -1.38499999        -1.28821231E-09
  -1.26999998        -5.57898128E-09
  -1.15499997        -1.64923382E-08
  -1.03999996        -4.13690735E-08
 -0.925000012        -9.41255323E-08
 -0.810000002        -1.99092625E-07
 -0.694999993        -3.95126307E-07
 -0.579999983        -7.38264760E-07
 -0.465000004        -1.30013609E-06
 -0.349999994        -2.15884052E-06
 -0.234999999        -3.37999836E-06
 -0.119999997        -4.98871350E-06
  -4.99999989E-03    -6.93813354E-06
  0.109999999        -9.08578659E-06
  0.224999994        -1.11925974E-05
  0.340000004        -1.29590626E-05
  0.455000013        -1.41073015E-05
  0.569999993        -1.45073536E-05
  0.685000002        -1.43337729E-05
  0.800000012        -1.42277968E-05
  0.915000021        -1.54344307E-05
   1.02999997        -1.98839898E-05
   1.14499998        -3.01941018E-05
   1.25999999        -4.95791683E-05
   1.37500000        -8.16675529E-05
   1.49000001        -1.30240238E-04
   1.60500002        -1.98916008E-04
   1.72000003        -2.90816970E-04
   1.83500004        -4.08251508E-04
   1.95000005        -5.52452053E-04
   2.06500006        -7.23398756E-04
   2.18000007        -9.19751590E-04
   2.29500008        -1.13890099E-03
   2.41000009        -1.37713330E-03
   2.52500010        -1.62989309E-03
   2.64000010        -1.89211546E-03
   2.75500011        -2.15858850E-03
   2.86999989        -2.42430740E-03
   2.98499990        -2.68478226E-03
   3.09999990        -2.93626287E-03
   3.21499991        -3.17586423E-03
   3.32999992        -3.40157957E-03
   3.44499993        -3.61218886E-03
   3.55999994        -3.80708394E-03
   3.67499995        -3.98603547E-03
   3.78999996        -4.14894382E-03
   3.90499997        -4.29561222E-03
   4.01999998        -4.42557363E-03
   4.13500023        -4.53800661E-03
   4.25000000        -4.63174842E-03
   4.36499977        -4.70541418E-03
   4.48000002        -4.75760363E-03
   4.59499979        -4.78716986E-03
   4.71000004        -4.79352009E-03
   4.82499981        -4.77689318E-03
   4.94000006        -4.73858276E-03
   5.05499983        -4.68105962E-03
   5.17000008        -4.60797176E-03
   5.28499985        -4.52400511E-03
   5.40000010        -4.43460746E-03
   5.51499987        -4.34560701E-03
   5.63000011        -4.26274445E-03
   5.74499989        -4.19118768E-03
   5.86000013        -4.13506338E-03
   5.97499990        -4.09707380E-03
   6.09000015        -4.07823687E-03
   6.20499992        -4.07778705E-03
   6.32000017        -4.09325166E-03
   6.43499994        -4.12069960E-03
   6.55000019        -4.15514130E-03
   6.66499996        -4.19103680E-03
   6.78000021        -4.22286289E-03
   6.89499998        -4.24567144E-03
   7.01000023        -4.25558630E-03
   7.12500000        -4.25017625E-03
   7.23999977        -4.22866875E-03
   7.35500002        -4.19197930E-03
   7.46999979        -4.14255122E-03
   7.58500004        -4.08402877E-03
   7.69999981        -4.02080128E-03
   7.81500006        -3.95746948E-03
   7.92999983        -3.89830046E-03
   8.04500008        -3.84673453E-03
   8.15999985        -3.80500220E-03
   8.27499962        -3.77389695E-03
   8.39000034        -3.75272986E-03
   8.50500011        -3.73947294E-03
   8.61999989        -3.73107241E-03
   8.73499966        -3.72389238E-03
   8.85000038        -3.71423597E-03
   8.96500015        -3.69887915E-03
   9.07999992        -3.67554929E-03
   9.19499969        -3.64328991E-03
   9.31000042        -3.60266259E-03
   9.42500019        -3.55575746E-03
   9.53999996        -3.50600737E-03
   9.65499973        -3.45782214E-03
   9.77000046        -3.41608259E-03
   9.88500023        -3.38555151E-03
   10.0000000        -3.37026943E-03
   10.1149998        -3.37300613E-03
   10.2299995        -3.39483470E-03
   10.3450003        -3.43488087E-03
   10.4600000        -3.49028152E-03
   10.5749998        -3.55636491E-03
   10.6899996        -3.62703623E-03
   10.8050003        -3.69533035E-03
   10.9200001        -3.75407632E-03
   11.0349998        -3.79660050E-03
   11.1499996        -3.81739321E-03
   11.2650003        -3.81266791E-03
   11.3800001        -3.78074870E-03
   11.4949999        -3.72224720E-03
   11.6099997        -3.64000839E-03
   11.7250004        -3.53883160E-03
   11.8400002        -3.42500093E-03
   11.9549999        -3.30567244E-03
   12.0699997        -3.18819075E-03
   12.1850004        -3.07940645E-03
   12.3000002        -2.98506953E-03
   12.4150000        -2.90936301E-03
   12.5299997        -2.85462127E-03
   12.6450005        -2.82126083E-03
   12.7600002        -2.80792615E-03
   12.8750000        -2.81181931E-03
   12.9899998        -2.82917777E-03
   13.1049995        -2.85582989E-03
   13.2200003        -2.88776704E-03
   13.3350000        -2.92165624E-03
   13.4499998        -2.95523298E-03
   13.5649996        -2.98753032E-03
   13.6800003        -3.01891356E-03
   13.7950001        -3.05092148E-03
   13.9099998        -3.08593456E-03
   14.0249996        -3.12671345E-03
   14.1400003        -3.17586469E-03
   14.2550001        -3.23530426E-03
   14.3699999        -3.30578652E-03
   14.4849997        -3.38656222E-03
   14.6000004        -3.47520923E-03
   14.7150002        -3.56766721E-03
   14.8299999        -3.65847722E-03
   14.9449997        -3.74120427E-03
   15.0600004        -3.80900386E-03
   15.1750002        -3.85526801E-03
   15.2900000        -3.87428491E-03
   15.4049997        -3.86183569E-03
   15.5200005        -3.81566584E-03
   15.6350002        -3.73577652E-03
   15.7500000        -3.62450164E-03
   15.8649998        -3.48636485E-03
   15.9799995        -3.32772336E-03
   16.0949993        -3.15624499E-03
   16.2099991        -2.98026460E-03
   16.3250008        -2.80809542E-03
   16.4400005        -2.64736125E-03
   16.5550003        -2.50442163E-03
   16.6700001        -2.38394528E-03
   16.7849998        -2.28867354E-03
   16.8999996        -2.21939036E-03
   17.0149994        -2.17509246E-03
   17.1299992        -2.15333514E-03
   17.2450008        -2.15070299E-03
   17.3600006        -2.16334709E-03
   17.4750004        -2.18752376E-03
   17.5900002        -2.22006906E-03
   17.7049999        -2.25875271E-03
   17.8199997        -2.30247737E-03
   17.9349995        -2.35129776E-03
   18.0499992        -2.40626535E-03
   18.1650009        -2.46912357E-03
   18.2800007        -2.54189083E-03
   18.3950005        -2.62639322E-03
   18.5100002        -2.72380025E-03
   18.6250000        -2.83423229E-03
   18.7399998        -2.95648398E-03
   18.8549995        -3.08791013E-03
   18.9699993        -3.22448625E-03
   19.0849991        -3.36104585E-03
   19.2000008        -3.49167152E-03
   19.3150005        -3.61019862E-03
   19.4300003        -3.71077587E-03
   19.5450001        -3.78842349E-03
   19.6599998        -3.83952516E-03
   19.7749996        -3.86219914E-03
   19.8899994        -3.85650620E-03
   20.0049992        -3.82447150E-03
   20.1200008        -3.76991625E-03
   20.2350006        -3.69811570E-03
   20.3500004        -3.61532206E-03
   20.4650002        -3.52819962E-03
   20.5799999        -3.44323227E-03
   20.6949997        -3.36616603E-03
   20.8099995        -3.30154016E-03
   20.9249992        -3.25235422E-03
   21.0400009        -3.21989879E-03
   21.1550007        -3.20376363E-03
   21.2700005        -3.20201251E-03
   21.3850002        -3.21149942E-03
   21.5000000        -3.22828535E-03
   21.6149998        -3.24810413E-03
   21.7299995        -3.26682674E-03
   21.8449993        -3.28086736E-03
   21.9599991        -3.28749488E-03
   22.0750008        -3.28501454E-03
   22.1900005        -3.27281235E-03
   22.3050003        -3.25126224E-03
   22.4200001        -3.22151836E-03
   22.5349998        -3.18522565E-03
   22.6499996        -3.14419065E-03
   22.7649994        -3.10005737E-03
   22.8799992        -3.05403373E-03
   22.9950008        -3.00669810E-03
   23.1100006        -2.95791635E-03
   23.2250004        -2.90687475E-03
   23.3400002        -2.85222358E-03
   23.4549999        -2.79231160E-03
   23.5699997        -2.72548106E-03
   23.6849995        -2.65038316E-03
   23.7999992        -2.56627286E-03
   23.9150009        -2.47324537E-03
   24.0300007        -2.37238011E-03
   24.1450005        -2.26577534E-03
   24.2600002        -2.15646275E-03
   24.3750000        -2.04821257E-03
   24.4899998        -1.94524892E-03
   24.6049995        -1.85190607E-03
   24.7199993        -1.77226611E-03
   24.8349991        -1.70981581E-03
   24.9500008        -1.66716112E-03
   25.0650005        -1.64583023E-03
   25.1800003        -1.64618145E-03
   25.2950001        -1.66742597E-03
   25.4099998        -1.70775584E-03
   25.5249996        -1.76456012E-03
   25.6399994        -1.83470012E-03
   25.7549992        -1.91481120E-03
   25.8700008        -2.00159545E-03
   25.9850006        -2.09207297E-03
   26.1000004        -2.18376657E-03
   26.2150002        -2.27480498E-03
   26.3299999        -2.36393558E-03
   26.4449997        -2.45046150E-03
   26.5599995        -2.53411103E-03
   26.6749992        -2.61486927E-03
   26.7900009        -2.69280327E-03
   26.9050007        -2.76790140E-03
   27.0200005        -2.83996155E-03
   27.1350002        -2.90854112E-03
   27.2500000        -2.97297654E-03
   27.3649998        -3.03247245E-03
   27.4799995        -3.08624445E-03
   27.5949993        -3.13369324E-03
   27.7099991        -3.17458459E-03
   27.8250008        -3.20920255E-03
   27.9400005        -3.23845050E-03
   28.0550003        -3.26387957E-03
   28.1700001        -3.28762992E-03
   28.2849998        -3.31228808E-03
   28.3999996        -3.34066642E-03
   28.5149994        -3.37553048E-03
   28.6299992        -3.41930124E-03
   28.7450008        -3.47376382E-03
   28.8600006        -3.53982067E-03
   28.9750004        -3.61731905E-03
   29.0900002        -3.70497280E-03
   29.2049999        -3.80039518E-03
   29.3199997        -3.90023994E-03
   29.4349995        -4.00043931E-03
   29.5499992        -4.09651641E-03
   29.6650009        -4.18393733E-03
   29.7800007        -4.25846549E-03
   29.8950005        -4.31648269E-03
   30.0100002        -4.35524387E-03
   30.1250000        -4.37303213E-03
   30.2399998        -4.36921557E-03
   30.3549995        -4.34418581E-03
   30.4699993        -4.29921038E-03
   30.5849991        -4.23620595E-03
   30.7000008        -4.15747520E-03
   30.8150005        -4.06543864E-03
   30.9300003        -3.96239851E-03
   31.0450001        -3.85036343E-03
   31.1599998        -3.73095716E-03
   31.2749996        -3.60542024E-03
   31.3899994        -3.47469957E-03
   31.5049992        -3.33961286E-03
   31.6200008        -3.20105650E-03
   31.7350006        -3.06022563E-03
   31.8500004        -2.91881012E-03
   31.9650002        -2.77912919E-03
   32.0800018        -2.64417729E-03
   32.1949997        -2.51756655E-03
   32.3100014        -2.40335730E-03
   32.4249992        -2.30579311E-03
   32.5400009        -2.22896179E-03
   32.6549988        -2.17641681E-03
   32.7700005        -2.15080590E-03
   32.8849983        -2.15354864E-03
   33.0000000        -2.18460383E-03
   33.1150017        -2.24236096E-03
   33.2299995        -2.32367381E-03
   33.3450012        -2.42403825E-03
   33.4599991        -2.53790407E-03
   33.5750008        -2.65908730E-03
   33.6899986        -2.78124795E-03
   33.8050003        -2.89837830E-03
   33.9199982        -3.00525199E-03
   34.0349998        -3.09778959E-03
   34.1500015        -3.17329820E-03
   34.2649994        -3.23056360E-03
   34.3800011        -3.26978904E-03
   34.4949989        -3.29238898E-03
   34.6100006        -3.30067030E-03
   34.7249985        -3.29743698E-03
   34.8400002        -3.28557426E-03
   34.9550018        -3.26765934E-03
   35.0699997        -3.24565149E-03
   35.1850014        -3.22069647E-03
   35.2999992        -3.19307274E-03
   35.4150009        -3.16227973E-03
   35.5299988        -3.12726363E-03
   35.6450005        -3.08674108E-03
   35.7599983        -3.03958333E-03
   35.8750000        -2.98520550E-03
   35.9900017        -2.92390748E-03
   36.1049995        -2.85711256E-03
   36.2200012        -2.78747058E-03
   36.3349991        -2.71879858E-03
   36.4500008        -2.65585538E-03
   36.5649986        -2.60396930E-03
   36.6800003        -2.56855553E-03
   36.7949982        -2.55457009E-03
   36.9099998        -2.56596738E-03
   37.0250015        -2.60521914E-03
   37.1399994        -2.67295795E-03
   37.2550011        -2.76778545E-03
   37.3699989        -2.88627855E-03
   37.4850006        -3.02319881E-03
   37.5999985        -3.17188562E-03
   37.7150002        -3.32480250E-03
   37.8300018        -3.47417477E-03
   37.9449997        -3.61265754E-03
   38.0600014        -3.73396231E-03
   38.1749992        -3.83337447E-03
   38.2900009        -3.90811171E-03
   38.4049988        -3.95748205E-03
   38.5200005        -3.98282707E-03
   38.6349983        -3.98726156E-03
   38.7500000        -3.97523772E-03
   38.8650017        -3.95198539E-03
   38.9799995        -3.92289506E-03
   39.0950012        -3.89290834E-03
   39.2099991        -3.86599055E-03
   39.3250008        -3.84473964E-03
   39.4399986        -3.83017375E-03
   39.5550003        -3.82171990E-03
   39.6699982        -3.81739996E-03
   39.7849998        -3.81418504E-03
   39.9000015        -3.80847696E-03
   40.0149994        -3.79665149E-03
   40.1300011        -3.77559639E-03
   40.2449989        -3.74318357E-03
   40.3600006        -3.69860604E-03
   40.4749985        -3.64255044E-03
   40.5900002        -3.57717462E-03
   40.7050018        -3.50589654E-03
   40.8199997        -3.43301799E-03
   40.9350014        -3.36322677E-03
   41.0499992        -3.30103957E-03
   41.1650009        -3.25024826E-03
   41.2799988        -3.21344170E-03
   41.3950005        -3.19165597E-03
   41.5099983        -3.18420236E-03
   41.6250000        -3.18869320E-03
   41.7400017        -3.20126629E-03
   41.8549995        -3.21698538E-03
   41.9700012        -3.23037361E-03
   42.0849991        -3.23601952E-03
   42.2000008        -3.22918850E-03
   42.3149986        -3.20636993E-03
   42.4300003        -3.16569931E-03
   42.5449982        -3.10720550E-03
   42.6599998        -3.03285918E-03
   42.7750015        -2.94641173E-03
   42.8899994        -2.85304850E-03
   43.0050011        -2.75889062E-03
   43.1199989        -2.67040427E-03
   43.2350006        -2.59377901E-03
   43.3499985        -2.53434805E-03
   43.4650002        -2.49610771E-03
   43.5800018        -2.48138933E-03
   43.6949997        -2.49071396E-03
   43.8100014        -2.52284179E-03
   43.9249992        -2.57500331E-03
   44.0400009        -2.64328113E-03
   44.1549988        -2.72309198E-03
   44.2700005        -2.80971150E-03
   44.3849983        -2.89877784E-03
