  -1.50000000       0.00000000    
  -1.38499999      -1.36194744E-09
  -1.26999998      -6.07552364E-09
  -1.15499997      -1.85716598E-08
  -1.03999996      -4.81834661E-08
 -0.925000012      -1.13283676E-07
 -0.810000002      -2.47501617E-07
 -0.694999993      -5.07921072E-07
 -0.579999983      -9.84214466E-07
 -0.465000004      -1.80644224E-06
 -0.349999994      -3.14825206E-06
 -0.234999999      -5.22222308E-06
 -0.119999997      -8.26580617E-06
  -4.99999989E-03  -1.25197985E-05
  0.109999999      -1.82056901E-05
  0.224999994      -2.55117593E-05
  0.340000004      -3.45985572E-05
  0.455000013      -4.56313355E-05
  0.569999993      -5.88403564E-05
  0.685000002      -7.46018777E-05
  0.800000012      -9.35254284E-05
  0.915000021      -1.16529045E-04
   1.02999997      -1.44884310E-04
   1.14499998      -1.80217219E-04
   1.25999999      -2.24457530E-04
   1.37500000      -2.79737462E-04
   1.49000001      -3.48247529E-04
   1.60500002      -4.32063971E-04
   1.72000003      -5.32966165E-04
   1.83500004      -6.52264163E-04
   1.95000005      -7.90655322E-04
   2.06500006      -9.48127417E-04
   2.18000007      -1.12391764E-03
   2.29500008      -1.31653307E-03
   2.41000009      -1.52383070E-03
   2.52500010      -1.74314412E-03
   2.64000010      -1.97144644E-03
   2.75500011      -2.20552506E-03
   2.86999989      -2.44215317E-03
   2.98499990      -2.67823436E-03
   3.09999990      -2.91091134E-03
   3.21499991      -3.13762459E-03
   3.32999992      -3.35612404E-03
   3.44499993      -3.56443878E-03
   3.55999994      -3.76081630E-03
   3.67499995      -3.94364726E-03
   3.78999996      -4.11139801E-03
   3.90499997      -4.26256610E-03
   4.01999998      -4.39567165E-03
   4.13500023      -4.50929487E-03
   4.25000000      -4.60216263E-03
   4.36499977      -4.67327237E-03
   4.48000002      -4.72204201E-03
   4.59499979      -4.74846642E-03
   4.71000004      -4.75325435E-03
   4.82499981      -4.73792478E-03
   4.94000006      -4.70483908E-03
   5.05499983      -4.65715770E-03
   5.17000008      -4.59870975E-03
   5.28499985      -4.53378493E-03
   5.40000010      -4.46685636E-03
   5.51499987      -4.40226169E-03
   5.63000011      -4.34387103E-03
   5.74499989      -4.29477729E-03
   5.86000013      -4.25704150E-03
   5.97499990      -4.23152652E-03
   6.09000015      -4.21783887E-03
   6.20499992      -4.21438552E-03
   6.32000017      -4.21855832E-03
   6.43499994      -4.22701007E-03
   6.55000019      -4.23601363E-03
   6.66499996      -4.24186001E-03
   6.78000021      -4.24125232E-03
   6.89499998      -4.23165783E-03
   7.01000023      -4.21157805E-03
   7.12500000      -4.18070424E-03
   7.23999977      -4.13994445E-03
   7.35500002      -4.09131357E-03
   7.46999979      -4.03770152E-03
   7.58500004      -3.98254255E-03
   7.69999981      -3.92942131E-03
   7.81500006      -3.88166541E-03
   7.92999983      -3.84196406E-03
   8.04500008      -3.81206046E-03
   8.15999985      -3.79255600E-03
   8.27499962      -3.78284464E-03
   8.39000034      -3.78119107E-03
   8.50500011      -3.78494035E-03
   8.61999989      -3.79084097E-03
   8.73499966      -3.79543845E-03
   8.85000038      -3.79549945E-03
   8.96500015      -3.78841558E-03
   9.07999992      -3.77253839E-03
   9.19499969      -3.74740711E-03
   9.31000042      -3.71383969E-03
   9.42500019      -3.67387524E-03
   9.53999996      -3.63057153E-03
   9.65499973      -3.58767668E-03
   9.77000046      -3.54921189E-03
   9.88500023      -3.51901050E-03
   10.0000000      -3.50026391E-03
   10.1149998      -3.49512650E-03
   10.2299995      -3.50442226E-03
   10.3450003      -3.52749182E-03
   10.4600000      -3.56219499E-03
   10.5749998      -3.60507052E-03
   10.6899996      -3.65164177E-03
   10.8050003      -3.69683071E-03
   10.9200001      -3.73544311E-03
   11.0349998      -3.76266916E-03
   11.1499996      -3.77454842E-03
   11.2650003      -3.76835302E-03
   11.3800001      -3.74284596E-03
   11.4949999      -3.69839114E-03
   11.6099997      -3.63690709E-03
   11.7250004      -3.56166903E-03
   11.8400002      -3.47698480E-03
   11.9549999      -3.38778249E-03
   12.0699997      -3.29915062E-03
   12.1850004      -3.21588852E-03
   12.3000002      -3.14210472E-03
   12.4150000      -3.08091217E-03
   12.5299997      -3.03424359E-03
   12.6450005      -3.00280121E-03
   12.7600002      -2.98614381E-03
   12.8750000      -2.98288721E-03
   12.9899998      -2.99099274E-03
   13.1049995      -3.00810183E-03
   13.2200003      -3.03187594E-03
   13.3350000      -3.06029525E-03
   13.4499998      -3.09188524E-03
   13.5649996      -3.12583917E-03
   13.6800003      -3.16202804E-03
   13.7950001      -3.20089911E-03
   13.9099998      -3.24327545E-03
   14.0249996      -3.29008908E-03
   14.1400003      -3.34208109E-03
   14.2550001      -3.39951064E-03
   14.3699999      -3.46191274E-03
   14.4849997      -3.52793839E-03
   14.6000004      -3.59530444E-03
   14.7150002      -3.66086210E-03
   14.8299999      -3.72078386E-03
   14.9449997      -3.77085083E-03
   15.0600004      -3.80681339E-03
   15.1750002      -3.82478628E-03
   15.2900000      -3.82163515E-03
   15.4049997      -3.79531202E-03
   15.5200005      -3.74510325E-03
   15.6350002      -3.67175881E-03
   15.7500000      -3.57749127E-03
   15.8649998      -3.46583943E-03
   15.9799995      -3.34140938E-03
   16.0949993      -3.20952432E-03
   16.2099991      -3.07581061E-03
   16.3250008      -2.94576818E-03
   16.4400005      -2.82436912E-03
   16.5550003      -2.71571777E-03
   16.6700001      -2.62281345E-03
   16.7849998      -2.54743104E-03
   16.8999996      -2.49012676E-03
   17.0149994      -2.45036744E-03
   17.1299992      -2.42675841E-03
   17.2450008      -2.41734344E-03
   17.3600006      -2.41993461E-03
   17.4750004      -2.43243808E-03
   17.5900002      -2.45313020E-03
   17.7049999      -2.48085801E-03
   17.8199997      -2.51513766E-03
   17.9349995      -2.55614473E-03
   18.0499992      -2.60459445E-03
   18.1650009      -2.66153738E-03
   18.2800007      -2.72808596E-03
   18.3950005      -2.80511961E-03
   18.5100002      -2.89299386E-03
   18.6250000      -2.99130194E-03
   18.7399998      -3.09871277E-03
   18.8549995      -3.21291410E-03
   18.9699993      -3.33066820E-03
   19.0849991      -3.44798132E-03
   19.2000008      -3.56037240E-03
   19.3150005      -3.66321276E-03
   19.4300003      -3.75210727E-03
   19.5450001      -3.82327195E-03
   19.6599998      -3.87387211E-03
   19.7749996      -3.90228583E-03
   19.8899994      -3.90826073E-03
   20.0049992      -3.89294955E-03
   20.1200008      -3.85882170E-03
   20.2350006      -3.80945392E-03
   20.3500004      -3.74922529E-03
   20.4650002      -3.68294260E-03
   20.5799999      -3.61543871E-03
   20.6949997      -3.55117349E-03
   20.8099995      -3.49388574E-03
   20.9249992      -3.44631867E-03
   21.0400009      -3.41004995E-03
   21.1550007      -3.38543463E-03
   21.2700005      -3.37166316E-03
   21.3850002      -3.36692529E-03
   21.5000000      -3.36865569E-03
   21.6149998      -3.37383524E-03
   21.7299995      -3.37931397E-03
   21.8449993      -3.38212098E-03
   21.9599991      -3.37972934E-03
   22.0750008      -3.37025640E-03
   22.1900005      -3.35257617E-03
   22.3050003      -3.32634337E-03
   22.4200001      -3.29193147E-03
   22.5349998      -3.25029879E-03
   22.6499996      -3.20280297E-03
   22.7649994      -3.15098953E-03
   22.8799992      -3.09638237E-03
   22.9950008      -3.04029859E-03
   23.1100006      -2.98371073E-03
   23.2250004      -2.92716944E-03
   23.3400002      -2.87079322E-03
   23.4549999      -2.81432178E-03
   23.5699997      -2.75722379E-03
   23.6849995      -2.69884593E-03
   23.7999992      -2.63857772E-03
   23.9150009      -2.57601496E-03
   24.0300007      -2.51109991E-03
   24.1450005      -2.44421815E-03
   24.2600002      -2.37624487E-03
   24.3750000      -2.30853260E-03
   24.4899998      -2.24284036E-03
   24.6049995      -2.18121870E-03
   24.7199993      -2.12585786E-03
   24.8349991      -2.07892037E-03
   24.9500008      -2.04237457E-03
   25.0650005      -2.01784773E-03
   25.1800003      -2.00651144E-03
   25.2950001      -2.00900971E-03
   25.4099998      -2.02543288E-03
   25.5249996      -2.05533928E-03
   25.6399994      -2.09781365E-03
   25.7549992      -2.15155678E-03
   25.8700008      -2.21499125E-03
   25.9850006      -2.28637271E-03
   26.1000004      -2.36389227E-03
   26.2150002      -2.44576437E-03
   26.3299999      -2.53028935E-03
   26.4449997      -2.61589349E-03
   26.5599995      -2.70114769E-03
   26.6749992      -2.78476649E-03
   26.7900009      -2.86560296E-03
   26.9050007      -2.94263801E-03
   27.0200005      -3.01498198E-03
   27.1350002      -3.08188680E-03
   27.2500000      -3.14277434E-03
   27.3649998      -3.19727813E-03
   27.4799995      -3.24529340E-03
   27.5949993      -3.28702829E-03
   27.7099991      -3.32304090E-03
   27.8250008      -3.35425907E-03
   27.9400005      -3.38196708E-03
   28.0550003      -3.40775610E-03
   28.1700001      -3.43343662E-03
   28.2849998      -3.46091599E-03
   28.3999996      -3.49204778E-03
   28.5149994      -3.52846552E-03
   28.6299992      -3.57141951E-03
   28.7450008      -3.62162828E-03
   28.8600006      -3.67916492E-03
   28.9750004      -3.74339218E-03
   29.0900002      -3.81295336E-03
   29.2049999      -3.88582703E-03
   29.3199997      -3.95944016E-03
   29.4349995      -4.03083069E-03
   29.5499992      -4.09685075E-03
   29.6650009      -4.15438274E-03
   29.7800007      -4.20055725E-03
   29.8950005      -4.23294492E-03
   30.0100002      -4.24970780E-03
   30.1250000      -4.24969802E-03
   30.2399998      -4.23249183E-03
   30.3549995      -4.19836817E-03
   30.4699993      -4.14822297E-03
   30.5849991      -4.08345042E-03
   30.7000008      -4.00579209E-03
   30.8150005      -3.91718373E-03
   30.9300003      -3.81961185E-03
   31.0450001      -3.71499872E-03
   31.1599998      -3.60512920E-03
   31.2749996      -3.49162240E-03
   31.3899994      -3.37594771E-03
   31.5049992      -3.25947814E-03
   31.6200008      -3.14356945E-03
   31.7350006      -3.02964565E-03
   31.8500004      -2.91927508E-03
   31.9650002      -2.81421817E-03
   32.0800018      -2.71643628E-03
   32.1949997      -2.62805074E-03
   32.3100014      -2.55125295E-03
   32.4249992      -2.48817261E-03
   32.5400009      -2.44071381E-03
   32.6549988      -2.41038227E-03
   32.7700005      -2.39811908E-03
   32.8849983      -2.40416918E-03
   33.0000000      -2.42799590E-03
   33.1150017      -2.46826094E-03
   33.2299995      -2.52287579E-03
   33.3450012      -2.58911843E-03
   33.4599991      -2.66381283E-03
   33.5750008      -2.74354825E-03
   33.6899986      -2.82491930E-03
   33.8050003      -2.90475902E-03
   33.9199982      -2.98034283E-03
   34.0349998      -3.04953801E-03
   34.1500015      -3.11088376E-03
   34.2649994      -3.16359708E-03
   34.3800011      -3.20750126E-03
   34.4949989      -3.24289175E-03
   34.6100006      -3.27035715E-03
   34.7249985      -3.29058222E-03
   34.8400002      -3.30415787E-03
   34.9550018      -3.31142871E-03
   35.0699997      -3.31239891E-03
   35.1850014      -3.30671389E-03
   35.2999992      -3.29371938E-03
   35.4150009      -3.27259838E-03
   35.5299988      -3.24256648E-03
   35.6450005      -3.20310029E-03
   35.7599983      -3.15417396E-03
   35.8750000      -3.09646525E-03
   35.9900017      -3.03150108E-03
   36.1049995      -2.96171918E-03
   36.2200012      -2.89042643E-03
   36.3349991      -2.82164779E-03
   36.4500008      -2.75987480E-03
   36.5649986      -2.70973123E-03
   36.6800003      -2.67558871E-03
   36.7949982      -2.66116834E-03
   36.9099998      -2.66917027E-03
   37.0250015      -2.70097493E-03
   37.1399994      -2.75644846E-03
   37.2550011      -2.83387932E-03
   37.3699989      -2.93005630E-03
   37.4850006      -3.04048904E-03
   37.5999985      -3.15974769E-03
   37.7150002      -3.28189577E-03
   37.8300018      -3.40097072E-03
   37.9449997      -3.51146515E-03
   38.0600014      -3.60876345E-03
   38.1749992      -3.68948793E-03
   38.2900009      -3.75172077E-03
   38.4049988      -3.79507942E-03
   38.5200005      -3.82064492E-03
   38.6349983      -3.83074558E-03
   38.7500000      -3.82862776E-03
   38.8650017      -3.81804747E-03
   38.9799995      -3.80283175E-03
   39.0950012      -3.78645188E-03
   39.2099991      -3.77166155E-03
   39.3250008      -3.76023166E-03
   39.4399986      -3.75281600E-03
   39.5550003      -3.74894985E-03
   39.6699982      -3.74718709E-03
   39.7849998      -3.74535052E-03
   39.9000015      -3.74086527E-03
   40.0149994      -3.73113342E-03
   40.1300011      -3.71390581E-03
   40.2449989      -3.68760410E-03
   40.3600006      -3.65155935E-03
   40.4749985      -3.60613409E-03
   40.5900002      -3.55271995E-03
   40.7050018      -3.49360728E-03
   40.8199997      -3.43174627E-03
   40.9350014      -3.37042520E-03
   41.0499992      -3.31290648E-03
   41.1650009      -3.26206186E-03
   41.2799988      -3.22004966E-03
   41.3950005      -3.18807270E-03
   41.5099983      -3.16624413E-03
   41.6250000      -3.15357675E-03
   41.7400017      -3.14809894E-03
   41.8549995      -3.14708170E-03
   41.9700012      -3.14735272E-03
   42.0849991      -3.14565958E-03
   42.2000008      -3.13904439E-03
   42.3149986      -3.12518491E-03
   42.4300003      -3.10266437E-03
   42.5449982      -3.07114283E-03
   42.6599998      -3.03141144E-03
   42.7750015      -2.98532331E-03
   42.8899994      -2.93561257E-03
   43.0050011      -2.88562337E-03
   43.1199989      -2.83897854E-03
   43.2350006      -2.79922620E-03
   43.3499985      -2.76950491E-03
   43.4650002      -2.75225821E-03
   43.5800018      -2.74903537E-03
   43.6949997      -2.76038982E-03
   43.8100014      -2.78588664E-03
   43.9249992      -2.82421219E-03
   44.0400009      -2.87336903E-03
   44.1549988      -2.93092756E-03
   44.2700005      -2.99430429E-03
   44.3849983      -3.06103099E-03
