  -1.50000000        -7.69404032E-18
  -1.38125002        -8.75353956E-10
  -1.26250005        -3.83125931E-09
  -1.14374995        -1.14573790E-08
  -1.02499998        -2.90772828E-08
 -0.906250000        -6.68538789E-08
 -0.787500024        -1.42528322E-07
 -0.668749988        -2.84077515E-07
 -0.550000012        -5.30708292E-07
 -0.431250006        -9.29778764E-07
 -0.312500000        -1.52708799E-06
 -0.193749994        -2.34925255E-06
  -7.50000030E-02    -3.38002292E-06
   4.37499993E-02    -4.53691200E-06
  0.162499994        -5.65890468E-06
  0.281250000        -6.51800974E-06
  0.400000006        -6.86525709E-06
  0.518750012        -6.51480059E-06
  0.637499988        -5.45973217E-06
  0.756250024        -4.00278532E-06
  0.875000000        -2.87761736E-06
  0.993749976        -3.33404387E-06
   1.11249995        -7.16394652E-06
   1.23125005        -1.66529098E-05
   1.35000002        -3.44538967E-05
   1.46875000        -6.33913223E-05
   1.58749998        -1.06214844E-04
   1.70624995        -1.65330493E-04
   1.82500005        -2.42541253E-04
   1.94375002        -3.38829210E-04
   2.06250000        -4.54207446E-04
   2.18125010        -5.87661227E-04
   2.29999995        -7.37188617E-04
   2.41875005        -8.99936131E-04
   2.53749990        -1.07241597E-03
   2.65625000        -1.25077867E-03
   2.77500010        -1.43110962E-03
   2.89374995        -1.60971435E-03
   3.01250005        -1.78336038E-03
   3.13124990        -1.94944663E-03
   3.25000000        -2.10608635E-03
   3.36875010        -2.25209515E-03
   3.48749995        -2.38689338E-03
   3.60625005        -2.51034275E-03
   3.72499990        -2.62254220E-03
   3.84375000        -2.72361957E-03
   3.96250010        -2.81355251E-03
   4.08125019        -2.89204391E-03
   4.19999981        -2.95847980E-03
   4.31874990        -3.01197101E-03
   4.43750000        -3.05148121E-03
   4.55625010        -3.07602016E-03
   4.67500019        -3.08487681E-03
   4.79374981        -3.07785557E-03
   4.91249990        -3.05547984E-03
   5.03125000        -3.01912799E-03
   5.15000010        -2.97107664E-03
   5.26875019        -2.91443057E-03
   5.38749981        -2.85294629E-03
   5.50624990        -2.79075583E-03
   5.62500000        -2.73202267E-03
   5.74375010        -2.68056570E-03
   5.86250019        -2.63949414E-03
   5.98124981        -2.61090067E-03
   6.09999990        -2.59564910E-03
   6.21875000        -2.59328820E-03
   6.33750010        -2.60210084E-03
   6.45625019        -2.61929492E-03
   6.57499981        -2.64130929E-03
   6.69374990        -2.66420469E-03
   6.81250000        -2.68409634E-03
   6.93125010        -2.69757397E-03
   7.05000019        -2.70206365E-03
   7.16874981        -2.69608689E-03
   7.28749990        -2.67938804E-03
   7.40625000        -2.65291287E-03
   7.52500010        -2.61864765E-03
   7.64375019        -2.57933419E-03
   7.76249981        -2.53810245E-03
   7.88124990        -2.49806512E-03
   8.00000000        -2.46192724E-03
   8.11874962        -2.43165647E-03
   8.23750019        -2.40826304E-03
   8.35624981        -2.39170785E-03
   8.47500038        -2.38095643E-03
   8.59375000        -2.37416895E-03
   8.71249962        -2.36899848E-03
   8.83125019        -2.36296211E-03
   8.94999981        -2.35383213E-03
   9.06875038        -2.33999640E-03
   9.18750000        -2.32073828E-03
   9.30624962        -2.29639607E-03
   9.42500019        -2.26837839E-03
   9.54374981        -2.23903125E-03
   9.66250038        -2.21136562E-03
   9.78125000        -2.18868279E-03
   9.89999962        -2.17413902E-03
   10.0187502        -2.17030779E-03
   10.1374998        -2.17879028E-03
   10.2562504        -2.19993200E-03
   10.3750000        -2.23267684E-03
   10.4937496        -2.27458705E-03
   10.6125002        -2.32202723E-03
   10.7312498        -2.37049651E-03
   10.8500004        -2.41507334E-03
   10.9687500        -2.45092041E-03
   11.0874996        -2.47379509E-03
   11.2062502        -2.48050434E-03
   11.3249998        -2.46925233E-03
   11.4437504        -2.43983977E-03
   11.5625000        -2.39369227E-03
   11.6812496        -2.33371416E-03
   11.8000002        -2.26398651E-03
   11.9187498        -2.18934286E-03
   12.0375004        -2.11487687E-03
   12.1562500        -2.04543350E-03
   12.2749996        -1.98514899E-03
   12.3937502        -1.93708739E-03
   12.5124998        -1.90301426E-03
   12.6312504        -1.88333134E-03
   12.7500000        -1.87717157E-03
   12.8687496        -1.88263890E-03
   12.9875002        -1.89715682E-03
   13.1062498        -1.91787619E-03
   13.2250004        -1.94209046E-03
   13.3437500        -1.96760148E-03
   13.4624996        -1.99299119E-03
   13.5812502        -2.01776181E-03
   13.6999998        -2.04233243E-03
   13.8187504        -2.06788979E-03
   13.9375000        -2.09611817E-03
   14.0562496        -2.12884205E-03
   14.1750002        -2.16763234E-03
   14.2937498        -2.21343176E-03
   14.4125004        -2.26624496E-03
   14.5312500        -2.32494599E-03
   14.6499996        -2.38722423E-03
   14.7687502        -2.44969036E-03
   14.8874998        -2.50812760E-03
   15.0062504        -2.55786581E-03
   15.1250000        -2.59423745E-03
   15.2437496        -2.61306227E-03
   15.3625002        -2.61110393E-03
   15.4812498        -2.58644810E-03
   15.6000004        -2.53875088E-03
   15.7187500        -2.46933615E-03
   15.8374996        -2.38112081E-03
   15.9562502        -2.27838452E-03
   16.0750008        -2.16640043E-03
   16.1937504        -2.05097627E-03
   16.3125000        -1.93795050E-03
   16.4312496        -1.83270324E-03
   16.5499992        -1.73973327E-03
   16.6687508        -1.66234479E-03
   16.7875004        -1.60247425E-03
   16.9062500        -1.56067102E-03
   17.0249996        -1.53622730E-03
   17.1437492        -1.52743177E-03
   17.2625008        -1.53191329E-03
   17.3812504        -1.54702563E-03
   17.5000000        -1.57022523E-03
   17.6187496        -1.59939250E-03
   17.7374992        -1.63306086E-03
   17.8562508        -1.67052459E-03
   17.9750004        -1.71181897E-03
   18.0937500        -1.75757892E-03
   18.2124996        -1.80879899E-03
   18.3312492        -1.86653074E-03
   18.4500008        -1.93156151E-03
   18.5687504        -2.00411887E-03
   18.6875000        -2.08364404E-03
   18.8062496        -2.16866634E-03
   18.9249992        -2.25679949E-03
   19.0437508        -2.34486302E-03
   19.1625004        -2.42912001E-03
   19.2812500        -2.50560232E-03
   19.3999996        -2.57048570E-03
   19.5187492        -2.62047350E-03
   19.6375008        -2.65314127E-03
   19.7562504        -2.66720122E-03
   19.8750000        -2.66265380E-03
   19.9937496        -2.64081336E-03
   20.1124992        -2.60419538E-03
   20.2312508        -2.55628582E-03
   20.3500004        -2.50121462E-03
   20.4687500        -2.44336994E-03
   20.5874996        -2.38699722E-03
   20.7062492        -2.33582500E-03
   20.8250008        -2.29275739E-03
   20.9437504        -2.25966494E-03
   21.0625000        -2.23729038E-03
   21.1812496        -2.22527469E-03
   21.2999992        -2.22229678E-03
   21.4187508        -2.22630077E-03
   21.5375004        -2.23478302E-03
   21.6562500        -2.24510184E-03
   21.7749996        -2.25477037E-03
   21.8937492        -2.26170197E-03
   22.0125008        -2.26437976E-03
   22.1312504        -2.26193573E-03
   22.2500000        -2.25413870E-03
   22.3687496        -2.24129763E-03
   22.4874992        -2.22410029E-03
   22.6062508        -2.20341701E-03
   22.7250004        -2.18009832E-03
   22.8437500        -2.15479406E-03
   22.9624996        -2.12782668E-03
   23.0812492        -2.09912611E-03
   23.2000008        -2.06824392E-03
   23.3187504        -2.03443598E-03
   23.4375000        -1.99680706E-03
   23.5562496        -1.95449148E-03
   23.6749992        -1.90684851E-03
   23.7937508        -1.85364147E-03
   23.9125004        -1.79517712E-03
   24.0312500        -1.73238455E-03
   24.1499996        -1.66682026E-03
   24.2687492        -1.60059752E-03
   24.3875008        -1.53624488E-03
   24.5062504        -1.47651148E-03
   24.6250000        -1.42413832E-03
   24.7437496        -1.38162542E-03
   24.8624992        -1.35101774E-03
   24.9812508        -1.33373763E-03
   25.1000004        -1.33047765E-03
   25.2187500        -1.34116714E-03
   25.3374996        -1.36501121E-03
   25.4562492        -1.40059565E-03
   25.5750008        -1.44604011E-03
   25.6937504        -1.49918231E-03
   25.8125000        -1.55776727E-03
   25.9312496        -1.61962199E-03
   26.0499992        -1.68279640E-03
   26.1687508        -1.74565800E-03
   26.2875004        -1.80693599E-03
   26.4062500        -1.86571479E-03
   26.5249996        -1.92138634E-03
   26.6437492        -1.97357638E-03
   26.7625008        -2.02205824E-03
   26.8812504        -2.06667185E-03
   27.0000000        -2.10726610E-03
   27.1187496        -2.14366824E-03
   27.2374992        -2.17569317E-03
   27.3562508        -2.20318278E-03
   27.4750004        -2.22607329E-03
   27.5937500        -2.24447576E-03
   27.7124996        -2.25875014E-03
   27.8312492        -2.26956303E-03
   27.9500008        -2.27790885E-03
   28.0687504        -2.28508655E-03
   28.1875000        -2.29263096E-03
   28.3062496        -2.30219588E-03
   28.4249992        -2.31540692E-03
   28.5437508        -2.33369507E-03
   28.6625004        -2.35813111E-03
   28.7812500        -2.38928292E-03
   28.8999996        -2.42711487E-03
   29.0187492        -2.47094105E-03
   29.1375008        -2.51944084E-03
   29.2562504        -2.57074088E-03
   29.3750000        -2.62254942E-03
   29.4937496        -2.67233583E-03
   29.6124992        -2.71752966E-03
   29.7312508        -2.75572226E-03
   29.8500004        -2.78484449E-03
   29.9687500        -2.80330610E-03
   30.0874996        -2.81007681E-03
   30.2062492        -2.80470890E-03
   30.3250008        -2.78729782E-03
   30.4437504        -2.75839376E-03
   30.5625000        -2.71887612E-03
   30.6812496        -2.66981428E-03
   30.7999992        -2.61233514E-03
   30.9187508        -2.54751719E-03
   31.0375004        -2.47632642E-03
   31.1562500        -2.39960407E-03
   31.2749996        -2.31810543E-03
   31.3937492        -2.23258161E-03
   31.5125008        -2.14389153E-03
   31.6312504        -2.05311878E-03
   31.7500000        -1.96167640E-03
   31.8687496        -1.87137350E-03
   31.9874992        -1.78442581E-03
   32.1062508        -1.70340226E-03
   32.2249985        -1.63110241E-03
   32.3437500        -1.57037494E-03
   32.4625015        -1.52389111E-03
   32.5812492        -1.49389962E-03
   32.7000008        -1.48198986E-03
   32.8187485        -1.48889318E-03
   32.9375000        -1.51434797E-03
   33.0562515        -1.55705144E-03
   33.1749992        -1.61470438E-03
   33.2937508        -1.68415392E-03
   33.4124985        -1.76161842E-03
   33.5312500        -1.84297562E-03
   33.6500015        -1.92408275E-03
   33.7687492        -2.00109556E-03
   33.8875008        -2.07075081E-03
   34.0062485        -2.13058107E-03
   34.1250000        -2.17904174E-03
   34.2437515        -2.21553538E-03
   34.3624992        -2.24033534E-03
   34.4812508        -2.25442136E-03
   34.5999985        -2.25924933E-03
   34.7187500        -2.25648889E-03
   34.8375015        -2.24776333E-03
   34.9562492        -2.23442493E-03
   35.0750008        -2.21739826E-03
   35.1937485        -2.19711056E-03
   35.3125000        -2.17351620E-03
   35.4312515        -2.14621425E-03
   35.5499992        -2.11463775E-03
   35.6687508        -2.07828986E-03
   35.7874985        -2.03699106E-03
   35.9062500        -1.99109991E-03
   36.0250015        -1.94167101E-03
   36.1437492        -1.89052464E-03
   36.2625008        -1.84021005E-03
   36.3812485        -1.79385836E-03
   36.5000000        -1.75493758E-03
   36.6187515        -1.72693399E-03
   36.7374992        -1.71299372E-03
   36.8562508        -1.71556883E-03
   36.9749985        -1.73610845E-03
   37.0937500        -1.77483575E-03
   37.2125015        -1.83064141E-03
   37.3312492        -1.90111110E-03
   37.4500008        -1.98268704E-03
   37.5687485        -2.07095384E-03
   37.6875000        -2.16101669E-03
   37.8062515        -2.24793283E-03
   37.9249992        -2.32714973E-03
   38.0437508        -2.39490159E-03
   38.1624985        -2.44852039E-03
   38.2812500        -2.48662569E-03
   38.4000015        -2.50917603E-03
   38.5187492        -2.51737703E-03
   38.6375008        -2.51345825E-03
   38.7562485        -2.50035059E-03
   38.8750000        -2.48130038E-03
   38.9937515        -2.45947135E-03
   39.1124992        -2.43757945E-03
   39.2312508        -2.41760467E-03
   39.3499985        -2.40061246E-03
   39.4687500        -2.38670316E-03
   39.5875015        -2.37509375E-03
   39.7062492        -2.36431463E-03
   39.8250008        -2.35249754E-03
   39.9437485        -2.33770953E-03
   40.0625000        -2.31829402E-03
   40.1812515        -2.29316833E-03
   40.2999992        -2.26204004E-03
   40.4187508        -2.22551264E-03
   40.5374985        -2.18506460E-03
   40.6562500        -2.14290270E-03
   40.7750015        -2.10170937E-03
   40.8937492        -2.06431281E-03
   41.0125008        -2.03332515E-03
   41.1312485        -2.01079180E-03
   41.2500000        -1.99790159E-03
   41.3687515        -1.99479307E-03
   41.4874992        -2.00048671E-03
   41.6062508        -2.01295177E-03
   41.7249985        -2.02930486E-03
   41.8437500        -2.04611593E-03
   41.9625015        -2.05978984E-03
   42.0812492        -2.06697499E-03
   42.2000008        -2.06495519E-03
   42.3187485        -2.05197325E-03
   42.4375000        -2.02745455E-03
   42.5562515        -1.99209806E-03
   42.6749992        -1.94782729E-03
   42.7937508        -1.89760642E-03
   42.9124985        -1.84514245E-03
   43.0312500        -1.79450784E-03
   43.1500015        -1.74972916E-03
   43.2687492        -1.71438640E-03
   43.3875008        -1.69127225E-03
   43.5062485        -1.68214540E-03
   43.6250000        -1.68760715E-03
   43.7437515        -1.70710939E-03
   43.8624992        -1.73909019E-03
   43.9812508        -1.78121554E-03
   44.0999985        -1.83069240E-03
   44.2187500        -1.88461447E-03
   44.3375015        -1.94029289E-03
   44.4562492        -1.99553417E-03
   44.5750008        -2.04882910E-03
   44.6937485        -2.09943485E-03
   44.8125000        -2.14734115E-03
   44.9312515        -2.19312985E-03
   45.0499992        -2.23775208E-03
   45.1687508        -2.28225160E-03
   45.2874985        -2.32747756E-03
   45.4062500        -2.37382343E-03
   45.5250015        -2.42103264E-03
   45.6437492        -2.46809516E-03
   45.7625008        -2.51325336E-03
   45.8812485        -2.55412050E-03
