  -1.50000000         2.97651844E-19
  -1.38125002        -1.37359590E-09
  -1.26250005        -6.03325390E-09
  -1.14374995        -1.81178006E-08
  -1.02499998        -4.61832883E-08
 -0.906250000        -1.06661624E-07
 -0.787500024        -2.28461417E-07
 -0.668749988        -4.57685047E-07
 -0.550000012        -8.60091461E-07
 -0.431250006        -1.51761867E-06
 -0.312500000        -2.51495908E-06
 -0.193749994        -3.91401363E-06
  -7.50000030E-02    -5.71872533E-06
   4.37499993E-02    -7.83959422E-06
  0.162499994        -1.00738680E-05
  0.281250000        -1.21205294E-05
  0.400000006        -1.36460267E-05
  0.518750012        -1.44064361E-05
  0.637499988        -1.44167261E-05
  0.756250024        -1.41423398E-05
  0.875000000        -1.46772027E-05
  0.993749976        -1.78690698E-05
   1.11249995        -2.63580969E-05
   1.23125005        -4.35069160E-05
   1.35000002        -7.32170301E-05
   1.46875000        -1.19643722E-04
   1.58749998        -1.86837613E-04
   1.70624995        -2.78352847E-04
   1.82500005        -3.96868738E-04
   1.94375002        -5.43870730E-04
   2.06250000        -7.19432195E-04
   2.18125010        -9.22125997E-04
   2.29999995        -1.14907941E-03
   2.41875005        -1.39616837E-03
   2.53749990        -1.65832916E-03
   2.65625000        -1.92995206E-03
   2.77500010        -2.20530853E-03
   2.89374995        -2.47896137E-03
   3.01250005        -2.74611334E-03
   3.13124990        -3.00284848E-03
   3.25000000        -3.24624940E-03
   3.36875010        -3.47437942E-03
   3.48749995        -3.68614099E-03
   3.60625005        -3.88104469E-03
   3.72499990        -4.05892404E-03
   3.84375000        -4.21964657E-03
   3.96250010        -4.36287047E-03
   4.08125019        -4.48788702E-03
   4.19999981        -4.59357770E-03
   4.31874990        -4.67849383E-03
   4.43750000        -4.74106101E-03
   4.55625010        -4.77986783E-03
   4.67500019        -4.79401229E-03
   4.79374981        -4.78344178E-03
   4.91249990        -4.74924082E-03
   5.03125000        -4.69381176E-03
   5.15000010        -4.62091062E-03
   5.26875019        -4.53551579E-03
   5.38749981        -4.44353651E-03
   5.50624990        -4.35137143E-03
   5.62500000        -4.26537590E-03
   5.74375010        -4.19128407E-03
   5.86250019        -4.13366174E-03
   5.98124981        -4.09545144E-03
   6.09999990        -4.07767110E-03
   6.21875000        -4.07931022E-03
   6.33750010        -4.09743562E-03
   6.45625019        -4.12750943E-03
   6.57499981        -4.16387944E-03
   6.69374990        -4.20039566E-03
   6.81250000        -4.23107855E-03
   6.93125010        -4.25076718E-03
   7.05000019        -4.25566128E-03
   7.16874981        -4.24370868E-03
   7.28749990        -4.21478087E-03
   7.40625000        -4.17061988E-03
   7.52500010        -4.11456497E-03
   7.64375019        -4.05109301E-03
   7.76249981        -3.98523128E-03
   7.88124990        -3.92191345E-03
   8.00000000        -3.86536494E-03
   8.11874962        -3.81858950E-03
   8.23750019        -3.78303044E-03
   8.35624981        -3.75843793E-03
   8.47500038        -3.74296843E-03
   8.59375000        -3.73350130E-03
   8.71249962        -3.72612360E-03
   8.83125019        -3.71673121E-03
   8.94999981        -3.70165752E-03
   9.06875038        -3.67825059E-03
   9.18750000        -3.64532135E-03
   9.30624962        -3.60339833E-03
   9.42500019        -3.55475373E-03
   9.54374981        -3.50318896E-03
   9.66250038        -3.45360278E-03
   9.78125000        -3.41139082E-03
   9.89999962        -3.38175055E-03
   10.0187502        -3.36897234E-03
   10.1374998        -3.37581360E-03
   10.2562504        -3.40302824E-03
   10.3750000        -3.44912172E-03
   10.4937496        -3.51036619E-03
   10.6125002        -3.58107965E-03
   10.7312498        -3.65414540E-03
   10.8500004        -3.72171495E-03
   10.9687500        -3.77601478E-03
   11.0874996        -3.81016661E-03
   11.2062502        -3.81892454E-03
   11.3249998        -3.79924383E-03
   11.4437504        -3.75061599E-03
   11.5625000        -3.67513276E-03
   11.6812496        -3.57726845E-03
   11.8000002        -3.46341077E-03
   11.9187498        -3.34119517E-03
   12.0375004        -3.21872090E-03
   12.1562500        -3.10373912E-03
   12.2749996        -3.00291087E-03
   12.3937502        -2.92121456E-03
   12.5124998        -2.86156987E-03
   12.6312504        -2.82471464E-03
   12.7500000        -2.80934339E-03
   12.8687496        -2.81247427E-03
   12.9875002        -2.83000106E-03
   13.1062498        -2.85734329E-03
   13.2250004        -2.89011677E-03
   13.3437500        -2.92473170E-03
   13.4624996        -2.95884325E-03
   13.5812502        -2.99159670E-03
   13.6999998        -3.02363862E-03
   13.8187504        -3.05689336E-03
   13.9375000        -3.09413881E-03
   14.0562496        -3.13843740E-03
   14.1750002        -3.19249928E-03
   14.2937498        -3.25806811E-03
   14.4125004        -3.33540956E-03
   14.5312500        -3.42297787E-03
   14.6499996        -3.51730944E-03
   14.7687502        -3.61316837E-03
   14.8874998        -3.70393181E-03
   15.0062504        -3.78217711E-03
   15.1250000        -3.84040689E-03
   15.2437496        -3.87182692E-03
   15.3625002        -3.87108698E-03
   15.4812498        -3.83490045E-03
   15.6000004        -3.76246148E-03
   15.7187500        -3.65561945E-03
   15.8374996        -3.51877976E-03
   15.9562502        -3.35854548E-03
   16.0750008        -3.18313972E-03
   16.1937504        -3.00167035E-03
   16.3125000        -2.82332394E-03
   16.4312496        -2.65657483E-03
   16.5499992        -2.50850036E-03
   16.6687508        -2.38427031E-03
   16.7875004        -2.28686631E-03
   16.9062500        -2.21705181E-03
   17.0249996        -2.17358302E-03
   17.1437492        -2.15363060E-03
   17.2625008        -2.15334352E-03
   17.3812504        -2.16848543E-03
   17.5000000        -2.19505723E-03
   17.6187496        -2.22982699E-03
   17.7374992        -2.27070297E-03
   17.8562508        -2.31690798E-03
   17.9750004        -2.36893352E-03
   18.0937500        -2.42829230E-03
   18.2124996        -2.49710213E-03
   18.3312492        -2.57756305E-03
   18.4500008        -2.67140125E-03
   18.5687504        -2.77935667E-03
   18.6875000        -2.90078577E-03
   18.8062496        -3.03343660E-03
   18.9249992        -3.17343348E-03
   19.0437508        -3.31547833E-03
   19.1625004        -3.45325051E-03
   19.2812500        -3.57996230E-03
   19.3999996        -3.68900620E-03
   19.5187492        -3.77461757E-03
   19.6375008        -3.83247714E-03
   19.7562504        -3.86017654E-03
   19.8750000        -3.85749643E-03
   19.9937496        -3.82645940E-03
   20.1124992        -3.77115258E-03
   20.2312508        -3.69733782E-03
   20.3500004        -3.61189456E-03
   20.4687500        -3.52215674E-03
   20.5874996        -3.43521917E-03
   20.7062492        -3.35728819E-03
   20.8250008        -3.29314568E-03
   20.9437504        -3.24578490E-03
   21.0625000        -3.21624638E-03
   21.1812496        -3.20367003E-03
   21.2999992        -3.20554059E-03
   21.4187508        -3.21809785E-03
   21.5375004        -3.23684770E-03
   21.6562500        -3.25711467E-03
   21.7749996        -3.27456603E-03
   21.8937492        -3.28564784E-03
   22.0125008        -3.28788720E-03
   22.1312504        -3.28002777E-03
   22.2500000        -3.26199946E-03
   22.3687496        -3.23473336E-03
   22.4874992        -3.19985719E-03
   22.6062508        -3.15932301E-03
   22.7250004        -3.11501883E-03
   22.8437500        -3.06842336E-03
   22.9624996        -3.02034989E-03
   23.0812492        -2.97081377E-03
   23.2000008        -2.91903876E-03
   23.3187504        -2.86360388E-03
   23.4375000        -2.80270260E-03
   23.5562496        -2.73448275E-03
   23.6749992        -2.65741744E-03
   23.7937508        -2.57065287E-03
   23.9125004        -2.47428985E-03
   24.0312500        -2.36955192E-03
   24.1499996        -2.25882092E-03
   24.2687492        -2.14552856E-03
   24.3875008        -2.03391397E-03
   24.5062504        -1.92867999E-03
   24.6250000        -1.83458172E-03
   24.7437496        -1.75600220E-03
   24.8624992        -1.69656251E-03
   24.9812508        -1.65881112E-03
   25.1000004        -1.64402719E-03
   25.2187500        -1.65215775E-03
   25.3374996        -1.68188964E-03
   25.4562492        -1.73084345E-03
   25.5750008        -1.79586071E-03
   25.6937504        -1.87334535E-03
   25.8125000        -1.95961632E-03
   25.9312496        -2.05122889E-03
   26.0499992        -2.14522728E-03
   26.1687508        -2.23930506E-03
   26.2875004        -2.33185943E-03
   26.4062500        -2.42194417E-03
   26.5249996        -2.50913855E-03
   26.6437492        -2.59335991E-03
   26.7625008        -2.67465576E-03
   26.8812504        -2.75301188E-03
   27.0000000        -2.82821083E-03
   27.1187496        -2.89976271E-03
   27.2374992        -2.96692341E-03
   27.3562508        -3.02879279E-03
   27.4750004        -3.08448379E-03
   27.5937500        -3.13332700E-03
   27.7124996        -3.17508192E-03
   27.8312492        -3.21011571E-03
   27.9500008        -3.23951361E-03
   28.0687504        -3.26510076E-03
   28.1875000        -3.28935683E-03
   28.3062496        -3.31522757E-03
   28.4249992        -3.34585086E-03
   28.5437508        -3.38422228E-03
   28.6625004        -3.43284244E-03
   28.7812500        -3.49338795E-03
   28.8999996        -3.56644508E-03
   29.0187492        -3.65134818E-03
   29.1375008        -3.74613958E-03
   29.2562504        -3.84766702E-03
   29.3750000        -3.95180658E-03
   29.4937496        -4.05379152E-03
   29.6124992        -4.14860900E-03
   29.7312508        -4.23142267E-03
   29.8500004        -4.29796847E-03
   29.9687500        -4.34488384E-03
   30.0874996        -4.36993223E-03
   30.2062492        -4.37209848E-03
   30.3250008        -4.35155490E-03
   30.4437504        -4.30950662E-03
   30.5625000        -4.24794108E-03
   30.6812496        -4.16932208E-03
   30.7999992        -4.07627644E-03
   30.9187508        -3.97131080E-03
   31.0375004        -3.85660538E-03
   31.1562500        -3.73390433E-03
   31.2749996        -3.60452197E-03
   31.3937492        -3.46945389E-03
   31.5125008        -3.32957692E-03
   31.6312504        -3.18589760E-03
   31.7500000        -3.03981151E-03
   31.8687496        -2.89332378E-03
   31.9874992        -2.74918647E-03
   32.1062508        -2.61092442E-03
   32.2249985        -2.48272996E-03
   32.3437500        -2.36922503E-03
   32.4625015        -2.27511441E-03
   32.5812492        -2.20476231E-03
   32.7000008        -2.16174265E-03
   32.8187485        -2.14842008E-03
   32.9375000        -2.16561323E-03
   33.0562515        -2.21239054E-03
   33.1749992        -2.28602951E-03
   33.2937508        -2.38215365E-03
   33.4124985        -2.49503902E-03
   33.5312500        -2.61806184E-03
   33.6500015        -2.74423952E-03
   33.7687492        -2.86680670E-03
   33.8875008        -2.97976309E-03
   34.0062485        -3.07832891E-03
   34.1250000        -3.15925921E-03
   34.2437515        -3.22098262E-03
   34.3624992        -3.26355151E-03
   34.4812508        -3.28841759E-03
   34.5999985        -3.29806400E-03
   34.7187500        -3.29554360E-03
   34.8375015        -3.28399125E-03
   34.9562492        -3.26616969E-03
   35.0750008        -3.24411318E-03
   35.1937485        -3.21891694E-03
   35.3125000        -3.19069484E-03
   35.4312515        -3.15871509E-03
   35.5499992        -3.12169245E-03
   35.6687508        -3.07819061E-03
   35.7874985        -3.02708405E-03
   35.9062500        -2.96800607E-03
   36.0250015        -2.90171499E-03
   36.1437492        -2.83032306E-03
   36.2625008        -2.75734346E-03
   36.3812485        -2.68753385E-03
   36.5000000        -2.62654852E-03
   36.6187515        -2.58042687E-03
   36.7374992        -2.55497755E-03
   36.8562508        -2.55512772E-03
   36.9749985        -2.58431816E-03
   37.0937500        -2.64401827E-03
   37.2125015        -2.73343036E-03
   37.3312492        -2.84942053E-03
   37.4500008        -2.98669748E-03
   37.5687485        -3.13822669E-03
   37.6875000        -3.29583604E-03
   37.8062515        -3.45095363E-03
   37.9249992        -3.59539082E-03
   38.0437508        -3.72208934E-03
   38.1624985        -3.82574368E-03
   38.2812500        -3.90323228E-03
   38.4000015        -3.95380659E-03
   38.5187492        -3.97902401E-03
   38.6375008        -3.98242660E-03
   38.7562485        -3.96902114E-03
   38.8750000        -3.94460512E-03
   38.9937515        -3.91504262E-03
   39.1124992        -3.88555997E-03
   39.2312508        -3.86015698E-03
   39.3499985        -3.84119735E-03
   39.4687500        -3.82922497E-03
   39.5875015        -3.82302608E-03
   39.7062492        -3.81992268E-03
   39.8250008        -3.81625164E-03
   39.9437485        -3.80797009E-03
   40.0625000        -3.79129965E-03
   40.1812515        -3.76332831E-03
   40.2999992        -3.72249167E-03
   40.4187508        -3.66886565E-03
   40.5374985        -3.60423583E-03
   40.6562500        -3.53193446E-03
   40.7750015        -3.45645961E-03
   40.8937492        -3.38292937E-03
   41.0125008        -3.31643992E-03
   41.1312485        -3.26140551E-03
   41.2500000        -3.22097004E-03
   41.3687515        -3.19656450E-03
   41.4874992        -3.18766851E-03
   41.6062508        -3.19181220E-03
   41.7249985        -3.20481858E-03
   41.8437500        -3.22126504E-03
   41.9625015        -3.23510566E-03
   42.0812492        -3.24038370E-03
   42.2000008        -3.23194824E-03
   42.3187485        -3.20608937E-03
   42.4375000        -3.16101313E-03
   42.5562515        -3.09710228E-03
   42.6749992        -3.01693054E-03
   42.7937508        -2.92502763E-03
   42.9124985        -2.82742502E-03
   43.0312500        -2.73103663E-03
   43.1500015        -2.64294539E-03
   43.2687492        -2.56968453E-03
   43.3875008        -2.51659076E-03
   43.5062485        -2.48730765E-03
   43.6250000        -2.48349155E-03
   43.7437515        -2.50474783E-03
   43.8624992        -2.54879915E-03
   43.9812508        -2.61185551E-03
   44.0999985        -2.68913759E-03
   44.2187500        -2.77547794E-03
   44.3375015        -2.86592916E-03
   44.4562492        -2.95629632E-03
   44.5750008        -3.04353167E-03
   44.6937485        -3.12594720E-03
   44.8125000        -3.20322183E-03
   44.9312515        -3.27620888E-03
   45.0499992        -3.34657799E-03
   45.1687508        -3.41634313E-03
   45.2874985        -3.48734297E-03
   45.4062500        -3.56074865E-03
   45.5250015        -3.63666797E-03
   45.6437492        -3.71390046E-03
   45.7625008        -3.78988171E-03
   45.8812485        -3.86082917E-03
