  -1.50000000       0.00000000    
  -1.38499999      -8.07476419E-10
  -1.26999998      -3.58706131E-09
  -1.15499997      -1.09149543E-08
  -1.03999996      -2.81934422E-08
 -0.925000012      -6.60132216E-08
 -0.810000002      -1.43666952E-07
 -0.694999993      -2.93707217E-07
 -0.579999983      -5.66876736E-07
 -0.465000004      -1.03602940E-06
 -0.349999994      -1.79712617E-06
 -0.234999999      -2.96549774E-06
 -0.119999997      -4.66672827E-06
  -4.99999989E-03  -7.02373472E-06
  0.109999999      -1.01443438E-05
  0.224999994      -1.41157743E-05
  0.340000004      -1.90127175E-05
  0.455000013      -2.49235127E-05
  0.569999993      -3.19945211E-05
  0.685000002      -4.04873754E-05
  0.800000012      -5.08391167E-05
  0.915000021      -6.37125559E-05
   1.02999997      -8.00244597E-05
   1.14499998      -1.00941870E-04
   1.25999999      -1.27841791E-04
   1.37500000      -1.62234748E-04
   1.49000001      -2.05658303E-04
   1.60500002      -2.59551016E-04
   1.72000003      -3.25120433E-04
   1.83500004      -4.03219863E-04
   1.95000005      -4.94248176E-04
   2.06500006      -5.98084298E-04
   2.18000007      -7.14064634E-04
   2.29500008      -8.41006113E-04
   2.41000009      -9.77272168E-04
   2.52500010      -1.12087524E-03
   2.64000010      -1.26960280E-03
   2.75500011      -1.42115378E-03
   2.86999989      -1.57326972E-03
   2.98499990      -1.72384549E-03
   3.09999990      -1.87101075E-03
   3.21499991      -2.01317342E-03
   3.32999992      -2.14902265E-03
   3.44499993      -2.27749976E-03
   3.55999994      -2.39773933E-03
   3.67499995      -2.50899862E-03
   3.78999996      -2.61058612E-03
   3.90499997      -2.70180614E-03
   4.01999998      -2.78192735E-03
   4.13500023      -2.85018724E-03
   4.25000000      -2.90583470E-03
   4.36499977      -2.94820359E-03
   4.48000002      -2.97681475E-03
   4.59499979      -2.99148611E-03
   4.71000004      -2.99244211E-03
   4.82499981      -2.98039732E-03
   4.94000006      -2.95660505E-03
   5.05499983      -2.92285462E-03
   5.17000008      -2.88141239E-03
   5.28499985      -2.83490773E-03
   5.40000010      -2.78616860E-03
   5.51499987      -2.73802248E-03
   5.63000011      -2.69308174E-03
   5.74499989      -2.65353592E-03
   5.86000013      -2.62097106E-03
   5.97499990      -2.59624119E-03
   6.09000015      -2.57940567E-03
   6.20499992      -2.56974250E-03
   6.32000017      -2.56583723E-03
   6.43499994      -2.56574294E-03
   6.55000019      -2.56719510E-03
   6.66499996      -2.56785634E-03
   6.78000021      -2.56556994E-03
   6.89499998      -2.55858945E-03
   7.01000023      -2.54576420E-03
   7.12500000      -2.52665509E-03
   7.23999977      -2.50157132E-03
   7.35500002      -2.47152173E-03
   7.46999979      -2.43808678E-03
   7.58500004      -2.40322761E-03
   7.69999981      -2.36905133E-03
   7.81500006      -2.33756239E-03
   7.92999983      -2.31042830E-03
   8.04500008      -2.28878669E-03
   8.15999985      -2.27311603E-03
   8.27499962      -2.26318766E-03
   8.39000034      -2.25810171E-03
   8.50500011      -2.25640577E-03
   8.61999989      -2.25628028E-03
   8.73499966      -2.25577224E-03
   8.85000038      -2.25304486E-03
   8.96500015      -2.24661944E-03
   9.07999992      -2.23557348E-03
   9.19499969      -2.21967720E-03
   9.31000042      -2.19944655E-03
   9.42500019      -2.17610667E-03
   9.53999996      -2.15146667E-03
   9.65499973      -2.12772237E-03
   9.77000046      -2.10720324E-03
   9.88500023      -2.09209626E-03
   10.0000000      -2.08417699E-03
   10.1149998      -2.08457746E-03
   10.2299995      -2.09361920E-03
   10.3450003      -2.11073295E-03
   10.4600000      -2.13447050E-03
   10.5749998      -2.16261577E-03
   10.6899996      -2.19237804E-03
   10.8050003      -2.22065020E-03
   10.9200001      -2.24430510E-03
   11.0349998      -2.26049777E-03
   11.1499996      -2.26694159E-03
   11.2650003      -2.26212968E-03
   11.3800001      -2.24548066E-03
   11.4949999      -2.21739011E-03
   11.6099997      -2.17918772E-03
   11.7250004      -2.13300413E-03
   11.8400002      -2.08156230E-03
   11.9549999      -2.02791975E-03
   12.0699997      -1.97518687E-03
   12.1850004      -1.92625413E-03
   12.3000002      -1.88355613E-03
   12.4150000      -1.84889545E-03
   12.5299997      -1.82334322E-03
   12.6450005      -1.80722401E-03
   12.7600002      -1.80018006E-03
   12.8750000      -1.80130592E-03
   12.9899998      -1.80932961E-03
   13.1049995      -1.82281970E-03
   13.2200003      -1.84038782E-03
   13.3350000      -1.86086458E-03
   13.4499998      -1.88342493E-03
   13.5649996      -1.90765050E-03
   13.6800003      -1.93352136E-03
   13.7950001      -1.96134159E-03
   13.9099998      -1.99160795E-03
   14.0249996      -2.02484243E-03
   14.1400003      -2.06140755E-03
   14.2550001      -2.10133428E-03
   14.3699999      -2.14418233E-03
   14.4849997      -2.18895543E-03
   14.6000004      -2.23408383E-03
   14.7150002      -2.27748184E-03
   14.8299999      -2.31667398E-03
   14.9449997      -2.34898319E-03
   15.0600004      -2.37175799E-03
   15.1750002      -2.38261675E-03
   15.2900000      -2.37968331E-03
   15.4049997      -2.36178795E-03
   15.5200005      -2.32860935E-03
   15.6350002      -2.28074496E-03
   15.7500000      -2.21970049E-03
   15.8649998      -2.14779493E-03
   15.9799995      -2.06799689E-03
   16.0949993      -1.98370288E-03
   16.2099991      -1.89848396E-03
   16.3250008      -1.81582279E-03
   16.4400005      -1.73886982E-03
   16.5550003      -1.67024019E-03
   16.6700001      -1.61187083E-03
   16.7849998      -1.56494894E-03
   16.8999996      -1.52991526E-03
   17.0149994      -1.50653906E-03
   17.1299992      -1.49405119E-03
   17.2450008      -1.49131729E-03
   17.3600006      -1.49703107E-03
   17.4750004      -1.50990090E-03
   17.5900002      -1.52881199E-03
   17.7049999      -1.55294163E-03
   17.8199997      -1.58181984E-03
   17.9349995      -1.61532604E-03
   18.0499992      -1.65362738E-03
   18.1650009      -1.69706717E-03
   18.2800007      -1.74601877E-03
   18.3950005      -1.80072547E-03
   18.5100002      -1.86114642E-03
   18.6250000      -1.92683062E-03
   18.7399998      -1.99683476E-03
   18.8549995      -2.06969841E-03
   18.9699993      -2.14348151E-03
   19.0849991      -2.21586274E-03
   19.2000008      -2.28428980E-03
   19.3150005      -2.34616827E-03
   19.4300003      -2.39906902E-03
   19.5450001      -2.44093221E-03
   19.6599998      -2.47024838E-03
   19.7749996      -2.48619495E-03
   19.8899994      -2.48871720E-03
   20.0049992      -2.47854018E-03
   20.1200008      -2.45711580E-03
   20.2350006      -2.42650509E-03
   20.3500004      -2.38920911E-03
   20.4650002      -2.34796503E-03
   20.5799999      -2.30552698E-03
   20.6949997      -2.26445240E-03
   20.8099995      -2.22691242E-03
   20.9249992      -2.19454523E-03
   21.0400009      -2.16836156E-03
   21.1550007      -2.14871159E-03
   21.2700005      -2.13531242E-03
   21.3850002      -2.12732912E-03
   21.5000000      -2.12349999E-03
   21.6149998      -2.12228973E-03
   21.7299995      -2.12205597E-03
   21.8449993      -2.12120800E-03
   21.9599991      -2.11834488E-03
   22.0750008      -2.11236114E-03
   22.1900005      -2.10250868E-03
   22.3050003      -2.08841567E-03
   22.4200001      -2.07006466E-03
   22.5349998      -2.04773201E-03
   22.6499996      -2.02190666E-03
   22.7649994      -1.99319515E-03
   22.8799992      -1.96222472E-03
   22.9950008      -1.92956312E-03
   23.1100006      -1.89565634E-03
   23.2250004      -1.86079671E-03
   23.3400002      -1.82511937E-03
   23.4549999      -1.78862875E-03
   23.5699997      -1.75124838E-03
   23.6849995      -1.71288673E-03
   23.7999992      -1.67350983E-03
   23.9150009      -1.63321069E-03
   24.0300007      -1.59226498E-03
   24.1450005      -1.55116722E-03
   24.2600002      -1.51064096E-03
   24.3750000      -1.47162075E-03
   24.4899998      -1.43520837E-03
   24.6049995      -1.40260765E-03
   24.7199993      -1.37504295E-03
   24.8349991      -1.35367329E-03
   24.9500008      -1.33950787E-03
   25.0650005      -1.33333250E-03
   25.1800003      -1.33565499E-03
   25.2950001      -1.34667160E-03
   25.4099998      -1.36625790E-03
   25.5249996      -1.39398291E-03
   25.6399994      -1.42914359E-03
   25.7549992      -1.47081306E-03
   25.8700008      -1.51789980E-03
   25.9850006      -1.56920904E-03
   26.1000004      -1.62350247E-03
   26.2150002      -1.67955086E-03
   26.3299999      -1.73617841E-03
   26.4449997      -1.79229584E-03
   26.5599995      -1.84692291E-03
   26.6749992      -1.89920352E-03
   26.7900009      -1.94841425E-03
   26.9050007      -1.99396908E-03
   27.0200005      -2.03542528E-03
   27.1350002      -2.07248819E-03
   27.2500000      -2.10502115E-03
   27.3649998      -2.13305396E-03
   27.4799995      -2.15679337E-03
   27.5949993      -2.17662705E-03
   27.7099991      -2.19312427E-03
   27.8250008      -2.20702169E-03
   27.9400005      -2.21919804E-03
   28.0550003      -2.23063305E-03
   28.1700001      -2.24235118E-03
   28.2849998      -2.25535571E-03
   28.3999996      -2.27055186E-03
   28.5149994      -2.28867284E-03
   28.6299992      -2.31020991E-03
   28.7450008      -2.33535538E-03
   28.8600006      -2.36396585E-03
   28.9750004      -2.39555119E-03
   29.0900002      -2.42928625E-03
   29.2049999      -2.46405415E-03
   29.3199997      -2.49850866E-03
   29.4349995      -2.53115734E-03
   29.5499992      -2.56045628E-03
   29.6650009      -2.58490653E-03
   29.7800007      -2.60314578E-03
   29.8950005      -2.61402642E-03
   30.0100002      -2.61667510E-03
   30.1250000      -2.61052675E-03
   30.2399998      -2.59533431E-03
   30.3549995      -2.57115648E-03
   30.4699993      -2.53832201E-03
   30.5849991      -2.49738223E-03
   30.7000008      -2.44905823E-03
   30.8150005      -2.39418587E-03
   30.9300003      -2.33367179E-03
   31.0450001      -2.26846104E-03
   31.1599998      -2.19952222E-03
   31.2749996      -2.12784600E-03
   31.3899994      -2.05446151E-03
   31.5049992      -1.98045629E-03
   31.6200008      -1.90700055E-03
   31.7350006      -1.83536357E-03
   31.8500004      -1.76691718E-03
   31.9650002      -1.70311960E-03
   32.0800018      -1.64547784E-03
   32.1949997      -1.59548712E-03
   32.3100014      -1.55455328E-03
   32.4249992      -1.52390124E-03
   32.5400009      -1.50448212E-03
   32.6549988      -1.49688544E-03
   32.7700005      -1.50127080E-03
   32.8849983      -1.51732436E-03
   33.0000000      -1.54425052E-03
   33.1150017      -1.58079900E-03
   33.2299995      -1.62533030E-03
   33.3450012      -1.67591230E-03
   33.4599991      -1.73044147E-03
   33.5750008      -1.78677635E-03
   33.6899986      -1.84287177E-03
   33.8050003      -1.89689861E-03
   33.9199982      -1.94733881E-03
   34.0349998      -1.99304568E-03
   34.1500015      -2.03326368E-03
   34.2649994      -2.06760759E-03
   34.3800011      -2.09600548E-03
   34.4949989      -2.11861287E-03
   34.6100006      -2.13571195E-03
   34.7249985      -2.14760937E-03
   34.8400002      -2.15454609E-03
   34.9550018      -2.15663412E-03
   35.0699997      -2.15382804E-03
   35.1850014      -2.14593788E-03
   35.2999992      -2.13268166E-03
   35.4150009      -2.11377232E-03
   35.5299988      -2.08902778E-03
   35.6450005      -2.05849158E-03
   35.7599983      -2.02254276E-03
   35.8750000      -1.98198389E-03
   35.9900017      -1.93808845E-03
   36.1049995      -1.89259788E-03
   36.2200012      -1.84766378E-03
   36.3349991      -1.80573447E-03
   36.4500008      -1.76939520E-03
   36.5649986      -1.74117414E-03
   36.6800003      -1.72333198E-03
   36.7949982      -1.71765778E-03
   36.9099998      -1.72529067E-03
   37.0250015      -1.74658920E-03
   37.1399994      -1.78106246E-03
   37.2550011      -1.82737352E-03
   37.3699989      -1.88341807E-03
   37.4850006      -1.94647163E-03
   37.5999985      -2.01339461E-03
   37.7150002      -2.08087428E-03
   37.8300018      -2.14568176E-03
   37.9449997      -2.20491830E-03
   38.0600014      -2.25622859E-03
   38.1749992      -2.29795766E-03
   38.2900009      -2.32923822E-03
   38.4049988      -2.35000276E-03
   38.5200005      -2.36091739E-03
   38.6349983      -2.36325152E-03
   38.7500000      -2.35869410E-03
   38.8650017      -2.34914036E-03
   38.9799995      -2.33647460E-03
   39.0950012      -2.32236739E-03
   39.2099991      -2.30811443E-03
   39.3250008      -2.29452946E-03
   39.4399986      -2.28190213E-03
   39.5550003      -2.27002450E-03
   39.6699982      -2.25827587E-03
   39.7849998      -2.24576029E-03
   39.9000015      -2.23147264E-03
   40.0149994      -2.21447414E-03
   40.1300011      -2.19405722E-03
   40.2449989      -2.16987659E-03
   40.3600006      -2.14203238E-03
   40.4749985      -2.11109291E-03
   40.5900002      -2.07805727E-03
   40.7050018      -2.04426004E-03
   40.8199997      -2.01122998E-03
   40.9350014      -1.98052055E-03
   41.0499992      -1.95353152E-03
   41.1650009      -1.93134497E-03
   41.2799988      -1.91459490E-03
   41.3950005      -1.90338574E-03
   41.5099983      -1.89727044E-03
   41.6250000      -1.89529278E-03
   41.7400017      -1.89608603E-03
   41.8549995      -1.89802027E-03
   41.9700012      -1.89938047E-03
   42.0849991      -1.89855462E-03
   42.2000008      -1.89421303E-03
   42.3149986      -1.88545720E-03
   42.4300003      -1.87192322E-03
   42.5449982      -1.85382867E-03
   42.6599998      -1.83195830E-03
   42.7750015      -1.80759071E-03
   42.8899994      -1.78237527E-03
   43.0050011      -1.75817194E-03
   43.1199989      -1.73687434E-03
   43.2350006      -1.72023254E-03
   43.3499985      -1.70969719E-03
   43.4650002      -1.70629914E-03
   43.5800018      -1.71057822E-03
   43.6949997      -1.72256550E-03
   43.8100014      -1.74181897E-03
   43.9249992      -1.76750682E-03
   44.0400009      -1.79852336E-03
   44.1549988      -1.83362537E-03
   44.2700005      -1.87156780E-03
   44.3849983      -1.91122433E-03
