  -1.50000000         0.00000000    
  -1.38499999         7.62979568E-10
  -1.26999998         2.82794654E-09
  -1.15499997         6.97420521E-09
  -1.03999996         1.46182355E-08
 -0.925000012         2.82814003E-08
 -0.810000002         5.17898364E-08
 -0.694999993         8.97168135E-08
 -0.579999983         1.45700639E-07
 -0.465000004         2.20007578E-07
 -0.349999994         3.08356249E-07
 -0.234999999         4.06498145E-07
 -0.119999997         5.27514089E-07
  -4.99999989E-03     7.39510085E-07
  0.109999999         1.22823485E-06
  0.224999994         2.38085840E-06
  0.340000004         4.87462830E-06
  0.455000013         9.74155046E-06
  0.569999993         1.83736702E-05
  0.685000002         3.24389075E-05
  0.800000012         5.36968146E-05
  0.915000021         8.37332700E-05
   1.02999997         1.23663573E-04
   1.14499998         1.73872861E-04
   1.25999999         2.33862040E-04
   1.37500000         3.02244036E-04
   1.49000001         3.76895332E-04
   1.60500002         4.55225119E-04
   1.72000003         5.34492487E-04
   1.83500004         6.12094649E-04
   1.95000005         6.85765641E-04
   2.06500006         7.53663247E-04
   2.18000007         8.14361963E-04
   2.29500008         8.66802293E-04
   2.41000009         9.10254836E-04
   2.52500010         9.44337924E-04
   2.64000010         9.69095563E-04
   2.75500011         9.85097955E-04
   2.86999989         9.93504538E-04
   2.98499990         9.96026560E-04
   3.09999990         9.94754140E-04
   3.21499991         9.91860870E-04
   3.32999992         9.89244669E-04
   3.44499993         9.88202402E-04
   3.55999994         9.89232911E-04
   3.67499995         9.92031884E-04
   3.78999996         9.95687442E-04
   3.90499997         9.99024254E-04
   4.01999998         1.00098690E-03
   4.13500023         1.00095349E-03
   4.25000000         9.98885371E-04
   4.36499977         9.95278009E-04
   4.48000002         9.90946777E-04
   4.59499979         9.86733707E-04
   4.71000004         9.83247068E-04
   4.82499981         9.80726792E-04
   4.94000006         9.79077420E-04
   5.05499983         9.78045980E-04
   5.17000008         9.77458549E-04
   5.28499985         9.77412798E-04
   5.40000010         9.78328637E-04
   5.51499987         9.80822486E-04
   5.63000011         9.85433348E-04
   5.74499989         9.92297428E-04
   5.86000013         1.00089528E-03
   5.97499990         1.00998406E-03
   6.09000015         1.01776933E-03
   6.20499992         1.02229090E-03
   6.32000017         1.02192000E-03
   6.43499994         1.01582194E-03
   6.55000019         1.00423710E-03
   6.66499996         9.88493324E-04
   6.78000021         9.70735447E-04
   6.89499998         9.53455456E-04
   7.01000023         9.38962563E-04
   7.12500000         9.28947993E-04
   7.23999977         9.24264081E-04
   7.35500002         9.24955879E-04
   7.46999979         9.30502953E-04
   7.58500004         9.40152328E-04
   7.69999981         9.53206269E-04
   7.81500006         9.69150104E-04
   7.92999983         9.87577718E-04
   8.04500008         1.00795517E-03
   8.15999985         1.02933543E-03
   8.27499962         1.05016271E-03
   8.39000034         1.06828613E-03
   8.50500011         1.08122570E-03
   8.61999989         1.08664762E-03
   8.73499966         1.08292222E-03
   8.85000038         1.06959709E-03
   8.96500015         1.04763254E-03
   9.07999992         1.01931451E-03
   9.19499969         9.87855252E-04
   9.31000042         9.56789998E-04
   9.42500019         9.29335714E-04
   9.53999996         9.07888927E-04
   9.65499973         8.93783348E-04
   9.77000046         8.87345523E-04
   9.88500023         8.88184062E-04
   10.0000000         8.95580684E-04
   10.1149998         9.08826885E-04
   10.2299995         9.27383779E-04
   10.3450003         9.50821326E-04
   10.4600000         9.78580210E-04
   10.5749998         1.00967835E-03
   10.6899996         1.04250421E-03
   10.8050003         1.07481761E-03
   10.9200001         1.10400061E-03
   11.0349998         1.12751336E-03
   11.1499996         1.14342291E-03
   11.2650003         1.15084590E-03
   11.3800001         1.15015206E-03
   11.4949999         1.14285818E-03
   11.6099997         1.13122992E-03
   11.7250004         1.11770618E-03
   11.8400002         1.10431563E-03
   11.9549999         1.09225186E-03
   12.0699997         1.08172407E-03
   12.1850004         1.07210479E-03
   12.3000002         1.06230425E-03
   12.4150000         1.05122954E-03
   12.5299997         1.03817065E-03
   12.6450005         1.02299161E-03
   12.7600002         1.00607937E-03
   12.8750000         9.88096930E-04
   12.9899998         9.69650573E-04
   13.1049995         9.51013877E-04
   13.2200003         9.32023569E-04
   13.3350000         9.12191172E-04
   13.4499998         8.90997529E-04
   13.5649996         8.68256495E-04
   13.6800003         8.44410853E-04
   13.7950001         8.20636575E-04
   13.9099998         7.98697991E-04
   14.0249996         7.80583010E-04
   14.1400003         7.68021215E-04
   14.2550001         7.62036769E-04
   14.3699999         7.62676878E-04
   14.4849997         7.69004109E-04
   14.6000004         7.79353722E-04
   14.7150002         7.91777915E-04
   14.8299999         8.04537442E-04
   14.9449997         8.16493179E-04
   15.0600004         8.27289186E-04
   15.1750002         8.37289263E-04
   15.2900000         8.47311516E-04
   15.4049997         8.58267304E-04
   15.5200005         8.70832126E-04
   15.6350002         8.85255169E-04
   15.7500000         9.01353487E-04
   15.8649998         9.18666832E-04
   15.9799995         9.36690718E-04
   16.0949993         9.55079857E-04
   16.2099991         9.73729475E-04
   16.3250008         9.92695917E-04
   16.4400005         1.01198023E-03
   16.5550003         1.03125896E-03
   16.6700001         1.04966876E-03
   16.7849998         1.06574409E-03
   16.8999996         1.07755268E-03
   17.0149994         1.08301325E-03
   17.1299992         1.08031253E-03
   17.2450008         1.06830988E-03
   17.3600006         1.04681414E-03
   17.4750004         1.01666187E-03
   17.5900002         9.79582430E-04
   17.7049999         9.37900855E-04
   17.8199997         8.94168625E-04
   17.9349995         8.50824930E-04
   18.0499992         8.09965888E-04
   18.1650009         7.73251231E-04
   18.2800007         7.41928874E-04
   18.3950005         7.16917799E-04
   18.5100002         6.98880584E-04
   18.6250000         6.88232423E-04
   18.7399998         6.85073785E-04
   18.8549995         6.89074863E-04
   18.9699993         6.99369702E-04
   19.0849991         7.14525057E-04
   19.2000008         7.32627581E-04
   19.3150005         7.51495128E-04
   19.4300003         7.68974423E-04
   19.5450001         7.83257477E-04
   19.6599998         7.93136831E-04
   19.7749996         7.98142108E-04
   19.8899994         7.98531109E-04
   20.0049992         7.95154250E-04
   20.1200008         7.89240527E-04
   20.2350006         7.82170799E-04
   20.3500004         7.75292865E-04
   20.4650002         7.69806036E-04
   20.5799999         7.66714627E-04
   20.6949997         7.66822370E-04
   20.8099995         7.70731247E-04
   20.9249992         7.78817164E-04
   21.0400009         7.91177328E-04
   21.1550007         8.07567849E-04
   21.2700005         8.27364507E-04
   21.3850002         8.49581673E-04
   21.5000000         8.72965669E-04
   21.6149998         8.96154030E-04
   21.7299995         9.17864149E-04
   21.8449993         9.37063596E-04
   21.9599991         9.53075127E-04
   22.0750008         9.65591171E-04
   22.1900005         9.74603521E-04
   22.3050003         9.80280340E-04
   22.4200001         9.82840429E-04
   22.5349998         9.82468831E-04
   22.6499996         9.79299890E-04
   22.7649994         9.73462476E-04
   22.8799992         9.65155312E-04
   22.9950008         9.54708317E-04
   23.1100006         9.42590937E-04
   23.2250004         9.29353992E-04
   23.3400002         9.15520592E-04
   23.4549999         9.01471241E-04
   23.5699997         8.87373521E-04
   23.6849995         8.73199315E-04
   23.7999992         8.58836574E-04
   23.9150009         8.44267663E-04
   24.0300007         8.29752360E-04
   24.1450005         8.15946085E-04
   24.2600002         8.03896051E-04
   24.3750000         7.94896914E-04
   24.4899998         7.90238031E-04
   24.6049995         7.90908292E-04
   24.7199993         7.97349901E-04
   24.8349991         8.09335266E-04
   24.9500008         8.26003787E-04
   25.0650005         8.46043346E-04
   25.1800003         8.67953175E-04
   25.2950001         8.90300842E-04
   25.4099998         9.11890238E-04
   25.5249996         9.31797898E-04
   25.6399994         9.49285459E-04
   25.7549992         9.63646278E-04
   25.8700008         9.74073308E-04
   25.9850006         9.79628181E-04
   26.1000004         9.79351811E-04
   26.2150002         9.72501526E-04
   26.3299999         9.58840305E-04
   26.4449997         9.38874495E-04
   26.5599995         9.13938798E-04
   26.6749992         8.86068912E-04
   26.7900009         8.57673527E-04
   26.9050007         8.31078738E-04
   27.0200005         8.08072393E-04
   27.1350002         7.89575570E-04
   27.2500000         7.75536173E-04
   27.3649998         7.65069388E-04
   27.4799995         7.56792258E-04
   27.5949993         7.49242317E-04
   27.7099991         7.41246098E-04
   27.8250008         7.32129149E-04
   27.9400005         7.21720746E-04
   28.0550003         7.10181950E-04
   28.1700001         6.97747746E-04
   28.2849998         6.84504630E-04
   28.3999996         6.70306676E-04
   28.5149994         6.54875592E-04
   28.6299992         6.38054800E-04
   28.7450008         6.20122300E-04
   28.8600006         6.02031185E-04
   28.9750004         5.85465285E-04
   29.0900002         5.72651974E-04
   29.2049999         5.65960072E-04
   29.3199997         5.67385519E-04
   29.4349995         5.78075123E-04
   29.5499992         5.98035054E-04
   29.6650009         6.26113091E-04
   29.7800007         6.60265738E-04
   29.8950005         6.98023883E-04
   30.0100002         7.37016322E-04
   30.1250000         7.75391527E-04
   30.2399998         8.12020095E-04
   30.3549995         8.46436073E-04
   30.4699993         8.78567284E-04
   30.5849991         9.08374670E-04
   30.7000008         9.35544202E-04
   30.8150005         9.59354744E-04
   30.9300003         9.78772528E-04
   31.0450001         9.92737012E-04
   31.1599998         1.00052950E-03
   31.2749996         1.00208377E-03
   31.3899994         9.98111442E-04
   31.5049992         9.89982509E-04
   31.6200008         9.79386270E-04
   31.7350006         9.67878907E-04
   31.8500004         9.56468284E-04
   31.9650002         9.45376756E-04
   32.0800018         9.34066426E-04
   32.1949997         9.21524130E-04
   32.3100014         9.06712201E-04
   32.4249992         8.89036804E-04
   32.5400009         8.68676754E-04
   32.6549988         8.46661744E-04
   32.7700005         8.24673276E-04
   32.8849983         8.04632669E-04
   33.0000000         7.88209902E-04
   33.1150017         7.76411965E-04
   33.2299995         7.69377279E-04
   33.3450012         7.66431389E-04
   33.4599991         7.66371028E-04
   33.5750008         7.67867023E-04
   33.6899986         7.69842591E-04
   33.8050003         7.71699706E-04
   33.9199982         7.73325795E-04
   34.0349998         7.74897635E-04
   34.1500015         7.76572677E-04
   34.2649994         7.78200105E-04
   34.3800011         7.79177062E-04
   34.4949989         7.78520596E-04
   34.6100006         7.75145541E-04
   34.7249985         7.68263359E-04
   34.8400002         7.57763337E-04
   34.9550018         7.44439662E-04
   35.0699997         7.29971740E-04
   35.1850014         7.16644863E-04
   35.2999992         7.06882449E-04
   35.4150009         7.02721591E-04
   35.5299988         7.05382903E-04
   35.6450005         7.15051545E-04
   35.7599983         7.30920059E-04
   35.8750000         7.51458865E-04
   35.9900017         7.74813350E-04
   36.1049995         7.99193163E-04
   36.2200012         8.23136710E-04
   36.3349991         8.45586939E-04
   36.4500008         8.65786860E-04
   36.5649986         8.83071509E-04
   36.6800003         8.96664860E-04
   36.7949982         9.05587978E-04
   36.9099998         9.08733346E-04
   37.0250015         9.05098976E-04
   37.1399994         8.94106226E-04
   37.2550011         8.75890255E-04
   37.3699989         8.51453922E-04
   37.4850006         8.22614704E-04
   37.5999985         7.91744096E-04
   37.7150002         7.61362258E-04
   37.8300018         7.33701687E-04
   37.9449997         7.10358727E-04
   38.0600014         6.92125759E-04
   38.1749992         6.79032761E-04
   38.2900009         6.70566165E-04
   38.4049988         6.65974861E-04
   38.5200005         6.64556923E-04
   38.6349983         6.65839470E-04
   38.7500000         6.69604109E-04
   38.8650017         6.75777032E-04
   38.9799995         6.84246188E-04
   39.0950012         6.94693590E-04
   39.2099991         7.06517429E-04
   39.3250008         7.18884636E-04
   39.4399986         7.30895496E-04
   39.5550003         7.41804892E-04
   39.6699982         7.51215848E-04
   39.7849998         7.59171031E-04
   39.9000015         7.66107289E-04
   40.0149994         7.72679690E-04
   40.1300011         7.79514143E-04
   40.2449989         7.86969147E-04
   40.3600006         7.94982770E-04
   40.4749985         8.03054194E-04
   40.5900002         8.10362515E-04
   40.7050018         8.15977110E-04
   40.8199997         8.19092500E-04
   40.9350014         8.19213572E-04
   41.0499992         8.16239684E-04
   41.1650009         8.10436439E-04
   41.2799988         8.02319148E-04
   41.3950005         7.92500563E-04
   41.5099983         7.81560375E-04
   41.6250000         7.69975479E-04
   41.7400017         7.58120092E-04
   41.8549995         7.46316393E-04
   41.9700012         7.34894362E-04
   42.0849991         7.24218728E-04
   42.2000008         7.14661088E-04
   42.3149986         7.06519175E-04
   42.4300003         6.99915166E-04
   42.5449982         6.94717106E-04
   42.6599998         6.90525572E-04
   42.7750015         6.86743646E-04
   42.8899994         6.82721380E-04
   43.0050011         6.77934091E-04
   43.1199989         6.72145397E-04
   43.2350006         6.65502797E-04
   43.3499985         6.58542325E-04
   43.4650002         6.52104500E-04
   43.5800018         6.47193869E-04
   43.6949997         6.44826738E-04
   43.8100014         6.45910739E-04
   43.9249992         6.51176670E-04
   44.0400009         6.61160972E-04
   44.1549988         6.76209922E-04
   44.2700005         6.96471659E-04
   44.3849983         7.21850956E-04
