  -1.50000000         0.00000000    
  -1.38499999        -8.20941370E-10
  -1.26999998        -3.54339869E-09
  -1.15499997        -1.04330296E-08
  -1.03999996        -2.60589719E-08
 -0.925000012        -5.90338516E-08
 -0.810000002        -1.24307178E-07
 -0.694999993        -2.45510876E-07
 -0.579999983        -4.56200837E-07
 -0.465000004        -7.98161125E-07
 -0.349999994        -1.31466538E-06
 -0.234999999        -2.03728246E-06
 -0.119999997        -2.96687404E-06
  -4.99999989E-03    -4.05271703E-06
  0.109999999        -5.17730814E-06
  0.224999994        -6.15682120E-06
  0.340000004        -6.76686250E-06
  0.455000013        -6.79926461E-06
  0.569999993        -6.14871078E-06
  0.685000002        -4.91969467E-06
  0.800000012        -3.53708310E-06
  0.915000021        -2.83944405E-06
   1.02999997        -4.13442240E-06
   1.14499998        -9.19968079E-06
   1.25999999        -2.02204865E-05
   1.37500000        -3.96640098E-05
   1.49000001        -7.00997116E-05
   1.60500002        -1.13983166E-04
   1.72000003        -1.73426495E-04
   1.83500004        -2.49981240E-04
   1.95000005        -3.44459258E-04
   2.06500006        -4.56813024E-04
   2.18000007        -5.86091133E-04
   2.29500008        -7.30474887E-04
   2.41000009        -8.87394475E-04
   2.52500010        -1.05371152E-03
   2.64000010        -1.22594915E-03
   2.75500011        -1.40054408E-03
   2.86999989        -1.57409208E-03
   2.98499990        -1.74356194E-03
   3.09999990        -1.90645293E-03
   3.21499991        -2.06088298E-03
   3.32999992        -2.20559910E-03
   3.44499993        -2.33991374E-03
   3.55999994        -2.46358104E-03
   3.67499995        -2.57663312E-03
   3.78999996        -2.67919991E-03
   3.90499997        -2.77134217E-03
   4.01999998        -2.85292324E-03
   4.13500023        -2.92353658E-03
   4.25000000        -2.98250490E-03
   4.36499977        -3.02895019E-03
   4.48000002        -3.06192809E-03
   4.59499979        -3.08060949E-03
   4.71000004        -3.08448216E-03
   4.82499981        -3.07354773E-03
   4.94000006        -3.04847979E-03
   5.05499983        -3.01072141E-03
   5.17000008        -2.96249846E-03
   5.28499985        -2.90674390E-03
   5.40000010        -2.84693018E-03
   5.51499987        -2.78682588E-03
   5.63000011        -2.73019704E-03
   5.74499989        -2.68048723E-03
   5.86000013        -2.64050881E-03
   5.97499990        -2.61218101E-03
   6.09000015        -2.59634852E-03
   6.20499992        -2.59270077E-03
   6.32000017        -2.59980513E-03
   6.43499994        -2.61525437E-03
   6.55000019        -2.63591553E-03
   6.66499996        -2.65825167E-03
   6.78000021        -2.67868582E-03
   6.89499998        -2.69396580E-03
   7.01000023        -2.70148949E-03
   7.12500000        -2.69955699E-03
   7.23999977        -2.68751732E-03
   7.35500002        -2.66579981E-03
   7.46999979        -2.63582286E-03
   7.58500004        -2.59979418E-03
   7.69999981        -2.56042625E-03
   7.81500006        -2.52060243E-03
   7.92999983        -2.48303148E-03
   8.04500008        -2.44993251E-03
   8.15999985        -2.42278888E-03
   8.27499962        -2.40219873E-03
   8.39000034        -2.38783890E-03
   8.50500011        -2.37854780E-03
   8.61999989        -2.37251539E-03
   8.73499966        -2.36755516E-03
   8.85000038        -2.36142869E-03
   8.96500015        -2.35217623E-03
   9.07999992        -2.33841594E-03
   9.19499969        -2.31957203E-03
   9.31000042        -2.29600118E-03
   9.42500019        -2.26899912E-03
   9.53999996        -2.24068342E-03
   9.65499973        -2.21376470E-03
   9.77000046        -2.19122996E-03
   9.88500023        -2.17597466E-03
   10.0000000        -2.17042724E-03
   10.1149998        -2.17621098E-03
   10.2299995        -2.19388190E-03
   10.3450003        -2.22278154E-03
   10.4600000        -2.26101861E-03
   10.5749998        -2.30558985E-03
   10.6899996        -2.35262839E-03
   10.8050003        -2.39775400E-03
   10.9200001        -2.43649073E-03
   11.0349998        -2.46470585E-03
   11.1499996        -2.47902237E-03
   11.2650003        -2.47716275E-03
   11.3800001        -2.45818286E-03
   11.4949999        -2.42257374E-03
   11.6099997        -2.37221830E-03
   11.7250004        -2.31020804E-03
   11.8400002        -2.24054349E-03
   11.9549999        -2.16774410E-03
   12.0699997        -2.09642109E-03
   12.1850004        -2.03084922E-03
   12.3000002        -1.97459385E-03
   12.4150000        -1.93022308E-03
   12.5299997        -1.89914124E-03
   12.6450005        -1.88155542E-03
   12.7600002        -1.87657285E-03
   12.8750000        -1.88241643E-03
   12.9899998        -1.89672539E-03
   13.1049995        -1.91690458E-03
   13.2200003        -1.94047822E-03
   13.3350000        -1.96540332E-03
   13.4499998        -1.99030782E-03
   13.5649996        -2.01462233E-03
   13.6800003        -2.03859177E-03
   13.7950001        -2.06317008E-03
   13.9099998        -2.08980450E-03
   14.0249996        -2.12014816E-03
   14.1400003        -2.15572678E-03
   14.2550001        -2.19761045E-03
   14.3699999        -2.24612746E-03
   14.4849997        -2.30066245E-03
   14.6000004        -2.35956255E-03
   14.7150002        -2.42017140E-03
   14.8299999        -2.47898884E-03
   14.9449997        -2.53194291E-03
   15.0600004        -2.57474859E-03
   15.1750002        -2.60331249E-03
   15.2900000        -2.61414028E-03
   15.4049997        -2.60470528E-03
   15.5200005        -2.57373322E-03
   15.6350002        -2.52137380E-03
   15.7500000        -2.44923867E-03
   15.8649998        -2.36030295E-03
   15.9799995        -2.25867564E-03
   16.0949993        -2.14926805E-03
   16.2099991        -2.03739223E-03
   16.3250008        -1.92833005E-03
   16.4400005        -1.82692171E-03
   16.5550003        -1.73720974E-03
   16.6700001        -1.66217727E-03
   16.7849998        -1.60360278E-03
   16.8999996        -1.56204065E-03
   17.0149994        -1.53692556E-03
   17.1299992        -1.52678206E-03
   17.2450008        -1.52950955E-03
   17.3600006        -1.54270919E-03
   17.4750004        -1.56400946E-03
   17.5900002        -1.59135414E-03
   17.7049999        -1.62321958E-03
   17.8199997        -1.65873638E-03
   17.9349995        -1.69770687E-03
   18.0499992        -1.74051814E-03
   18.1650009        -1.78796577E-03
   18.2800007        -1.84101402E-03
   18.3950005        -1.90052344E-03
   18.5100002        -1.96698494E-03
   18.6250000        -2.04029260E-03
   18.7399998        -2.11958843E-03
   18.8549995        -2.20319862E-03
   18.9699993        -2.28867424E-03
   19.0849991        -2.37293332E-03
   19.2000008        -2.45249155E-03
   19.3150005        -2.52375519E-03
   19.4300003        -2.58334796E-03
   19.5450001        -2.62843189E-03
   19.6599998        -2.65698880E-03
   19.7749996        -2.66802940E-03
   19.8899994        -2.66170828E-03
   20.0049992        -2.63932953E-03
   20.1200008        -2.60324217E-03
   20.2350006        -2.55663740E-03
   20.3500004        -2.50326935E-03
   20.4650002        -2.44712643E-03
   20.5799999        -2.39208830E-03
   20.6949997        -2.34160456E-03
   20.8099995        -2.29842588E-03
   20.9249992        -2.26441305E-03
   21.0400009        -2.24043871E-03
   21.1550007        -2.22639157E-03
   21.2700005        -2.22127303E-03
   21.3850002        -2.22337432E-03
   21.5000000        -2.23051035E-03
   21.6149998        -2.24028109E-03
   21.7299995        -2.25033052E-03
   21.8449993        -2.25857482E-03
   21.9599991        -2.26337812E-03
   22.0750008        -2.26365519E-03
   22.1900005        -2.25889985E-03
   22.3050003        -2.24913750E-03
   22.4200001        -2.23481678E-03
   22.5349998        -2.21665576E-03
   22.6499996        -2.19546864E-03
   22.7649994        -2.17199628E-03
   22.8799992        -2.14676606E-03
   22.9950008        -2.11999333E-03
   23.1100006        -2.09154678E-03
   23.2250004        -2.06097006E-03
   23.3400002        -2.02756538E-03
   23.4549999        -1.99052179E-03
   23.5699997        -1.94907223E-03
   23.6849995        -1.90265873E-03
   23.7999992        -1.85108476E-03
   23.9150009        -1.79463194E-03
   24.0300007        -1.73412717E-03
   24.1450005        -1.67094951E-03
   24.2600002        -1.60697382E-03
   24.3750000        -1.54445588E-03
   24.4899998        -1.48587092E-03
   24.6049995        -1.43372233E-03
   24.7199993        -1.39034190E-03
   24.8349991        -1.35770231E-03
   24.9500008        -1.33726152E-03
   25.0650005        -1.32985634E-03
   25.1800003        -1.33565324E-03
   25.2950001        -1.35416072E-03
   25.4099998        -1.38429808E-03
   25.5249996        -1.42451224E-03
   25.6399994        -1.47292519E-03
   25.7549992        -1.52749696E-03
   25.8700008        -1.58618321E-03
   25.9850006        -1.64707354E-03
   26.1000004        -1.70849659E-03
   26.2150002        -1.76908378E-03
   26.3299999        -1.82779157E-03
   26.4449997        -1.88388280E-03
   26.5599995        -1.93687854E-03
   26.6749992        -1.98648963E-03
   26.7900009        -2.03254307E-03
   26.9050007        -2.07491545E-03
   27.0200005        -2.11348571E-03
   27.1350002        -2.14811298E-03
   27.2500000        -2.17864662E-03
   27.3649998        -2.20495998E-03
   27.4799995        -2.22700858E-03
   27.5949993        -2.24489742E-03
   27.7099991        -2.25894456E-03
   27.8250008        -2.26973044E-03
   27.9400005        -2.27812026E-03
   28.0550003        -2.28524883E-03
   28.1700001        -2.29246798E-03
   28.2849998        -2.30125571E-03
   28.3999996        -2.31309561E-03
   28.5149994        -2.32933764E-03
   28.6299992        -2.35105678E-03
   28.7450008        -2.37892382E-03
   28.8600006        -2.41310615E-03
   28.9750004        -2.45321007E-03
   29.0900002        -2.49827304E-03
   29.2049999        -2.54680752E-03
   29.3199997        -2.59689824E-03
   29.4349995        -2.64633610E-03
   29.5499992        -2.69278116E-03
   29.6650009        -2.73393653E-03
   29.7800007        -2.76771304E-03
   29.8950005        -2.79237167E-03
   30.0100002        -2.80662393E-03
   30.1250000        -2.80968915E-03
   30.2399998        -2.80129700E-03
   30.3549995        -2.78164283E-03
   30.4699993        -2.75130523E-03
   30.5849991        -2.71113450E-03
   30.7000008        -2.66213482E-03
   30.8150005        -2.60535092E-03
   30.9300003        -2.54178094E-03
   31.0450001        -2.47232290E-03
   31.1599998        -2.39776354E-03
   31.2749996        -2.31881044E-03
   31.3899994        -2.23615929E-03
   31.5049992        -2.15058541E-03
   31.6200008        -2.06304551E-03
   31.7350006        -1.97476731E-03
   31.8500004        -1.88731274E-03
   31.9650002        -1.80259906E-03
   32.0800018        -1.72286527E-03
   32.1949997        -1.65058509E-03
   32.3100014        -1.58832653E-03
   32.4249992        -1.53857097E-03
   32.5400009        -1.50350854E-03
   32.6549988        -1.48483191E-03
   32.7700005        -1.48355181E-03
   32.8849983        -1.49985577E-03
   33.0000000        -1.53302972E-03
   33.1150017        -1.58145558E-03
   33.2299995        -1.64268713E-03
   33.3450012        -1.71360280E-03
   33.4599991        -1.79062015E-03
   33.5750008        -1.86995429E-03
   33.6899986        -1.94789248E-03
   33.8050003        -2.02105986E-03
   33.9199982        -2.08664709E-03
   34.0349998        -2.14257743E-03
   34.1500015        -2.18759873E-03
   34.2649994        -2.22128932E-03
   34.3800011        -2.24398286E-03
   34.4949989        -2.25662137E-03
   34.6100006        -2.26055668E-03
   34.7249985        -2.25732615E-03
   34.8400002        -2.24843156E-03
   34.9550018        -2.23514414E-03
   35.0699997        -2.21836870E-03
   35.1850014        -2.19857413E-03
   35.2999992        -2.17580446E-03
   35.4150009        -2.14976561E-03
   35.5299988        -2.11997540E-03
   35.6450005        -2.08595814E-03
   35.7599983        -2.04745494E-03
   35.8750000        -2.00461969E-03
   35.9900017        -1.95817440E-03
   36.1049995        -1.90949650E-03
   36.2200012        -1.86062313E-03
   36.3349991        -1.81416585E-03
   36.4500008        -1.77313655E-03
   36.5649986        -1.74070499E-03
   36.6800003        -1.71990693E-03
   36.7949982        -1.71333819E-03
   36.9099998        -1.72286551E-03
   37.0250015        -1.74939120E-03
   37.1399994        -1.79269700E-03
   37.2550011        -1.85139128E-03
   37.3699989        -1.92296773E-03
   37.4850006        -2.00397358E-03
   37.5999985        -2.09027459E-03
   37.7150002        -2.17738794E-03
   37.8300018        -2.26085470E-03
   37.9449997        -2.33661034E-03
   38.0600014        -2.40131351E-03
   38.1749992        -2.45260517E-03
   38.2900009        -2.48926412E-03
   38.4049988        -2.51124892E-03
   38.5200005        -2.51961988E-03
   38.6349983        -2.51635537E-03
   38.7500000        -2.50408100E-03
   38.8650017        -2.48574512E-03
   38.9799995        -2.46427837E-03
   39.0950012        -2.44227308E-03
   39.2099991        -2.42172228E-03
   39.3250008        -2.40384229E-03
   39.4399986        -2.38899840E-03
   39.5550003        -2.37674080E-03
   39.6699982        -2.36594141E-03
   39.7849998        -2.35501304E-03
   39.9000015        -2.34218361E-03
   40.0149994        -2.32578837E-03
   40.1300011        -2.30454654E-03
   40.2449989        -2.27778265E-03
   40.3600006        -2.24557077E-03
   40.4749985        -2.20877700E-03
   40.5900002        -2.16899905E-03
   40.7050018        -2.12840550E-03
   40.8199997        -2.08949484E-03
   40.9350014        -2.05480214E-03
   41.0499992        -2.02659075E-03
   41.1650009        -2.00656313E-03
   41.2799988        -1.99562870E-03
   41.3950005        -1.99375744E-03
   41.5099983        -1.99993956E-03
   41.6250000        -2.01225630E-03
   41.7400017        -2.02805712E-03
   41.8549995        -2.04422581E-03
   41.9700012        -2.05750577E-03
   42.0849991        -2.06484809E-03
   42.2000008        -2.06374587E-03
   42.3149986        -2.05251528E-03
   42.4300003        -2.03049602E-03
   42.5449982        -1.99814280E-03
   42.6599998        -1.95700466E-03
   42.7750015        -1.90958846E-03
   42.8899994        -1.85912452E-03
   43.0050011        -1.80925976E-03
   43.1199989        -1.76371133E-03
   43.2350006        -1.72591675E-03
   43.3499985        -1.69872167E-03
   43.4650002        -1.68413483E-03
   43.5800018        -1.68317673E-03
   43.6949997        -1.69583492E-03
   43.8100014        -1.72112905E-03
   43.9249992        -1.75727275E-03
   44.0400009        -1.80191197E-03
   44.1549988        -1.85240875E-03
   44.2700005        -1.90613617E-03
   44.3849983        -1.96074881E-03
