  -1.50000000        -8.83669273E-18
  -1.38125002        -7.83760057E-10
  -1.26250005        -2.87949220E-09
  -1.14374995        -6.71904710E-09
  -1.02499998        -1.21284955E-08
 -0.906250000        -1.66425984E-08
 -0.787500024        -1.10676028E-08
 -0.668749988         3.03274490E-08
 -0.550000012         1.68498246E-07
 -0.431250006         5.30563682E-07
 -0.312500000         1.35402070E-06
 -0.193749994         3.03972070E-06
  -7.50000030E-02     6.20049423E-06
   4.37499993E-02     1.16826604E-05
  0.162499994         2.05308788E-05
  0.281250000         3.38675563E-05
  0.400000006         5.26694967E-05
  0.518750012         7.74466462E-05
  0.637499988         1.07855849E-04
  0.756250024         1.42309495E-04
  0.875000000         1.77656111E-04
  0.993749976         2.09012287E-04
   1.11249995         2.29810306E-04
   1.23125005         2.32096398E-04
   1.35000002         2.07076097E-04
   1.46875000         1.45862490E-04
   1.58749998         4.03470185E-05
   1.70624995        -1.15911731E-04
   1.82500005        -3.26896232E-04
   1.94375002        -5.93543286E-04
   2.06250000        -9.13447584E-04
   2.18125010        -1.28090580E-03
   2.29999995        -1.68730575E-03
   2.41875005        -2.12182128E-03
   2.53749990        -2.57233111E-03
   2.65625000        -3.02644703E-03
   2.77500010        -3.47252609E-03
   2.89374995        -3.90053610E-03
   3.01250005        -4.30267071E-03
   3.13124990        -4.67363745E-03
   3.25000000        -5.01059787E-03
   3.36875010        -5.31277386E-03
   3.48749995        -5.58080152E-03
   3.60625005        -5.81592973E-03
   3.72499990        -6.01920160E-03
   3.84375000        -6.19075028E-03
   3.96250010        -6.32932829E-03
   4.08125019        -6.43215608E-03
   4.19999981        -6.49512978E-03
   4.31874990        -6.51336554E-03
   4.43750000        -6.48202095E-03
   4.55625010        -6.39727199E-03
   4.67500019        -6.25730678E-03
   4.79374981        -6.06317585E-03
   4.91249990        -5.81936445E-03
   5.03125000        -5.53396950E-03
   5.15000010        -5.21842623E-03
   5.26875019        -4.88678180E-03
   5.38749981        -4.55457624E-03
   5.50624990        -4.23745299E-03
   5.62500000        -3.94965149E-03
   5.74375010        -3.70258023E-03
   5.86250019        -3.50363413E-03
   5.98124981        -3.35542741E-03
   6.09999990        -3.25554330E-03
   6.21875000        -3.19685158E-03
   6.33750010        -3.16836569E-03
   6.45625019        -3.15654743E-03
   6.57499981        -3.14690778E-03
   6.69374990        -3.12570622E-03
   6.81250000        -3.08154454E-03
   6.93125010        -3.00665502E-03
   7.05000019        -2.89772521E-03
   7.16874981        -2.75615393E-03
   7.28749990        -2.58771726E-03
   7.40625000        -2.40168371E-03
   7.52500010        -2.20950413E-03
   7.64375019        -2.02324893E-03
   7.76249981        -1.85400015E-03
   7.88124990        -1.71041128E-03
   8.00000000        -1.59762846E-03
   8.11874962        -1.51671411E-03
   8.23750019        -1.46464829E-03
   8.35624981        -1.43490895E-03
   8.47500038        -1.41854666E-03
   8.59375000        -1.40561163E-03
   8.71249962        -1.38672965E-03
   8.83125019        -1.35461311E-03
   8.94999981        -1.30529096E-03
   9.06875038        -1.23887975E-03
   9.18750000        -1.15977984E-03
   9.30624962        -1.07625278E-03
   9.42500019        -9.99423326E-04
   9.54374981        -9.41825740E-04
   9.66250038        -9.15678916E-04
   9.78125000        -9.31114249E-04
   9.89999962        -9.94592323E-04
   10.0187502        -1.10772368E-03
   10.1374998        -1.26665831E-03
   10.2562504        -1.46214268E-03
   10.3750000        -1.68025156E-03
   10.4937496        -1.90372078E-03
   10.6125002        -2.11372902E-03
   10.7312498        -2.29191198E-03
   10.8500004        -2.42236978E-03
   10.9687500        -2.49341875E-03
   11.0874996        -2.49887677E-03
   11.2062502        -2.43872171E-03
   11.3249998        -2.31904746E-03
   11.4437504        -2.15132558E-03
   11.5625000        -1.95106829E-03
   11.6812496        -1.73606304E-03
   11.8000002        -1.52440148E-03
   11.9187498        -1.33254798E-03
   12.0375004        -1.17368426E-03
   12.1562500        -1.05652888E-03
   12.2749996        -9.84764891E-04
   12.3937502        -9.57129640E-04
   12.5124998        -9.68129723E-04
   12.6312504        -1.00926962E-03
   12.7500000        -1.07061153E-03
   12.8687496        -1.14244386E-03
   12.9875002        -1.21682847E-03
   13.1062498        -1.28881412E-03
   13.2250004        -1.35715015E-03
   13.3437500        -1.42440759E-03
   13.4624996        -1.49649347E-03
   13.5812502        -1.58162764E-03
   13.6999998        -1.68892415E-03
   13.8187504        -1.82677654E-03
   13.9375000        -2.00126646E-03
   14.0562496        -2.21482129E-03
   14.1750002        -2.46530888E-03
   14.2937498        -2.74570216E-03
   14.4125004        -3.04437429E-03
   14.5312500        -3.34599800E-03
   14.6499996        -3.63295106E-03
   14.7687502        -3.88705567E-03
   14.8874998        -4.09144396E-03
   15.0062504        -4.23232047E-03
   15.1250000        -4.30041039E-03
   15.2437496        -4.29191580E-03
   15.3625002        -4.20887629E-03
   15.4812498        -4.05889004E-03
   15.6000004        -3.85424751E-03
   15.7187500        -3.61059071E-03
   15.8374996        -3.34527018E-03
   15.9562502        -3.07560549E-03
   16.0750008        -2.81726010E-03
   16.1937504        -2.58292048E-03
   16.3125000        -2.38142419E-03
   16.4312496        -2.21741642E-03
   16.5499992        -2.09154957E-03
   16.6687508        -2.00115959E-03
   16.7875004        -1.94130419E-03
   16.9062500        -1.90599379E-03
   17.0249996        -1.88943709E-03
   17.1437492        -1.88712135E-03
   17.2625008        -1.89658126E-03
   17.3812504        -1.91775756E-03
   17.5000000        -1.95290870E-03
   17.6187496        -2.00610282E-03
   17.7374992        -2.08237511E-03
   17.8562508        -2.18668394E-03
   17.9750004        -2.32282653E-03
   18.0937500        -2.49247253E-03
   18.2124996        -2.69446289E-03
   18.3312492        -2.92448304E-03
   18.4500008        -3.17515642E-03
   18.5687504        -3.43656028E-03
   18.6875000        -3.69709730E-03
   18.8062496        -3.94461025E-03
   18.9249992        -4.16760007E-03
   19.0437508        -4.35638661E-03
   19.1625004        -4.50406875E-03
   19.2812500        -4.60715918E-03
   19.3999996        -4.66582645E-03
   19.5187492        -4.68371669E-03
   19.6375008        -4.66739479E-03
   19.7562504        -4.62548062E-03
   19.8750000        -4.56760358E-03
   19.9937496        -4.50331671E-03
   20.1124992        -4.44110017E-03
   20.2312508        -4.38758312E-03
   20.3500004        -4.34706127E-03
   20.4687500        -4.32135584E-03
   20.5874996        -4.30999929E-03
   20.7062492        -4.31070384E-03
   20.8250008        -4.32000961E-03
   20.9437504        -4.33401344E-03
   21.0625000        -4.34905477E-03
   21.1812496        -4.36225487E-03
   21.2999992        -4.37183585E-03
   21.4187508        -4.37717931E-03
   21.5375004        -4.37862985E-03
   21.6562500        -4.37708898E-03
   21.7749996        -4.37347637E-03
   21.8937492        -4.36816504E-03
   22.0125008        -4.36048908E-03
   22.1312504        -4.34841868E-03
   22.2500000        -4.32847207E-03
   22.3687496        -4.29589394E-03
   22.4874992        -4.24508657E-03
   22.6062508        -4.17024270E-03
   22.7250004        -4.06609615E-03
   22.8437500        -3.92868370E-03
   22.9624996        -3.75600276E-03
   23.0812492        -3.54847312E-03
   23.2000008        -3.30912159E-03
   23.3187504        -3.04345787E-03
   23.4375000        -2.75904802E-03
   23.5562496        -2.46483483E-03
   23.6749992        -2.17029243E-03
   23.7937508        -1.88452424E-03
   23.9125004        -1.61542546E-03
   24.0312500        -1.36901985E-03
   24.1499996        -1.14905764E-03
   24.2687492        -9.56924865E-04
   24.3875008        -7.91868020E-04
   24.5062504        -6.51495473E-04
   24.6250000        -5.32473146E-04
   24.7437496        -4.31306660E-04
   24.8624992        -3.45086271E-04
   24.9812508        -2.72078847E-04
   25.1000004        -2.12071987E-04
   25.2187500        -1.66412501E-04
   25.3374996        -1.37729759E-04
   25.4562492        -1.29380016E-04
   25.5750008        -1.44696009E-04
   25.6937504        -1.86155361E-04
   25.8125000        -2.54600949E-04
   25.9312496        -3.48643283E-04
   26.0499992        -4.64352372E-04
   26.1687508        -5.95310354E-04
   26.2875004        -7.33044755E-04
   26.4062500        -8.67808936E-04
   26.5249996        -9.89624183E-04
   26.6437492        -1.08945603E-03
   26.7625008        -1.16037263E-03
   26.8812504        -1.19852659E-03
   27.0000000        -1.20382058E-03
   27.1187496        -1.18014927E-03
   27.2374992        -1.13516883E-03
   27.3562508        -1.07959891E-03
   27.4750004        -1.02612877E-03
   27.5937500        -9.88051645E-04
   27.7124996        -9.77791380E-04
   27.8312492        -1.00549962E-03
   27.9500008        -1.07790215E-03
   28.0687504        -1.19753904E-03
   28.1875000        -1.36249501E-03
   28.3062496        -1.56665745E-03
   28.4249992        -1.80046423E-03
   28.5437508        -2.05204799E-03
   28.6625004        -2.30862619E-03
   28.7812500        -2.55795219E-03
   28.8999996        -2.78964266E-03
   29.0187492        -2.99620442E-03
   29.1375008        -3.17363022E-03
   29.2562504        -3.32148792E-03
   29.3750000        -3.44250118E-03
   29.4937496        -3.54168192E-03
   29.6124992        -3.62514728E-03
   29.7312508        -3.69878788E-03
   29.8500004        -3.76698561E-03
   29.9687500        -3.83156980E-03
   30.0874996        -3.89116863E-03
   30.2062492        -3.94106749E-03
   30.3250008        -3.97360837E-03
   30.4437504        -3.97909665E-03
   30.5625000        -3.94710479E-03
   30.6812496        -3.86800850E-03
   30.7999992        -3.73455510E-03
   30.9187508        -3.54324700E-03
   31.0375004        -3.29534919E-03
   31.1562500        -2.99736648E-03
   31.2749996        -2.66091060E-03
   31.3937492        -2.30194395E-03
   31.5125008        -1.93947670E-03
   31.6312504        -1.59385533E-03
   31.7500000        -1.28484727E-03
   31.8687496        -1.02974079E-03
   31.9874992        -8.41694127E-04
   32.1062508        -7.28526560E-04
   32.2249985        -6.92099391E-04
   32.3437500        -7.28355430E-04
   32.4625015        -8.28005665E-04
   32.5812492        -9.77772404E-04
   32.7000008        -1.16202701E-03
   32.8187485        -1.36461284E-03
   32.9375000        -1.57062535E-03
   33.0562515        -1.76792941E-03
   33.1749992        -1.94822880E-03
   33.2937508        -2.10756925E-03
   33.4124985        -2.24622712E-03
   33.5312500        -2.36802245E-03
   33.6500015        -2.47916626E-03
   33.7687492        -2.58681690E-03
   33.8875008        -2.69755302E-03
   34.0062485        -2.81598442E-03
   34.1250000        -2.94369436E-03
   34.2437515        -3.07867001E-03
   34.3624992        -3.21529852E-03
   34.4812508        -3.34493909E-03
   34.5999985        -3.45699512E-03
   34.7187500        -3.54034244E-03
   34.8375015        -3.58492555E-03
   34.9562492        -3.58329737E-03
   35.0750008        -3.53189930E-03
   35.1937485        -3.43189249E-03
   35.3125000        -3.28942458E-03
   35.4312515        -3.11528170E-03
   35.5499992        -2.92395405E-03
   35.6687508        -2.73222220E-03
   35.7874985        -2.55743763E-03
   35.9062500        -2.41570035E-03
   36.0250015        -2.32016039E-03
   36.1437492        -2.27964763E-03
   36.2625008        -2.29779631E-03
   36.3812485        -2.37276335E-03
   36.5000000        -2.49757338E-03
   36.6187515        -2.66102934E-03
   36.7374992        -2.84907804E-03
   36.8562508        -3.04644532E-03
   36.9749985        -3.23834177E-03
   37.0937500        -3.41202365E-03
   37.2125015        -3.55802663E-03
   37.3312492        -3.67092970E-03
   37.4500008        -3.74957523E-03
   37.5687485        -3.79674346E-03
   37.6875000        -3.81834828E-03
   37.8062515        -3.82228172E-03
   37.9249992        -3.81708145E-03
   38.0437508        -3.81060760E-03
   38.1624985        -3.80890677E-03
   38.2812500        -3.81541811E-03
   38.4000015        -3.83061124E-03
   38.5187492        -3.85209988E-03
   38.6375008        -3.87519156E-03
   38.7562485        -3.89378564E-03
   38.8750000        -3.90148209E-03
   38.9937515        -3.89273092E-03
   39.1124992        -3.86386039E-03
   39.2312508        -3.81382881E-03
   39.3499985        -3.74459312E-03
   39.4687500        -3.66104068E-03
   39.5875015        -3.57048749E-03
   39.7062492        -3.48181278E-03
   39.8250008        -3.40434024E-03
   39.9437485        -3.34662362E-03
   40.0625000        -3.31529439E-03
   40.1812515        -3.31412931E-03
   40.2999992        -3.34345899E-03
   40.4187508        -3.39999725E-03
   40.5374985        -3.47711216E-03
   40.6562500        -3.56550375E-03
   40.7750015        -3.65419523E-03
   40.8937492        -3.73171433E-03
   41.0125008        -3.78731173E-03
   41.1312485        -3.81206558E-03
   41.2500000        -3.79974092E-03
   41.3687515        -3.74730979E-03
   41.4874992        -3.65507975E-03
   41.6062508        -3.52644105E-03
   41.7249985        -3.36728292E-03
   41.8437500        -3.18517513E-03
   41.9625015        -2.98843952E-03
   42.0812492        -2.78524030E-03
   42.2000008        -2.58281338E-03
   42.3187485        -2.38693110E-03
   42.4375000        -2.20165518E-03
   42.5562515        -2.02939217E-03
   42.6749992        -1.87121052E-03
   42.7937508        -1.72734912E-03
   42.9124985        -1.59781682E-03
   43.0312500        -1.48296729E-03
   43.1500015        -1.38395012E-03
   43.2687492        -1.30295090E-03
   43.3875008        -1.24317547E-03
   43.5062485        -1.20857125E-03
   43.6250000        -1.20332360E-03
   43.7437515        -1.23120029E-03
   43.8624992        -1.29484443E-03
   43.9812508        -1.39512646E-03
   44.0999985        -1.53066008E-03
   44.2187500        -1.69756473E-03
   44.3375015        -1.88952708E-03
   44.4562492        -2.09816615E-03
   44.5750008        -2.31366721E-03
   44.6937485        -2.52561388E-03
   44.8125000        -2.72390922E-03
   44.9312515        -2.89967516E-03
   45.0499992        -3.04601085E-03
   45.1687508        -3.15851672E-03
   45.2874985        -3.23551940E-03
   45.4062500        -3.27797420E-03
   45.5250015        -3.28907021E-03
   45.6437492        -3.27359443E-03
   45.7625008        -3.23716365E-03
   45.8812485        -3.18542309E-03
