  -1.50000000        -3.82812281E-18
  -1.38125002         8.82548923E-10
  -1.26250005         1.77843762E-09
  -1.14374995        -7.83248244E-10
  -1.02499998        -1.48568713E-08
 -0.906250000        -5.72976226E-08
 -0.787500024        -1.62158386E-07
 -0.668749988        -3.94729625E-07
 -0.550000012        -8.70045028E-07
 -0.431250006        -1.76879314E-06
 -0.312500000        -3.33448247E-06
 -0.193749994        -5.82599705E-06
  -7.50000030E-02    -9.39530037E-06
   4.37499993E-02    -1.38692330E-05
  0.162499994        -1.84431701E-05
  0.281250000        -2.13412313E-05
  0.400000006        -1.95484809E-05
  0.518750012        -8.75108890E-06
  0.637499988         1.63955501E-05
  0.756250024         6.16239049E-05
  0.875000000         1.32107831E-04
  0.993749976         2.31406171E-04
   1.11249995         3.60565900E-04
   1.23125005         5.17642184E-04
   1.35000002         6.97784883E-04
   1.46875000         8.93870951E-04
   1.58749998         1.09749171E-03
   1.70624995         1.30000478E-03
   1.82500005         1.49337016E-03
   1.94375002         1.67061109E-03
   2.06250000         1.82591320E-03
   2.18125010         1.95453456E-03
   2.29999995         2.05276278E-03
   2.41875005         2.11809995E-03
   2.53749990         2.14969902E-03
   2.65625000         2.14889343E-03
   2.77500010         2.11952790E-03
   2.89374995         2.06781225E-03
   3.01250005         2.00154376E-03
   3.13124990         1.92879362E-03
   3.25000000         1.85638212E-03
   3.36875010         1.78859953E-03
   3.48749995         1.72660162E-03
   3.60625005         1.66869699E-03
   3.72499990         1.61144568E-03
   3.84375000         1.55120005E-03
   3.96250010         1.48555229E-03
   4.08125019         1.41419622E-03
   4.19999981         1.33894500E-03
   4.31874990         1.26295933E-03
   4.43750000         1.18954992E-03
   4.55625010         1.12107187E-03
   4.67500019         1.05836696E-03
   4.79374981         1.00095687E-03
   4.91249990         9.47866647E-04
   5.03125000         8.98660044E-04
   5.15000010         8.54173501E-04
   5.26875019         8.16532935E-04
   5.38749981         7.88352336E-04
   5.50624990         7.71360414E-04
   5.62500000         7.64997094E-04
   5.74375010         7.65585399E-04
   5.86250019         7.66507874E-04
   5.98124981         7.59469811E-04
   6.09999990         7.36505201E-04
   6.21875000         6.92087167E-04
   6.33750010         6.24640437E-04
   6.45625019         5.36942040E-04
   6.57499981         4.35293710E-04
   6.69374990         3.27783695E-04
   6.81250000         2.22262941E-04
   6.93125010         1.24736398E-04
   7.05000019         3.86571010E-05
   7.16874981        -3.47547757E-05
   7.28749990        -9.54709540E-05
   7.40625000        -1.43474186E-04
   7.52500010        -1.78036164E-04
   7.64375019        -1.97837900E-04
   7.76249981        -2.01922478E-04
   7.88124990        -1.91073123E-04
   8.00000000        -1.68991013E-04
   8.11874962        -1.42660501E-04
   8.23750019        -1.21587706E-04
   8.35624981        -1.16015784E-04
   8.47500038        -1.34627524E-04
   8.59375000        -1.82466698E-04
   8.71249962        -2.59757187E-04
   8.83125019        -3.61994433E-04
   8.94999981        -4.81237483E-04
   9.06875038        -6.08121918E-04
   9.18750000        -7.33895402E-04
   9.30624962        -8.51820223E-04
   9.42500019        -9.57583135E-04
   9.54374981        -1.04875711E-03
   9.66250038        -1.12373009E-03
   9.78125000        -1.18068920E-03
   9.89999962        -1.21718552E-03
   10.0187502        -1.23050320E-03
   10.1374998        -1.21869356E-03
   10.2562504        -1.18181319E-03
   10.3750000        -1.12279109E-03
   10.4937496        -1.04747643E-03
   10.6125002        -9.63729050E-04
   10.7312498        -8.79788480E-04
   10.8500004        -8.02452269E-04
   10.9687500        -7.35670968E-04
   11.0874996        -6.80027588E-04
   11.2062502        -6.33242598E-04
   11.3249998        -5.91481687E-04
   11.4437504        -5.50975150E-04
   11.5625000        -5.09378326E-04
   11.6812496        -4.66444879E-04
   11.8000002        -4.23875870E-04
   11.9187498        -3.84522107E-04
   12.0375004        -3.51345196E-04
   12.1562500        -3.26584384E-04
   12.2749996        -3.11436859E-04
   12.3937502        -3.06307804E-04
   12.5124998        -3.11429409E-04
   12.6312504        -3.27493326E-04
   12.7500000        -3.55949131E-04
   12.8687496        -3.98781936E-04
   12.9875002        -4.57819464E-04
   13.1062498        -5.33830025E-04
   13.2250004        -6.25776069E-04
   13.3437500        -7.30534666E-04
   13.4624996        -8.43221787E-04
   13.5812502        -9.58029763E-04
   13.6999998        -1.06930325E-03
   13.8187504        -1.17250881E-03
   13.9375000        -1.26481766E-03
   14.0562496        -1.34517974E-03
   14.1750002        -1.41396082E-03
   14.2937498        -1.47234777E-03
   14.4125004        -1.52176712E-03
   14.5312500        -1.56349200E-03
   14.6499996        -1.59848342E-03
   14.7687502        -1.62738969E-03
   14.8874998        -1.65056461E-03
   15.0062504        -1.66798022E-03
   15.1250000        -1.67901919E-03
   15.2437496        -1.68222561E-03
   15.3625002        -1.67517562E-03
   15.4812498        -1.65461143E-03
   15.6000004        -1.61689904E-03
   15.7187500        -1.55873771E-03
   15.8374996        -1.47793430E-03
   15.9562502        -1.37401838E-03
   16.0750008        -1.24851998E-03
   16.1937504        -1.10485754E-03
   16.3125000        -9.47919849E-04
   16.4312496        -7.83526979E-04
   16.5499992        -6.17958140E-04
   16.6687508        -4.57660324E-04
   16.7875004        -3.09115247E-04
   16.9062500        -1.78731047E-04
   17.0249996        -7.25808422E-05
   17.1437492         4.12606460E-06
   17.2625008         4.78105831E-05
   17.3812504         5.73426405E-05
   17.5000000         3.46164052E-05
   17.6187496        -1.53983128E-05
   17.7374992        -8.52678058E-05
   17.8562508        -1.66295111E-04
   17.9750004        -2.50009936E-04
   18.0937500        -3.29533475E-04
   18.2124996        -4.00426623E-04
   18.3312492        -4.60811658E-04
   18.4500008        -5.10811515E-04
   18.5687504        -5.51602279E-04
   18.6875000        -5.84489782E-04
   18.8062496        -6.10385090E-04
   18.9249992        -6.29847287E-04
   19.0437508        -6.43599371E-04
   19.1625004        -6.53184252E-04
   19.2812500        -6.61351369E-04
   19.3999996        -6.71855698E-04
   19.5187492        -6.88611763E-04
   19.6375008        -7.14430411E-04
   19.7562504        -7.49804836E-04
   19.8750000        -7.92247592E-04
   19.9937496        -8.36517080E-04
   20.1124992        -8.75762489E-04
   20.2312508        -9.03252687E-04
   20.3500004        -9.14128555E-04
   20.4687500        -9.06566856E-04
   20.5874996        -8.81960324E-04
   20.7062492        -8.44062655E-04
   20.8250008        -7.97438435E-04
   20.9437504        -7.45808764E-04
   21.0625000        -6.90909394E-04
   21.1812496        -6.32266398E-04
   21.2999992        -5.67920506E-04
   21.4187508        -4.95755579E-04
   21.5375004        -4.14847978E-04
   21.6562500        -3.26257577E-04
   21.7749996        -2.32925653E-04
   21.8937492        -1.38715885E-04
   22.0125008        -4.70159684E-05
   22.1312504         4.04949642E-05
   22.2500000         1.24355691E-04
   22.3687496         2.06835219E-04
   22.4874992         2.90592230E-04
   22.6062508         3.76982382E-04
   22.7250004         4.64693847E-04
   22.8437500         5.49296848E-04
   22.9624996         6.23961387E-04
   23.0812492         6.81161822E-04
   23.2000008         7.14801718E-04
   23.3187504         7.22026860E-04
   23.4375000         7.04108737E-04
   23.5562496         6.66110078E-04
   23.6749992         6.15502591E-04
   23.7937508         5.60264976E-04
   23.9125004         5.07157238E-04
   24.0312500         4.60744515E-04
   24.1499996         4.23417718E-04
   24.2687492         3.96242802E-04
   24.3875008         3.80139652E-04
   24.5062504         3.76786629E-04
   24.6250000         3.88784596E-04
   24.7437496         4.18959535E-04
   24.8624992         4.69067862E-04
   24.9812508         5.38455788E-04
   25.1000004         6.23277971E-04
   25.2187500         7.16689043E-04
   25.3374996         8.10057914E-04
   25.4562492         8.94859259E-04
   25.5750008         9.64633189E-04
   25.6937504         1.01636560E-03
   25.8125000         1.05085352E-03
   25.9312496         1.07198348E-03
   26.0499992         1.08523492E-03
   26.1687508         1.09597028E-03
   26.2875004         1.10810238E-03
   26.4062500         1.12353649E-03
   26.5249996         1.14245026E-03
   26.6437492         1.16414786E-03
   26.7625008         1.18801941E-03
   26.8812504         1.21414114E-03
   27.0000000         1.24324940E-03
   27.1187496         1.27611554E-03
   27.2374992         1.31262292E-03
   27.3562508         1.35098759E-03
   27.4750004         1.38751068E-03
   27.5937500         1.41703675E-03
   27.7124996         1.43400556E-03
   27.8312492         1.43374933E-03
   27.9500008         1.41358736E-03
   28.0687504         1.37334841E-03
   28.1875000         1.31517660E-03
   28.3062496         1.24273228E-03
   28.4249992         1.16011780E-03
   28.5437508         1.07091712E-03
   28.6625004         9.77664837E-04
   28.7812500         8.81852058E-04
   28.8999996         7.84369884E-04
   29.0187492         6.86122919E-04
   29.1375008         5.88523981E-04
   29.2562504         4.93665983E-04
   29.3750000         4.04139573E-04
   29.4937496         3.22620908E-04
   29.6124992         2.51453690E-04
   29.7312508         1.92417385E-04
   29.8500004         1.46779406E-04
   29.9687500         1.15567091E-04
   30.0874996         9.98949690E-05
   30.2062492         1.01148806E-04
   30.3250008         1.20894088E-04
   30.4437504         1.60507625E-04
   30.5625000         2.20659305E-04
   30.6812496         3.00843065E-04
   30.7999992         3.99137469E-04
   30.9187508         5.12283994E-04
   31.0375004         6.36039244E-04
   31.1562500         7.65649835E-04
   31.2749996         8.96280049E-04
   31.3937492         1.02326891E-03
   31.5125008         1.14221079E-03
   31.6312504         1.24895782E-03
   31.7500000         1.33969996E-03
   31.8687496         1.41123647E-03
   31.9874992         1.46144710E-03
   32.1062508         1.48983079E-03
   32.2249985         1.49788952E-03
   32.3437500         1.48913800E-03
   32.4625015         1.46861922E-03
   32.5812492         1.44198909E-03
   32.7000008         1.41440611E-03
   32.8187485         1.38955517E-03
   32.9375000         1.36910670E-03
   33.0562515         1.35276315E-03
   33.1749992         1.33882323E-03
   33.2937508         1.32500764E-03
   33.4124985         1.30919716E-03
   33.5312500         1.28979573E-03
   33.6500015         1.26561522E-03
   33.7687492         1.23540370E-03
   33.8875008         1.19732867E-03
   34.0062485         1.14876672E-03
   34.1250000         1.08663749E-03
   34.2437515         1.00828125E-03
   34.3624992         9.12623014E-04
   34.4812508         8.01181595E-04
   34.5999985         6.78487355E-04
   34.7187500         5.51644014E-04
   34.8375015         4.29078937E-04
   34.9562492         3.18829290E-04
   35.0750008         2.26908582E-04
   35.1937485         1.56283408E-04
   35.3125000         1.06779684E-04
   35.4312515         7.58949172E-05
   35.5499992         6.01632528E-05
   35.6687508         5.65213159E-05
   35.7874985         6.31470830E-05
   35.9062500         7.94795415E-05
   36.0250015         1.05475359E-04
   36.1437492         1.40488046E-04
   36.2625008         1.82317395E-04
   36.3812485         2.26916818E-04
   36.5000000         2.68971169E-04
   36.6187515         3.03184817E-04
   36.7374992         3.25802452E-04
   36.8562508         3.35750985E-04
   36.9749985         3.34906334E-04
   37.0937500         3.27313755E-04
   37.2125015         3.17596568E-04
   37.3312492         3.09121213E-04
   37.4500008         3.02596280E-04
   37.5687485         2.95645266E-04
   37.6875000         2.83527537E-04
   37.8062515         2.60755420E-04
   37.9249992         2.23012103E-04
   38.0437508         1.68675542E-04
   38.1624985         9.94016518E-05
   38.2812500         1.95937682E-05
   38.4000015        -6.49938156E-05
   38.5187492        -1.48948340E-04
   38.6375008        -2.28528428E-04
   38.7562485        -3.02149856E-04
   38.8750000        -3.69911635E-04
   38.9937515        -4.32443456E-04
   39.1124992        -4.89637430E-04
   39.2312508        -5.39871457E-04
   39.3499985        -5.80110529E-04
   39.4687500        -6.06906891E-04
   39.5875015        -6.17917860E-04
   39.7062492        -6.13326614E-04
   39.8250008        -5.96547558E-04
   39.9437485        -5.73856174E-04
   40.0625000        -5.52982325E-04
   40.1812515        -5.41096204E-04
   40.2999992        -5.42864203E-04
   40.4187508        -5.59212582E-04
   40.5374985        -5.87194518E-04
   40.6562500        -6.20951934E-04
   40.7750015        -6.53381343E-04
   40.8937492        -6.77899749E-04
   41.0125008        -6.89724402E-04
   41.1312485        -6.86322455E-04
   41.2500000        -6.67037442E-04
   41.3687515        -6.32231997E-04
   41.4874992        -5.82443376E-04
   41.6062508        -5.17993816E-04
   41.7249985        -4.39260126E-04
   41.8437500        -3.47477704E-04
   41.9625015        -2.45692965E-04
   42.0812492        -1.39378128E-04
   42.2000008        -3.63265499E-05
   42.3187485         5.42818343E-05
   42.4375000         1.23429621E-04
   42.5562515         1.63974284E-04
   42.6749992         1.71992986E-04
   42.7937508         1.47358238E-04
   42.9124985         9.34122436E-05
   43.0312500         1.59095180E-05
   43.1500015        -7.83759606E-05
   43.2687492        -1.82921329E-04
   43.3875008        -2.92257668E-04
   43.5062485        -4.02181264E-04
   43.6250000        -5.09497884E-04
   43.7437515        -6.11581199E-04
   43.8624992        -7.06052990E-04
   43.9812508        -7.90772669E-04
   44.0999985        -8.64138827E-04
   44.2187500        -9.25528817E-04
   44.3375015        -9.75614006E-04
   44.4562492        -1.01633382E-03
   44.5750008        -1.05045235E-03
   44.6937485        -1.08080532E-03
   44.8125000        -1.10948063E-03
   44.9312515        -1.13721658E-03
   45.0499992        -1.16321945E-03
   45.1687508        -1.18544686E-03
   45.2874985        -1.20123231E-03
   45.4062500        -1.20801874E-03
   45.5250015        -1.20395760E-03
   45.6437492        -1.18821801E-03
   45.7625008        -1.16098870E-03
   45.8812485        -1.12327328E-03
