  -1.50000000        -3.82812281E-18
  -1.38125002         8.82548923E-10
  -1.26250005         1.77843806E-09
  -1.14374995        -7.83247855E-10
  -1.02499998        -1.48568775E-08
 -0.906250000        -5.72976404E-08
 -0.787500024        -1.62158443E-07
 -0.668749988        -3.94729653E-07
 -0.550000012        -8.70044914E-07
 -0.431250006        -1.76879303E-06
 -0.312500000        -3.33448270E-06
 -0.193749994        -5.82599796E-06
  -7.50000030E-02    -9.39529946E-06
   4.37499993E-02    -1.38692303E-05
  0.162499994        -1.84431719E-05
  0.281250000        -2.13412350E-05
  0.400000006        -1.95484881E-05
  0.518750012        -8.75107253E-06
  0.637499988         1.63956047E-05
  0.756250024         6.16239849E-05
  0.875000000         1.32107947E-04
  0.993749976         2.31406288E-04
   1.11249995         3.60565988E-04
   1.23125005         5.17642242E-04
   1.35000002         6.97784941E-04
   1.46875000         8.93871067E-04
   1.58749998         1.09749194E-03
   1.70624995         1.30000513E-03
   1.82500005         1.49337063E-03
   1.94375002         1.67061191E-03
   2.06250000         1.82591437E-03
   2.18125010         1.95453619E-03
   2.29999995         2.05276487E-03
   2.41875005         2.11810227E-03
   2.53749990         2.14970158E-03
   2.65625000         2.14889599E-03
   2.77500010         2.11953046E-03
   2.89374995         2.06781481E-03
   3.01250005         2.00154609E-03
   3.13124990         1.92879618E-03
   3.25000000         1.85638503E-03
   3.36875010         1.78860314E-03
   3.48749995         1.72660558E-03
   3.60625005         1.66870176E-03
   3.72499990         1.61145104E-03
   3.84375000         1.55120599E-03
   3.96250010         1.48555799E-03
   4.08125019         1.41420180E-03
   4.19999981         1.33895047E-03
   4.31874990         1.26296422E-03
   4.43750000         1.18955446E-03
   4.55625010         1.12107629E-03
   4.67500019         1.05837162E-03
   4.79374981         1.00096164E-03
   4.91249990         9.47870838E-04
   5.03125000         8.98663769E-04
   5.15000010         8.54176818E-04
   5.26875019         8.16536485E-04
   5.38749981         7.88356119E-04
   5.50624990         7.71364314E-04
   5.62500000         7.65001751E-04
   5.74375010         7.65590346E-04
   5.86250019         7.66513811E-04
   5.98124981         7.59477087E-04
   6.09999990         7.36513874E-04
   6.21875000         6.92097179E-04
   6.33750010         6.24652195E-04
   6.45625019         5.36954845E-04
   6.57499981         4.35307156E-04
   6.69374990         3.27796937E-04
   6.81250000         2.22276271E-04
   6.93125010         1.24749015E-04
   7.05000019         3.86690517E-05
   7.16874981        -3.47434834E-05
   7.28749990        -9.54605566E-05
   7.40625000        -1.43465237E-04
   7.52500010        -1.78028931E-04
   7.64375019        -1.97833870E-04
   7.76249981        -2.01922565E-04
   7.88124990        -1.91079016E-04
   8.00000000        -1.69002815E-04
   8.11874962        -1.42678036E-04
   8.23750019        -1.21610807E-04
   8.35624981        -1.16044481E-04
   8.47500038        -1.34661997E-04
   8.59375000        -1.82507851E-04
   8.71249962        -2.59806286E-04
   8.83125019        -3.62053281E-04
   8.94999981        -4.81307390E-04
   9.06875038        -6.08203583E-04
   9.18750000        -7.33988883E-04
   9.30624962        -8.51925288E-04
   9.42500019        -9.57699085E-04
   9.54374981        -1.04888342E-03
   9.66250038        -1.12386595E-03
   9.78125000        -1.18083472E-03
   9.89999962        -1.21733989E-03
   10.0187502        -1.23066595E-03
   10.1374998        -1.21886376E-03
   10.2562504        -1.18198839E-03
   10.3750000        -1.12296804E-03
   10.4937496        -1.04765082E-03
   10.6125002        -9.63896338E-04
   10.7312498        -8.79944419E-04
   10.8500004        -8.02592898E-04
   10.9687500        -7.35793379E-04
   11.0874996        -6.80129218E-04
   11.2062502        -6.33320422E-04
   11.3249998        -5.91532968E-04
   11.4437504        -5.50996570E-04
   11.5625000        -5.09366102E-04
   11.6812496        -4.66395664E-04
   11.8000002        -4.23786492E-04
   11.9187498        -3.84390180E-04
   12.0375004        -3.51169991E-04
   12.1562500        -3.26365989E-04
   12.2749996        -3.11176118E-04
   12.3937502        -3.06005968E-04
   12.5124998        -3.11087875E-04
   12.6312504        -3.27113143E-04
   12.7500000        -3.55531462E-04
   12.8687496        -3.98328440E-04
   12.9875002        -4.57332091E-04
   13.1062498        -5.33311570E-04
   13.2250004        -6.25230721E-04
   13.3437500        -7.29967083E-04
   13.4624996        -8.42637557E-04
   13.5812502        -9.57434066E-04
   13.6999998        -1.06870034E-03
   13.8187504        -1.17190264E-03
   13.9375000        -1.26421114E-03
   14.0562496        -1.34457578E-03
   14.1750002        -1.41336233E-03
   14.2937498        -1.47175882E-03
   14.4125004        -1.52119237E-03
   14.5312500        -1.56293577E-03
   14.6499996        -1.59795035E-03
   14.7687502        -1.62688433E-03
   14.8874998        -1.65008986E-03
   15.0062504        -1.66753866E-03
   15.1250000        -1.67861267E-03
   15.2437496        -1.68185600E-03
   15.3625002        -1.67484675E-03
   15.4812498        -1.65432680E-03
   15.6000004        -1.61666388E-03
   15.7187500        -1.55855727E-03
   15.8374996        -1.47781358E-03
   15.9562502        -1.37396168E-03
   16.0750008        -1.24853058E-03
   16.1937504        -1.10493740E-03
   16.3125000        -9.48070548E-04
   16.4312496        -7.83749681E-04
   16.5499992        -6.18254067E-04
   16.6687508        -4.58031514E-04
   16.7875004        -3.09563620E-04
   16.9062500        -1.79257157E-04
   17.0249996        -7.31840919E-05
   17.1437492         3.44727846E-06
   17.2625008         4.70598497E-05
   17.3812504         5.65243972E-05
   17.5000000         3.37355559E-05
   17.6187496        -1.63363875E-05
   17.7374992        -8.62583911E-05
   17.8562508        -1.67333419E-04
   17.9750004        -2.51089950E-04
   18.0937500        -3.30648472E-04
   18.2124996        -4.01568628E-04
   18.3312492        -4.61970951E-04
   18.4500008        -5.11978054E-04
   18.5687504        -5.52765618E-04
   18.6875000        -5.85640140E-04
   18.8062496        -6.11513271E-04
   18.9249992        -6.30945782E-04
   19.0437508        -6.44661253E-04
   19.1625004        -6.54202886E-04
   19.2812500        -6.62319711E-04
   19.3999996        -6.72767346E-04
   19.5187492        -6.89460256E-04
   19.6375008        -7.15210452E-04
   19.7562504        -7.50513049E-04
   19.8750000        -7.92882172E-04
   19.9937496        -8.37078143E-04
   20.1124992        -8.76251259E-04
   20.2312508        -9.03672131E-04
   20.3500004        -9.14481352E-04
   20.4687500        -9.06856149E-04
   20.5874996        -8.82188091E-04
   20.7062492        -8.44230526E-04
   20.8250008        -7.97547866E-04
   20.9437504        -7.45862548E-04
   21.0625000        -6.90912013E-04
   21.1812496        -6.32222742E-04
   21.2999992        -5.67835930E-04
   21.4187508        -4.95634507E-04
   21.5375004        -4.14693262E-04
   21.6562500        -3.26071138E-04
   21.7749996        -2.32707840E-04
   21.8937492        -1.38465883E-04
   22.0125008        -4.67340287E-05
   22.1312504         4.08077794E-05
   22.2500000         1.24696642E-04
   22.3687496         2.07201869E-04
   22.4874992         2.90981639E-04
   22.6062508         3.77392251E-04
   22.7250004         4.65122255E-04
   22.8437500         5.49742661E-04
   22.9624996         6.24423032E-04
   23.0812492         6.81637321E-04
   23.2000008         7.15286762E-04
   23.3187504         7.22515979E-04
   23.4375000         7.04595062E-04
   23.5562496         6.66586100E-04
   23.6749992         6.15960278E-04
   23.7937508         5.60697401E-04
   23.9125004         5.07558521E-04
   24.0312500         4.61109565E-04
   24.1499996         4.23742051E-04
   24.2687492         3.96521180E-04
   24.3875008         3.80367012E-04
   24.5062504         3.76957469E-04
   24.6250000         3.88894317E-04
   24.7437496         4.19004791E-04
   24.8624992         4.69047634E-04
   24.9812508         5.38372144E-04
   25.1000004         6.23135595E-04
   25.2187500         7.16494513E-04
   25.3374996         8.09819379E-04
   25.4562492         8.94585217E-04
   25.5750008         9.64332081E-04
   25.6937504         1.01604615E-03
   25.8125000         1.05052453E-03
   25.9312496         1.07165473E-03
   26.0499992         1.08491688E-03
   26.1687508         1.09567377E-03
   26.2875004         1.10783835E-03
   26.4062500         1.12331472E-03
   26.5249996         1.14227901E-03
   26.6437492         1.16403273E-03
   26.7625008         1.18796306E-03
   26.8812504         1.21414382E-03
   27.0000000         1.24331005E-03
   27.1187496         1.27623207E-03
   27.2374992         1.31279300E-03
   27.3562508         1.35120901E-03
   27.4750004         1.38778111E-03
   27.5937500         1.41735270E-03
   27.7124996         1.43436273E-03
   27.8312492         1.43414177E-03
   27.9500008         1.41400762E-03
   28.0687504         1.37378869E-03
   28.1875000         1.31562934E-03
   28.3062496         1.24319177E-03
   28.4249992         1.16057938E-03
   28.5437508         1.07137882E-03
   28.6625004         9.78125609E-04
   28.7812500         8.82312015E-04
   28.8999996         7.84829201E-04
   29.0187492         6.86581596E-04
   29.1375008         5.88982075E-04
   29.2562504         4.94124077E-04
   29.3750000         4.04599064E-04
   29.4937496         3.23085347E-04
   29.6124992         2.51926947E-04
   29.7312508         1.92905383E-04
   29.8500004         1.47288112E-04
   29.9687500         1.16100993E-04
   30.0874996         1.00456855E-04
   30.2062492         1.01739213E-04
   30.3250008         1.21510653E-04
   30.4437504         1.61146832E-04
   30.5625000         2.21317285E-04
   30.6812496         3.01515538E-04
   30.7999992         3.99821001E-04
   30.9187508         5.12975617E-04
   31.0375004         6.36734942E-04
   31.1562500         7.66344718E-04
   31.2749996         8.96967773E-04
   31.3937492         1.02394179E-03
   31.5125008         1.14286051E-03
   31.6312504         1.24957773E-03
   31.7500000         1.34028483E-03
   31.8687496         1.41178409E-03
   31.9874992         1.46195700E-03
   32.1062508         1.49030436E-03
   32.2249985         1.49832957E-03
   32.3437500         1.48954731E-03
   32.4625015         1.46900024E-03
   32.5812492         1.44234463E-03
   32.7000008         1.41473976E-03
   32.8187485         1.38987158E-03
   32.9375000         1.36941299E-03
   33.0562515         1.35306758E-03
   33.1749992         1.33913523E-03
   33.2937508         1.32533640E-03
   33.4124985         1.30955048E-03
   33.5312500         1.29017967E-03
   33.6500015         1.26603362E-03
   33.7687492         1.23585854E-03
   33.8875008         1.19782088E-03
   34.0062485         1.14929664E-03
   34.1250000         1.08720467E-03
   34.2437515         1.00888452E-03
   34.3624992         9.13260272E-04
   34.4812508         8.01849354E-04
   34.5999985         6.79179560E-04
   34.7187500         5.52352692E-04
   34.8375015         4.29794105E-04
   34.9562492         3.19540472E-04
   35.0750008         2.27605036E-04
   35.1937485         1.56955779E-04
   35.3125000         1.07419488E-04
   35.4312515         7.64952711E-05
   35.5499992         6.07181901E-05
   35.6687508         5.70248594E-05
   35.7874985         6.35937104E-05
   35.9062500         7.98643596E-05
   36.0250015         1.05794890E-04
   36.1437492         1.40740958E-04
   36.2625008         1.82504911E-04
   36.3812485         2.27043085E-04
   36.5000000         2.69042619E-04
   36.6187515         3.03209032E-04
   36.7374992         3.25787347E-04
   36.8562508         3.35704186E-04
   36.9749985         3.34834505E-04
   37.0937500         3.27222457E-04
   37.2125015         3.17491998E-04
   37.3312492         3.09009367E-04
   37.4500008         3.02483735E-04
   37.5687485         2.95538950E-04
   37.6875000         2.83434172E-04
   37.8062515         2.60679313E-04
   37.9249992         2.22955889E-04
   38.0437508         1.68639090E-04
   38.1624985         9.93833892E-05
   38.2812500         1.95908724E-05
   38.4000015        -6.49846552E-05
   38.5187492        -1.48929408E-04
   38.6375008        -2.28500954E-04
   38.7562485        -3.02115193E-04
   38.8750000        -3.69871617E-04
   38.9937515        -4.32400528E-04
   39.1124992        -4.89595986E-04
   39.2312508        -5.39835950E-04
   39.3499985        -5.80086315E-04
   39.4687500        -6.06898044E-04
   39.5875015        -6.17926999E-04
   39.7062492        -6.13354088E-04
   39.8250008        -5.96591039E-04
   39.9437485        -5.73912577E-04
   40.0625000        -5.53046644E-04
   40.1812515        -5.41165296E-04
   40.2999992        -5.42935799E-04
   40.4187508        -5.59285283E-04
   40.5374985        -5.87267336E-04
   40.6562500        -6.21022831E-04
   40.7750015        -6.53446768E-04
   40.8937492        -6.77954697E-04
   41.0125008        -6.89763401E-04
   41.1312485        -6.86340558E-04
   41.2500000        -6.67031796E-04
   41.3687515        -6.32203068E-04
   41.4874992        -5.82395296E-04
   41.6062508        -5.17933047E-04
   41.7249985        -4.39194439E-04
   41.8437500        -3.47414549E-04
   41.9625015        -2.45638861E-04
   42.0812492        -1.39338867E-04
   42.2000008        -3.63077597E-05
   42.3187485         5.42738271E-05
   42.4375000         1.23385878E-04
   42.5562515         1.63883582E-04
   42.6749992         1.71842461E-04
   42.7937508         1.47134459E-04
   42.9124985         9.31027753E-05
   43.0312500         1.55047746E-05
   43.1500015        -7.88820616E-05
   43.2687492        -1.83532276E-04
   43.3875008        -2.92974728E-04
   43.5062485        -4.03004902E-04
   43.6250000        -5.10428159E-04
   43.7437515        -6.12618984E-04
   43.8624992        -7.07198400E-04
   43.9812508        -7.92024075E-04
   44.0999985        -8.65492388E-04
   44.2187500        -9.26976791E-04
   44.3375015        -9.77145275E-04
   44.4562492        -1.01793534E-03
   44.5750008        -1.05210976E-03
   44.6937485        -1.08250487E-03
   44.8125000        -1.11121079E-03
   44.9312515        -1.13896735E-03
   45.0499992        -1.16498303E-03
   45.1687508        -1.18721626E-03
   45.2874985        -1.20299950E-03
   45.4062500        -1.20977452E-03
   45.5250015        -1.20569207E-03
   45.6437492        -1.18992187E-03
   45.7625008        -1.16265367E-03
   45.8812485        -1.12489471E-03
