  -1.50000000       0.00000000    
  -1.38499999      -2.59999178E-09
  -1.26999998      -1.05975921E-08
  -1.15499997      -2.90608373E-08
  -1.03999996      -6.70270737E-08
 -0.925000012      -1.39236747E-07
 -0.810000002      -2.66168513E-07
 -0.694999993      -4.68685499E-07
 -0.579999983      -7.51244499E-07
 -0.465000004      -1.06600476E-06
 -0.349999994      -1.25125575E-06
 -0.234999999      -9.43538851E-07
 -0.119999997       5.25290091E-07
  -4.99999989E-03   4.21858977E-06
  0.109999999       1.16299598E-05
  0.224999994       2.46119434E-05
  0.340000004       4.51546111E-05
  0.455000013       7.49949613E-05
  0.569999993       1.15076771E-04
  0.685000002       1.64924451E-04
  0.800000012       2.22030867E-04
  0.915000021       2.81378045E-04
   1.02999997       3.35204531E-04
   1.14499998       3.73105227E-04
   1.25999999       3.82503436E-04
   1.37500000       3.49479786E-04
   1.49000001       2.59887747E-04
   1.60500002       1.00638841E-04
   1.72000003      -1.38989868E-04
   1.83500004      -4.66185244E-04
   1.95000005      -8.83712899E-04
   2.06500006      -1.38943631E-03
   2.18000007      -1.97631051E-03
   2.29500008      -2.63286475E-03
   2.41000009      -3.34412558E-03
   2.52500010      -4.09287866E-03
   2.64000010      -4.86111594E-03
   2.75500011      -5.63150551E-03
   2.86999989      -6.38869684E-03
   2.98499990      -7.12031871E-03
   3.09999990      -7.81754218E-03
   3.21499991      -8.47516861E-03
   3.32999992      -9.09122452E-03
   3.44499993      -9.66616627E-03
   3.55999994      -1.02017913E-02
   3.67499995      -1.07000349E-02
   3.78999996      -1.11618405E-02
   3.90499997      -1.15862628E-02
   4.01999998      -1.19699482E-02
   4.13500023      -1.23070944E-02
   4.25000000      -1.25899101E-02
   4.36499977      -1.28095197E-02
   4.48000002      -1.29572200E-02
   4.59499979      -1.30259171E-02
   4.71000004      -1.30115468E-02
   4.82499981      -1.29142776E-02
   4.94000006      -1.27393054E-02
   5.05499983      -1.24971122E-02
   5.17000008      -1.22030936E-02
   5.28499985      -1.18765738E-02
   5.40000010      -1.15392869E-02
   5.51499987      -1.12134637E-02
   5.63000011      -1.09197618E-02
   5.74499989      -1.06752496E-02
   5.86000013      -1.04917092E-02
   5.97499990      -1.03744473E-02
   6.09000015      -1.03217931E-02
   6.20499992      -1.03253331E-02
   6.32000017      -1.03708999E-02
   6.43499994      -1.04401847E-02
   6.55000019      -1.05128195E-02
   6.66499996      -1.05686747E-02
   6.78000021      -1.05901202E-02
   6.89499998      -1.05639752E-02
   7.01000023      -1.04829222E-02
   7.12500000      -1.03462189E-02
   7.23999977      -1.01596257E-02
   7.35500002      -9.93455946E-03
   7.46999979      -9.68658086E-03
   7.58500004      -9.43340268E-03
   7.69999981      -9.19266697E-03
   7.81500006      -8.97977129E-03
   7.92999983      -8.80600978E-03
   8.04500008      -8.67726654E-03
   8.15999985      -8.59342888E-03
   8.27499962      -8.54858011E-03
   8.39000034      -8.53196718E-03
   8.50500011      -8.52960069E-03
   8.61999989      -8.52629635E-03
   8.73499966      -8.50788038E-03
   8.85000038      -8.46328773E-03
   8.96500015      -8.38626549E-03
   9.07999992      -8.27645697E-03
   9.19499969      -8.13971087E-03
   9.31000042      -7.98757002E-03
   9.42500019      -7.83596560E-03
   9.53999996      -7.70328287E-03
   9.65499973      -7.60801509E-03
   9.77000046      -7.56629463E-03
   9.88500023      -7.58960471E-03
   10.0000000      -7.68296327E-03
   10.1149998      -7.84381013E-03
   10.2299995      -8.06175731E-03
   10.3450003      -8.31925403E-03
   10.4600000      -8.59310944E-03
   10.5749998      -8.85670912E-03
   10.6899996      -9.08268895E-03
   10.8050003      -9.24574770E-03
   10.9200001      -9.32529289E-03
   11.0349998      -9.30760149E-03
   11.1499996      -9.18724854E-03
   11.2650003      -8.96765012E-03
   11.3800001      -8.66064616E-03
   11.4949999      -8.28519091E-03
   11.6099997      -7.86530040E-03
   11.7250004      -7.42750848E-03
   11.8400002      -6.99812453E-03
   11.9549999      -6.60061836E-03
   12.0699997      -6.25343155E-03
   12.1850004      -5.96846174E-03
   12.3000002      -5.75037673E-03
   12.4150000      -5.59682120E-03
   12.5299997      -5.49945887E-03
   12.6450005      -5.44570154E-03
   12.7600002      -5.42088877E-03
   12.8750000      -5.41062420E-03
   12.9899998      -5.40297106E-03
   13.1049995      -5.39022172E-03
   13.2200003      -5.37001295E-03
   13.3350000      -5.34564955E-03
   13.4499998      -5.32559445E-03
   13.5649996      -5.32219512E-03
   13.6800003      -5.34980558E-03
   13.7950001      -5.42254979E-03
   13.9099998      -5.55201387E-03
   14.0249996      -5.74516086E-03
   14.1400003      -6.00274606E-03
   14.2550001      -6.31843600E-03
   14.3699999      -6.67876238E-03
   14.4849997      -7.06393691E-03
   14.6000004      -7.44943833E-03
   14.7150002      -7.80820474E-03
   14.8299999      -8.11318215E-03
   14.9449997      -8.33993498E-03
   15.0600004      -8.46903026E-03
   15.1750002      -8.48791189E-03
   15.2900000      -8.39206576E-03
   15.4049997      -8.18535686E-03
   15.5200005      -7.87949655E-03
   15.6350002      -7.49272993E-03
   15.7500000      -7.04791071E-03
   15.8649998      -6.57017948E-03
   15.9799995      -6.08454831E-03
   16.0949993      -5.61363902E-03
   16.2099991      -5.17585035E-03
   16.3250008      -4.78412956E-03
   16.4400005      -4.44546947E-03
   16.5550003      -4.16114461E-03
   16.6700001      -3.92762339E-03
   16.7849998      -3.73799354E-03
   16.8999996      -3.58370389E-03
   17.0149994      -3.45636928E-03
   17.1299992      -3.34940245E-03
   17.2450008      -3.25925695E-03
   17.3600006      -3.18612927E-03
   17.4750004      -3.13403271E-03
   17.5900002      -3.11025209E-03
   17.7049999      -3.12425941E-03
   17.8199997      -3.18624661E-03
   17.9349995      -3.30547872E-03
   18.0499992      -3.48869106E-03
   18.1650009      -3.73874791E-03
   18.2800007      -4.05374495E-03
   18.3950005      -4.42667818E-03
   18.5100002      -4.84572677E-03
   18.6250000      -5.29512297E-03
   18.7399998      -5.75650670E-03
   18.8549995      -6.21059397E-03
   18.9699993      -6.63897349E-03
   19.0849991      -7.02580204E-03
   19.2000008      -7.35921180E-03
   19.3150005      -7.63226999E-03
   19.4300003      -7.84338173E-03
   19.5450001      -7.99611676E-03
   19.6599998      -8.09848588E-03
   19.7749996      -8.16178508E-03
   19.8899994      -8.19915347E-03
   20.0049992      -8.22402537E-03
   20.1200008      -8.24867468E-03
   20.2350006      -8.28301907E-03
   20.3500004      -8.33380688E-03
   20.4650002      -8.40426888E-03
   20.5799999      -8.49425048E-03
   20.6949997      -8.60075932E-03
   20.8099995      -8.71883612E-03
   20.9249992      -8.84259958E-03
   21.0400009      -8.96630157E-03
   21.1550007      -9.08524450E-03
   21.2700005      -9.19643324E-03
   21.3850002      -9.29886475E-03
   21.5000000      -9.39343777E-03
   21.6149998      -9.48251318E-03
   21.7299995      -9.56918299E-03
   21.8449993      -9.65639949E-03
   21.9599991      -9.74606909E-03
   22.0750008      -9.83828865E-03
   22.1900005      -9.93082765E-03
   22.3050003      -1.00189466E-02
   22.4200001      -1.00956010E-02
   22.5349998      -1.01520140E-02
   22.6499996      -1.01785511E-02
   22.7649994      -1.01657799E-02
   22.8799992      -1.01055941E-02
   22.9950008      -9.99224093E-03
   23.1100006      -9.82310716E-03
   23.2250004      -9.59916972E-03
   23.3400002      -9.32503957E-03
   23.4549999      -9.00857802E-03
   23.5699997      -8.66014790E-03
   23.6849995      -8.29157606E-03
   23.7999992      -7.91498087E-03
   23.9150009      -7.54159829E-03
   24.0300007      -7.18076993E-03
   24.1450005      -6.83921715E-03
   24.2600002      -6.52069505E-03
   24.3750000      -6.22605905E-03
   24.4899998      -5.95372636E-03
   24.6049995      -5.70045505E-03
   24.7199993      -5.46232564E-03
   24.8349991      -5.23577165E-03
   24.9500008      -5.01850713E-03
   25.0650005      -4.81021265E-03
   25.1800003      -4.61286493E-03
   25.2950001      -4.43066098E-03
   25.4099998      -4.26952774E-03
   25.5249996      -4.13628761E-03
   25.6399994      -4.03757906E-03
   25.7549992      -3.97869619E-03
   25.8700008      -3.96250794E-03
   25.9850006      -3.98862734E-03
   26.1000004      -4.05296450E-03
   26.2150002      -4.14776290E-03
   26.3299999      -4.26213956E-03
   26.4449997      -4.38309601E-03
   26.5599995      -4.49689943E-03
   26.6749992      -4.59067151E-03
   26.7900009      -4.65399353E-03
   26.9050007      -4.68033087E-03
   27.0200005      -4.66807792E-03
   27.1350002      -4.62108199E-03
   27.2500000      -4.54855990E-03
   27.3649998      -4.46438836E-03
   27.4799995      -4.38582944E-03
   27.5949993      -4.33183368E-03
   27.7099991      -4.32110066E-03
   27.8250008      -4.37012687E-03
   27.9400005      -4.49146656E-03
   28.0550003      -4.69241058E-03
   28.1700001      -4.97424928E-03
   28.2849998      -5.33219753E-03
   28.3999996      -5.75599493E-03
   28.5149994      -6.23111054E-03
   28.6299992      -6.74039079E-03
   28.7450008      -7.26595242E-03
   28.8600006      -7.79108657E-03
   28.9750004      -8.30191746E-03
   29.0900002      -8.78863595E-03
   29.2049999      -9.24611837E-03
   29.3199997      -9.67389159E-03
   29.4349995      -1.00754192E-02
   29.5499992      -1.04568368E-02
   29.6650009      -1.08252829E-02
   29.7800007      -1.11870673E-02
   29.8950005      -1.15459263E-02
   30.0100002      -1.19016087E-02
   30.1250000      -1.22489957E-02
   30.2399998      -1.25779128E-02
   30.3549995      -1.28736710E-02
   30.4699993      -1.31183201E-02
   30.5849991      -1.32924747E-02
   30.7000008      -1.33775026E-02
   30.8150005      -1.33578312E-02
   30.9300003      -1.32230828E-02
   31.0450001      -1.29697602E-02
   31.1599998      -1.26022808E-02
   31.2749996      -1.21331867E-02
   31.3899994      -1.15825012E-02
   31.5049992      -1.09762624E-02
   31.6200008      -1.03443861E-02
   31.7350006      -9.71809309E-03
   31.8500004      -9.12716798E-03
   31.9650002      -8.59737210E-03
   32.0800018      -8.14827997E-03
   32.1949997      -7.79179391E-03
   32.3100014      -7.53148599E-03
   32.4249992      -7.36283604E-03
   32.5400009      -7.27432221E-03
   32.6549988      -7.24921515E-03
   32.7700005      -7.26786070E-03
   32.8849983      -7.31016230E-03
   33.0000000      -7.35796615E-03
   33.1150017      -7.39706168E-03
   33.2299995      -7.41856033E-03
   33.3450012      -7.41950143E-03
   33.4599991      -7.40262400E-03
   33.5750008      -7.37535488E-03
   33.6899986      -7.34815840E-03
   33.8050003      -7.33247772E-03
   33.9199982      -7.33854529E-03
   34.0349998      -7.37335533E-03
   34.1500015      -7.43908109E-03
   34.2649994      -7.53214257E-03
   34.3800011      -7.64306588E-03
   34.4949989      -7.75717199E-03
   34.6100006      -7.85601698E-03
   34.7249985      -7.91942235E-03
   34.8400002      -7.92784430E-03
   34.9550018      -7.86481146E-03
   35.0699997      -7.71910558E-03
   35.1850014      -7.48643791E-03
   35.2999992      -7.17038801E-03
   35.4150009      -6.78248750E-03
   35.5299988      -6.34141825E-03
   35.6450005      -5.87140210E-03
   35.7599983      -5.39996056E-03
   35.8750000      -4.95529315E-03
   35.9900017      -4.56357002E-03
   36.1049995      -4.24644491E-03
   36.2200012      -4.01907321E-03
   36.3349991      -3.88884661E-03
   36.4500008      -3.85498162E-03
   36.5649986      -3.90899554E-03
   36.6800003      -4.03599255E-03
   36.7949982      -4.21659555E-03
   36.9099998      -4.42927750E-03
   37.0250015      -4.65282006E-03
   37.1399994      -4.86859819E-03
   37.2550011      -5.06243063E-03
   37.3699989      -5.22580137E-03
   37.4850006      -5.35631832E-03
   37.5999985      -5.45738963E-03
   37.7150002      -5.53719606E-03
   37.8300018      -5.60709927E-03
   37.9449997      -5.67972008E-03
   38.0600014      -5.76693704E-03
   38.1749992      -5.87806990E-03
   38.2900009      -6.01847190E-03
   38.4049988      -6.18871348E-03
   38.5200005      -6.38444396E-03
   38.6349983      -6.59695175E-03
   38.7500000      -6.81432616E-03
   38.8650017      -7.02306908E-03
   38.9799995      -7.20994361E-03
   39.0950012      -7.36380927E-03
   39.2099991      -7.47720292E-03
   39.3250008      -7.54746469E-03
   39.4399986      -7.57724885E-03
   39.5550003      -7.57436687E-03
   39.6699982      -7.55096227E-03
   39.7849998      -7.52212899E-03
   39.9000015      -7.50413770E-03
   40.0149994      -7.51248747E-03
   40.1300011      -7.56002078E-03
   40.2449989      -7.65532628E-03
   40.3600006      -7.80162355E-03
   40.4749985      -7.99625274E-03
   40.5900002      -8.23082775E-03
   40.7050018      -8.49202648E-03
   40.8199997      -8.76291282E-03
   40.9350014      -9.02463868E-03
   41.0499992      -9.25830472E-03
   41.1650009      -9.44678206E-03
   41.2799988      -9.57627688E-03
   41.3950005      -9.63746849E-03
   41.5099983      -9.62611940E-03
   41.6250000      -9.54310782E-03
   41.7400017      -9.39390901E-03
   41.8549995      -9.18762665E-03
   41.9700012      -8.93572811E-03
   42.0849991      -8.65064003E-03
   42.2000008      -8.34441651E-03
   42.3149986      -8.02762434E-03
   42.4300003      -7.70859141E-03
   42.5449982      -7.39307981E-03
   42.6599998      -7.08440319E-03
   42.7750015      -6.78393384E-03
   42.8899994      -6.49189716E-03
   43.0050011      -6.20831363E-03
   43.1199989      -5.93392970E-03
   43.2350006      -5.67098893E-03
   43.3499985      -5.42370835E-03
   43.4650002      -5.19839395E-03
   43.5800018      -5.00314636E-03
   43.6949997      -4.84720664E-03
   43.8100014      -4.74001234E-03
   43.9249992      -4.69009113E-03
   44.0400009      -4.70394222E-03
   44.1549988      -4.78505949E-03
   44.2700005      -4.93322732E-03
   44.3849983      -5.14419563E-03
