  -1.50000000       0.00000000    
  -1.38499999       8.71772432E-10
  -1.26999998       1.89631999E-09
  -1.15499997       9.64545735E-11
  -1.03999996      -1.13741541E-08
 -0.925000012      -4.65777710E-08
 -0.810000002      -1.33443734E-07
 -0.694999993      -3.25054913E-07
 -0.579999983      -7.15134945E-07
 -0.465000004      -1.45315448E-06
 -0.349999994      -2.74774879E-06
 -0.234999999      -4.83926988E-06
 -0.119999997      -7.91711955E-06
  -4.99999989E-03  -1.19608931E-05
  0.109999999      -1.65017500E-05
  0.224999994      -2.03329419E-05
  0.340000004      -2.12391733E-05
  0.455000013      -1.58476523E-05
  0.569999993       2.90428687E-07
  0.685000002       3.23155218E-05
  0.800000012       8.53773818E-05
  0.915000021       1.63759236E-04
   1.02999997       2.69997807E-04
   1.14499998       4.04222665E-04
   1.25999999       5.63900219E-04
   1.37500000       7.44059565E-04
   1.49000001       9.37938399E-04
   1.60500002       1.13786419E-03
   1.72000003       1.33612589E-03
   1.83500004       1.52562326E-03
   1.95000005       1.70019001E-03
   2.06500006       1.85462553E-03
   2.18000007       1.98459346E-03
   2.29500008       2.08658329E-03
   2.41000009       2.15808232E-03
   2.52500010       2.19797646E-03
   2.64000010       2.20704451E-03
   2.75500011       2.18831399E-03
   2.86999989       2.14702403E-03
   2.98499990       2.09005689E-03
   3.09999990       2.02486780E-03
   3.21499991       1.95815857E-03
   3.32999992       1.89465412E-03
   3.44499993       1.83636148E-03
   3.55999994       1.78255991E-03
   3.67499995       1.73053576E-03
   3.78999996       1.67683733E-03
   3.90499997       1.61863794E-03
   4.01999998       1.55476527E-03
   4.13500023       1.48607360E-03
   4.25000000       1.41507445E-03
   4.36499977       1.34501001E-03
   4.48000002       1.27874885E-03
   4.59499979       1.21794257E-03
   4.71000004       1.16275635E-03
   4.82499981       1.11226097E-03
   4.94000006       1.06529042E-03
   5.05499983       1.02137658E-03
   5.17000008       9.81324003E-04
   5.28499985       9.47124325E-04
   5.40000010       9.21168539E-04
   5.51499987       9.05002584E-04
   5.63000011       8.98096478E-04
   5.74499989       8.97126156E-04
   5.86000013       8.96122889E-04
   5.97499990       8.87556118E-04
   6.09000015       8.64070142E-04
   6.20499992       8.20359099E-04
   6.32000017       7.54583860E-04
   6.43499994       6.68876106E-04
   6.55000019       5.68774471E-04
   6.66499996       4.61796968E-04
   6.78000021       3.55628523E-04
   6.89499998       2.56520289E-04
   7.01000023       1.68384053E-04
   7.12500000       9.27864749E-05
   7.23999977       2.97115857E-05
   7.35500002      -2.13281237E-05
   7.46999979      -6.03601475E-05
   7.58500004      -8.66325645E-05
   7.69999981      -9.90704066E-05
   7.81500006      -9.73411807E-05
   7.92999983      -8.30783974E-05
   8.04500008      -6.07255934E-05
   8.15999985      -3.75546733E-05
   8.27499962      -2.27063065E-05
   8.39000034      -2.54495189E-05
   8.50500011      -5.31554106E-05
   8.61999989      -1.09599066E-04
   8.73499966      -1.94120730E-04
   8.85000038      -3.01888998E-04
   8.96500015      -4.25156235E-04
   9.07999992      -5.55070641E-04
   9.19499969      -6.83463120E-04
   9.31000042      -8.04064679E-04
   9.42500019      -9.12866788E-04
   9.53999996      -1.00765494E-03
   9.65499973      -1.08704669E-03
   9.77000046      -1.14953145E-03
   9.88500023      -1.19296124E-03
   10.0000000      -1.21473579E-03
   10.1149998      -1.21261633E-03
   10.2299995      -1.18584058E-03
   10.3450003      -1.13606034E-03
   10.4600000      -1.06767903E-03
   10.5749998      -9.87373525E-04
   10.6899996      -9.02886910E-04
   10.8050003      -8.21444148E-04
   10.9200001      -7.48290331E-04
   11.0349998      -6.85809529E-04
   11.1499996      -6.33488584E-04
   11.2650003      -5.88690513E-04
   11.3800001      -5.47950971E-04
   11.4949999      -5.08341007E-04
   11.6099997      -4.68456739E-04
   11.7250004      -4.28762229E-04
   11.8400002      -3.91257607E-04
   11.9549999      -3.58684891E-04
   12.0699997      -3.33626056E-04
   12.1850004      -3.17847793E-04
   12.3000002      -3.12111195E-04
   12.4150000      -3.16455844E-04
   12.5299997      -3.30774346E-04
   12.6450005      -3.55380034E-04
   12.7600002      -3.91285983E-04
   12.8750000      -4.40046831E-04
   12.9899998      -5.03196206E-04
   13.1049995      -5.81482309E-04
   13.2200003      -6.74196577E-04
   13.3350000      -7.78852380E-04
   13.4499998      -8.91351374E-04
   13.5649996      -1.00659870E-03
   13.6800003      -1.11937593E-03
   13.7950001      -1.22520200E-03
   13.9099998      -1.32093963E-03
   14.0249996      -1.40500802E-03
   14.1400003      -1.47721136E-03
   14.2550001      -1.53830962E-03
   14.3699999      -1.58952118E-03
   14.4849997      -1.63211965E-03
   14.6000004      -1.66720757E-03
   14.7150002      -1.69564795E-03
   14.8299999      -1.71805860E-03
   14.9449997      -1.73476757E-03
   15.0600004      -1.74566917E-03
   15.1750002      -1.75001041E-03
   15.2900000      -1.74620375E-03
   15.4049997      -1.73179642E-03
   15.5200005      -1.70369283E-03
   15.6350002      -1.65863789E-03
   15.7500000      -1.59386441E-03
   15.8649998      -1.50774268E-03
   15.9799995      -1.40024745E-03
   16.0949993      -1.27312297E-03
   16.2099991      -1.12972455E-03
   16.3250008      -9.74630646E-04
   16.4400005      -8.13179999E-04
   16.5550003      -6.51089475E-04
   16.6700001      -4.94234031E-04
   16.7849998      -3.48563743E-04
   16.8999996      -2.20036585E-04
   17.0149994      -1.14413044E-04
   17.1299992      -3.68059664E-05
   17.2450008       9.00749365E-06
   17.3600006       2.13667681E-05
   17.4750004       1.35537584E-06
   17.5900002      -4.69845727E-05
   17.7049999      -1.17016389E-04
   17.8199997      -2.00446928E-04
   17.9349995      -2.88643962E-04
   18.0499992      -3.73996707E-04
   18.1650009      -4.50952561E-04
   18.2800007      -5.16464585E-04
   18.3950005      -5.69777330E-04
   18.5100002      -6.11698953E-04
   18.6250000      -6.43679115E-04
   18.7399998      -6.67054614E-04
   18.8549995      -6.82734360E-04
   18.9699993      -6.91396941E-04
   19.0849991      -6.94046263E-04
   19.2000008      -6.92602713E-04
   19.3150005      -6.90181623E-04
   19.4300003      -6.90814515E-04
   19.5450001      -6.98601187E-04
   19.6599998      -7.16522802E-04
   19.7749996      -7.45325466E-04
   19.8899994      -7.82906660E-04
   20.0049992      -8.24494637E-04
   20.1200008      -8.63645691E-04
   20.2350006      -8.93794524E-04
   20.3500004      -9.09876893E-04
   20.4650002      -9.09503840E-04
   20.5799999      -8.93301331E-04
   20.6949997      -8.64317932E-04
   20.8099995      -8.26719974E-04
   20.9249992      -7.84247881E-04
   21.0400009      -7.38975126E-04
   21.1550007      -6.90796878E-04
   21.2700005      -6.37796475E-04
   21.3850002      -5.77311323E-04
   21.5000000      -5.07258752E-04
   21.6149998      -4.27200313E-04
   21.7299995      -3.38724058E-04
   21.8449993      -2.45004601E-04
   21.9599991      -1.49722182E-04
   22.0750008      -5.57771527E-05
   22.1900005       3.56659075E-05
   22.3050003       1.25396517E-04
   22.4200001       2.15508233E-04
   22.5349998       3.08085902E-04
   22.6499996       4.03712067E-04
   22.7649994       5.00364811E-04
   22.8799992       5.93168545E-04
   22.9950008       6.75162068E-04
   23.1100006       7.38887815E-04
   23.2250004       7.78313435E-04
   23.3400002       7.90467428E-04
   23.4549999       7.76260393E-04
   23.5699997       7.40253192E-04
   23.6849995       6.89479813E-04
   23.7999992       6.31756091E-04
   23.9150009       5.74049191E-04
   24.0300007       5.21425740E-04
   24.1450005       4.76850400E-04
   24.2600002       4.41773911E-04
   24.3750000       4.17154224E-04
   24.4899998       4.04407416E-04
   24.6049995       4.05838888E-04
   24.7199993       4.24332451E-04
   24.8349991       4.62390162E-04
   24.9500008       5.20895934E-04
   25.0650005       5.98106242E-04
   25.1800003       6.89316483E-04
   25.2950001       7.87414960E-04
   25.4099998       8.84223264E-04
   25.5249996       9.72232607E-04
   25.6399994       1.04620249E-03
   25.7549992       1.10412831E-03
   25.8700008       1.14730268E-03
   25.9850006       1.17949978E-03
   26.1000004       1.20559894E-03
   26.2150002       1.23012683E-03
   26.3299999       1.25618151E-03
   26.4449997       1.28503214E-03
   26.5599995       1.31641387E-03
   26.6749992       1.34928746E-03
   26.7900009       1.38268399E-03
   26.9050007       1.41625793E-03
   27.0200005       1.45032536E-03
   27.1350002       1.48539350E-03
   27.2500000       1.52140390E-03
   27.3649998       1.55703293E-03
   27.4799995       1.58937532E-03
   27.5949993       1.61418773E-03
   27.7099991       1.62665581E-03
   27.8250008       1.62245054E-03
   27.9400005       1.59872952E-03
   28.0550003       1.55476620E-03
   28.1700001       1.49202044E-03
   28.2849998       1.41366420E-03
   28.3999996       1.32375769E-03
   28.5149994       1.22636836E-03
   28.6299992       1.12491427E-03
   28.7450008       1.02189928E-03
   28.8600006       9.19050246E-04
   28.9750004       8.17709893E-04
   29.0900002       7.19278061E-04
   29.2049999       6.25496148E-04
   29.3199997       5.38477092E-04
   29.4349995       4.60495154E-04
   29.5499992       3.93663242E-04
   29.6650009       3.39655875E-04
   29.7800007       2.99606152E-04
   29.8950005       2.74203921E-04
   30.0100002       2.63930124E-04
   30.1250000       2.69294018E-04
   30.2399998       2.90933356E-04
   30.3549995       3.29503557E-04
   30.4699993       3.85379593E-04
   30.5849991       4.58274881E-04
   30.7000008       5.46936761E-04
   30.8150005       6.49034046E-04
   30.9300003       7.61292584E-04
   31.0450001       8.79818574E-04
   31.1599998       1.00049062E-03
   31.2749996       1.11927988E-03
   31.3899994       1.23240554E-03
   31.5049992       1.33633194E-03
   31.6200008       1.42769434E-03
   31.7350006       1.50330015E-03
   31.8500004       1.56031770E-03
   31.9650002       1.59668433E-03
   32.0800018       1.61163881E-03
   32.1949997       1.60619256E-03
   32.3100014       1.58332242E-03
   32.4249992       1.54772936E-03
   32.5400009       1.50514801E-03
   32.6549988       1.46134559E-03
   32.7700005       1.42108370E-03
   32.8849983       1.38734118E-03
   33.0000000       1.36102387E-03
   33.1150017       1.34122104E-03
   33.2299995       1.32587971E-03
   33.3450012       1.31262187E-03
   33.4599991       1.29938987E-03
   33.5750008       1.28468801E-03
   33.6899986       1.26736530E-03
   33.8050003       1.24609028E-03
   33.9199982       1.21881312E-03
   34.0349998       1.18253927E-03
   34.1500015       1.13363226E-03
   34.2649994       1.06864888E-03
   34.3800011       9.85482824E-04
   34.4949989       8.84431181E-04
   34.6100006       7.68770580E-04
   34.7249985       6.44570042E-04
   34.8400002       5.19715424E-04
   34.9550018       4.02389909E-04
   35.0699997       2.99465843E-04
   35.1850014       2.15295033E-04
   35.2999992       1.51266766E-04
   35.4150009       1.06225241E-04
   35.5299988       7.75516237E-05
   35.6450005       6.24755194E-05
   35.7599983       5.91211210E-05
   35.8750000       6.69088477E-05
   35.9900017       8.61922381E-05
   36.1049995       1.17318268E-04
   36.2200012       1.59531584E-04
   36.3349991       2.10211772E-04
   36.4500008       2.64815724E-04
   36.5649986       3.17622384E-04
   36.6800003       3.63059866E-04
   36.7949982       3.97152617E-04
   36.9099998       4.18551295E-04
   37.0250015       4.28738189E-04
   37.1399994       4.31289634E-04
   37.2550011       4.30419401E-04
   37.3699989       4.29298874E-04
   37.4850006       4.28741594E-04
   37.5999985       4.26724349E-04
   37.7150002       4.18920565E-04
   37.8300018       4.00069956E-04
   37.9449997       3.65704182E-04
   38.0600014       3.13634606E-04
   38.1749992       2.44695868E-04
   38.2900009       1.62513999E-04
   38.4049988       7.24218116E-05
   38.5200005      -2.00564718E-05
   38.6349983      -1.10590983E-04
   38.7500000      -1.96815352E-04
   38.8650017      -2.78244697E-04
   38.9799995      -3.55442724E-04
   39.0950012      -4.28830506E-04
   39.2099991      -4.97657515E-04
   39.3250008      -5.59594599E-04
   39.4399986      -6.11152092E-04
   39.5550003      -6.48802670E-04
   39.6699982      -6.70395209E-04
   39.7849998      -6.76320982E-04
   39.9000015      -6.69953646E-04
   40.0149994      -6.57137483E-04
   40.1300011      -6.44835061E-04
   40.2449989      -6.39343751E-04
   40.3600006      -6.44639716E-04
   40.4749985      -6.61375816E-04
   40.5900002      -6.86821819E-04
   40.7050018      -7.15721631E-04
   40.8199997      -7.41742318E-04
   40.9350014      -7.59019225E-04
   41.0499992      -7.63311982E-04
   41.1650009      -7.52470340E-04
   41.2799988      -7.26188649E-04
   41.3950005      -6.85289910E-04
   41.5099983      -6.30930183E-04
   41.6250000      -5.64109068E-04
   41.7400017      -4.85705765E-04
   41.8549995      -3.97015101E-04
   41.9700012      -3.00530053E-04
   42.0849991      -2.00590715E-04
   42.2000008      -1.03551713E-04
   42.3149986      -1.72850087E-05
   42.4300003       4.99222406E-05
   42.5449982       9.07915091E-05
   42.6599998       1.00392055E-04
   42.7750015       7.70123734E-05
   42.8899994       2.23297866E-05
   43.0050011      -5.91243879E-05
   43.1199989      -1.60996089E-04
   43.2350006      -2.76300620E-04
   43.3499985      -3.98434146E-04
   43.4650002      -5.21780341E-04
   43.5800018      -6.41862745E-04
   43.6949997      -7.55163899E-04
   43.8100014      -8.58825806E-04
   43.9249992      -9.50447458E-04
   44.0400009      -1.02810143E-03
   44.1549988      -1.09055266E-03
   44.2700005      -1.13755127E-03
   44.3849983      -1.17001636E-03
