  -1.50000000         0.00000000    
  -1.38499999         2.49417997E-09
  -1.26999998         1.23694504E-08
  -1.15499997         4.19127346E-08
  -1.03999996         1.18908481E-07
 -0.925000012         3.01522306E-07
 -0.810000002         7.03566343E-07
 -0.694999993         1.53382780E-06
 -0.579999983         3.15170541E-06
 -0.465000004         6.13768270E-06
 -0.349999994         1.13708829E-05
 -0.234999999         2.00977775E-05
 -0.119999997         3.39678336E-05
  -4.99999989E-03     5.50061122E-05
  0.109999999         8.54924583E-05
  0.224999994         1.27723761E-04
  0.340000004         1.83650729E-04
  0.455000013         2.54402083E-04
  0.569999993         3.39733931E-04
  0.685000002         4.37466428E-04
  0.800000012         5.42988768E-04
  0.915000021         6.48920890E-04
   1.02999997         7.45014346E-04
   1.14499998         8.18356057E-04
   1.25999999         8.53901613E-04
   1.37500000         8.35325744E-04
   1.49000001         7.46132398E-04
   1.60500002         5.70925535E-04
   1.72000003         2.96715734E-04
   1.83500004        -8.58780259E-05
   1.95000005        -5.81667293E-04
   2.06500006        -1.19028520E-03
   2.18000007        -1.90600962E-03
   2.29500008        -2.71804375E-03
   2.41000009        -3.61123378E-03
   2.52500010        -4.56715003E-03
   2.64000010        -5.56541188E-03
   2.75500011        -6.58511836E-03
   2.86999989        -7.60622555E-03
   2.98499990        -8.61072913E-03
   3.09999990        -9.58352536E-03
   3.21499991        -1.05128847E-02
   3.32999992        -1.13904998E-02
   3.44499993        -1.22111468E-02
   3.55999994        -1.29720215E-02
   3.67499995        -1.36718899E-02
   3.78999996        -1.43101718E-02
   3.90499997        -1.48861185E-02
   4.01999998        -1.53982043E-02
   4.13500023        -1.58438310E-02
   4.25000000        -1.62194036E-02
   4.36499977        -1.65207591E-02
   4.48000002        -1.67439170E-02
   4.59499979        -1.68860219E-02
   4.71000004        -1.69463456E-02
   4.82499981        -1.69272218E-02
   4.94000006        -1.68347191E-02
   5.05499983        -1.66789573E-02
   5.17000008        -1.64739694E-02
   5.28499985        -1.62370875E-02
   5.40000010        -1.59878675E-02
   5.51499987        -1.57466717E-02
   5.63000011        -1.55330151E-02
   5.74499989        -1.53638897E-02
   5.86000013        -1.52522270E-02
   5.97499990        -1.52056981E-02
   6.09000015        -1.52259870E-02
   6.20499992        -1.53086456E-02
   6.32000017        -1.54435597E-02
   6.43499994        -1.56159811E-02
   6.55000019        -1.58080291E-02
   6.66499996        -1.60005149E-02
   6.78000021        -1.61748491E-02
   6.89499998        -1.63148828E-02
   7.01000023        -1.64084323E-02
   7.12500000        -1.64483320E-02
   7.23999977        -1.64329335E-02
   7.35500002        -1.63659602E-02
   7.46999979        -1.62557792E-02
   7.58500004        -1.61141884E-02
   7.69999981        -1.59548465E-02
   7.81500006        -1.57915801E-02
   7.92999983        -1.56367384E-02
   8.04500008        -1.54998386E-02
   8.15999985        -1.53866252E-02
   8.27499962        -1.52986795E-02
   8.39000034        -1.52336145E-02
   8.50500011        -1.51858078E-02
   8.61999989        -1.51475864E-02
   8.73499966        -1.51106846E-02
   8.85000038        -1.50677813E-02
   8.96500015        -1.50139146E-02
   9.07999992        -1.49475550E-02
   9.19499969        -1.48712117E-02
   9.31000042        -1.47914542E-02
   9.42500019        -1.47183295E-02
   9.53999996        -1.46642458E-02
   9.65499973        -1.46424305E-02
   9.77000046        -1.46651566E-02
   9.88500023        -1.47419516E-02
   10.0000000        -1.48780104E-02
   10.1149998        -1.50730284E-02
   10.2299995        -1.53206084E-02
   10.3450003        -1.56083452E-02
   10.4600000        -1.59185957E-02
   10.5749998        -1.62298866E-02
   10.6899996        -1.65188145E-02
   10.8050003        -1.67622194E-02
   10.9200001        -1.69394314E-02
   11.0349998        -1.70343127E-02
   11.1499996        -1.70368720E-02
   11.2650003        -1.69442669E-02
   11.3800001        -1.67610962E-02
   11.4949999        -1.64989252E-02
   11.6099997        -1.61751099E-02
   11.7250004        -1.58110633E-02
   11.8400002        -1.54301282E-02
   11.9549999        -1.50553379E-02
   12.0699997        -1.47072840E-02
   12.1850004        -1.44023402E-02
   12.3000002        -1.41514167E-02
   12.4150000        -1.39593864E-02
   12.5299997        -1.38252135E-02
   12.6450005        -1.37427496E-02
   12.7600002        -1.37020685E-02
   12.8750000        -1.36911804E-02
   12.9899998        -1.36978701E-02
   13.1049995        -1.37114553E-02
   13.2200003        -1.37242209E-02
   13.3350000        -1.37323653E-02
   13.4499998        -1.37363393E-02
   13.5649996        -1.37405423E-02
   13.6800003        -1.37524158E-02
   13.7950001        -1.37810754E-02
   13.9099998        -1.38356378E-02
   14.0249996        -1.39234848E-02
   14.1400003        -1.40486918E-02
   14.2550001        -1.42108276E-02
   14.3699999        -1.44043034E-02
   14.4849997        -1.46183725E-02
   14.6000004        -1.48377996E-02
   14.7150002        -1.50441406E-02
   14.8299999        -1.52175091E-02
   14.9449997        -1.53386118E-02
   15.0600004        -1.53908469E-02
   15.1750002        -1.53622003E-02
   15.2900000        -1.52467284E-02
   15.4049997        -1.50454454E-02
   15.5200005        -1.47665013E-02
   15.6350002        -1.44246276E-02
   15.7500000        -1.40398936E-02
   15.8649998        -1.36359092E-02
   15.9799995        -1.32376645E-02
   16.0949993        -1.28692482E-02
   16.2099991        -1.25516690E-02
   16.3250008        -1.23010445E-02
   16.4400005        -1.21273175E-02
   16.5550003        -1.20336432E-02
   16.6700001        -1.20164901E-02
   16.7849998        -1.20664202E-02
   16.8999996        -1.21694449E-02
   17.0149994        -1.23087764E-02
   17.1299992        -1.24667687E-02
   17.2450008        -1.26268137E-02
   17.3600006        -1.27749778E-02
   17.4750004        -1.29012046E-02
   17.5900002        -1.29999472E-02
   17.7049999        -1.30701996E-02
   17.8199997        -1.31149413E-02
   17.9349995        -1.31400879E-02
   18.0499992        -1.31531172E-02
   18.1650009        -1.31615466E-02
   18.2800007        -1.31714810E-02
   18.3950005        -1.31864185E-02
   18.5100002        -1.32064689E-02
   18.6250000        -1.32280933E-02
   18.7399998        -1.32444073E-02
   18.8549995        -1.32459914E-02
   18.9699993        -1.32221244E-02
   19.0849991        -1.31622842E-02
   19.2000008        -1.30577171E-02
   19.3150005        -1.29028754E-02
   19.4300003        -1.26965549E-02
   19.5450001        -1.24425543E-02
   19.6599998        -1.21497838E-02
   19.7749996        -1.18317800E-02
   19.8899994        -1.15056783E-02
   20.0049992        -1.11907320E-02
   20.1200008        -1.09065538E-02
   20.2350006        -1.06712617E-02
   20.3500004        -1.04997316E-02
   20.4650002        -1.04021477E-02
   20.5799999        -1.03830174E-02
   20.6949997        -1.04407333E-02
   20.8099995        -1.05677471E-02
   20.9249992        -1.07513126E-02
   21.0400009        -1.09747052E-02
   21.1550007        -1.12187974E-02
   21.2700005        -1.14637949E-02
   21.3850002        -1.16909510E-02
   21.5000000        -1.18840886E-02
   21.6149998        -1.20307747E-02
   21.7299995        -1.21230325E-02
   21.8449993        -1.21575687E-02
   21.9599991        -1.21354964E-02
   22.0750008        -1.20616434E-02
   22.1900005        -1.19435424E-02
   22.3050003        -1.17902579E-02
   22.4200001        -1.16111971E-02
   22.5349998        -1.14150513E-02
   22.6499996        -1.12090036E-02
   22.7649994        -1.09982705E-02
   22.8799992        -1.07860211E-02
   22.9950008        -1.05736619E-02
   23.1100006        -1.03614042E-02
   23.2250004        -1.01490412E-02
   23.3400002        -9.93677415E-03
   23.4549999        -9.72598512E-03
   23.5699997        -9.51981731E-03
   23.6849995        -9.32346657E-03
   23.7999992        -9.14414693E-03
   23.9150009        -8.99069291E-03
   24.0300007        -8.87286570E-03
   24.1450005        -8.80040880E-03
   24.2600002        -8.78198817E-03
   24.3750000        -8.82413704E-03
   24.4899998        -8.93031806E-03
   24.6049995        -9.10024252E-03
   24.7199993        -9.32951644E-03
   24.8349991        -9.60966386E-03
   24.9500008        -9.92854591E-03
   25.0650005        -1.02711208E-02
   25.1800003        -1.06204823E-02
   25.2950001        -1.09590618E-02
   25.4099998        -1.12698758E-02
   25.5249996        -1.15377009E-02
   25.6399994        -1.17500443E-02
   25.7549992        -1.18978508E-02
   25.8700008        -1.19758751E-02
   25.9850006        -1.19827129E-02
   26.1000004        -1.19205248E-02
   26.2150002        -1.17945047E-02
   26.3299999        -1.16121750E-02
   26.4449997        -1.13826189E-02
   26.5599995        -1.11157335E-02
   26.6749992        -1.08215827E-02
   26.7900009        -1.05099147E-02
   26.9050007        -1.01898778E-02
   27.0200005        -9.86991916E-03
   27.1350002        -9.55784228E-03
   27.2500000        -9.26097948E-03
   27.3649998        -8.98638833E-03
   27.4799995        -8.74102954E-03
   27.5949993        -8.53184704E-03
   27.7099991        -8.36570282E-03
   27.8250008        -8.24916642E-03
   27.9400005        -8.18813406E-03
   28.0550003        -8.18734523E-03
   28.1700001        -8.24983045E-03
   28.2849998        -8.37637577E-03
   28.3999996        -8.56508408E-03
   28.5149994        -8.81110411E-03
   28.6299992        -9.10658576E-03
   28.7450008        -9.44089424E-03
   28.8600006        -9.80109349E-03
   28.9750004        -1.01726521E-02
   29.0900002        -1.05403196E-02
   29.2049999        -1.08891027E-02
   29.3199997        -1.12052215E-02
   29.4349995        -1.14769684E-02
   29.5499992        -1.16953831E-02
   29.6650009        -1.18546803E-02
   29.7800007        -1.19523834E-02
   29.8950005        -1.19891930E-02
   30.0100002        -1.19685931E-02
   30.1250000        -1.18962731E-02
   30.2399998        -1.17794340E-02
   30.3549995        -1.16260787E-02
   30.4699993        -1.14443712E-02
   30.5849991        -1.12421233E-02
   30.7000008        -1.10264886E-02
   30.8150005        -1.08038587E-02
   30.9300003        -1.05799641E-02
   31.0450001        -1.03601273E-02
   31.1599998        -1.01496195E-02
   31.2749996        -9.95401200E-03
   31.3899994        -9.77945793E-03
   31.5049992        -9.63282213E-03
   31.6200008        -9.52159334E-03
   31.7350006        -9.45356861E-03
   31.8500004        -9.43631958E-03
   31.9650002        -9.47647728E-03
   32.0800018        -9.57891997E-03
   32.1949997        -9.74597596E-03
   32.3100014        -9.97672416E-03
   32.4249992        -1.02665247E-02
   32.5400009        -1.06068524E-02
   32.6549988        -1.09854806E-02
   32.7700005        -1.13870529E-02
   32.8849983        -1.17939841E-02
   33.0000000        -1.21876514E-02
   33.1150017        -1.25497431E-02
   33.2299995        -1.28636546E-02
   33.3450012        -1.31157730E-02
   33.4599991        -1.32965287E-02
   33.5750008        -1.34010967E-02
   33.6899986        -1.34296650E-02
   33.8050003        -1.33872591E-02
   33.9199982        -1.32831046E-02
   34.0349998        -1.31296497E-02
   34.1500015        -1.29413055E-02
   34.2649994        -1.27330814E-02
   34.3800011        -1.25192506E-02
   34.4949989        -1.23121925E-02
   34.6100006        -1.21215507E-02
   34.7249985        -1.19537609E-02
   34.8400002        -1.18120173E-02
   34.9550018        -1.16966395E-02
   35.0699997        -1.16057741E-02
   35.1850014        -1.15363318E-02
   35.2999992        -1.14850122E-02
   35.4150009        -1.14492718E-02
   35.5299988        -1.14280907E-02
   35.6450005        -1.14224395E-02
   35.7599983        -1.14353457E-02
   35.8750000        -1.14715677E-02
   35.9900017        -1.15368897E-02
   36.1049995        -1.16371270E-02
   36.2200012        -1.17769744E-02
   36.3349991        -1.19588524E-02
   36.4500008        -1.21818986E-02
   36.5649986        -1.24412728E-02
   36.6800003        -1.27278958E-02
   36.7949982        -1.30286645E-02
   36.9099998        -1.33271869E-02
   37.0250015        -1.36049660E-02
   37.1399994        -1.38429338E-02
   37.2550011        -1.40231699E-02
   37.3699989        -1.41306268E-02
   37.4850006        -1.41546689E-02
   37.5999985        -1.40902512E-02
   37.7150002        -1.39385862E-02
   37.8300018        -1.37072233E-02
   37.9449997        -1.34095149E-02
   38.0600014        -1.30635127E-02
   38.1749992        -1.26903998E-02
   38.2900009        -1.23126414E-02
   38.4049988        -1.19520230E-02
   38.5200005        -1.16278082E-02
   38.6349983        -1.13551868E-02
   38.7500000        -1.11442097E-02
   38.8650017        -1.09992744E-02
   38.9799995        -1.09192412E-02
   39.0950012        -1.08981216E-02
   39.2099991        -1.09262606E-02
   39.3250008        -1.09918434E-02
   39.4399986        -1.10825533E-02
   39.5550003        -1.11871604E-02
   39.6699982        -1.12968553E-02
   39.7849998        -1.14061637E-02
   39.9000015        -1.15133468E-02
   40.0149994        -1.16202310E-02
   40.1300011        -1.17315147E-02
   40.2449989        -1.18536418E-02
   40.3600006        -1.19933980E-02
   40.4749985        -1.21564260E-02
   40.5900002        -1.23458598E-02
   40.7050018        -1.25612598E-02
   40.8199997        -1.27980132E-02
   40.9350014        -1.30472938E-02
   41.0499992        -1.32966116E-02
   41.1650009        -1.35308970E-02
   41.2799988        -1.37340249E-02
   41.3950005        -1.38905840E-02
   41.5099983        -1.39877079E-02
   41.6250000        -1.40167307E-02
   41.7400017        -1.39744738E-02
   41.8549995        -1.38639864E-02
   41.9700012        -1.36946430E-02
   42.0849991        -1.34815648E-02
   42.2000008        -1.32443886E-02
   42.3149986        -1.30055435E-02
   42.4300003        -1.27881682E-02
   42.5449982        -1.26139373E-02
   42.6599998        -1.25009883E-02
   42.7750015        -1.24622164E-02
   42.8899994        -1.25040896E-02
   43.0050011        -1.26261311E-02
   43.1199989        -1.28211146E-02
   43.2350006        -1.30759478E-02
   43.3499985        -1.33731263E-02
   43.4650002        -1.36926109E-02
   43.5800018        -1.40138892E-02
   43.6949997        -1.43180098E-02
   43.8100014        -1.45893442E-02
   43.9249992        -1.48169007E-02
   44.0400009        -1.49950506E-02
   44.1549988        -1.51235918E-02
   44.2700005        -1.52071826E-02
   44.3849983        -1.52542191E-02
