  -1.50000000        -3.09144961E-18
  -1.38125002         2.65949573E-09
  -1.26250005         1.34637217E-08
  -1.14374995         4.65409116E-08
  -1.02499998         1.34493845E-07
 -0.906250000         3.46728626E-07
 -0.787500024         8.20827040E-07
 -0.668749988         1.81146208E-06
 -0.550000012         3.75915397E-06
 -0.431250006         7.37581377E-06
 -0.312500000         1.37353272E-05
 -0.193749994         2.43466056E-05
  -7.50000030E-02     4.11763358E-05
   4.37499993E-02     6.65829284E-05
  0.162499994         1.03125480E-04
  0.281250000         1.53224319E-04
  0.400000006         2.18672460E-04
  0.518750012         3.00027721E-04
  0.637499988         3.95947776E-04
  0.756250024         5.02559065E-04
  0.875000000         6.12968230E-04
  0.993749976         7.17024319E-04
   1.11249995         8.01423797E-04
   1.23125005         8.50208278E-04
   1.35000002         8.45658942E-04
   1.46875000         7.69528851E-04
   1.58749998         6.04504428E-04
   1.70624995         3.35744640E-04
   1.82500005        -4.76765563E-05
   1.94375002        -5.51595818E-04
   2.06250000        -1.17600057E-03
   2.18125010        -1.91478548E-03
   2.29999995        -2.75606639E-03
   2.41875005        -3.68302222E-03
   2.53749990        -4.67517599E-03
   2.65625000        -5.70996478E-03
   2.77500010        -6.76442217E-03
   2.89374995        -7.81677384E-03
   3.01250005        -8.84776842E-03
   3.13124990        -9.84161068E-03
   3.25000000        -1.07863937E-02
   3.36875010        -1.16740325E-02
   3.48749995        -1.24997413E-02
   3.60625005        -1.32611636E-02
   3.72499990        -1.39573291E-02
   3.84375000        -1.45875998E-02
   3.96250010        -1.51507976E-02
   4.08125019        -1.56446472E-02
   4.19999981        -1.60656404E-02
   4.31874990        -1.64093655E-02
   4.43750000        -1.66712124E-02
   4.55625010        -1.68474205E-02
   4.67500019        -1.69362556E-02
   4.79374981        -1.69391427E-02
   4.91249990        -1.68615747E-02
   5.03125000        -1.67136174E-02
   5.15000010        -1.65098682E-02
   5.26875019        -1.62688587E-02
   5.38749981        -1.60118826E-02
   5.50624990        -1.57613661E-02
   5.62500000        -1.55389588E-02
   5.74375010        -1.53635507E-02
   5.86250019        -1.52494572E-02
   5.98124981        -1.52050015E-02
   6.09999990        -1.52316792E-02
   6.21875000        -1.53240263E-02
   6.33750010        -1.54702244E-02
   6.45625019        -1.56533923E-02
   6.57499981        -1.58534180E-02
   6.69374990        -1.60491429E-02
   6.81250000        -1.62205976E-02
   6.93125010        -1.63511001E-02
   7.05000019        -1.64288934E-02
   7.16874981        -1.64481997E-02
   7.28749990        -1.64095275E-02
   7.40625000        -1.63192376E-02
   7.52500010        -1.61884315E-02
   7.64375019        -1.60313025E-02
   7.76249981        -1.58632044E-02
   7.88124990        -1.56986546E-02
   8.00000000        -1.55495703E-02
   8.11874962        -1.54239349E-02
   8.23750019        -1.53250881E-02
   8.35624981        -1.52517138E-02
   8.47500038        -1.51985101E-02
   8.59375000        -1.51574463E-02
   8.71249962        -1.51194176E-02
   8.83125019        -1.50760524E-02
   8.94999981        -1.50214145E-02
   9.06875038        -1.49533404E-02
   9.18750000        -1.48742227E-02
   9.30624962        -1.47910938E-02
   9.42500019        -1.47149824E-02
   9.54374981        -1.46596078E-02
   9.66250038        -1.46395657E-02
   9.78125000        -1.46682393E-02
   9.89999962        -1.47556970E-02
   10.0187502        -1.49068786E-02
   10.1374998        -1.51203079E-02
   10.2562504        -1.53875286E-02
   10.3750000        -1.56933721E-02
   10.4937496        -1.60170626E-02
   10.6125002        -1.63340364E-02
   10.7312498        -1.66183133E-02
   10.8500004        -1.68451071E-02
   10.9687500        -1.69934072E-02
   11.0874996        -1.70482006E-02
   11.2062502        -1.70020815E-02
   11.3249998        -1.68560464E-02
   11.4437504        -1.66193713E-02
   11.5625000        -1.63086057E-02
   11.6812496        -1.59457922E-02
   11.8000002        -1.55561175E-02
   11.9187498        -1.51653057E-02
   12.0375004        -1.47970365E-02
   12.1562500        -1.44707086E-02
   12.2749996        -1.41998008E-02
   12.3937502        -1.39910104E-02
   12.5124998        -1.38442405E-02
   12.6312504        -1.37534058E-02
   12.7500000        -1.37079414E-02
   12.8687496        -1.36947688E-02
   12.9875002        -1.37004592E-02
   13.1062498        -1.37132984E-02
   13.2250004        -1.37249725E-02
   13.3437500        -1.37316566E-02
   13.4624996        -1.37343528E-02
   13.5812502        -1.37384636E-02
   13.6999998        -1.37526402E-02
   13.8187504        -1.37871029E-02
   13.9375000        -1.38516342E-02
   14.0562496        -1.39535628E-02
   14.1750002        -1.40960105E-02
   14.2937498        -1.42766628E-02
   14.4125004        -1.44872405E-02
   14.5312500        -1.47137893E-02
   14.6499996        -1.49377743E-02
   14.7687502        -1.51378382E-02
   14.8874998        -1.52920689E-02
   15.0062504        -1.53804561E-02
   15.1250000        -1.53872669E-02
   15.2437496        -1.53030353E-02
   15.3625002        -1.51259024E-02
   15.4812498        -1.48621537E-02
   15.6000004        -1.45258596E-02
   15.7187500        -1.41376527E-02
   15.8374996        -1.37227736E-02
   15.9562502        -1.33086210E-02
   16.0750008        -1.29220700E-02
   16.1937504        -1.25868833E-02
   16.3125000        -1.23215001E-02
   16.4312496        -1.21374577E-02
   16.5499992        -1.20386025E-02
   16.6687508        -1.20211728E-02
   16.7875004        -1.20747071E-02
   16.9062500        -1.21836429E-02
   17.0249996        -1.23293912E-02
   17.1437492        -1.24926148E-02
   17.2625008        -1.26554333E-02
   17.3812504        -1.28032714E-02
   17.5000000        -1.29261501E-02
   17.6187496        -1.30192777E-02
   17.7374992        -1.30829010E-02
   17.8562508        -1.31214755E-02
   17.9750004        -1.31422868E-02
   18.0937500        -1.31537523E-02
   18.2124996        -1.31636402E-02
   18.3312492        -1.31774629E-02
   18.4500008        -1.31972814E-02
   18.5687504        -1.32210748E-02
   18.6875000        -1.32427793E-02
   18.8062496        -1.32529847E-02
   18.9249992        -1.32401986E-02
   19.0437508        -1.31925121E-02
   19.1625004        -1.30994394E-02
   19.2812500        -1.29536875E-02
   19.3999996        -1.27526065E-02
   19.5187492        -1.24991238E-02
   19.6375008        -1.22020170E-02
   19.7562504        -1.18754739E-02
   19.8750000        -1.15379756E-02
   19.9937496        -1.12106157E-02
   20.1124992        -1.09150559E-02
   20.2312508        -1.06713437E-02
   20.3500004        -1.04958592E-02
   20.4687500        -1.03996200E-02
   20.5874996        -1.03871413E-02
   20.7062492        -1.04559856E-02
   20.8250008        -1.05970297E-02
   20.9437504        -1.07954293E-02
   21.0625000        -1.10321306E-02
   21.1812496        -1.12857772E-02
   21.2999992        -1.15347505E-02
   21.4187508        -1.17591461E-02
   21.5375004        -1.19424425E-02
   21.6562500        -1.20727075E-02
   21.7749996        -1.21432226E-02
   21.8937492        -1.21525070E-02
   22.0125008        -1.21037634E-02
   22.1312504        -1.20038781E-02
   22.2500000        -1.18621225E-02
   22.3687496        -1.16887381E-02
   22.4874992        -1.14936270E-02
   22.6062508        -1.12852836E-02
   22.7250004        -1.10701071E-02
   22.8437500        -1.08521730E-02
   22.9624996        -1.06334407E-02
   23.0812492        -1.04143526E-02
   23.2000008        -1.01946928E-02
   23.3187504        -9.97456629E-03
   23.4375000        -9.75531992E-03
   23.5562496        -9.54025146E-03
   23.6749992        -9.33500007E-03
   23.7937508        -9.14751459E-03
   23.9125004        -8.98760371E-03
   24.0312500        -8.86611454E-03
   24.1499996        -8.79381597E-03
   24.2687492        -8.78015161E-03
   24.3875008        -8.83200113E-03
   24.5062504        -8.95261485E-03
   24.6250000        -9.14087053E-03
   24.7437496        -9.39093716E-03
   24.8624992        -9.69241746E-03
   24.9812508        -1.00309392E-02
   25.1000004        -1.03891632E-02
   25.2187500        -1.07480753E-02
   25.3374996        -1.10884309E-02
   25.4562492        -1.13922032E-02
   25.5750008        -1.16438679E-02
   25.6937504        -1.18314121E-02
   25.8125000        -1.19469743E-02
   25.9312496        -1.19870678E-02
   26.0499992        -1.19524132E-02
   26.1687508        -1.18474271E-02
   26.2875004        -1.16794687E-02
   26.4062500        -1.14579555E-02
   26.5249996        -1.11934729E-02
   26.6437492        -1.08969845E-02
   26.7625008        -1.05792293E-02
   26.8812504        -1.02503309E-02
   27.0000000        -9.91965551E-03
   27.1187496        -9.59586166E-03
   27.2374992        -9.28707793E-03
   27.3562508        -9.00114793E-03
   27.4750004        -8.74582864E-03
   27.5937500        -8.52888077E-03
   27.7124996        -8.35798774E-03
   27.8312492        -8.24048277E-03
   27.9500008        -8.18288606E-03
   28.0687504        -8.19031149E-03
   28.1875000        -8.26581102E-03
   28.3062496        -8.40975624E-03
   28.4249992        -8.61935318E-03
   28.5437508        -8.88838712E-03
   28.6625004        -9.20725055E-03
   28.7812500        -9.56330355E-03
   28.8999996        -9.94153693E-03
   29.0187492        -1.03254924E-02
   29.1375008        -1.06983529E-02
   29.2562504        -1.10440953E-02
   29.3750000        -1.13485698E-02
   29.4937496        -1.16004124E-02
   29.6124992        -1.17916800E-02
   29.7312508        -1.19181555E-02
   29.8500004        -1.19793164E-02
   29.9687500        -1.19779697E-02
   30.0874996        -1.19196353E-02
   30.2062492        -1.18117668E-02
   30.3250008        -1.16629163E-02
   30.4437504        -1.14819575E-02
   30.5625000        -1.12774605E-02
   30.6812496        -1.10572949E-02
   30.7999992        -1.08284866E-02
   30.9187508        -1.05973240E-02
   31.0375004        -1.03696557E-02
   31.1562500        -1.01513015E-02
   31.2749996        -9.94847436E-03
   31.3937492        -9.76810139E-03
   31.5125008        -9.61794890E-03
   31.6312504        -9.50649194E-03
   31.7500000        -9.44249239E-03
   31.8687496        -9.43432003E-03
   31.9874992        -9.48907062E-03
   32.1062508        -9.61159822E-03
   32.2249985        -9.80358664E-03
   32.3437500        -1.00627942E-02
   32.4625015        -1.03826085E-02
   32.5812492        -1.07519953E-02
   32.7000008        -1.11558996E-02
   32.8187485        -1.15760965E-02
   32.9375000        -1.19924266E-02
   33.0562515        -1.23843066E-02
   33.1749992        -1.27323745E-02
   33.2937508        -1.30200740E-02
   33.4124985        -1.32350232E-02
   33.5312500        -1.33700082E-02
   33.6500015        -1.34234745E-02
   33.7687492        -1.33994762E-02
   33.8875008        -1.33070750E-02
   34.0062485        -1.31592667E-02
   34.1250000        -1.29715651E-02
   34.2437515        -1.27604026E-02
   34.3624992        -1.25415558E-02
   34.4812508        -1.23287598E-02
   34.5999985        -1.21326903E-02
   34.7187500        -1.19604031E-02
   34.8375015        -1.18152937E-02
   34.9562492        -1.16975410E-02
   35.0750008        -1.16049647E-02
   35.1937485        -1.15341339E-02
   35.3125000        -1.14815766E-02
   35.4312515        -1.14448834E-02
   35.5499992        -1.14235478E-02
   35.6687508        -1.14193996E-02
   35.7874985        -1.14365593E-02
   35.9062500        -1.14809051E-02
   36.0250015        -1.15591129E-02
   36.1437492        -1.16773946E-02
   36.2625008        -1.18401116E-02
   36.3812485        -1.20484605E-02
   36.5000000        -1.22994427E-02
   36.6187515        -1.25852777E-02
   36.7374992        -1.28933843E-02
   36.8562508        -1.32069886E-02
   36.9749985        -1.35063073E-02
   37.0937500        -1.37702255E-02
   37.2125015        -1.39782680E-02
   37.3312492        -1.41126579E-02
   37.4500008        -1.41602093E-02
   37.5687485        -1.41138416E-02
   37.6875000        -1.39735043E-02
   37.8062515        -1.37464004E-02
   37.9249992        -1.34464633E-02
   38.0437508        -1.30931363E-02
   38.1624985        -1.27095692E-02
   38.2812500        -1.23204514E-02
   38.4000015        -1.19497171E-02
   38.5187492        -1.16183767E-02
   38.6375008        -1.13427313E-02
   38.7562485        -1.11331604E-02
   38.8750000        -1.09936148E-02
   38.9937515        -1.09218536E-02
   39.1124992        -1.09103722E-02
   39.2312508        -1.09478887E-02
   39.3499985        -1.10211782E-02
   39.4687500        -1.11170132E-02
   39.5875015        -1.12239560E-02
   39.7062492        -1.13337683E-02
   39.8250008        -1.14422515E-02
   39.9437485        -1.15494346E-02
   40.0625000        -1.16590848E-02
   40.1812515        -1.17776226E-02
   40.2999992        -1.19126001E-02
   40.4187508        -1.20709715E-02
   40.5374985        -1.22573972E-02
   40.6562500        -1.24728344E-02
   40.7750015        -1.27136288E-02
   40.8937492        -1.29712522E-02
   41.0125008        -1.32327536E-02
   41.1312485        -1.34818954E-02
   41.2500000        -1.37008419E-02
   41.3687515        -1.38722192E-02
   41.4874992        -1.39812687E-02
   41.6062508        -1.40178436E-02
   41.7249985        -1.39779672E-02
   41.8437500        -1.38647482E-02
   41.9625015        -1.36885224E-02
   42.0812492        -1.34661496E-02
   42.2000008        -1.32195586E-02
   42.3187485        -1.29736699E-02
   42.4375000        -1.27539318E-02
   42.5562515        -1.25837531E-02
   42.6749992        -1.24821393E-02
   42.7937508        -1.24617843E-02
   42.9124985        -1.25278607E-02
   43.0312500        -1.26776313E-02
   43.1500015        -1.29009327E-02
   43.2687492        -1.31814498E-02
   43.3875008        -1.34986313E-02
   43.5062485        -1.38300080E-02
   43.6250000        -1.41536351E-02
   43.7437515        -1.44503480E-02
   43.8624992        -1.47055928E-02
   43.9812508        -1.49106085E-02
   44.0999985        -1.50628397E-02
   44.2187500        -1.51655534E-02
   44.3375015        -1.52267432E-02
   44.4562492        -1.52574824E-02
   44.5750008        -1.52699603E-02
   44.6937485        -1.52754690E-02
   44.8125000        -1.52826188E-02
   44.9312515        -1.52960243E-02
   45.0499992        -1.53156193E-02
   45.1687508        -1.53367128E-02
   45.2874985        -1.53507506E-02
   45.4062500        -1.53466975E-02
   45.5250015        -1.53128356E-02
   45.6437492        -1.52387349E-02
   45.7625008        -1.51171433E-02
   45.8812485        -1.49454996E-02
