  -1.50000000       0.00000000    
  -1.38499999       2.30799690E-09
  -1.26999998       1.09526628E-08
  -1.15499997       3.56323611E-08
  -1.03999996       9.77314443E-08
 -0.925000012       2.41059695E-07
 -0.810000002       5.49415063E-07
 -0.694999993       1.17266507E-06
 -0.579999983       2.36145979E-06
 -0.465000004       4.50763400E-06
 -0.349999994       8.18307308E-06
 -0.234999999       1.41652545E-05
 -0.119999997       2.34343788E-05
  -4.99999989E-03   3.71265633E-05
  0.109999999       5.64309630E-05
  0.224999994       8.24257950E-05
  0.340000004       1.15857991E-04
  0.455000013       1.56882015E-04
  0.569999993       2.04783268E-04
  0.685000002       2.57720065E-04
  0.800000012       3.12522752E-04
  0.915000021       3.64589505E-04
   1.02999997       4.07913554E-04
   1.14499998       4.35265130E-04
   1.25999999       4.38535324E-04
   1.37500000       4.09228291E-04
   1.49000001       3.39066726E-04
   1.60500002       2.20656468E-04
   1.72000003       4.81440729E-05
   1.83500004      -1.82204880E-04
   1.95000005      -4.71573061E-04
   2.06500006      -8.18357745E-04
   2.18000007      -1.21816841E-03
   2.29500008      -1.66406110E-03
   2.41000009      -2.14699004E-03
   2.52500010      -2.65642744E-03
   2.64000010      -3.18108732E-03
   2.75500011      -3.70967411E-03
   2.86999989      -4.23157495E-03
   2.98499990      -4.73742466E-03
   3.09999990      -5.21948421E-03
   3.21499991      -5.67180663E-03
   3.32999992      -6.09018374E-03
   3.44499993      -6.47189980E-03
   3.55999994      -6.81534037E-03
   3.67499995      -7.11953640E-03
   3.78999996      -7.38370512E-03
   3.90499997      -7.60687701E-03
   4.01999998      -7.78766535E-03
   4.13500023      -7.92422146E-03
   4.25000000      -8.01439304E-03
   4.36499977      -8.05606134E-03
   4.48000002      -8.04762263E-03
   4.59499979      -7.98853580E-03
   4.71000004      -7.87985977E-03
   4.82499981      -7.72469351E-03
   4.94000006      -7.52843637E-03
   5.05499983      -7.29881600E-03
   5.17000008      -7.04564480E-03
   5.28499985      -6.78031240E-03
   5.40000010      -6.51504565E-03
   5.51499987      -6.26200577E-03
   5.63000011      -6.03231182E-03
   5.74499989      -5.83509915E-03
   5.86000013      -5.67671889E-03
   5.97499990      -5.56017412E-03
   6.09000015      -5.48486179E-03
   6.20499992      -5.44666778E-03
   6.32000017      -5.43840136E-03
   6.43499994      -5.45054069E-03
   6.55000019      -5.47220279E-03
   6.66499996      -5.49223972E-03
   6.78000021      -5.50034177E-03
   6.89499998      -5.48801804E-03
   7.01000023      -5.44936117E-03
   7.12500000      -5.38150314E-03
   7.23999977      -5.28472289E-03
   7.35500002      -5.16220089E-03
   7.46999979      -5.01945894E-03
   7.58500004      -4.86355973E-03
   7.69999981      -4.70216852E-03
   7.81500006      -4.54259431E-03
   7.92999983      -4.39093402E-03
   8.04500008      -4.25141817E-03
   8.15999985      -4.12604166E-03
   8.27499962      -4.01451765E-03
   8.39000034      -3.91456252E-03
   8.50500011      -3.82245914E-03
   8.61999989      -3.73382843E-03
   8.73499966      -3.64449969E-03
   8.85000038      -3.55136092E-03
   8.96500015      -3.45306704E-03
   9.07999992      -3.35050817E-03
   9.19499969      -3.24696302E-03
   9.31000042      -3.14790709E-03
   9.42500019      -3.06048361E-03
   9.53999996      -2.99269916E-03
   9.65499973      -2.95242923E-03
   9.77000046      -2.94635957E-03
   9.88500023      -2.97898822E-03
   10.0000000      -3.05181905E-03
   10.1149998      -3.16285063E-03
   10.2299995      -3.30643612E-03
   10.3450003      -3.47354542E-03
   10.4600000      -3.65241314E-03
   10.5749998      -3.82951437E-03
   10.6899996      -3.99076566E-03
   10.8050003      -4.12282441E-03
   10.9200001      -4.21434455E-03
   11.0349998      -4.25705453E-03
   11.1499996      -4.24653292E-03
   11.2650003      -4.18259902E-03
   11.3800001      -4.06927755E-03
   11.4949999      -3.91434319E-03
   11.6099997      -3.72849707E-03
   11.7250004      -3.52427247E-03
   11.8400002      -3.31479521E-03
   11.9549999      -3.11253825E-03
   12.0699997      -2.92820483E-03
   12.1850004      -2.76986556E-03
   12.3000002      -2.64243293E-03
   12.4150000      -2.54751975E-03
   12.5299997      -2.48368294E-03
   12.6450005      -2.44700257E-03
   12.7600002      -2.43191537E-03
   12.8750000      -2.43218523E-03
   12.9899998      -2.44188518E-03
   13.1049995      -2.45626434E-03
   13.2200003      -2.47239182E-03
   13.3350000      -2.48949789E-03
   13.4499998      -2.50897114E-03
   13.5649996      -2.53402209E-03
   13.6800003      -2.56905588E-03
   13.7950001      -2.61884183E-03
   13.9099998      -2.68759066E-03
   14.0249996      -2.77806423E-03
   14.1400003      -2.89083971E-03
   14.2550001      -3.02382559E-03
   14.3699999      -3.17210960E-03
   14.4849997      -3.32816341E-03
   14.6000004      -3.48239369E-03
   14.7150002      -3.62398755E-03
   14.8299999      -3.74195585E-03
   14.9449997      -3.82626313E-03
   15.0600004      -3.86891142E-03
   15.1750002      -3.86485946E-03
   15.2900000      -3.81266396E-03
   15.4049997      -3.71477404E-03
   15.5200005      -3.57743842E-03
   15.6350002      -3.41023202E-03
   15.7500000      -3.22525413E-03
   15.8649998      -3.03608016E-03
   15.9799995      -2.85657938E-03
   16.0949993      -2.69972486E-03
   16.2099991      -2.57651857E-03
   16.3250008      -2.49513960E-03
   16.4400005      -2.46039615E-03
   16.5550003      -2.47353083E-03
   16.6700001      -2.53237714E-03
   16.7849998      -2.63183983E-03
   16.8999996      -2.76462547E-03
   17.0149994      -2.92212795E-03
   17.1299992      -3.09536490E-03
   17.2450008      -3.27585358E-03
   17.3600006      -3.45633086E-03
   17.4750004      -3.63124418E-03
   17.5900002      -3.79697327E-03
   17.7049999      -3.95177538E-03
   17.8199997      -4.09548031E-03
   17.9349995      -4.22899565E-03
   18.0499992      -4.35369974E-03
   18.1650009      -4.47081309E-03
   18.2800007      -4.58084419E-03
   18.3950005      -4.68317838E-03
   18.5100002      -4.77587851E-03
   18.6250000      -4.85572079E-03
   18.7399998      -4.91846679E-03
   18.8549995      -4.95933415E-03
   18.9699993      -4.97361505E-03
   19.0849991      -4.95735696E-03
   19.2000008      -4.90802387E-03
   19.3150005      -4.82505094E-03
   19.4300003      -4.71021794E-03
   19.5450001      -4.56779590E-03
   19.6599998      -4.40443447E-03
   19.7749996      -4.22879914E-03
   19.8899994      -4.05098498E-03
   20.0049992      -3.88177414E-03
   20.1200008      -3.73180164E-03
   20.2350006      -3.61071900E-03
   20.3500004      -3.52644012E-03
   20.4650002      -3.48453666E-03
   20.5799999      -3.48784588E-03
   20.6949997      -3.53631866E-03
   20.8099995      -3.62711493E-03
   20.9249992      -3.75492824E-03
   21.0400009      -3.91249452E-03
   21.1550007      -4.09122743E-03
   21.2700005      -4.28191246E-03
   21.3850002      -4.47538681E-03
   21.5000000      -4.66314517E-03
   21.6149998      -4.83781798E-03
   21.7299995      -4.99349181E-03
   21.8449993      -5.12586487E-03
   21.9599991      -5.23223216E-03
   22.0750008      -5.31134522E-03
   22.1900005      -5.36316680E-03
   22.3050003      -5.38857654E-03
   22.4200001      -5.38906921E-03
   22.5349998      -5.36648976E-03
   22.6499996      -5.32283308E-03
   22.7649994      -5.26012853E-03
   22.8799992      -5.18041197E-03
   22.9950008      -5.08577889E-03
   23.1100006      -4.97849146E-03
   23.2250004      -4.86111129E-03
   23.3400002      -4.73662652E-03
   23.4549999      -4.60854033E-03
   23.5699997      -4.48089419E-03
   23.6849995      -4.35821107E-03
   23.7999992      -4.24535526E-03
   23.9150009      -4.14731307E-03
   24.0300007      -4.06891759E-03
   24.1450005      -4.01454000E-03
   24.2600002      -3.98778217E-03
   24.3750000      -3.99119826E-03
   24.4899998      -4.02607908E-03
   24.6049995      -4.09231149E-03
   24.7199993      -4.18833736E-03
   24.8349991      -4.31120396E-03
   24.9500008      -4.45670495E-03
   25.0650005      -4.61959792E-03
   25.1800003      -4.79387166E-03
   25.2950001      -4.97305254E-03
   25.4099998      -5.15050627E-03
   25.5249996      -5.31973783E-03
   25.6399994      -5.47465263E-03
   25.7549992      -5.60978008E-03
   25.8700008      -5.72045194E-03
   25.9850006      -5.80293266E-03
   26.1000004      -5.85451489E-03
   26.2150002      -5.87357813E-03
   26.3299999      -5.85962599E-03
   26.4449997      -5.81329875E-03
   26.5599995      -5.73636964E-03
   26.6749992      -5.63172018E-03
   26.7900009      -5.50328754E-03
   26.9050007      -5.35597187E-03
   27.0200005      -5.19550638E-03
   27.1350002      -5.02827344E-03
   27.2500000      -4.86106751E-03
   27.3649998      -4.70081065E-03
   27.4799995      -4.55423165E-03
   27.5949993      -4.42752521E-03
   27.7099991      -4.32601199E-03
   27.8250008      -4.25382936E-03
   27.9400005      -4.21368191E-03
   28.0550003      -4.20666672E-03
   28.1700001      -4.23220498E-03
   28.2849998      -4.28808248E-03
   28.3999996      -4.37060185E-03
   28.5149994      -4.47483966E-03
   28.6299992      -4.59498260E-03
   28.7450008      -4.72472003E-03
   28.8600006      -4.85765049E-03
   28.9750004      -4.98766918E-03
   29.0900002      -5.10929944E-03
   29.2049999      -5.21794194E-03
   29.3199997      -5.31001762E-03
   29.4349995      -5.38300443E-03
   29.5499992      -5.43536944E-03
   29.6650009      -5.46642113E-03
   29.7800007      -5.47610596E-03
   29.8950005      -5.46478853E-03
   30.0100002      -5.43304859E-03
   30.1250000      -5.38153015E-03
   30.2399998      -5.31086652E-03
   30.3549995      -5.22169238E-03
   30.4699993      -5.11474442E-03
   30.5849991      -4.99103684E-03
   30.7000008      -4.85208165E-03
   30.8150005      -4.70011961E-03
   30.9300003      -4.53832047E-03
   31.0450001      -4.37091244E-03
   31.1599998      -4.20319987E-03
   31.2749996      -4.04145243E-03
   31.3899994      -3.89265176E-03
   31.5049992      -3.76410317E-03
   31.6200008      -3.66294058E-03
   31.7350006      -3.59556684E-03
   31.8500004      -3.56707862E-03
   31.9650002      -3.58074368E-03
   32.0800018      -3.63758183E-03
   32.1949997      -3.73610808E-03
   32.3100014      -3.87227000E-03
   32.4249992      -4.03960189E-03
   32.5400009      -4.22958937E-03
   32.6549988      -4.43221675E-03
   32.7700005      -4.63665929E-03
   32.8849983      -4.83204890E-03
   33.0000000      -5.00824861E-03
   33.1150017      -5.15656220E-03
   33.2299995      -5.27031394E-03
   33.3450012      -5.34524070E-03
   33.4599991      -5.37967030E-03
   33.5750008      -5.37446281E-03
   33.6899986      -5.33273909E-03
   33.8050003      -5.25942724E-03
   33.9199982      -5.16067632E-03
   34.0349998      -5.04321326E-03
   34.1500015      -4.91371192E-03
   34.2649994      -4.77823988E-03
   34.3800011      -4.64184489E-03
   34.4949989      -4.50831885E-03
   34.6100006      -4.38015489E-03
   34.7249985      -4.25869087E-03
   34.8400002      -4.14440595E-03
   34.9550018      -4.03732387E-03
   35.0699997      -3.93745303E-03
   35.1850014      -3.84520344E-03
   35.2999992      -3.76170967E-03
   35.4150009      -3.68901202E-03
   35.5299988      -3.63005931E-03
   35.6450005      -3.58852372E-03
   35.7599983      -3.56844231E-03
   35.8750000      -3.57371848E-03
   35.9900017      -3.60754598E-03
   36.1049995      -3.67182097E-03
   36.2200012      -3.76661960E-03
   36.3349991      -3.88981169E-03
   36.4500008      -4.03687032E-03
   36.5649986      -4.20091627E-03
   36.6800003      -4.37301118E-03
   36.7949982      -4.54268511E-03
   36.9099998      -4.69865697E-03
   37.0250015      -4.82968288E-03
   37.1399994      -4.92545357E-03
   37.2550011      -4.97744605E-03
   37.3699989      -4.97965328E-03
   37.4850006      -4.92910296E-03
   37.5999985      -4.82612336E-03
   37.7150002      -4.67432290E-03
   37.8300018      -4.48028231E-03
   37.9449997      -4.25299862E-03
   38.0600014      -4.00312943E-03
   38.1749992      -3.74211930E-03
   38.2900009      -3.48129636E-03
   38.4049988      -3.23102809E-03
   38.5200005      -3.00001539E-03
   38.6349983      -2.79479590E-03
   38.7500000      -2.61948933E-03
   38.8650017      -2.47580442E-03
   38.9799995      -2.36328738E-03
   39.0950012      -2.27976916E-03
   39.2099991      -2.22194940E-03
   39.3250008      -2.18603737E-03
   39.4399986      -2.16836575E-03
   39.5550003      -2.16590730E-03
   39.6699982      -2.17662402E-03
   39.7849998      -2.19961698E-03
   39.9000015      -2.23505730E-03
   40.0149994      -2.28391844E-03
   40.1300011      -2.34754616E-03
   40.2449989      -2.42713070E-03
   40.3600006      -2.52315565E-03
   40.4749985      -2.63490132E-03
   40.5900002      -2.76007759E-03
   40.7050018      -2.89464276E-03
   40.8199997      -3.03284638E-03
   40.9350014      -3.16750677E-03
   41.0499992      -3.29049979E-03
   41.1650009      -3.39342258E-03
   41.2799988      -3.46835656E-03
   41.3950005      -3.50865419E-03
   41.5099983      -3.50966025E-03
   41.6250000      -3.46928718E-03
   41.7400017      -3.38837551E-03
   41.8549995      -3.27079301E-03
   41.9700012      -3.12325289E-03
   42.0849991      -2.95486185E-03
   42.2000008      -2.77643721E-03
   42.3149986      -2.59965821E-03
   42.4300003      -2.43613217E-03
   42.5449982      -2.29646941E-03
   42.6599998      -2.18945346E-03
   42.7750015      -2.12139194E-03
   42.8899994      -2.09570350E-03
   43.0050011      -2.11277814E-03
   43.1199989      -2.17011734E-03
   43.2350006      -2.26272759E-03
   43.3499985      -2.38372129E-03
   43.4650002      -2.52505066E-03
   43.5800018      -2.67829746E-03
   43.6949997      -2.83542881E-03
   43.8100014      -2.98944721E-03
   43.9249992      -3.13486601E-03
   44.0400009      -3.26797389E-03
   44.1549988      -3.38687003E-03
   44.2700005      -3.49128386E-03
   44.3849983      -3.58221307E-03
