  -1.50000000         5.21952786E-18
  -1.38125002         1.10610121E-09
  -1.26250005         5.99424110E-09
  -1.14374995         2.19034231E-08
  -1.02499998         6.59933548E-08
 -0.906250000         1.75622944E-07
 -0.787500024         4.26557193E-07
 -0.668749988         9.62519152E-07
 -0.550000012         2.03875811E-06
 -0.431250006         4.07957668E-06
 -0.312500000         7.74448745E-06
 -0.193749994         1.39900949E-05
  -7.50000030E-02     2.41063335E-05
   4.37499993E-02     3.96989781E-05
  0.162499994         6.25885950E-05
  0.281250000         9.46022919E-05
  0.400000006         1.37249604E-04
  0.518750012         1.91296989E-04
  0.637499988         2.56281608E-04
  0.756250024         3.30030132E-04
  0.875000000         4.08264226E-04
  0.993749976         4.84376767E-04
   1.11249995         5.49451041E-04
   1.23125005         5.92566386E-04
   1.35000002         6.01395965E-04
   1.46875000         5.63060166E-04
   1.58749998         4.65157646E-04
   1.70624995         2.96866812E-04
   1.82500005         4.99920097E-05
   1.94375002        -2.80170265E-04
   2.06250000        -6.94253074E-04
   2.18125010        -1.18860451E-03
   2.29999995        -1.75546890E-03
   2.41875005        -2.38354877E-03
   2.53749990        -3.05888476E-03
   2.65625000        -3.76595184E-03
   2.77500010        -4.48884489E-03
   2.89374995        -5.21241687E-03
   3.01250005        -5.92324045E-03
   3.13124990        -6.61028828E-03
   3.25000000        -7.26527674E-03
   3.36875010        -7.88264163E-03
   3.48749995        -8.45919549E-03
   3.60625005        -8.99352226E-03
   3.72499990        -9.48524289E-03
   3.84375000        -9.93425120E-03
   3.96250010        -1.03400731E-02
   4.08125019        -1.07014263E-02
   4.19999981        -1.10160839E-02
   4.31874990        -1.12810405E-02
   4.43750000        -1.14929862E-02
   4.55625010        -1.16489902E-02
   4.67500019        -1.17473165E-02
   4.79374981        -1.17882201E-02
   4.91249990        -1.17746033E-02
   5.03125000        -1.17124049E-02
   5.15000010        -1.16106346E-02
   5.26875019        -1.14810159E-02
   5.38749981        -1.13372421E-02
   5.50624990        -1.11939190E-02
   5.62500000        -1.10652940E-02
   5.74375010        -1.09639270E-02
   5.86250019        -1.08994599E-02
   5.98124981        -1.08776418E-02
   6.09999990        -1.08997338E-02
   6.21875000        -1.09623829E-02
   6.33750010        -1.10579953E-02
   6.45625019        -1.11755654E-02
   6.57499981        -1.13018835E-02
   6.69374990        -1.14229806E-02
   6.81250000        -1.15256300E-02
   6.93125010        -1.15987491E-02
   7.05000019        -1.16345175E-02
   7.16874981        -1.16290897E-02
   7.28749990        -1.15828244E-02
   7.40625000        -1.15000112E-02
   7.52500010        -1.13881305E-02
   7.64375019        -1.12567702E-02
   7.76249981        -1.11163305E-02
   7.88124990        -1.09766889E-02
   8.00000000        -1.08460076E-02
   8.11874962        -1.07298363E-02
   8.23750019        -1.06306160E-02
   8.35624981        -1.05476491E-02
   8.47500038        -1.04775298E-02
   8.59375000        -1.04149561E-02
   8.71249962        -1.03538204E-02
   8.83125019        -1.02883978E-02
   8.94999981        -1.02144750E-02
   9.06875038        -1.01302527E-02
   9.18750000        -1.00368643E-02
   9.30624962        -9.93846636E-03
   9.42500019        -9.84182861E-03
   9.54374981        -9.75549966E-03
   9.66250038        -9.68864467E-03
   9.78125000        -9.64968931E-03
   9.89999962        -9.64496937E-03
   10.0187502        -9.67756379E-03
   10.1374998        -9.74646956E-03
   10.2562504        -9.84625891E-03
   10.3750000        -9.96726658E-03
   10.4937496        -1.00963200E-02
   10.6125002        -1.02179386E-02
   10.7312498        -1.03158569E-02
   10.8500004        -1.03747211E-02
   10.9687500        -1.03817359E-02
   11.0874996        -1.03280665E-02
   11.2062502        -1.02098435E-02
   11.3249998        -1.00286258E-02
   11.4437504        -9.79127269E-03
   11.5625000        -9.50924866E-03
   11.6812496        -9.19742137E-03
   11.8000002        -8.87252670E-03
   11.9187498        -8.55146255E-03
   12.0375004        -8.24962463E-03
   12.1562500        -7.97947869E-03
   12.2749996        -7.74953375E-03
   12.3937502        -7.56382197E-03
   12.5124998        -7.42193870E-03
   12.6312504        -7.31960405E-03
   12.7500000        -7.24966545E-03
   12.8687496        -7.20338989E-03
   12.9875002        -7.17186229E-03
   13.1062498        -7.14730704E-03
   13.2250004        -7.12414598E-03
   13.3437500        -7.09966896E-03
   13.4624996        -7.07421638E-03
   13.5812502        -7.05087418E-03
   13.6999998        -7.03471852E-03
   13.8187504        -7.03173131E-03
   13.9375000        -7.04753492E-03
   14.0562496        -7.08614103E-03
   14.1750002        -7.14888237E-03
   14.2937498        -7.23369187E-03
   14.4125004        -7.33484700E-03
   14.5312500        -7.44322129E-03
   14.6499996        -7.54703674E-03
   14.7687502        -7.63302995E-03
   14.8874998        -7.68789789E-03
   15.0062504        -7.69984303E-03
   15.1250000        -7.66002946E-03
   15.2437496        -7.56376097E-03
   15.3625002        -7.41123315E-03
   15.4812498        -7.20775453E-03
   15.6000004        -6.96340529E-03
   15.7187500        -6.69216039E-03
   15.8374996        -6.41057780E-03
   15.9562502        -6.13620505E-03
   16.0750008        -5.88588137E-03
   16.1937504        -5.67413773E-03
   16.3125000        -5.51187387E-03
   16.4312496        -5.40545955E-03
   16.5499992        -5.35635557E-03
   16.6687508        -5.36127808E-03
   16.7875004        -5.41287567E-03
   16.9062500        -5.50081534E-03
   17.0249996        -5.61313238E-03
   17.1437492        -5.73767256E-03
   17.2625008        -5.86344302E-03
   17.3812504        -5.98171307E-03
   17.5000000        -6.08673599E-03
   17.6187496        -6.17602561E-03
   17.7374992        -6.25016820E-03
   17.8562508        -6.31222408E-03
   17.9750004        -6.36682054E-03
   18.0937500        -6.41907100E-03
   18.2124996        -6.47348724E-03
   18.3312492        -6.53303321E-03
   18.4500008        -6.59846142E-03
   18.5687504        -6.66801911E-03
   18.6875000        -6.73757074E-03
   18.8062496        -6.80111302E-03
   18.9249992        -6.85162190E-03
   19.0437508        -6.88210223E-03
   19.1625004        -6.88670902E-03
   19.2812500        -6.86177192E-03
   19.3999996        -6.80659339E-03
   19.5187492        -6.72389334E-03
   19.6375008        -6.61983760E-03
   19.7562504        -6.50363090E-03
   19.8750000        -6.38671732E-03
   19.9937496        -6.28167531E-03
   20.1124992        -6.20093150E-03
   20.2312508        -6.15545921E-03
   20.3500004        -6.15359610E-03
   20.4687500        -6.20013848E-03
   20.5874996        -6.29580673E-03
   20.7062492        -6.43714145E-03
   20.8250008        -6.61684712E-03
   20.9437504        -6.82452461E-03
   21.0625000        -7.04771187E-03
   21.1812496        -7.27310544E-03
   21.2999992        -7.48781068E-03
   21.4187508        -7.68049667E-03
   21.5375004        -7.84231443E-03
   21.6562500        -7.96749722E-03
   21.7749996        -8.05358961E-03
   21.8937492        -8.10130872E-03
   22.0125008        -8.11408088E-03
   22.1312504        -8.09732359E-03
   22.2500000        -8.05760920E-03
   22.3687496        -8.00179783E-03
   22.4874992        -7.93626998E-03
   22.6062508        -7.86635280E-03
   22.7250004        -7.79599184E-03
   22.8437500        -7.72770261E-03
   22.9624996        -7.66277174E-03
   23.0812492        -7.60166999E-03
   23.2000008        -7.54458038E-03
   23.3187504        -7.49195786E-03
   23.4375000        -7.44501315E-03
   23.5562496        -7.40604289E-03
   23.6749992        -7.37854093E-03
   23.7937508        -7.36706145E-03
   23.9125004        -7.37685012E-03
   24.0312500        -7.41327833E-03
   24.1499996        -7.48115545E-03
   24.2687492        -7.58401398E-03
   24.3875008        -7.72345718E-03
   24.5062504        -7.89866690E-03
   24.6250000        -8.10613763E-03
   24.7437496        -8.33968632E-03
   24.8624992        -8.59073643E-03
   24.9812508        -8.84886459E-03
   25.1000004        -9.10253916E-03
   25.2187500        -9.33998451E-03
   25.3374996        -9.55006201E-03
   25.4562492        -9.72309336E-03
   25.5750008        -9.85152274E-03
   25.6937504        -9.93036479E-03
   25.8125000        -9.95741133E-03
   25.9312496        -9.93317645E-03
   26.0499992        -9.86062363E-03
   26.1687508        -9.74471867E-03
   26.2875004        -9.59187467E-03
   26.4062500        -9.40937549E-03
   26.5249996        -9.20483842E-03
   26.6437492        -8.98577552E-03
   26.7625008        -8.75929836E-03
   26.8812504        -8.53196438E-03
   27.0000000        -8.30976292E-03
   27.1187496        -8.09820183E-03
   27.2374992        -7.90244248E-03
   27.3562508        -7.72743020E-03
   27.4750004        -7.57796830E-03
   27.5937500        -7.45869288E-03
   27.7124996        -7.37393182E-03
   27.8312492        -7.32743926E-03
   27.9500008        -7.32204691E-03
   28.0687504        -7.35926116E-03
   28.1875000        -7.43887620E-03
   28.3062496        -7.55866012E-03
   28.4249992        -7.71418074E-03
   28.5437508        -7.89880939E-03
   28.6625004        -8.10393319E-03
   28.7812500        -8.31937417E-03
   28.8999996        -8.53398070E-03
   29.0187492        -8.73635244E-03
   29.1375008        -8.91560968E-03
   29.2562504        -9.06214584E-03
   29.3750000        -9.16826352E-03
   29.4937496        -9.22865327E-03
   29.6124992        -9.24063660E-03
   29.7312508        -9.20417625E-03
   29.8500004        -9.12166107E-03
   29.9687500        -8.99747852E-03
   30.0874996        -8.83747078E-03
   30.2062492        -8.64831544E-03
   30.3250008        -8.43692850E-03
   30.4437504        -8.20996333E-03
   30.5625000        -7.97345117E-03
   30.6812496        -7.73261767E-03
   30.7999992        -7.49189546E-03
   30.9187508        -7.25508481E-03
   31.0375004        -7.02563487E-03
   31.1562500        -6.80696359E-03
   31.2749996        -6.60275016E-03
   31.3937492        -6.41712965E-03
   31.5125008        -6.25473307E-03
   31.6312504        -6.12053787E-03
   31.7500000        -6.01953315E-03
   31.8687496        -5.95622696E-03
   31.9874992        -5.93404938E-03
   32.1062508        -5.95473824E-03
   32.2249985        -6.01778785E-03
   32.3437500        -6.12006104E-03
   32.4625015        -6.25562901E-03
   32.5812492        -6.41589379E-03
   32.7000008        -6.59000967E-03
   32.8187485        -6.76557794E-03
   32.9375000        -6.92956476E-03
   33.0562515        -7.06934324E-03
   33.1749992        -7.17376079E-03
   33.2937508        -7.23410770E-03
   33.4124985        -7.24487752E-03
   33.5312500        -7.20423693E-03
   33.6500015        -7.11413659E-03
   33.7687492        -6.98005967E-03
   33.8875008        -6.81042532E-03
   34.0062485        -6.61571883E-03
   34.1250000        -6.40745228E-03
   34.2437515        -6.19706791E-03
   34.3624992        -5.99492015E-03
   34.4812508        -5.80944633E-03
   34.5999985        -5.64661482E-03
   34.7187500        -5.50971366E-03
   34.8375015        -5.39947627E-03
   34.9562492        -5.31452335E-03
   35.0750008        -5.25203487E-03
   35.1937485        -5.20855794E-03
   35.3125000        -5.18082222E-03
   35.4312515        -5.16644586E-03
   35.5499992        -5.16443001E-03
   35.6687508        -5.17536327E-03
   35.7874985        -5.20130852E-03
   35.9062500        -5.24538057E-03
   36.0250015        -5.31107839E-03
   36.1437492        -5.40146185E-03
   36.2625008        -5.51829115E-03
   36.3812485        -5.66127012E-03
   36.5000000        -5.82749816E-03
   36.6187515        -6.01124251E-03
   36.7374992        -6.20407565E-03
   36.8562508        -6.39539817E-03
   36.9749985        -6.57329755E-03
   37.0937500        -6.72566285E-03
   37.2125015        -6.84142485E-03
   37.3312492        -6.91177789E-03
   37.4500008        -6.93123601E-03
   37.5687485        -6.89838547E-03
   37.6875000        -6.81623537E-03
   37.8062515        -6.69211010E-03
   37.9249992        -6.53707981E-03
   38.0437508        -6.36499142E-03
   38.1624985        -6.19119452E-03
   38.2812500        -6.03110855E-03
   38.4000015        -5.89879137E-03
   38.5187492        -5.80566935E-03
   38.6375008        -5.75957447E-03
   38.7562485        -5.76418731E-03
   38.8750000        -5.81895001E-03
   38.9937515        -5.91944251E-03
   39.1124992        -6.05816487E-03
   39.2312508        -6.22561621E-03
   39.3499985        -6.41153986E-03
   39.4687500        -6.60615694E-03
   39.5875015        -6.80125179E-03
   39.7062492        -6.99096406E-03
   39.8250008        -7.17219384E-03
   39.9437485        -7.34459329E-03
   40.0625000        -7.51014333E-03
   40.1812515        -7.67239323E-03
   40.2999992        -7.83548318E-03
   40.4187508        -8.00308492E-03
   40.5374985        -8.17742199E-03
   40.6562500        -8.35851114E-03
   40.7750015        -8.54374096E-03
   40.8937492        -8.72785971E-03
   41.0125008        -8.90338328E-03
   41.1312485        -9.06138588E-03
   41.2500000        -9.19256918E-03
   41.3687515        -9.28849634E-03
   41.4874992        -9.34279989E-03
   41.6062508        -9.35222954E-03
   41.7249985        -9.31737665E-03
   41.8437500        -9.24298167E-03
   41.9625015        -9.13776178E-03
   42.0812492        -9.01375245E-03
   42.2000008        -8.88524391E-03
   42.3187485        -8.76741949E-03
   42.4375000        -8.67484417E-03
   42.5562515        -8.61998461E-03
   42.6749992        -8.61193519E-03
   42.7937508        -8.65549408E-03
   42.9124985        -8.75069853E-03
   43.0312500        -8.89287889E-03
   43.1500015        -9.07321274E-03
   43.2687492        -9.27971303E-03
   43.3875008        -9.49854031E-03
   43.5062485        -9.71546117E-03
   43.6250000        -9.91730019E-03
   43.7437515        -1.00932000E-02
   43.8624992        -1.02355564E-02
   43.9812508        -1.03405258E-02
   44.0999985        -1.04080494E-02
   44.2187500        -1.04414346E-02
   44.3375015        -1.04465354E-02
   44.4562492        -1.04306722E-02
   44.5750008        -1.04014361E-02
   44.6937485        -1.03655364E-02
   44.8125000        -1.03278505E-02
   44.9312515        -1.02907913E-02
   45.0499992        -1.02540813E-02
   45.1687508        -1.02149462E-02
   45.2874985        -1.01687033E-02
   45.4062500        -1.01096528E-02
   45.5250015        -1.00321472E-02
   45.6437492        -9.93168540E-03
   45.7625008        -9.80588328E-03
   45.8812485        -9.65517201E-03
