  -1.50000000        -3.09144961E-18
  -1.38125002         2.65949573E-09
  -1.26250005         1.34637235E-08
  -1.14374995         4.65409222E-08
  -1.02499998         1.34493860E-07
 -0.906250000         3.46728655E-07
 -0.787500024         8.20826983E-07
 -0.668749988         1.81146208E-06
 -0.550000012         3.75915420E-06
 -0.431250006         7.37581422E-06
 -0.312500000         1.37353281E-05
 -0.193749994         2.43466093E-05
  -7.50000030E-02     4.11763431E-05
   4.37499993E-02     6.65829357E-05
  0.162499994         1.03125494E-04
  0.281250000         1.53224333E-04
  0.400000006         2.18672503E-04
  0.518750012         3.00027779E-04
  0.637499988         3.95947834E-04
  0.756250024         5.02559124E-04
  0.875000000         6.12968288E-04
  0.993749976         7.17024435E-04
   1.11249995         8.01423914E-04
   1.23125005         8.50208453E-04
   1.35000002         8.45659233E-04
   1.46875000         7.69529142E-04
   1.58749998         6.04504836E-04
   1.70624995         3.35745019E-04
   1.82500005        -4.76762616E-05
   1.94375002        -5.51595760E-04
   2.06250000        -1.17600081E-03
   2.18125010        -1.91478617E-03
   2.29999995        -2.75606755E-03
   2.41875005        -3.68302432E-03
   2.53749990        -4.67517925E-03
   2.65625000        -5.70996990E-03
   2.77500010        -6.76442916E-03
   2.89374995        -7.81678222E-03
   3.01250005        -8.84777959E-03
   3.13124990        -9.84162372E-03
   3.25000000        -1.07864104E-02
   3.36875010        -1.16740530E-02
   3.48749995        -1.24997655E-02
   3.60625005        -1.32611925E-02
   3.72499990        -1.39573617E-02
   3.84375000        -1.45876370E-02
   3.96250010        -1.51508395E-02
   4.08125019        -1.56446919E-02
   4.19999981        -1.60656925E-02
   4.31874990        -1.64094195E-02
   4.43750000        -1.66712720E-02
   4.55625010        -1.68474857E-02
   4.67500019        -1.69363245E-02
   4.79374981        -1.69392172E-02
   4.91249990        -1.68616548E-02
   5.03125000        -1.67137012E-02
   5.15000010        -1.65099576E-02
   5.26875019        -1.62689555E-02
   5.38749981        -1.60119832E-02
   5.50624990        -1.57614723E-02
   5.62500000        -1.55390687E-02
   5.74375010        -1.53636653E-02
   5.86250019        -1.52495764E-02
   5.98124981        -1.52051244E-02
   6.09999990        -1.52318068E-02
   6.21875000        -1.53241586E-02
   6.33750010        -1.54703613E-02
   6.45625019        -1.56535339E-02
   6.57499981        -1.58535652E-02
   6.69374990        -1.60492938E-02
   6.81250000        -1.62207540E-02
   6.93125010        -1.63512602E-02
   7.05000019        -1.64290592E-02
   7.16874981        -1.64483711E-02
   7.28749990        -1.64097045E-02
   7.40625000        -1.63194202E-02
   7.52500010        -1.61886178E-02
   7.64375019        -1.60314925E-02
   7.76249981        -1.58633981E-02
   7.88124990        -1.56988539E-02
   8.00000000        -1.55497743E-02
   8.11874962        -1.54241435E-02
   8.23750019        -1.53253023E-02
   8.35624981        -1.52519327E-02
   8.47500038        -1.51987337E-02
   8.59375000        -1.51576754E-02
   8.71249962        -1.51196541E-02
   8.83125019        -1.50762945E-02
   8.94999981        -1.50216604E-02
   9.06875038        -1.49535909E-02
   9.18750000        -1.48744769E-02
   9.30624962        -1.47913508E-02
   9.42500019        -1.47152422E-02
   9.54374981        -1.46598713E-02
   9.66250038        -1.46398330E-02
   9.78125000        -1.46685094E-02
   9.89999962        -1.47559717E-02
   10.0187502        -1.49071570E-02
   10.1374998        -1.51205892E-02
   10.2562504        -1.53878117E-02
   10.3750000        -1.56936571E-02
   10.4937496        -1.60173476E-02
   10.6125002        -1.63343195E-02
   10.7312498        -1.66185945E-02
   10.8500004        -1.68453846E-02
   10.9687500        -1.69936791E-02
   11.0874996        -1.70484651E-02
   11.2062502        -1.70023385E-02
   11.3249998        -1.68562941E-02
   11.4437504        -1.66196097E-02
   11.5625000        -1.63088385E-02
   11.6812496        -1.59460194E-02
   11.8000002        -1.55563410E-02
   11.9187498        -1.51655292E-02
   12.0375004        -1.47972610E-02
   12.1562500        -1.44709386E-02
   12.2749996        -1.42000383E-02
   12.3937502        -1.39912590E-02
   12.5124998        -1.38445022E-02
   12.6312504        -1.37536824E-02
   12.7500000        -1.37082348E-02
   12.8687496        -1.36950798E-02
   12.9875002        -1.37007888E-02
   13.1062498        -1.37136457E-02
   13.2250004        -1.37253376E-02
   13.3437500        -1.37320356E-02
   13.4624996        -1.37347449E-02
   13.5812502        -1.37388641E-02
   13.6999998        -1.37530481E-02
   13.8187504        -1.37875117E-02
   13.9375000        -1.38520403E-02
   14.0562496        -1.39539596E-02
   14.1750002        -1.40963932E-02
   14.2937498        -1.42770223E-02
   14.4125004        -1.44875692E-02
   14.5312500        -1.47140799E-02
   14.6499996        -1.49380127E-02
   14.7687502        -1.51380152E-02
   14.8874998        -1.52921714E-02
   15.0062504        -1.53804710E-02
   15.1250000        -1.53871821E-02
   15.2437496        -1.53028341E-02
   15.3625002        -1.51255718E-02
   15.4812498        -1.48616815E-02
   15.6000004        -1.45252347E-02
   15.7187500        -1.41368648E-02
   15.8374996        -1.37218144E-02
   15.9562502        -1.33074857E-02
   16.0750008        -1.29207559E-02
   16.1937504        -1.25853922E-02
   16.3125000        -1.23198358E-02
   16.4312496        -1.21356267E-02
   16.5499992        -1.20366141E-02
   16.6687508        -1.20190401E-02
   16.7875004        -1.20724430E-02
   16.9062500        -1.21812634E-02
   17.0249996        -1.23269102E-02
   17.1437492        -1.24900499E-02
   17.2625008        -1.26527976E-02
   17.3812504        -1.28005799E-02
   17.5000000        -1.29234139E-02
   17.6187496        -1.30165080E-02
   17.7374992        -1.30801080E-02
   17.8562508        -1.31186647E-02
   17.9750004        -1.31394649E-02
   18.0937500        -1.31509257E-02
   18.2124996        -1.31608127E-02
   18.3312492        -1.31746391E-02
   18.4500008        -1.31944651E-02
   18.5687504        -1.32182725E-02
   18.6875000        -1.32399984E-02
   18.8062496        -1.32502317E-02
   18.9249992        -1.32374838E-02
   19.0437508        -1.31898429E-02
   19.1625004        -1.30968271E-02
   19.2812500        -1.29511422E-02
   19.3999996        -1.27501385E-02
   19.5187492        -1.24967434E-02
   19.6375008        -1.21997315E-02
   19.7562504        -1.18732927E-02
   19.8750000        -1.15359053E-02
   19.9937496        -1.12086637E-02
   20.1124992        -1.09132286E-02
   20.2312508        -1.06696486E-02
   20.3500004        -1.04943048E-02
   20.4687500        -1.03982147E-02
   20.5874996        -1.03858961E-02
   20.7062492        -1.04549145E-02
   20.8250008        -1.05961487E-02
   20.9437504        -1.07947560E-02
   21.0625000        -1.10316845E-02
   21.1812496        -1.12855779E-02
   21.2999992        -1.15348184E-02
   21.4187508        -1.17595000E-02
   21.5375004        -1.19430991E-02
   21.6562500        -1.20736789E-02
   21.7749996        -1.21445190E-02
   21.8937492        -1.21541303E-02
   22.0125008        -1.21057108E-02
   22.1312504        -1.20061412E-02
   22.2500000        -1.18646864E-02
   22.3687496        -1.16915843E-02
   22.4874992        -1.14967339E-02
   22.6062508        -1.12886224E-02
   22.7250004        -1.10736517E-02
   22.8437500        -1.08558945E-02
   22.9624996        -1.06373122E-02
   23.0812492        -1.04183480E-02
   23.2000008        -1.01987896E-02
   23.3187504        -9.97874327E-03
   23.4375000        -9.75955836E-03
   23.5562496        -9.54453927E-03
   23.6749992        -9.33932327E-03
   23.7937508        -9.15186014E-03
   23.9125004        -8.99196137E-03
   24.0312500        -8.87047220E-03
   24.1499996        -8.79816338E-03
   24.2687492        -8.78447667E-03
   24.3875008        -8.83629080E-03
   24.5062504        -8.95685609E-03
   24.6250000        -9.14504938E-03
   24.7437496        -9.39504057E-03
   24.8624992        -9.69643239E-03
   24.9812508        -1.00348573E-02
   25.1000004        -1.03929769E-02
   25.2187500        -1.07517811E-02
   25.3374996        -1.10920276E-02
   25.4562492        -1.13956928E-02
   25.5750008        -1.16472542E-02
   25.6937504        -1.18347025E-02
   25.8125000        -1.19501753E-02
   25.9312496        -1.19901868E-02
   26.0499992        -1.19554559E-02
   26.1687508        -1.18503962E-02
   26.2875004        -1.16823623E-02
   26.4062500        -1.14607681E-02
   26.5249996        -1.11961951E-02
   26.6437492        -1.08996052E-02
   26.7625008        -1.05817318E-02
   26.8812504        -1.02526974E-02
   27.0000000        -9.92187019E-03
   27.1187496        -9.59790498E-03
   27.2374992        -9.28893592E-03
   27.3562508        -9.00281034E-03
   27.4750004        -8.74728896E-03
   27.5937500        -8.53013899E-03
   27.7124996        -8.35905131E-03
   27.8312492        -8.24136287E-03
   27.9500008        -8.18359945E-03
   28.0687504        -8.19087960E-03
   28.1875000        -8.26625712E-03
   28.3062496        -8.41010548E-03
   28.4249992        -8.61962978E-03
   28.5437508        -8.88861250E-03
   28.6625004        -9.20744427E-03
   28.7812500        -9.56348050E-03
   28.8999996        -9.94170737E-03
   29.0187492        -1.03256619E-02
   29.1375008        -1.06985234E-02
   29.2562504        -1.10442638E-02
   29.3750000        -1.13487309E-02
   29.4937496        -1.16005586E-02
   29.6124992        -1.17918029E-02
   29.7312508        -1.19182486E-02
   29.8500004        -1.19793713E-02
   29.9687500        -1.19779781E-02
   30.0874996        -1.19195934E-02
   30.2062492        -1.18116718E-02
   30.3250008        -1.16627645E-02
   30.4437504        -1.14817433E-02
   30.5625000        -1.12771783E-02
   30.6812496        -1.10569373E-02
   30.7999992        -1.08280443E-02
   30.9187508        -1.05967829E-02
   31.0375004        -1.03689991E-02
   31.1562500        -1.01505117E-02
   31.2749996        -9.94753279E-03
   31.3937492        -9.76698659E-03
   31.5125008        -9.61664412E-03
   31.6312504        -9.50498134E-03
   31.7500000        -9.44076478E-03
   31.8687496        -9.43237077E-03
   31.9874992        -9.48690157E-03
   32.1062508        -9.60921962E-03
   32.2249985        -9.80101712E-03
   32.3437500        -1.00600580E-02
   32.4625015        -1.03797372E-02
   32.5812492        -1.07490262E-02
   32.7000008        -1.11528710E-02
   32.8187485        -1.15730483E-02
   32.9375000        -1.19893970E-02
   33.0562515        -1.23813320E-02
   33.1749992        -1.27294846E-02
   33.2937508        -1.30172940E-02
   33.4124985        -1.32323736E-02
   33.5312500        -1.33675002E-02
   33.6500015        -1.34211155E-02
   33.7687492        -1.33972671E-02
   33.8875008        -1.33050140E-02
   34.0062485        -1.31573491E-02
   34.1250000        -1.29697854E-02
   34.2437515        -1.27587570E-02
   34.3624992        -1.25400424E-02
   34.4812508        -1.23273805E-02
   34.5999985        -1.21314470E-02
   34.7187500        -1.19593004E-02
   34.8375015        -1.18143382E-02
   34.9562492        -1.16967382E-02
   35.0750008        -1.16043193E-02
   35.1937485        -1.15336496E-02
   35.3125000        -1.14812525E-02
   35.4312515        -1.14447158E-02
   35.5499992        -1.14235273E-02
   35.6687508        -1.14195133E-02
   35.7874985        -1.14367912E-02
   35.9062500        -1.14812376E-02
   36.0250015        -1.15595283E-02
   36.1437492        -1.16778752E-02
   36.2625008        -1.18406396E-02
   36.3812485        -1.20490249E-02
   36.5000000        -1.23000359E-02
   36.6187515        -1.25858970E-02
   36.7374992        -1.28940307E-02
   36.8562508        -1.32076656E-02
   36.9749985        -1.35070216E-02
   37.0937500        -1.37709854E-02
   37.2125015        -1.39790783E-02
   37.3312492        -1.41135221E-02
   37.4500008        -1.41611267E-02
   37.5687485        -1.41148064E-02
   37.6875000        -1.39745027E-02
   37.8062515        -1.37474136E-02
   37.9249992        -1.34474682E-02
   38.0437508        -1.30941020E-02
   38.1624985        -1.27104642E-02
   38.2812500        -1.23212431E-02
   38.4000015        -1.19503718E-02
   38.5187492        -1.16188647E-02
   38.6375008        -1.13430256E-02
   38.7562485        -1.11332387E-02
   38.8750000        -1.09934602E-02
   38.9937515        -1.09214550E-02
   39.1124992        -1.09097222E-02
   39.2312508        -1.09469844E-02
   39.3499985        -1.10200178E-02
   39.4687500        -1.11155976E-02
   39.5875015        -1.12222861E-02
   39.7062492        -1.13318404E-02
   39.8250008        -1.14400610E-02
   39.9437485        -1.15469769E-02
   40.0625000        -1.16563533E-02
   40.1812515        -1.17746070E-02
   40.2999992        -1.19092902E-02
   40.4187508        -1.20673599E-02
   40.5374985        -1.22534772E-02
   40.6562500        -1.24686044E-02
   40.7750015        -1.27090923E-02
   40.8937492        -1.29664168E-02
   41.0125008        -1.32276332E-02
   41.1312485        -1.34765087E-02
   41.2500000        -1.36952121E-02
   41.3687515        -1.38663724E-02
   41.4874992        -1.39752356E-02
   41.6062508        -1.40116522E-02
   41.7249985        -1.39716454E-02
   41.8437500        -1.38583258E-02
   41.9625015        -1.36820236E-02
   42.0812492        -1.34595977E-02
   42.2000008        -1.32129760E-02
   42.3187485        -1.29670771E-02
   42.4375000        -1.27473483E-02
   42.5562515        -1.25772022E-02
   42.6749992        -1.24756442E-02
   42.7937508        -1.24553703E-02
   42.9124985        -1.25215566E-02
   43.0312500        -1.26714697E-02
   43.1500015        -1.28949471E-02
   43.2687492        -1.31756756E-02
   43.3875008        -1.34931030E-02
   43.5062485        -1.38247628E-02
   43.6250000        -1.41487028E-02
   43.7437515        -1.44457547E-02
   43.8624992        -1.47013608E-02
   43.9812508        -1.49067538E-02
   44.0999985        -1.50593696E-02
   44.2187500        -1.51624698E-02
   44.3375015        -1.52240423E-02
   44.4562492        -1.52551569E-02
   44.5750008        -1.52679989E-02
   44.6937485        -1.52738588E-02
   44.8125000        -1.52813504E-02
   44.9312515        -1.52950846E-02
   45.0499992        -1.53150028E-02
   45.1687508        -1.53364148E-02
   45.2874985        -1.53507693E-02
   45.4062500        -1.53470319E-02
   45.5250015        -1.53134866E-02
   45.6437492        -1.52397053E-02
   45.7625008        -1.51184322E-02
   45.8812485        -1.49471043E-02
