  -1.50000000         9.21783026E-18
  -1.38125002        -1.23699295E-09
  -1.26250005        -8.02927769E-09
  -1.14374995        -3.19007754E-08
  -1.02499998        -9.83431789E-08
 -0.906250000        -2.59161055E-07
 -0.787500024        -6.13129259E-07
 -0.668749988        -1.33597928E-06
 -0.550000012        -2.71561453E-06
 -0.431250006        -5.17903618E-06
 -0.312500000        -9.28476948E-06
 -0.193749994        -1.56430251E-05
  -7.50000030E-02    -2.47233747E-05
   4.37499993E-02    -3.65257438E-05
  0.162499994        -5.01305185E-05
  0.281250000        -6.32035735E-05
  0.400000006        -7.15940332E-05
  0.518750012        -6.91987952E-05
  0.637499988        -4.82501309E-05
  0.756250024        -9.82734605E-08
  0.875000000         8.35772953E-05
  0.993749976         2.09342645E-04
   1.11249995         3.80690151E-04
   1.23125005         5.97157807E-04
   1.35000002         8.54123151E-04
   1.46875000         1.14332745E-03
   1.58749998         1.45398546E-03
   1.70624995         1.77418254E-03
   1.82500005         2.09221570E-03
   1.94375002         2.39760918E-03
   2.06250000         2.68169330E-03
   2.18125010         2.93780887E-03
   2.29999995         3.16132256E-03
   2.41875005         3.34964879E-03
   2.53749990         3.50238197E-03
   2.65625000         3.62149836E-03
   2.77500010         3.71145154E-03
   2.89374995         3.77893541E-03
   3.01250005         3.83216538E-03
   3.13124990         3.87969310E-03
   3.25000000         3.92897753E-03
   3.36875010         3.98507621E-03
   3.48749995         4.04985016E-03
   3.60625005         4.12194431E-03
   3.72499990         4.19757375E-03
   3.84375000         4.27187840E-03
   3.96250010         4.34043212E-03
   4.08125019         4.40043723E-03
   4.19999981         4.45127860E-03
   4.31874990         4.49433504E-03
   4.43750000         4.53223288E-03
   4.55625010         4.56789182E-03
   4.67500019         4.60377475E-03
   4.79374981         4.64159157E-03
   4.91249990         4.68250178E-03
   5.03125000         4.72761085E-03
   5.15000010         4.77839867E-03
   5.26875019         4.83678002E-03
   5.38749981         4.90462733E-03
   5.50624990         4.98287380E-03
   5.62500000         5.07053547E-03
   5.74375010         5.16409753E-03
   5.86250019         5.25761675E-03
   5.98124981         5.34367887E-03
   6.09999990         5.41499816E-03
   6.21875000         5.46620460E-03
   6.33750010         5.49525814E-03
   6.45625019         5.50402235E-03
   6.57499981         5.49780065E-03
   6.69374990         5.48400125E-03
   6.81250000         5.47036622E-03
   6.93125010         5.46335010E-03
   7.05000019         5.46711450E-03
   7.16874981         5.48336655E-03
   7.28749990         5.51193254E-03
   7.40625000         5.55168651E-03
   7.52500010         5.60135534E-03
   7.64375019         5.65984286E-03
   7.76249981         5.72594767E-03
   7.88124990         5.79767814E-03
   8.00000000         5.87157067E-03
   8.11874962         5.94246387E-03
   8.23750019         6.00400940E-03
   8.35624981         6.04990963E-03
   8.47500038         6.07554382E-03
   8.59375000         6.07943255E-03
   8.71249962         6.06400613E-03
   8.83125019         6.03533024E-03
   8.94999981         6.00181334E-03
   9.06875038         5.97224804E-03
   9.18750000         5.95379993E-03
   9.30624962         5.95054124E-03
   9.42500019         5.96294738E-03
   9.54374981         5.98841207E-03
   9.66250038         6.02249987E-03
   9.78125000         6.06042007E-03
   9.89999962         6.09819498E-03
   10.0187502         6.13315636E-03
   10.1374998         6.16374332E-03
   10.2562504         6.18885038E-03
   10.3750000         6.20715274E-03
   10.4937496         6.21682638E-03
   10.6125002         6.21587597E-03
   10.7312498         6.20297482E-03
   10.8500004         6.17847638E-03
   10.9687500         6.14511408E-03
   11.0874996         6.10800739E-03
   11.2062502         6.07381016E-03
   11.3249998         6.04918599E-03
   11.4437504         6.03905320E-03
   11.5625000         6.04516827E-03
   11.6812496         6.06550602E-03
   11.8000002         6.09466108E-03
   11.9187498         6.12512697E-03
   12.0375004         6.14905730E-03
   12.1562500         6.15995610E-03
   12.2749996         6.15383219E-03
   12.3937502         6.12957170E-03
   12.5124998         6.08856650E-03
   12.6312504         6.03389647E-03
   12.7500000         5.96945593E-03
   12.8687496         5.89936087E-03
   12.9875002         5.82776731E-03
   13.1062498         5.75901289E-03
   13.2250004         5.69782034E-03
   13.3437500         5.64924767E-03
   13.4624996         5.61820529E-03
   13.5812502         5.60854562E-03
   13.6999998         5.62197063E-03
   13.8187504         5.65711828E-03
   13.9375000         5.70920855E-03
   14.0562496         5.77044487E-03
   14.1750002         5.83116477E-03
   14.2937498         5.88145619E-03
   14.4125004         5.91284689E-03
   14.5312500         5.91963250E-03
   14.6499996         5.89956576E-03
   14.7687502         5.85382571E-03
   14.8874998         5.78640401E-03
   15.0062504         5.70318662E-03
   15.1250000         5.61102666E-03
   15.2437496         5.51700313E-03
   15.3625002         5.42793563E-03
   15.4812498         5.35005936E-03
   15.6000004         5.28873503E-03
   15.7187500         5.24805533E-03
   15.8374996         5.23034623E-03
   15.9562502         5.23565989E-03
   16.0750008         5.26144449E-03
   16.1937504         5.30258659E-03
   16.3125000         5.35192061E-03
   16.4312496         5.40117081E-03
   16.5499992         5.44214156E-03
   16.6687508         5.46789402E-03
   16.7875004         5.47364214E-03
   16.9062500         5.45720430E-03
   17.0249996         5.41896047E-03
   17.1437492         5.36142848E-03
   17.2625008         5.28862141E-03
   17.3812504         5.20537840E-03
   17.5000000         5.11678215E-03
   17.6187496         5.02770441E-03
   17.7374992         4.94244276E-03
   17.8562508         4.86438768E-03
   17.9750004         4.79570450E-03
   18.0937500         4.73705865E-03
   18.2124996         4.68748389E-03
   18.3312492         4.64449869E-03
   18.4500008         4.60452866E-03
   18.5687504         4.56359470E-03
   18.6875000         4.51813452E-03
   18.8062496         4.46574157E-03
   18.9249992         4.40563122E-03
   19.0437508         4.33870219E-03
   19.1625004         4.26720781E-03
   19.2812500         4.19415301E-03
   19.3999996         4.12264001E-03
   19.5187492         4.05534124E-03
   19.6375008         3.99422785E-03
   19.7562504         3.94055154E-03
   19.8750000         3.89496027E-03
   19.9937496         3.85760912E-03
   20.1124992         3.82813509E-03
   20.2312508         3.80549300E-03
   20.3500004         3.78774269E-03
   20.4687500         3.77197517E-03
   20.5874996         3.75453290E-03
   20.7062492         3.73160699E-03
   20.8250008         3.70011269E-03
   20.9437504         3.65861948E-03
   21.0625000         3.60802189E-03
   21.1812496         3.55168455E-03
   21.2999992         3.49493977E-03
   21.4187508         3.44402948E-03
   21.5375004         3.40477168E-03
   21.6562500         3.38133844E-03
   21.7749996         3.37548414E-03
   21.8937492         3.38642695E-03
   22.0125008         3.41133727E-03
   22.1312504         3.44620342E-03
   22.2500000         3.48672317E-03
   22.3687496         3.52891861E-03
   22.4874992         3.56931752E-03
   22.6062508         3.60475946E-03
   22.7250004         3.63207096E-03
   22.8437500         3.64790531E-03
   22.9624996         3.64898401E-03
   23.0812492         3.63277318E-03
   23.2000008         3.59840691E-03
   23.3187504         3.54750664E-03
   23.4375000         3.48450732E-03
   23.5562496         3.41624231E-03
   23.6749992         3.35078198E-03
   23.7937508         3.29579762E-03
   23.9125004         3.25691490E-03
   24.0312500         3.23655899E-03
   24.1499996         3.23363836E-03
   24.2687492         3.24414833E-03
   24.3875008         3.26246303E-03
   24.5062504         3.28287063E-03
   24.6250000         3.30085005E-03
   24.7437496         3.31372255E-03
   24.8624992         3.32057173E-03
   24.9812508         3.32161132E-03
   25.1000004         3.31737753E-03
   25.2187500         3.30816070E-03
   25.3374996         3.29394406E-03
   25.4562492         3.27486289E-03
   25.5750008         3.25193978E-03
   25.6937504         3.22769140E-03
   25.8125000         3.20622278E-03
   25.9312496         3.19261290E-03
   26.0499992         3.19168367E-03
   26.1687508         3.20652523E-03
   26.2875004         3.23728379E-03
   26.4062500         3.28068156E-03
   26.5249996         3.33050592E-03
   26.6437492         3.37897334E-03
   26.7625008         3.41857411E-03
   26.8812504         3.44383297E-03
   27.0000000         3.45245190E-03
   27.1187496         3.44553520E-03
   27.2374992         3.42690409E-03
   27.3562508         3.40182916E-03
   27.4750004         3.37566575E-03
   27.5937500         3.35285976E-03
   27.7124996         3.33659258E-03
   27.8312492         3.32903583E-03
   27.9500008         3.33193992E-03
   28.0687504         3.34714353E-03
   28.1875000         3.37665528E-03
   28.3062496         3.42217181E-03
   28.4249992         3.48417484E-03
   28.5437508         3.56098171E-03
   28.6625004         3.64820496E-03
   28.7812500         3.73896491E-03
   28.8999996         3.82493902E-03
   29.0187492         3.89803411E-03
   29.1375008         3.95220052E-03
   29.2562504         3.98485269E-03
   29.3750000         3.99745395E-03
   29.4937496         3.99510283E-03
   29.6124992         3.98527738E-03
   29.7312508         3.97615973E-03
   29.8500004         3.97504773E-03
   29.9687500         3.98729602E-03
   30.0874996         4.01597982E-03
   30.2062492         4.06220183E-03
   30.3250008         4.12573759E-03
   30.4437504         4.20564460E-03
   30.5625000         4.30052914E-03
   30.6812496         4.40838933E-03
   30.7999992         4.52617789E-03
   30.9187508         4.64939000E-03
   31.0375004         4.77201119E-03
   31.1562500         4.88702813E-03
   31.2749996         4.98747360E-03
   31.3937492         5.06775873E-03
   31.5125008         5.12487954E-03
   31.6312504         5.15910750E-03
   31.7500000         5.17391274E-03
   31.8687496         5.17512904E-03
   31.9874992         5.16959187E-03
   32.1062508         5.16366726E-03
   32.2249985         5.16207982E-03
   32.3437500         5.16732736E-03
   32.4625015         5.17974468E-03
   32.5812492         5.19808009E-03
   32.7000008         5.22027444E-03
   32.8187485         5.24415495E-03
   32.9375000         5.26782125E-03
   33.0562515         5.28969849E-03
   33.1749992         5.30837849E-03
   33.2937508         5.32245543E-03
   33.4124985         5.33054257E-03
   33.5312500         5.33155212E-03
   33.6500015         5.32516139E-03
   33.7687492         5.31227048E-03
   33.8875008         5.29522728E-03
   34.0062485         5.27764903E-03
   34.1250000         5.26382122E-03
   34.2437515         5.25779743E-03
   34.3624992         5.26245777E-03
   34.4812508         5.27879875E-03
   34.5999985         5.30565158E-03
   34.7187500         5.33990376E-03
   34.8375015         5.37712499E-03
   34.9562492         5.41240769E-03
   35.0750008         5.44118043E-03
   35.1937485         5.45982691E-03
   35.3125000         5.46602765E-03
   35.4312515         5.45885181E-03
   35.5499992         5.43870265E-03
   35.6687508         5.40721044E-03
   35.7874985         5.36712585E-03
   35.9062500         5.32219512E-03
   36.0250015         5.27693797E-03
   36.1437492         5.23625268E-03
   36.2625008         5.20482706E-03
   36.3812485         5.18641481E-03
   36.5000000         5.18312771E-03
   36.6187515         5.19492384E-03
   36.7374992         5.21944836E-03
   36.8562508         5.25229564E-03
   36.9749985         5.28764026E-03
   37.0937500         5.31909103E-03
   37.2125015         5.34056313E-03
   37.3312492         5.34700882E-03
   37.4500008         5.33489138E-03
   37.5687485         5.30241756E-03
   37.6875000         5.24958828E-03
   37.8062515         5.17816236E-03
   37.9249992         5.09159686E-03
   38.0437508         4.99493349E-03
   38.1624985         4.89456952E-03
   38.2812500         4.79780557E-03
   38.4000015         4.71213320E-03
   38.5187492         4.64430265E-03
   38.6375008         4.59933188E-03
   38.7562485         4.57969308E-03
   38.8750000         4.58490150E-03
   38.9937515         4.61165048E-03
   39.1124992         4.65448387E-03
   39.2312508         4.70683724E-03
   39.3499985         4.76217875E-03
   39.4687500         4.81495773E-03
   39.5875015         4.86116065E-03
   39.7062492         4.89841728E-03
   39.8250008         4.92576510E-03
   39.9437485         4.94327676E-03
   40.0625000         4.95176157E-03
   40.1812515         4.95266728E-03
   40.2999992         4.94816946E-03
   40.4187508         4.94129397E-03
   40.5374985         4.93586389E-03
   40.6562500         4.93612187E-03
   40.7750015         4.94598551E-03
   40.8937492         4.96809557E-03
   41.0125008         5.00294194E-03
   41.1312485         5.04838349E-03
   41.2500000         5.09980367E-03
   41.3687515         5.15093328E-03
   41.4874992         5.19516645E-03
   41.6062508         5.22699161E-03
   41.7249985         5.24314353E-03
   41.8437500         5.24313143E-03
   41.9625015         5.22903027E-03
   42.0812492         5.20467479E-03
   42.2000008         5.17455349E-03
   42.3187485         5.14280982E-03
   42.4375000         5.11265034E-03
   42.5562515         5.08627063E-03
   42.6749992         5.06519713E-03
   42.7937508         5.05075231E-03
   42.9124985         5.04433410E-03
   43.0312500         5.04728826E-03
   43.1500015         5.06036542E-03
   43.2687492         5.08297654E-03
   43.3875008         5.11259073E-03
   43.5062485         5.14462264E-03
   43.6250000         5.17299678E-03
   43.7437515         5.19133545E-03
   43.8624992         5.19445539E-03
   43.9812508         5.17971627E-03
   44.0999985         5.14778076E-03
   44.2187500         5.10251848E-03
   44.3375015         5.05006872E-03
   44.4562492         4.99735447E-03
   44.5750008         4.95051220E-03
   44.6937485         4.91371006E-03
   44.8125000         4.88865934E-03
   44.9312515         4.87485854E-03
   45.0499992         4.87036258E-03
   45.1687508         4.87266947E-03
   45.2874985         4.87936800E-03
   45.4062500         4.88829613E-03
   45.5250015         4.89724567E-03
   45.6437492         4.90343617E-03
   45.7625008         4.90313163E-03
   45.8812485         4.89171315E-03
