  -1.50000000         0.00000000    
  -1.38499999         1.03734532E-09
  -1.26999998         5.49158941E-09
  -1.15499997         1.96490486E-08
  -1.03999996         5.81104977E-08
 -0.925000012         1.52116485E-07
 -0.810000002         3.64148008E-07
 -0.694999993         8.11535358E-07
 -0.579999983         1.70138719E-06
 -0.465000004         3.37732786E-06
 -0.349999994         6.37483481E-06
 -0.234999999         1.14764389E-05
 -0.119999997         1.97514983E-05
  -4.99999989E-03     3.25594228E-05
  0.109999999         5.14923377E-05
  0.224999994         7.82357019E-05
  0.340000004         1.14334296E-04
  0.455000013         1.60866621E-04
  0.569999993         2.18050569E-04
  0.685000002         2.84823414E-04
  0.800000012         3.58455902E-04
  0.915000021         4.34267917E-04
   1.02999997         5.05510892E-04
   1.14499998         5.63466630E-04
   1.25999999         5.97787614E-04
   1.37500000         5.97073347E-04
   1.49000001         5.49642835E-04
   1.60500002         4.44434409E-04
   1.72000003         2.71943398E-04
   1.83500004         2.50951580E-05
   1.95000005        -3.00043321E-04
   2.06500006        -7.03798491E-04
   2.18000007        -1.18272810E-03
   2.29500008        -1.72978628E-03
   2.41000009        -2.33480171E-03
   2.52500010        -2.98521970E-03
   2.64000010        -3.66702722E-03
   2.75500011        -4.36575944E-03
   2.86999989        -5.06748259E-03
   2.98499990        -5.75964060E-03
   3.09999990        -6.43169181E-03
   3.21499991        -7.07546249E-03
   3.32999992        -7.68521195E-03
   3.44499993        -8.25740676E-03
   3.55999994        -8.79027508E-03
   3.67499995        -9.28320363E-03
   3.78999996        -9.73608252E-03
   3.90499997        -1.01487059E-02
   4.01999998        -1.05203111E-02
   4.13500023        -1.08493278E-02
   4.25000000        -1.11333914E-02
   4.36499977        -1.13696055E-02
   4.48000002        -1.15550309E-02
   4.59499979        -1.16873216E-02
   4.71000004        -1.17654316E-02
   4.82499981        -1.17902588E-02
   4.94000006        -1.17651513E-02
   5.05499983        -1.16961626E-02
   5.17000008        -1.15920044E-02
   5.28499985        -1.14636756E-02
   5.40000010        -1.13237808E-02
   5.51499987        -1.11855939E-02
   5.63000011        -1.10619683E-02
   5.74499989        -1.09642074E-02
   5.86000013        -1.09010236E-02
   5.97499990        -1.08777117E-02
   6.09000015        -1.08956322E-02
   6.20499992        -1.09520853E-02
   6.32000017        -1.10405860E-02
   6.43499994        -1.11515373E-02
   6.55000019        -1.12732071E-02
   6.66499996        -1.13929380E-02
   6.78000021        -1.14984289E-02
   6.89499998        -1.15789585E-02
   7.01000023        -1.16264224E-02
   7.12500000        -1.16360532E-02
   7.23999977        -1.16067613E-02
   7.35500002        -1.15410611E-02
   7.46999979        -1.14445910E-02
   7.58500004        -1.13253100E-02
   7.69999981        -1.11924578E-02
   7.81500006        -1.10554127E-02
   7.92999983        -1.09226005E-02
   8.04500008        -1.08005693E-02
   8.15999985        -1.06933489E-02
   8.27499962        -1.06021818E-02
   8.39000034        -1.05256271E-02
   8.50500011        -1.04600349E-02
   8.61999989        -1.04003176E-02
   8.73499966        -1.03409076E-02
   8.85000038        -1.02767758E-02
   8.96500015        -1.02043683E-02
   9.07999992        -1.01223262E-02
   9.19499969        -1.00319004E-02
   9.31000042        -9.93697997E-03
   9.42500019        -9.84373596E-03
   9.53999996        -9.75989830E-03
   9.65499973        -9.69376974E-03
   9.77000046        -9.65307839E-03
   9.88500023        -9.64382291E-03
   10.0000000        -9.66925174E-03
   10.1149998        -9.72911622E-03
   10.2299995        -9.81930271E-03
   10.3450003        -9.93189681E-03
   10.4600000        -1.00557031E-02
   10.5749998        -1.01771643E-02
   10.6899996        -1.02815935E-02
   10.8050003        -1.03545850E-02
   10.9200001        -1.03834532E-02
   11.0349998        -1.03585264E-02
   11.1499996        -1.02741634E-02
   11.2650003        -1.01293661E-02
   11.3800001        -9.92791820E-03
   11.4949999        -9.67804249E-03
   11.6099997        -9.39160399E-03
   11.7250004        -9.08294600E-03
   11.8400002        -8.76750983E-03
   11.9549999        -8.46037455E-03
   12.0699997        -8.17488600E-03
   12.1850004        -7.92152248E-03
   12.3000002        -7.70712877E-03
   12.4150000        -7.53457099E-03
   12.5299997        -7.40286615E-03
   12.6450005        -7.30772130E-03
   12.7600002        -7.24243093E-03
   12.8750000        -7.19899125E-03
   12.9899998        -7.16929324E-03
   13.1049995        -7.14624487E-03
   13.2200003        -7.12467451E-03
   13.3350000        -7.10191252E-03
   13.4499998        -7.07797892E-03
   13.5649996        -7.05536222E-03
   13.6800003        -7.03842286E-03
   13.7950001        -7.03250524E-03
   13.9099998        -7.04288250E-03
   14.0249996        -7.07367063E-03
   14.1400003        -7.12686731E-03
   14.2550001        -7.20163994E-03
   14.3699999        -7.29397265E-03
   14.4849997        -7.39672640E-03
   14.6000004        -7.50012044E-03
   14.7150002        -7.59259146E-03
   14.8299999        -7.66193168E-03
   14.9449997        -7.69658526E-03
   15.0600004        -7.68694608E-03
   15.1750002        -7.62650697E-03
   15.2900000        -7.51272123E-03
   15.4049997        -7.34747294E-03
   15.5200005        -7.13709090E-03
   15.6350002        -6.89190207E-03
   15.7500000        -6.62536127E-03
   15.8649998        -6.35285862E-03
   15.9799995        -6.09032344E-03
   16.0949993        -5.85278403E-03
   16.2099991        -5.65303210E-03
   16.3250008        -5.50054200E-03
   16.4400005        -5.40074939E-03
   16.5550003        -5.35476115E-03
   16.6700001        -5.35951834E-03
   16.7849998        -5.40837832E-03
   16.8999996        -5.49203251E-03
   17.0149994        -5.59965149E-03
   17.1299992        -5.72011527E-03
   17.2450008        -5.84317883E-03
   17.3600006        -5.96045516E-03
   17.4750004        -6.06609229E-03
   17.5900002        -6.15709461E-03
   17.7049999        -6.23325910E-03
   17.8199997        -6.29675295E-03
   17.9349995        -6.35141274E-03
   18.0499992        -6.40185596E-03
   18.1650009        -6.45254273E-03
   18.2800007        -6.50690077E-03
   18.3950005        -6.56664371E-03
   18.5100002        -6.63136318E-03
   18.6250000        -6.69845333E-03
   18.7399998        -6.76337536E-03
   18.8549995        -6.82022795E-03
   18.9699993        -6.86255004E-03
   19.0849991        -6.88425358E-03
   19.2000008        -6.88056462E-03
   19.3150005        -6.84884889E-03
   19.4300003        -6.78921724E-03
   19.5450001        -6.70481939E-03
   19.6599998        -6.60178997E-03
   19.7749996        -6.48884056E-03
   19.8899994        -6.37653051E-03
   20.0049992        -6.27630157E-03
   20.1200008        -6.19937992E-03
   20.2350006        -6.15566550E-03
   20.3500004        -6.15273183E-03
   20.4650002        -6.19505066E-03
   20.5799999        -6.28352305E-03
   20.6949997        -6.41536387E-03
   20.8099995        -6.58435747E-03
   20.9249992        -6.78144023E-03
   21.0400009        -6.99555362E-03
   21.1550007        -7.21466169E-03
   21.2700005        -7.42682675E-03
   21.3850002        -7.62122730E-03
   21.5000000        -7.78900972E-03
   21.6149998        -7.92389642E-03
   21.7299995        -8.02250020E-03
   21.8449993        -8.08432046E-03
   21.9599991        -8.11146479E-03
   22.0750008        -8.10811482E-03
   22.1900005        -8.07985663E-03
   22.3050003        -8.03293288E-03
   22.4200001        -7.97353219E-03
   22.5349998        -7.90718757E-03
   22.6499996        -7.83836376E-03
   22.7649994        -7.77025893E-03
   22.8799992        -7.70482747E-03
   22.9950008        -7.64301559E-03
   23.1100006        -7.58513995E-03
   23.2250004        -7.53135560E-03
   23.3400002        -7.48212636E-03
   23.4549999        -7.43862381E-03
   23.5699997        -7.40299094E-03
   23.6849995        -7.37841520E-03
   23.7999992        -7.36900885E-03
   23.9150009        -7.37948343E-03
   24.0300007        -7.41467392E-03
   24.1450005        -7.47895427E-03
   24.2600002        -7.57562928E-03
   24.3750000        -7.70636927E-03
   24.4899998        -7.87077006E-03
   24.6049995        -8.06609076E-03
   24.7199993        -8.28722119E-03
   24.8349991        -8.52686446E-03
   24.9500008        -8.77595507E-03
   25.0650005        -9.02424660E-03
   25.1800003        -9.26102418E-03
   25.2950001        -9.47585981E-03
   25.4099998        -9.65934340E-03
   25.5249996        -9.80371144E-03
   25.6399994        -9.90331732E-03
   25.7549992        -9.95490886E-03
   25.8700008        -9.95769352E-03
   25.9850006        -9.91319865E-03
   26.1000004        -9.82496701E-03
   26.2150002        -9.69813205E-03
   26.3299999        -9.53892525E-03
   26.4449997        -9.35418159E-03
   26.5599995        -9.15090367E-03
   26.6749992        -8.93590879E-03
   26.7900009        -8.71560164E-03
   26.9050007        -8.49587191E-03
   27.0200005        -8.28209240E-03
   27.1350002        -8.07920098E-03
   27.2500000        -7.89182261E-03
   27.3649998        -7.72437453E-03
   27.4799995        -7.58113619E-03
   27.5949993        -7.46623101E-03
   27.7099991        -7.38350675E-03
   27.8250008        -7.33632967E-03
   27.9400005        -7.32728885E-03
   28.0550003        -7.35786697E-03
   28.1700001        -7.42810359E-03
   28.2849998        -7.53632095E-03
   28.3999996        -7.67894136E-03
   28.5149994        -7.85045605E-03
   28.6299992        -8.04355182E-03
   28.7450008        -8.24941602E-03
   28.8600006        -8.45819339E-03
   28.9750004        -8.65955930E-03
   29.0900002        -8.84337444E-03
   29.2049999        -9.00033023E-03
   29.3199997        -9.12255142E-03
   29.4349995        -9.20406915E-03
   29.5499992        -9.24114324E-03
   29.6650009        -9.23238229E-03
   29.7800007        -9.17866919E-03
   29.8950005        -9.08290781E-03
   30.0100002        -8.94962065E-03
   30.1250000        -8.78445152E-03
   30.2399998        -8.59363936E-03
   30.3549995        -8.38352274E-03
   30.4699993        -8.16012733E-03
   30.5849991        -7.92888738E-03
   30.7000008        -7.69451028E-03
   30.8150005        -7.46099651E-03
   30.9300003        -7.23179011E-03
   31.0450001        -7.01001193E-03
   31.1599998        -6.79873768E-03
   31.2749996        -6.60124514E-03
   31.3899994        -6.42118650E-03
   31.5049992        -6.26263442E-03
   31.6200008        -6.12997962E-03
   31.7350006        -6.02767104E-03
   31.8500004        -5.95981954E-03
   31.9650002        -5.92971174E-03
   32.0800018        -5.93928713E-03
   32.1949997        -5.98865189E-03
   32.3100014        -6.07570447E-03
   32.4249992        -6.19593170E-03
   32.5400009        -6.34242408E-03
   32.6549988        -6.50613615E-03
   32.7700005        -6.67638006E-03
   32.8849983        -6.84152916E-03
   33.0000000        -6.98985858E-03
   33.1150017        -7.11045228E-03
   33.2299995        -7.19408272E-03
   33.3450012        -7.23396940E-03
   33.4599991        -7.22633488E-03
   33.5750008        -7.17069721E-03
   33.6899986        -7.06986571E-03
   33.8050003        -6.92963321E-03
   33.9199982        -6.75820326E-03
   34.0349998        -6.56540692E-03
   34.1500015        -6.36179838E-03
   34.2649994        -6.15772605E-03
   34.3800011        -5.96248172E-03
   34.4949989        -5.78360865E-03
   34.6100006        -5.62645681E-03
   34.7249985        -5.49400365E-03
   34.8400002        -5.38696768E-03
   34.9550018        -5.30417124E-03
   35.0699997        -5.24310675E-03
   35.1850014        -5.20061655E-03
   35.2999992        -5.17359376E-03
   35.4150009        -5.15960623E-03
   35.5299988        -5.15735988E-03
   35.6450005        -5.16693434E-03
   35.7599983        -5.18975966E-03
   35.8750000        -5.22833318E-03
   35.9900017        -5.28571336E-03
   36.1049995        -5.36485761E-03
   36.2200012        -5.46789216E-03
   36.3349991        -5.59542328E-03
   36.4500008        -5.74597809E-03
   36.5649986        -5.91567392E-03
   36.6800003        -6.09817309E-03
   36.7949982        -6.28494984E-03
   36.9099998        -6.46586297E-03
   37.0250015        -6.62997970E-03
   37.1399994        -6.76657259E-03
   37.2550011        -6.86618173E-03
   37.3699989        -6.92162244E-03
   37.4850006        -6.92882016E-03
   37.5999985        -6.88737538E-03
   37.7150002        -6.80078054E-03
   37.8300018        -6.67625898E-03
   37.9449997        -6.52422709E-03
   38.0600014        -6.35743327E-03
   38.1749992        -6.18986087E-03
   38.2900009        -6.03550347E-03
   38.4049988        -5.90714673E-03
   38.5200005        -5.81528712E-03
   38.6349983        -5.76729234E-03
   38.7500000        -5.76690258E-03
   38.8650017        -5.81410574E-03
   38.9799995        -5.90540748E-03
   39.0950012        -6.03443803E-03
   39.2099991        -6.19283412E-03
   39.3250008        -6.37127459E-03
   39.4399986        -6.56055426E-03
   39.5550003        -6.75255945E-03
   39.6699982        -6.94104098E-03
   39.7849998        -7.12209381E-03
   39.9000015        -7.29429256E-03
   40.0149994        -7.45848240E-03
   40.1300011        -7.61725800E-03
   40.2449989        -7.77421100E-03
   40.3600006        -7.93304574E-03
   40.4749985        -8.09669495E-03
   40.5900002        -8.26654211E-03
   40.7050018        -8.44187383E-03
   40.8199997        -8.61963164E-03
   40.9350014        -8.79451260E-03
   41.0499992        -8.95940326E-03
   41.1650009        -9.10612568E-03
   41.2799988        -9.22637805E-03
   41.3950005        -9.31278989E-03
   41.5099983        -9.35993623E-03
   41.6250000        -9.36520193E-03
   41.7400017        -9.32936743E-03
   41.8549995        -9.25685000E-03
   41.9700012        -9.15554352E-03
   42.0849991        -9.03626345E-03
   42.2000008        -8.91185831E-03
   42.3149986        -8.79605766E-03
   42.4300003        -8.70219897E-03
   42.5449982        -8.64195731E-03
   42.6599998        -8.62421747E-03
   42.7750015        -8.65423027E-03
   42.8899994        -8.73311237E-03
   43.0050011        -8.85778293E-03
   43.1199989        -9.02131107E-03
   43.2350006        -9.21365619E-03
   43.3499985        -9.42269154E-03
   43.4650002        -9.63542610E-03
   43.5800018        -9.83926002E-03
   43.6949997        -1.00231506E-02
   43.8100014        -1.01785623E-02
   43.9249992        -1.03000896E-02
   44.0400009        -1.03857145E-02
   44.1549988        -1.04366615E-02
   44.2700005        -1.04568964E-02
   44.3849983        -1.04523385E-02
