  -1.50000000       0.00000000    
  -1.38499999      -1.35472300E-09
  -1.26999998      -6.93147717E-09
  -1.15499997      -2.36723121E-08
  -1.03999996      -6.62790214E-08
 -0.925000012      -1.63549416E-07
 -0.810000002      -3.68296270E-07
 -0.694999993      -7.70785448E-07
 -0.579999983      -1.51325128E-06
 -0.465000004      -2.79912774E-06
 -0.349999994      -4.88582100E-06
 -0.234999999      -8.04597948E-06
 -0.119999997      -1.24822018E-05
  -4.99999989E-03  -1.81870200E-05
  0.109999999      -2.47554563E-05
  0.224999994      -3.11796102E-05
  0.340000004      -3.56777164E-05
  0.455000013      -3.56243327E-05
  0.569999993      -2.76445517E-05
  0.685000002      -7.90751892E-06
  0.800000012       2.73932419E-05
  0.915000021       8.14419182E-05
   1.02999997       1.56200564E-04
   1.14499998       2.51941499E-04
   1.25999999       3.67025757E-04
   1.37500000       4.97984700E-04
   1.49000001       6.39886188E-04
   1.60500002       7.86895922E-04
   1.72000003       9.32902796E-04
   1.83500004       1.07207987E-03
   1.95000005       1.19929470E-03
   2.06500006       1.31034723E-03
   2.18000007       1.40207959E-03
   2.29500008       1.47242774E-03
   2.41000009       1.52048375E-03
   2.52500010       1.54658861E-03
   2.64000010       1.55241613E-03
   2.75500011       1.54096819E-03
   2.86999989       1.51638535E-03
   2.98499990       1.48352701E-03
   3.09999990       1.44734327E-03
   3.21499991       1.41214801E-03
   3.32999992       1.38096686E-03
   3.44499993       1.35512976E-03
   3.55999994       1.33423449E-03
   3.67499995       1.31649734E-03
   3.78999996       1.29939662E-03
   3.90499997       1.28042558E-03
   4.01999998       1.25774078E-03
   4.13500023       1.23053824E-03
   4.25000000       1.19908201E-03
   4.36499977       1.16443401E-03
   4.48000002       1.12802628E-03
   4.59499979       1.09126046E-03
   4.71000004       1.05527882E-03
   4.82499981       1.02096959E-03
   4.94000006       9.89154330E-04
   5.05499983       9.60822043E-04
   5.17000008       9.37243807E-04
   5.28499985       9.19851824E-04
   5.40000010       9.09866998E-04
   5.51499987       9.07773792E-04
   5.63000011       9.12834308E-04
   5.74499989       9.22845968E-04
   5.86000013       9.34294250E-04
   5.97499990       9.42917832E-04
   6.09000015       9.44565749E-04
   6.20499992       9.36116674E-04
   6.32000017       9.16189281E-04
   6.43499994       8.85435089E-04
   6.55000019       8.46327981E-04
   6.66499996       8.02525494E-04
   6.78000021       7.58008275E-04
   6.89499998       7.16261682E-04
   7.01000023       6.79730321E-04
   7.12500000       6.49666297E-04
   7.23999977       6.26340799E-04
   7.35500002       6.09464478E-04
   7.46999979       5.98602695E-04
   7.58500004       5.93391014E-04
   7.69999981       5.93468023E-04
   7.81500006       5.98171377E-04
   7.92999983       6.06164162E-04
   8.04500008       6.15202764E-04
   8.15999985       6.22221909E-04
   8.27499962       6.23795786E-04
   8.39000034       6.16885547E-04
   8.50500011       5.99662773E-04
   8.61999989       5.72139572E-04
   8.73499966       5.36381034E-04
   8.85000038       4.96198714E-04
   8.96500015       4.56385111E-04
   9.07999992       4.21698205E-04
   9.19499969       3.95882176E-04
   9.31000042       3.80993006E-04
   9.42500019       3.77188553E-04
   9.53999996       3.82995146E-04
   9.65499973       3.95905983E-04
   9.77000046       4.13081259E-04
   9.88500023       4.31916764E-04
   10.0000000       4.50324762E-04
   10.1149998       4.66706551E-04
   10.2299995       4.79716982E-04
   10.3450003       4.88006743E-04
   10.4600000       4.90118109E-04
   10.5749998       4.84640623E-04
   10.6899996       4.70604631E-04
   10.8050003       4.47975937E-04
   10.9200001       4.18049895E-04
   11.0349998       3.83552513E-04
   11.1499996       3.48347559E-04
   11.2650003       3.16775637E-04
   11.3800001       2.92785146E-04
   11.4949999       2.79090891E-04
   11.6099997       2.76597246E-04
   11.7250004       2.84244888E-04
   11.8400002       2.99311359E-04
   11.9549999       3.18061735E-04
   12.0699997       3.36550729E-04
   12.1850004       3.51356139E-04
   12.3000002       3.60065344E-04
   12.4150000       3.61443235E-04
   12.5299997       3.55318887E-04
   12.6450005       3.42309620E-04
   12.7600002       3.23531800E-04
   12.8750000       3.00414802E-04
   12.9899998       2.74656195E-04
   13.1049995       2.48277909E-04
   13.2200003       2.23678013E-04
   13.3350000       2.03571049E-04
   13.4499998       1.90747320E-04
   13.5649996       1.87656100E-04
   13.6800003       1.95906061E-04
   13.7950001       2.15817679E-04
   13.9099998       2.46172538E-04
   14.0249996       2.84255948E-04
   14.1400003       3.26208217E-04
   14.2550001       3.67612432E-04
   14.3699999       4.04186692E-04
   14.4849997       4.32423141E-04
   14.6000004       4.50047577E-04
   14.7150002       4.56228241E-04
   14.8299999       4.51537227E-04
   14.9449997       4.37724259E-04
   15.0600004       4.17385512E-04
   15.1750002       3.93615192E-04
   15.2900000       3.69685673E-04
   15.4049997       3.48776928E-04
   15.5200005       3.33739823E-04
   15.6350002       3.26878944E-04
   15.7500000       3.29744595E-04
   15.8649998       3.42955143E-04
   15.9799995       3.66085500E-04
   16.0949993       3.97661992E-04
   16.2099991       4.35296097E-04
   16.3250008       4.75951063E-04
   16.4400005       5.16311266E-04
   16.5550003       5.53189311E-04
   16.6700001       5.83904795E-04
   16.7849998       6.06576446E-04
   16.8999996       6.20294944E-04
   17.0149994       6.25170884E-04
   17.1299992       6.22272957E-04
   17.2450008       6.13480515E-04
   17.3600006       6.01271808E-04
   17.4750004       5.88457857E-04
   17.5900002       5.77874423E-04
   17.7049999       5.72044693E-04
   17.8199997       5.72846213E-04
   17.9349995       5.81230619E-04
   18.0499992       5.97059028E-04
   18.1650009       6.19103084E-04
   18.2800007       6.45238382E-04
   18.3950005       6.72805065E-04
   18.5100002       6.99070864E-04
   18.6250000       7.21692515E-04
   18.7399998       7.39075360E-04
   18.8549995       7.50551000E-04
   18.9699993       7.56350812E-04
   19.0849991       7.57413218E-04
   19.2000008       7.55102898E-04
   19.3150005       7.50938896E-04
   19.4300003       7.46406964E-04
   19.5450001       7.42881617E-04
   19.6599998       7.41630152E-04
   19.7749996       7.43831159E-04
   19.8899994       7.50530977E-04
   20.0049992       7.62496376E-04
   20.1200008       7.79977243E-04
   20.2350006       8.02450173E-04
   20.3500004       8.28458928E-04
   20.4650002       8.55651102E-04
   20.5799999       8.81069223E-04
   20.6949997       9.01669788E-04
   20.8099995       9.14956618E-04
   20.9249992       9.19564278E-04
   21.0400009       9.15620651E-04
   21.1550007       9.04773653E-04
   21.2700005       8.89862073E-04
   21.3850002       8.74316553E-04
   21.5000000       8.61458946E-04
   21.6149998       8.53890611E-04
   21.7299995       8.53125937E-04
   21.8449993       8.59537686E-04
   21.9599991       8.72574106E-04
   22.0750008       8.91122792E-04
   22.1900005       9.13861208E-04
   22.3050003       9.39459307E-04
   22.4200001       9.66582273E-04
   22.5349998       9.93735623E-04
   22.6499996       1.01907481E-03
   22.7649994       1.04033144E-03
   22.8799992       1.05496682E-03
   22.9950008       1.06057723E-03
   23.1100006       1.05546613E-03
   23.2250004       1.03921315E-03
   23.3400002       1.01304066E-03
   23.4549999       9.79823177E-04
   23.5699997       9.43687628E-04
   23.6849995       9.09278519E-04
   23.7999992       8.80877138E-04
   23.9150009       8.61612498E-04
   24.0300007       8.52972094E-04
   24.1450005       8.54733633E-04
   24.2600002       8.65299196E-04
   24.3750000       8.82296357E-04
   24.4899998       9.03237320E-04
   24.6049995       9.26030509E-04
   24.7199993       9.49213398E-04
   24.8349991       9.71890462E-04
   24.9500008       9.93470778E-04
   25.0650005       1.01337174E-03
   25.1800003       1.03085325E-03
   25.2950001       1.04508223E-03
   25.4099998       1.05541490E-03
   25.5249996       1.06178853E-03
   25.6399994       1.06504478E-03
   25.7549992       1.06701534E-03
   25.8700008       1.07027835E-03
   25.9850006       1.07760914E-03
   26.1000004       1.09126302E-03
   26.2150002       1.11230230E-03
   26.3299999       1.14018226E-03
   26.4449997       1.17273652E-03
   26.5599995       1.20658160E-03
   26.6749992       1.23783178E-03
   26.7900009       1.26292021E-03
   26.9050007       1.27929728E-03
   27.0200005       1.28582725E-03
   27.1350002       1.28280767E-03
   27.2500000       1.27165706E-03
   27.3649998       1.25441770E-03
   27.4799995       1.23325619E-03
   27.5949993       1.21012016E-03
   27.7099991       1.18662382E-03
   27.8250008       1.16413774E-03
   27.9400005       1.14397123E-03
   28.0550003       1.12750474E-03
   28.1700001       1.11615704E-03
   28.2849998       1.11114664E-03
   28.3999996       1.11310917E-03
   28.5149994       1.12169946E-03
   28.6299992       1.13534660E-03
   28.7450008       1.15128735E-03
   28.8600006       1.16592762E-03
   28.9750004       1.17547123E-03
   29.0900002       1.17666728E-03
   29.2049999       1.16748409E-03
   29.3199997       1.14753051E-03
   29.4349995       1.11812237E-03
   29.5499992       1.08198938E-03
   29.6650009       1.04272238E-03
   29.7800007       1.00411416E-03
   29.8950005       9.69567627E-04
   30.0100002       9.41693434E-04
   30.1250000       9.22147010E-04
   30.2399998       9.11673647E-04
   30.3549995       9.10271425E-04
   30.4699993       9.17366589E-04
   30.5849991       9.31921939E-04
   30.7000008       9.52453760E-04
   30.8150005       9.76993353E-04
   30.9300003       1.00306794E-03
   31.0450001       1.02778431E-03
   31.1599998       1.04806107E-03
   31.2749996       1.06100598E-03
   31.3899994       1.06436864E-03
   31.5049992       1.05696218E-03
   31.6200008       1.03893690E-03
   31.7350006       1.01182342E-03
   31.8500004       9.78315482E-04
   31.9650002       9.41834820E-04
   32.0800018       9.05971276E-04
   32.1949997       8.73921264E-04
   32.3100014       8.48037715E-04
   32.4249992       8.29571392E-04
   32.5400009       8.18625675E-04
   32.6549988       8.14300613E-04
   32.7700005       8.14962958E-04
   32.8849983       8.18565197E-04
   33.0000000       8.22948990E-04
   33.1150017       8.26092146E-04
   33.2299995       8.26285977E-04
   33.3450012       8.22253467E-04
   33.4599991       8.13227380E-04
   33.5750008       7.99004978E-04
   33.6899986       7.79981783E-04
   33.8050003       7.57155067E-04
   33.9199982       7.32077053E-04
   34.0349998       7.06742227E-04
   34.1500015       6.83398102E-04
   34.2649994       6.64291671E-04
   34.3800011       6.51377428E-04
   34.4949989       6.46028668E-04
   34.6100006       6.48802321E-04
   34.7249985       6.59299956E-04
   34.8400002       6.76159048E-04
   34.9550018       6.97185460E-04
   35.0699997       7.19617063E-04
   35.1850014       7.40482996E-04
   35.2999992       7.57006288E-04
   35.4150009       7.66986399E-04
   35.5299988       7.69097067E-04
   35.6450005       7.63050513E-04
   35.7599983       7.49599130E-04
   35.8750000       7.30377564E-04
   35.9900017       7.07617146E-04
   36.1049995       6.83789549E-04
   36.2200012       6.61244267E-04
   36.3349991       6.41904131E-04
   36.4500008       6.27059257E-04
   36.5649986       6.17274491E-04
   36.6800003       6.12397504E-04
   36.7949982       6.11634983E-04
   36.9099998       6.13660144E-04
   37.0250015       6.16725767E-04
   37.1399994       6.18774386E-04
   37.2550011       6.17563259E-04
   37.3699989       6.10824965E-04
   37.4850006       5.96486905E-04
   37.5999985       5.72949764E-04
   37.7150002       5.39391185E-04
   37.8300018       4.96035442E-04
   37.9449997       4.44312522E-04
   38.0600014       3.86839645E-04
   38.1749992       3.27190588E-04
   38.2900009       2.69468874E-04
   38.4049988       2.17755267E-04
   38.5200005       1.75536814E-04
   38.6349983       1.45238286E-04
   38.7500000       1.27951236E-04
   38.8650017       1.23409278E-04
   38.9799995       1.30193337E-04
   39.0950012       1.46093313E-04
   39.2099991       1.68523911E-04
   39.3250008       1.94890352E-04
   39.4399986       2.22835879E-04
   39.5550003       2.50352954E-04
   39.6699982       2.75792205E-04
   39.7849998       2.97834718E-04
   39.9000015       3.15494981E-04
   40.0149994       3.28191789E-04
   40.1300011       3.35878693E-04
   40.2449989       3.39177728E-04
   40.3600006       3.39435821E-04
   40.4749985       3.38630256E-04
   40.5900002       3.39090126E-04
   40.7050018       3.43062420E-04
   40.8199997       3.52211879E-04
   40.9350014       3.67183355E-04
   41.0499992       3.87351814E-04
   41.1650009       4.10845067E-04
   41.2799988       4.34852729E-04
   41.3950005       4.56153095E-04
   41.5099983       4.71730280E-04
   41.6250000       4.79329610E-04
   41.7400017       4.77821886E-04
   41.8549995       4.67307487E-04
   41.9700012       4.48967970E-04
   42.0849991       4.24745900E-04
   42.2000008       3.96966323E-04
   42.3149986       3.68016161E-04
   42.4300003       3.40148952E-04
   42.5449982       3.15427489E-04
   42.6599998       2.95748207E-04
   42.7750015       2.82864959E-04
   42.8899994       2.78331572E-04
   43.0050011       2.83322792E-04
   43.1199989       2.98358005E-04
   43.2350006       3.23009415E-04
   43.3499985       3.55708500E-04
   43.4650002       3.93754512E-04
   43.5800018       4.33579524E-04
   43.6949997       4.71248350E-04
   43.8100014       5.03095624E-04
   43.9249992       5.26353600E-04
   44.0400009       5.39613655E-04
   44.1549988       5.43010363E-04
   44.2700005       5.38087625E-04
   44.3849983       5.27393539E-04
