  -1.50000000         0.00000000    
  -1.38499999        -1.16010068E-09
  -1.26999998        -7.30745153E-09
  -1.15499997        -2.84742985E-08
  -1.03999996        -8.64781740E-08
 -0.925000012        -2.24940905E-07
 -0.810000002        -5.25964765E-07
 -0.694999993        -1.13456952E-06
 -0.579999983        -2.28844783E-06
 -0.465000004        -4.34384356E-06
 -0.349999994        -7.77883270E-06
 -0.234999999        -1.31456482E-05
 -0.119999997        -2.09392347E-05
  -4.99999989E-03    -3.13567398E-05
  0.109999999        -4.39476025E-05
  0.224999994        -5.71958844E-05
  0.340000004        -6.81262973E-05
  0.455000013        -7.20647295E-05
  0.569999993        -6.26914625E-05
  0.685000002        -3.24845350E-05
  0.800000012         2.64372811E-05
  0.915000021         1.21178848E-04
   1.02999997         2.56853178E-04
   1.14499998         4.35556198E-04
   1.25999999         6.55780837E-04
   1.37500000         9.12419637E-04
   1.49000001         1.19735568E-03
   1.60500002         1.50048803E-03
   1.72000003         1.81093859E-03
   1.83500004         2.11816723E-03
   1.95000005         2.41279602E-03
   2.06500006         2.68706866E-03
   2.18000007         2.93500954E-03
   2.29500008         3.15242889E-03
   2.41000009         3.33693367E-03
   2.52500010         3.48803215E-03
   2.64000010         3.60730337E-03
   2.75500011         3.69849405E-03
   2.86999989         3.76737048E-03
   2.98499990         3.82118439E-03
   3.09999990         3.86773655E-03
   3.21499991         3.91418859E-03
   3.32999992         3.96588538E-03
   3.44499993         4.02551657E-03
   3.55999994         4.09285910E-03
   3.67499995         4.16521076E-03
   3.78999996         4.23838571E-03
   3.90499997         4.30799788E-03
   4.01999998         4.37065354E-03
   4.13500023         4.42472287E-03
   4.25000000         4.47051134E-03
   4.36499977         4.50985553E-03
   4.48000002         4.54537477E-03
   4.59499979         4.57967445E-03
   4.71000004         4.61480999E-03
   4.82499981         4.65217279E-03
   4.94000006         4.69274633E-03
   5.05499983         4.73754853E-03
   5.17000008         4.78796149E-03
   5.28499985         4.84571001E-03
   5.40000010         4.91240388E-03
   5.51499987         4.98875557E-03
   5.63000011         5.07375784E-03
   5.74499989         5.16418368E-03
   5.86000013         5.25468169E-03
   5.97499990         5.33857336E-03
   6.09000015         5.40918903E-03
   6.20499992         5.46139944E-03
   6.32000017         5.49288187E-03
   6.43499994         5.50472876E-03
   6.55000019         5.50121628E-03
   6.66499996         5.48879337E-03
   6.78000021         5.47461584E-03
   6.89499998         5.46507025E-03
   7.01000023         5.46471309E-03
   7.12500000         5.47587592E-03
   7.23999977         5.49895084E-03
   7.35500002         5.53310756E-03
   7.46999979         5.57709206E-03
   7.58500004         5.62974066E-03
   7.69999981         5.69000980E-03
   7.81500006         5.75655187E-03
   7.92999983         5.82708884E-03
   8.04500008         5.89793641E-03
   8.15999985         5.96401468E-03
   8.27499962         6.01949310E-03
   8.39000034         6.05897373E-03
   8.50500011         6.07887795E-03
   8.61999989         6.07859856E-03
   8.73499966         6.06098585E-03
   8.85000038         6.03196071E-03
   8.96500015         5.99931087E-03
   9.07999992         5.97099168E-03
   9.19499969         5.95341902E-03
   9.31000042         5.95024461E-03
   9.42500019         5.96192898E-03
   9.53999996         5.98616060E-03
   9.65499973         6.01891149E-03
   9.77000046         6.05571130E-03
   9.88500023         6.09271135E-03
   10.0000000         6.12722430E-03
   10.1149998         6.15766365E-03
   10.2299995         6.18303847E-03
   10.3450003         6.20233547E-03
   10.4600000         6.21414045E-03
   10.5749998         6.21672440E-03
   10.6899996         6.20861445E-03
   10.8050003         6.18943479E-03
   10.9200001         6.16066298E-03
   11.0349998         6.12593628E-03
   11.1499996         6.09068573E-03
   11.2650003         6.06110459E-03
   11.3800001         6.04271144E-03
   11.4949999         6.03891956E-03
   11.6099997         6.05005492E-03
   11.7250004         6.07313681E-03
   11.8400002         6.10248791E-03
   11.9549999         6.13099942E-03
   12.0699997         6.15167245E-03
   12.1850004         6.15899870E-03
   12.3000002         6.14983076E-03
   12.4150000         6.12358609E-03
   12.5299997         6.08185586E-03
   12.6450005         6.02766592E-03
   12.7600002         5.96471364E-03
   12.8750000         5.89684444E-03
   12.9899998         5.82788093E-03
   13.1049995         5.76173002E-03
   13.2200003         5.70256216E-03
   13.3350000         5.65481698E-03
   13.4499998         5.62286610E-03
   13.5649996         5.61030721E-03
   13.6800003         5.61905699E-03
   13.7950001         5.64852729E-03
   13.9099998         5.69517398E-03
   14.0249996         5.75264869E-03
   14.1400003         5.81259141E-03
   14.2550001         5.86590497E-03
   14.3699999         5.90421911E-03
   14.4849997         5.92119806E-03
   14.6000004         5.91338985E-03
   14.7150002         5.88048575E-03
   14.8299999         5.82501106E-03
   14.9449997         5.75162563E-03
   15.0600004         5.66628017E-03
   15.1750002         5.57544595E-03
   15.2900000         5.48554258E-03
   15.4049997         5.40257897E-03
   15.5200005         5.33190928E-03
   15.6350002         5.27798943E-03
   15.7500000         5.24405483E-03
   15.8649998         5.23170829E-03
   15.9799995         5.24052279E-03
   16.0949993         5.26780915E-03
   16.2099991         5.30868908E-03
   16.3250008         5.35655813E-03
   16.4400005         5.40389074E-03
   16.5550003         5.44325961E-03
   16.6700001         5.46833733E-03
   16.7849998         5.47468197E-03
   16.8999996         5.46015799E-03
   17.0149994         5.42493770E-03
   17.1299992         5.37116406E-03
   17.2450008         5.30240219E-03
   17.3600006         5.22303395E-03
   17.4750004         5.13772061E-03
   17.5900002         5.05097490E-03
   17.7049999         4.96683922E-03
   17.8199997         4.88861790E-03
   17.9349995         4.81862668E-03
   18.0499992         4.75796079E-03
   18.1650009         4.70634177E-03
   18.2800007         4.66211466E-03
   18.3950005         4.62247059E-03
   18.5100002         4.58391383E-03
   18.6250000         4.54290397E-03
   18.7399998         4.49654460E-03
   18.8549995         4.44314396E-03
   18.9699993         4.38250741E-03
   19.0849991         4.31588897E-03
   19.2000008         4.24563373E-03
   19.3150005         4.17462830E-03
   19.4300003         4.10573324E-03
   19.5450001         4.04134952E-03
   19.6599998         3.98319773E-03
   19.7749996         3.93231492E-03
   19.8899994         3.88916605E-03
   20.0049992         3.85375228E-03
   20.1200008         3.82562424E-03
   20.2350006         3.80377192E-03
   20.3500004         3.78646585E-03
   20.4650002         3.77118099E-03
   20.5799999         3.75474012E-03
   20.6949997         3.73374997E-03
   20.8099995         3.70528968E-03
   20.9249992         3.66769428E-03
   21.0400009         3.62119265E-03
   21.1550007         3.56818223E-03
   21.2700005         3.51298437E-03
   21.3850002         3.46110179E-03
   21.5000000         3.41814081E-03
   21.6149998         3.38868634E-03
   21.7299995         3.37542756E-03
   21.8449993         3.37876449E-03
   21.9599991         3.39696370E-03
   22.0750008         3.42675252E-03
   22.1900005         3.46412323E-03
   22.3050003         3.50505859E-03
   22.4200001         3.54596903E-03
   22.5349998         3.58376279E-03
   22.6499996         3.61563778E-03
   22.7649994         3.63881071E-03
   22.8799992         3.65041965E-03
   22.9950008         3.64776026E-03
   23.1100006         3.62886931E-03
   23.2250004         3.59328836E-03
   23.3400002         3.54271941E-03
   23.4549999         3.48127517E-03
   23.5699997         3.41512752E-03
   23.6849995         3.35154193E-03
   23.7999992         3.29751265E-03
   23.9150009         3.25835147E-03
   24.0300007         3.23663652E-03
   24.1450005         3.23182507E-03
   24.2600002         3.24062956E-03
   24.3750000         3.25802946E-03
   24.4899998         3.27858422E-03
   24.6049995         3.29764700E-03
   24.7199993         3.31213465E-03
   24.8349991         3.32068675E-03
   24.9500008         3.32327792E-03
   25.0650005         3.32053006E-03
   25.1800003         3.31306621E-03
   25.2950001         3.30119231E-03
   25.4099998         3.28503503E-03
   25.5249996         3.26504838E-03
   25.6399994         3.24262888E-03
   25.7549992         3.22050485E-03
   25.8700008         3.20263277E-03
   25.9850006         3.19351722E-03
   26.1000004         3.19709070E-03
   26.2150002         3.21549433E-03
   26.3299999         3.24816699E-03
   26.4449997         3.29158804E-03
   26.5599995         3.33982473E-03
   26.6749992         3.38576571E-03
   26.7900009         3.42270802E-03
   26.9050007         3.44584254E-03
   27.0200005         3.45321093E-03
   27.1350002         3.44589911E-03
   27.2500000         3.42746312E-03
   27.3649998         3.40284500E-03
   27.4799995         3.37716192E-03
   27.5949993         3.35476012E-03
   27.7099991         3.33878142E-03
   27.8250008         3.33127705E-03
   27.9400005         3.33367940E-03
   28.0550003         3.34731583E-03
   28.1700001         3.37365526E-03
   28.2849998         3.41410306E-03
   28.3999996         3.46937915E-03
   28.5149994         3.53871100E-03
   28.6299992         3.61919194E-03
   28.7450008         3.70563893E-03
   28.8600006         3.79112712E-03
   28.9750004         3.86815751E-03
   29.0900002         3.93017055E-03
   29.2049999         3.97299696E-03
   29.3199997         3.99581809E-03
   29.4349995         4.00135433E-03
   29.5499992         3.99524532E-03
   29.6650009         3.98480659E-03
   29.7800007         3.97754507E-03
   29.8950005         3.97984963E-03
   30.0100002         3.99617618E-03
   30.1250000         4.02885024E-03
   30.2399998         4.07840312E-03
   30.3549995         4.14417638E-03
   30.4699993         4.22488479E-03
   30.5849991         4.31889948E-03
   30.7000008         4.42416221E-03
   30.8150005         4.53785202E-03
   30.9300003         4.65602428E-03
   31.0450001         4.77350689E-03
   31.1599998         4.88423416E-03
   31.2749996         4.98203421E-03
   31.3899994         5.06170699E-03
   31.5049992         5.12008928E-03
   31.6200008         5.15677035E-03
   31.7350006         5.17422752E-03
   31.8500004         5.17729949E-03
   31.9650002         5.17214276E-03
   32.0800018         5.16494969E-03
   32.1949997         5.16078528E-03
   32.3100014         5.16282814E-03
   32.4249992         5.17216278E-03
   32.5400009         5.18809445E-03
   32.6549988         5.20879170E-03
   32.7700005         5.23200119E-03
   32.8849983         5.25560230E-03
   33.0000000         5.27786929E-03
   33.1150017         5.29745873E-03
   33.2299995         5.31323673E-03
   33.3450012         5.32413507E-03
   33.4599991         5.32916561E-03
   33.5750008         5.32765081E-03
   33.6899986         5.31959906E-03
   33.8050003         5.30606462E-03
   33.9199982         5.28930500E-03
   34.0349998         5.27262408E-03
   34.1500015         5.25985705E-03
   34.2649994         5.25461696E-03
   34.3800011         5.25949383E-03
   34.4949989         5.27542550E-03
   34.6100006         5.30142523E-03
   34.7249985         5.33472188E-03
   34.8400002         5.37127163E-03
   34.9550018         5.40648587E-03
   35.0699997         5.43598225E-03
   35.1850014         5.45619428E-03
   35.2999992         5.46474289E-03
   35.4150009         5.46056312E-03
   35.5299988         5.44385705E-03
   35.6450005         5.41596068E-03
   35.7599983         5.37919765E-03
   35.8750000         5.33674331E-03
   35.9900017         5.29245567E-03
   36.1049995         5.25062205E-03
   36.2200012         5.21556195E-03
   36.3349991         5.19109424E-03
   36.4500008         5.17993793E-03
   36.5649986         5.18317567E-03
   36.6800003         5.19991992E-03
   36.7949982         5.22729103E-03
   36.9099998         5.26073901E-03
   37.0250015         5.29465405E-03
   37.1399994         5.32313390E-03
   37.2550011         5.34073915E-03
   37.3699989         5.34311030E-03
   37.4850006         5.32736070E-03
   37.5999985         5.29224146E-03
   37.7150002         5.23814978E-03
   37.8300018         5.16704097E-03
   37.9449997         5.08231483E-03
   38.0600014         4.98867501E-03
   38.1749992         4.89190500E-03
   38.2900009         4.79851384E-03
   38.4049988         4.71517816E-03
   38.5200005         4.64801630E-03
   38.6349983         4.60177893E-03
   38.7500000         4.57913801E-03
   38.8650017         4.58024116E-03
   38.9799995         4.60268650E-03
   39.0950012         4.64194501E-03
   39.2099991         4.69215680E-03
   39.3250008         4.74710763E-03
   39.4399986         4.80116066E-03
   39.5550003         4.84992657E-03
   39.6699982         4.89056157E-03
   39.7849998         4.92171291E-03
   39.9000015         4.94321296E-03
   40.0149994         4.95572714E-03
   40.1300011         4.96048853E-03
   40.2449989         4.95921681E-03
   40.3600006         4.95417416E-03
   40.4749985         4.94823651E-03
   40.5900002         4.94481716E-03
   40.7050018         4.94752359E-03
   40.8199997         4.95954463E-03
   40.9350014         4.98288497E-03
   41.0499992         5.01767918E-03
   41.1650009         5.06182155E-03
   41.2799988         5.11110527E-03
   41.3950005         5.15990332E-03
   41.5099983         5.20225242E-03
   41.6250000         5.23307081E-03
   41.7400017         5.24917897E-03
   41.8549995         5.24984300E-03
   41.9700012         5.23671275E-03
   42.0849991         5.21321315E-03
   42.2000008         5.18360967E-03
   42.3149986         5.15205786E-03
   42.4300003         5.12192585E-03
   42.5449982         5.09554008E-03
   42.6599998         5.07434551E-03
   42.7750015         5.05930325E-03
   42.8899994         5.05127152E-03
   43.0050011         5.05113974E-03
   43.1199989         5.05960546E-03
   43.2350006         5.07666590E-03
   43.3499985         5.10102464E-03
   43.4650002         5.12972241E-03
   43.5800018         5.15821576E-03
   43.6949997         5.18100662E-03
   43.8100014         5.19272313E-03
   43.9249992         5.18936338E-03
   44.0400009         5.16933808E-03
   44.1549988         5.13397902E-03
   44.2700005         5.08732814E-03
   44.3849983         5.03525184E-03
