  -1.50000000         4.69271597E-18
  -1.38125002        -7.17088333E-10
  -1.26250005        -3.01528669E-09
  -1.14374995        -8.59339000E-09
  -1.02499998        -2.07039843E-08
 -0.906250000        -4.50721735E-08
 -0.787500024        -9.05778705E-08
 -0.668749988        -1.68656797E-07
 -0.550000012        -2.89623500E-07
 -0.431250006        -4.53610795E-07
 -0.312500000        -6.34207595E-07
 -0.193749994        -7.54846326E-07
  -7.50000030E-02    -6.61772901E-07
   4.37499993E-02    -1.02308995E-07
  0.162499994         1.27872033E-06
  0.281250000         3.91045023E-06
  0.400000006         8.22523634E-06
  0.518750012         1.45446011E-05
  0.637499988         2.29329326E-05
  0.756250024         3.30418661E-05
  0.875000000         4.39762334E-05
  0.993749976         5.42136695E-05
   1.11249995         6.16041507E-05
   1.23125005         6.34637909E-05
   1.35000002         5.67618772E-05
   1.46875000         3.83842489E-05
   1.58749998         5.44258683E-06
   1.70624995        -4.44097204E-05
   1.82500005        -1.12697846E-04
   1.94375002        -1.99921138E-04
   2.06250000        -3.05454276E-04
   2.18125010        -4.27570048E-04
   2.29999995        -5.63583628E-04
   2.41875005        -7.10100692E-04
   2.53749990        -8.63338355E-04
   2.65625000        -1.01947505E-03
   2.77500010        -1.17498462E-03
   2.89374995        -1.32690975E-03
   3.01250005        -1.47303869E-03
   3.13124990        -1.61196594E-03
   3.25000000        -1.74303108E-03
   3.36875010        -1.86615158E-03
   3.48749995        -1.98157877E-03
   3.60625005        -2.08961894E-03
   3.72499990        -2.19036755E-03
   3.84375000        -2.28350144E-03
   3.96250010        -2.36816611E-03
   4.08125019        -2.44297949E-03
   4.19999981        -2.50616134E-03
   4.31874990        -2.55576614E-03
   4.43750000        -2.58999434E-03
   4.55625010        -2.60753371E-03
   4.67500019        -2.60787527E-03
   4.79374981        -2.59155896E-03
   4.91249990        -2.56030075E-03
   5.03125000        -2.51697400E-03
   5.15000010        -2.46543949E-03
   5.26875019        -2.41023302E-03
   5.38749981        -2.35614623E-03
   5.50624990        -2.30775191E-03
   5.62500000        -2.26893020E-03
   5.74375010        -2.24245992E-03
   5.86250019        -2.22972780E-03
   5.98124981        -2.23059766E-03
   6.09999990        -2.24345620E-03
   6.21875000        -2.26543634E-03
   6.33750010        -2.29278719E-03
   6.45625019        -2.32134527E-03
   6.57499981        -2.34704791E-03
   6.69374990        -2.36642011E-03
   6.81250000        -2.37697316E-03
   6.93125010        -2.37746467E-03
   7.05000019        -2.36798520E-03
   7.16874981        -2.34986725E-03
   7.28749990        -2.32542655E-03
   7.40625000        -2.29758071E-03
   7.52500010        -2.26939400E-03
   7.64375019        -2.24361778E-03
   7.76249981        -2.22229050E-03
   7.88124990        -2.20645219E-03
   8.00000000        -2.19601695E-03
   8.11874962        -2.18981784E-03
   8.23750019        -2.18581874E-03
   8.35624981        -2.18146271E-03
   8.47500038        -2.17410387E-03
   8.59375000        -2.16146302E-03
   8.71249962        -2.14203843E-03
   8.83125019        -2.11541005E-03
   8.94999981        -2.08239281E-03
   9.06875038        -2.04501185E-03
   9.18750000        -2.00630026E-03
   9.30624962        -1.96994026E-03
   9.42500019        -1.93979905E-03
   9.54374981        -1.91941578E-03
   9.66250038        -1.91151223E-03
   9.78125000        -1.91759213E-03
   9.89999962        -1.93768449E-03
   10.0187502        -1.97026902E-03
   10.1374998        -2.01239390E-03
   10.2562504        -2.05997424E-03
   10.3750000        -2.10823305E-03
   10.4937496        -2.15223036E-03
   10.6125002        -2.18741130E-03
   10.7312498        -2.21010298E-03
   10.8500004        -2.21790234E-03
   10.9687500        -2.20990204E-03
   11.0874996        -2.18673423E-03
   11.2062502        -2.15042802E-03
   11.3249998        -2.10410892E-03
   11.4437504        -2.05157767E-03
   11.5625000        -1.99683593E-03
   11.6812496        -1.94361620E-03
   11.8000002        -1.89498288E-03
   11.9187498        -1.85304985E-03
   12.0375004        -1.81885227E-03
   12.1562500        -1.79237814E-03
   12.2749996        -1.77274935E-03
   12.3937502        -1.75851653E-03
   12.5124998        -1.74802134E-03
   12.6312504        -1.73976598E-03
   12.7500000        -1.73273508E-03
   12.8687496        -1.72662025E-03
   12.9875002        -1.72191346E-03
   13.1062498        -1.71985582E-03
   13.2250004        -1.72225037E-03
   13.3437500        -1.73116545E-03
   13.4624996        -1.74857257E-03
   13.5812502        -1.77597394E-03
   13.6999998        -1.81407249E-03
   13.8187504        -1.86253514E-03
   13.9375000        -1.91988377E-03
   14.0562496        -1.98353315E-03
   14.1750002        -2.04997323E-03
   14.2937498        -2.11507292E-03
   14.4125004        -2.17446685E-03
   14.5312500        -2.22397898E-03
   14.6499996        -2.26002187E-03
   14.7687502        -2.27993377E-03
   14.8874998        -2.28220085E-03
   15.0062504        -2.26655183E-03
   15.1250000        -2.23391317E-03
   15.2437496        -2.18623946E-03
   15.3625002        -2.12624832E-03
   15.4812498        -2.05710065E-03
   15.6000004        -1.98207214E-03
   15.7187500        -1.90425757E-03
   15.8374996        -1.82635011E-03
   15.9562502        -1.75051263E-03
   16.0750008        -1.67835341E-03
   16.1937504        -1.61099574E-03
   16.3125000        -1.54921855E-03
   16.4312496        -1.49363501E-03
   16.5499992        -1.44487189E-03
   16.6687508        -1.40371185E-03
   16.7875004        -1.37117051E-03
   16.9062500        -1.34849129E-03
   17.0249996        -1.33705395E-03
   17.1437492        -1.33820984E-03
   17.2625008        -1.35306886E-03
   17.3812504        -1.38227316E-03
   17.5000000        -1.42579223E-03
   17.6187496        -1.48277939E-03
   17.7374992        -1.55151426E-03
   17.8562508        -1.62944733E-03
   17.9750004        -1.71334774E-03
   18.0937500        -1.79953885E-03
   18.2124996        -1.88419374E-03
   18.3312492        -1.96365477E-03
   18.4500008        -2.03473307E-03
   18.5687504        -2.09495309E-03
   18.6875000        -2.14270782E-03
   18.8062496        -2.17731087E-03
   18.9249992        -2.19893665E-03
   19.0437508        -2.20846757E-03
   19.1625004        -2.20726919E-03
   19.2812500        -2.19693547E-03
   19.3999996        -2.17903615E-03
   19.5187492        -2.15491350E-03
   19.6375008        -2.12555146E-03
   19.7562504        -2.09153839E-03
   19.8750000        -2.05312693E-03
   19.9937496        -2.01037270E-03
   20.1124992        -1.96333299E-03
   20.2312508        -1.91227859E-03
   20.3500004        -1.85788726E-03
   20.4687500        -1.80137472E-03
   20.5874996        -1.74453575E-03
   20.7062492        -1.68967794E-03
   20.8250008        -1.63944950E-03
   20.9437504        -1.59657781E-03
   21.0625000        -1.56355230E-03
   21.1812496        -1.54229358E-03
   21.2999992        -1.53385894E-03
   21.4187508        -1.53822778E-03
   21.5375004        -1.55420543E-03
   21.6562500        -1.57946558E-03
   21.7749996        -1.61073415E-03
   21.8937492        -1.64409867E-03
   22.0125008        -1.67540775E-03
   22.1312504        -1.70071167E-03
   22.2500000        -1.71668979E-03
   22.3687496        -1.72100787E-03
   22.4874992        -1.71256100E-03
   22.6062508        -1.69156725E-03
   22.7250004        -1.65950076E-03
   22.8437500        -1.61887356E-03
   22.9624996        -1.57289463E-03
   23.0812492        -1.52505306E-03
   23.2000008        -1.47868216E-03
   23.3187504        -1.43656286E-03
   23.4375000        -1.40062207E-03
   23.5562496        -1.37176353E-03
   23.6749992        -1.34985498E-03
   23.7937508        -1.33387046E-03
   23.9125004        -1.32216280E-03
   24.0312500        -1.31282711E-03
   24.1499996        -1.30409736E-03
   24.2687492        -1.29471906E-03
   24.3875008        -1.28423632E-03
   24.5062504        -1.27315242E-03
   24.6250000        -1.26293267E-03
   24.7437496        -1.25584810E-03
   24.8624992        -1.25467568E-03
   24.9812508        -1.26229599E-03
   25.1000004        -1.28124445E-03
   25.2187500        -1.31327903E-03
   25.3374996        -1.35902653E-03
   25.4562492        -1.41776330E-03
   25.5750008        -1.48736511E-03
   25.6937504        -1.56443892E-03
   25.8125000        -1.64462766E-03
   25.9312496        -1.72305154E-03
   26.0499992        -1.79483159E-03
   26.1687508        -1.85563089E-03
   26.2875004        -1.90214114E-03
   26.4062500        -1.93245430E-03
   26.5249996        -1.94626907E-03
   26.6437492        -1.94490596E-03
   26.7625008        -1.93112716E-03
   26.8812504        -1.90878869E-03
   27.0000000        -1.88236684E-03
   27.1187496        -1.85642205E-03
   27.2374992        -1.83506927E-03
   27.3562508        -1.82152377E-03
   27.4750004        -1.81777647E-03
   27.5937500        -1.82443880E-03
   27.7124996        -1.84077222E-03
   27.8312492        -1.86489162E-03
   27.9500008        -1.89410790E-03
   28.0687504        -1.92536076E-03
   28.1875000        -1.95567613E-03
   28.3062496        -1.98258320E-03
   28.4249992        -2.00443552E-03
   28.5437508        -2.02059001E-03
   28.6625004        -2.03142245E-03
   28.7812500        -2.03818199E-03
   28.8999996        -2.04270915E-03
   29.0187492        -2.04705866E-03
   29.1375008        -2.05309107E-03
   29.2562504        -2.06208695E-03
   29.3750000        -2.07444746E-03
   29.4937496        -2.08952674E-03
   29.6124992        -2.10562022E-03
   29.7312508        -2.12011626E-03
   29.8500004        -2.12979224E-03
   29.9687500        -2.13121530E-03
   30.0874996        -2.12119520E-03
   30.2062492        -2.09722924E-03
   30.3250008        -2.05787644E-03
   30.4437504        -2.00301362E-03
   30.5625000        -1.93393650E-03
   30.6812496        -1.85329292E-03
   30.7999992        -1.76485698E-03
   30.9187508        -1.67317397E-03
   31.0375004        -1.58312044E-03
   31.1562500        -1.49943773E-03
   31.2749996        -1.42629596E-03
   31.3937492        -1.36694231E-03
   31.5125008        -1.32347073E-03
   31.6312504        -1.29673886E-03
   31.7500000        -1.28643075E-03
   31.8687496        -1.29124767E-03
   31.9874992        -1.30919274E-03
   32.1062508        -1.33790390E-03
   32.2249985        -1.37498276E-03
   32.3437500        -1.41827588E-03
   32.4625015        -1.46606716E-03
   32.5812492        -1.51716406E-03
   32.7000008        -1.57086784E-03
   32.8187485        -1.62684650E-03
   32.9375000        -1.68493274E-03
   33.0562515        -1.74489280E-03
   33.1749992        -1.80620223E-03
   33.2937508        -1.86787592E-03
   33.4124985        -1.92838022E-03
   33.5312500        -1.98564888E-03
   33.6500015        -2.03720271E-03
   33.7687492        -2.08036345E-03
   33.8875008        -2.11252621E-03
   34.0062485        -2.13146140E-03
   34.1250000        -2.13559344E-03
   34.2437515        -2.12422456E-03
   34.3624992        -2.09766300E-03
   34.4812508        -2.05724407E-03
   34.5999985        -2.00523157E-03
   34.7187500        -1.94461911E-03
   34.8375015        -1.87885435E-03
   34.9562492        -1.81152299E-03
   35.0750008        -1.74603448E-03
   35.1937485        -1.68535090E-03
   35.3125000        -1.63178868E-03
   35.4312515        -1.58691837E-03
   35.5499992        -1.55156502E-03
   35.6687508        -1.52590254E-03
   35.7874985        -1.50961860E-03
   35.9062500        -1.50211784E-03
   36.0250015        -1.50272564E-03
   36.1437492        -1.51085865E-03
   36.2625008        -1.52613095E-03
   36.3812485        -1.54837989E-03
   36.5000000        -1.57760852E-03
   36.6187515        -1.61385525E-03
   36.7374992        -1.65701681E-03
   36.8562508        -1.70665758E-03
   36.9749985        -1.76184170E-03
   37.0937500        -1.82102504E-03
   37.2125015        -1.88203214E-03
   37.3312492        -1.94213388E-03
   37.4500008        -1.99822336E-03
   37.5687485        -2.04707542E-03
   37.6875000        -2.08565569E-03
   37.8062515        -2.11144378E-03
   37.9249992        -2.12271954E-03
   38.0437508        -2.11878004E-03
   38.1624985        -2.10004370E-03
   38.2812500        -2.06803321E-03
   38.4000015        -2.02522613E-03
   38.5187492        -1.97479688E-03
   38.6375008        -1.92027539E-03
   38.7562485        -1.86517148E-03
   38.8750000        -1.81260915E-03
   38.9937515        -1.76502287E-03
   39.1124992        -1.72395410E-03
   39.2312508        -1.68997399E-03
   39.3499985        -1.66274037E-03
   39.4687500        -1.64118025E-03
   39.5875015        -1.62376533E-03
   39.7062492        -1.60884159E-03
   39.8250008        -1.59496150E-03
   39.9437485        -1.58116710E-03
   40.0625000        -1.56718236E-03
   40.1812515        -1.55348377E-03
   40.2999992        -1.54123642E-03
   40.4187508        -1.53210468E-03
   40.5374985        -1.52796460E-03
   40.6562500        -1.53055892E-03
   40.7750015        -1.54114980E-03
   40.8937492        -1.56022096E-03
   41.0125008        -1.58728065E-03
   41.1312485        -1.62079639E-03
   41.2500000        -1.65828271E-03
   41.3687515        -1.69653539E-03
   41.4874992        -1.73198571E-03
   41.6062508        -1.76113064E-03
   41.7249985        -1.78098434E-03
   41.8437500        -1.78948615E-03
   41.9625015        -1.78581150E-03
   42.0812492        -1.77053711E-03
   42.2000008        -1.74563495E-03
   42.3187485        -1.71429117E-03
   42.4375000        -1.68056739E-03
   42.5562515        -1.64894655E-03
   42.6749992        -1.62382028E-03
   42.7937508        -1.60898059E-03
   42.9124985        -1.60718372E-03
   43.0312500        -1.61983981E-03
   43.1500015        -1.64686935E-03
   43.2687492        -1.68674171E-03
   43.3875008        -1.73669076E-03
   43.5062485        -1.79307477E-03
   43.6250000        -1.85183319E-03
   43.7437515        -1.90897635E-03
   43.8624992        -1.96104404E-03
   43.9812508        -2.00547022E-03
   44.0999985        -2.04080972E-03
   44.2187500        -2.06679641E-03
   44.3375015        -2.08423473E-03
   44.4562492        -2.09473725E-03
   44.5750008        -2.10035918E-03
   44.6937485        -2.10317713E-03
   44.8125000        -2.10488238E-03
   44.9312515        -2.10644631E-03
   45.0499992        -2.10790732E-03
   45.1687508        -2.10831640E-03
   45.2874985        -2.10584537E-03
   45.4062500        -2.09804927E-03
   45.5250015        -2.08224356E-03
   45.6437492        -2.05594394E-03
   45.7625008        -2.01730616E-03
   45.8812485        -1.96550507E-03
