  -1.50000000       0.00000000    
  -1.38499999       6.16070583E-10
  -1.26999998       2.01761940E-09
  -1.15499997       4.05834788E-09
  -1.03999996       6.16226981E-09
 -0.925000012       6.85830193E-09
 -0.810000002       2.39853248E-09
 -0.694999993      -1.61908655E-08
 -0.579999983      -6.79290295E-08
 -0.465000004      -1.87729697E-07
 -0.349999994      -4.30277652E-07
 -0.234999999      -8.66043592E-07
 -0.119999997      -1.56109752E-06
  -4.99999989E-03  -2.53241865E-06
  0.109999999      -3.67510415E-06
  0.224999994      -4.66815982E-06
  0.340000004      -4.87953048E-06
  0.455000013      -3.30361604E-06
  0.569999993       1.43143961E-06
  0.685000002       1.09592620E-05
  0.800000012       2.69708107E-05
  0.915000021       5.09400743E-05
   1.02999997       8.38396227E-05
   1.14499998       1.25918566E-04
   1.25999999       1.76604968E-04
   1.37500000       2.34560168E-04
   1.49000001       2.97867984E-04
   1.60500002       3.64300737E-04
   1.72000003       4.31585300E-04
   1.83500004       4.97601985E-04
   1.95000005       5.60483488E-04
   2.06500006       6.18625956E-04
   2.18000007       6.70662324E-04
   2.29500008       7.15456903E-04
   2.41000009       7.52167427E-04
   2.52500010       7.80374685E-04
   2.64000010       8.00236245E-04
   2.75500011       8.12590995E-04
   2.86999989       8.18939006E-04
   2.98499990       8.21258756E-04
   3.09999990       8.21678899E-04
   3.21499991       8.22082511E-04
   3.32999992       8.23754526E-04
   3.44499993       8.27183656E-04
   3.55999994       8.32078804E-04
   3.67499995       8.37596715E-04
   3.78999996       8.42701993E-04
   3.90499997       8.46537063E-04
   4.01999998       8.48680502E-04
   4.13500023       8.49215081E-04
   4.25000000       8.48600466E-04
   4.36499977       8.47420073E-04
   4.48000002       8.46115348E-04
   4.59499979       8.44823255E-04
   4.71000004       8.43383837E-04
   4.82499981       8.41511763E-04
   4.94000006       8.39055632E-04
   5.05499983       8.36222782E-04
   5.17000008       8.33659025E-04
   5.28499985       8.32325954E-04
   5.40000010       8.33199534E-04
   5.51499987       8.36889492E-04
   5.63000011       8.43322254E-04
   5.74499989       8.51615157E-04
   5.86000013       8.60209228E-04
   5.97499990       8.67235998E-04
   6.09000015       8.71009019E-04
   6.20499992       8.70483229E-04
   6.32000017       8.65534297E-04
   6.43499994       8.56971659E-04
   6.55000019       8.46291776E-04
   6.66499996       8.35265324E-04
   6.78000021       8.25504947E-04
   6.89499998       8.18155590E-04
   7.01000023       8.13794031E-04
   7.12500000       8.12538958E-04
   7.23999977       8.14289378E-04
   7.35500002       8.18966655E-04
   7.46999979       8.26637144E-04
   7.58500004       8.37454339E-04
   7.69999981       8.51436576E-04
   7.81500006       8.68177973E-04
   7.92999983       8.86621827E-04
   8.04500008       9.05020454E-04
   8.15999985       9.21132392E-04
   8.27499962       9.32629395E-04
   8.39000034       9.37600271E-04
   8.50500011       9.35002463E-04
   8.61999989       9.24921129E-04
   8.73499966       9.08561400E-04
   8.85000038       8.87982664E-04
   8.96500015       8.65667418E-04
   9.07999992       8.44059163E-04
   9.19499969       8.25201278E-04
   9.31000042       8.10557627E-04
   9.42500019       8.01021000E-04
   9.53999996       7.97046290E-04
   9.65499973       7.98811496E-04
   9.77000046       8.06312251E-04
   9.88500023       8.19341978E-04
   10.0000000       8.37374304E-04
   10.1149998       8.59415682E-04
   10.2299995       8.83920118E-04
   10.3450003       9.08842834E-04
   10.4600000       9.31855582E-04
   10.5749998       9.50688496E-04
   10.6899996       9.63509083E-04
   10.8050003       9.69231653E-04
   10.9200001       9.67671280E-04
   11.0349998       9.59503697E-04
   11.1499996       9.46056738E-04
   11.2650003       9.29004047E-04
   11.3800001       9.10054776E-04
   11.4949999       8.90716736E-04
   11.6099997       8.72173172E-04
   11.7250004       8.55265127E-04
   11.8400002       8.40535853E-04
   11.9549999       8.28284828E-04
   12.0699997       8.18591448E-04
   12.1850004       8.11299251E-04
   12.3000002       8.05987278E-04
   12.4150000       8.01967399E-04
   12.5299997       7.98344729E-04
   12.6450005       7.94150808E-04
   12.7600002       7.88528123E-04
   12.8750000       7.80913164E-04
   12.9899998       7.71163963E-04
   13.1049995       7.59589486E-04
   13.2200003       7.46873324E-04
   13.3350000       7.33921013E-04
   13.4499998       7.21682271E-04
   13.5649996       7.11004832E-04
   13.6800003       7.02554826E-04
   13.7950001       6.96806819E-04
   13.9099998       6.94075075E-04
   14.0249996       6.94543822E-04
   14.1400003       6.98260090E-04
   14.2550001       7.05080689E-04
   14.3699999       7.14597525E-04
   14.4849997       7.26088998E-04
   14.6000004       7.38546601E-04
   14.7150002       7.50802865E-04
   14.8299999       7.61744275E-04
   14.9449997       7.70554296E-04
   15.0600004       7.76906323E-04
   15.1750002       7.81033363E-04
   15.2900000       7.83638214E-04
   15.4049997       7.85663608E-04
   15.5200005       7.87991274E-04
   15.6350002       7.91167491E-04
   15.7500000       7.95246800E-04
   15.8649998       7.99800444E-04
   15.9799995       8.04077310E-04
   16.0949993       8.07247823E-04
   16.2099991       8.08633748E-04
   16.3250008       8.07834731E-04
   16.4400005       8.04711832E-04
   16.5550003       7.99247937E-04
   16.6700001       7.91363767E-04
   16.7849998       7.80789007E-04
   16.8999996       7.67071440E-04
   17.0149994       7.49747909E-04
   17.1299992       7.28632382E-04
   17.2450008       7.04117003E-04
   17.3600006       6.77360105E-04
   17.4750004       6.50266302E-04
   17.5900002       6.25228102E-04
   17.7049999       6.04685920E-04
   17.8199997       5.90629061E-04
   17.9349995       5.84188150E-04
   18.0499992       5.85441536E-04
   18.1650009       5.93486882E-04
   18.2800007       6.06739311E-04
   18.3950005       6.23343978E-04
   18.5100002       6.41559134E-04
   18.6250000       6.59987854E-04
   18.7399998       6.77605916E-04
   18.8549995       6.93616807E-04
   18.9699993       7.07236410E-04
   19.0849991       7.17535440E-04
   19.2000008       7.23441190E-04
   19.3150005       7.23929144E-04
   19.4300003       7.18350231E-04
   19.5450001       7.06771680E-04
   19.6599998       6.90190063E-04
   19.7749996       6.70509005E-04
   19.8899994       6.50254078E-04
   20.0049992       6.32088981E-04
   20.1200008       6.18271646E-04
   20.2350006       6.10211864E-04
   20.3500004       6.08259987E-04
   20.4650002       6.11777417E-04
   20.5799999       6.19444880E-04
   20.6949997       6.29688438E-04
   20.8099995       6.41073741E-04
   20.9249992       6.52544142E-04
   21.0400009       6.63447776E-04
   21.1550007       6.73386268E-04
   21.2700005       6.81981328E-04
   21.3850002       6.88686385E-04
   21.5000000       6.92740257E-04
   21.6149998       6.93294860E-04
   21.7299995       6.89674111E-04
   21.8449993       6.81658101E-04
   21.9599991       6.69673609E-04
   22.0750008       6.54800388E-04
   22.1900005       6.38573430E-04
   22.3050003       6.22634543E-04
   22.4200001       6.08347822E-04
   22.5349998       5.96502854E-04
   22.6499996       5.87202318E-04
   22.7649994       5.79961459E-04
   22.8799992       5.73974627E-04
   22.9950008       5.68448915E-04
   23.1100006       5.62887872E-04
   23.2250004       5.57237072E-04
   23.3400002       5.51859499E-04
   23.4549999       5.47371223E-04
   23.5699997       5.44418523E-04
   23.6849995       5.43483940E-04
   23.7999992       5.44789887E-04
   23.9150009       5.48318727E-04
   24.0300007       5.53915917E-04
   24.1450005       5.61413239E-04
   24.2600002       5.70703123E-04
   24.3750000       5.81725093E-04
   24.4899998       5.94366866E-04
   24.6049995       6.08325412E-04
   24.7199993       6.22993684E-04
   24.8349991       6.37431920E-04
   24.9500008       6.50451111E-04
   25.0650005       6.60791469E-04
   25.1800003       6.67344255E-04
   25.2950001       6.69349858E-04
   25.4099998       6.66515203E-04
   25.5249996       6.59026846E-04
   25.6399994       6.47473033E-04
   25.7549992       6.32716343E-04
   25.8700008       6.15766330E-04
   25.9850006       5.97688020E-04
   26.1000004       5.79552841E-04
   26.2150002       5.62412839E-04
   26.3299999       5.47263422E-04
   26.4449997       5.34968800E-04
   26.5599995       5.26147138E-04
   26.6749992       5.21042268E-04
   26.7900009       5.19431022E-04
   26.9050007       5.20614849E-04
   27.0200005       5.23521274E-04
   27.1350002       5.26905002E-04
   27.2500000       5.29597746E-04
   27.3649998       5.30736346E-04
   27.4799995       5.29901590E-04
   27.5949993       5.27132885E-04
   27.7099991       5.22826449E-04
   27.8250008       5.17568493E-04
   27.9400005       5.11974911E-04
   28.0550003       5.06599317E-04
   28.1700001       5.01936185E-04
   28.2849998       4.98497800E-04
   28.3999996       4.96905530E-04
   28.5149994       4.97921719E-04
   28.6299992       5.02371637E-04
   28.7450008       5.10949350E-04
   28.8600006       5.23959752E-04
   28.9750004       5.41086716E-04
   29.0900002       5.61284774E-04
   29.2049999       5.82860084E-04
   29.3199997       6.03741035E-04
   29.4349995       6.21874817E-04
   29.5499992       6.35634351E-04
   29.6650009       6.44111598E-04
   29.7800007       6.47212146E-04
   29.8950005       6.45529886E-04
   30.0100002       6.40061509E-04
   30.1250000       6.31871633E-04
   30.2399998       6.21831568E-04
   30.3549995       6.10520714E-04
   30.4699993       5.98308048E-04
   30.5849991       5.85556729E-04
   30.7000008       5.72841789E-04
   30.8150005       5.61064866E-04
   30.9300003       5.51391277E-04
   31.0450001       5.45007642E-04
   31.1599998       5.42778813E-04
   31.2749996       5.44931216E-04
   31.3899994       5.50892437E-04
   31.5049992       5.59366017E-04
   31.6200008       5.68639021E-04
   31.7350006       5.77029947E-04
   31.8500004       5.83334069E-04
   31.9650002       5.87116112E-04
   32.0800018       5.88754076E-04
   32.1949997       5.89225907E-04
   32.3100014       5.89718984E-04
   32.4249992       5.91206423E-04
   32.5400009       5.94138168E-04
   32.6549988       5.98349317E-04
   32.7700005       6.03202148E-04
   32.8849983       6.07892347E-04
   33.0000000       6.11788244E-04
   33.1150017       6.14668010E-04
   33.2299995       6.16763369E-04
   33.3450012       6.18601043E-04
   33.4599991       6.20713516E-04
   33.5750008       6.23345899E-04
   33.6899986       6.26286725E-04
   33.8050003       6.28900889E-04
   33.9199982       6.30362774E-04
   34.0349998       6.30006252E-04
   34.1500015       6.27659028E-04
   34.2649994       6.23829372E-04
   34.3800011       6.19664439E-04
   34.4949989       6.16683741E-04
   34.6100006       6.16370118E-04
   34.7249985       6.19753380E-04
   34.8400002       6.27122063E-04
   34.9550018       6.37950958E-04
   35.0699997       6.51055889E-04
   35.1850014       6.64908439E-04
   35.2999992       6.77995034E-04
   35.4150009       6.89101522E-04
   35.5299988       6.97444950E-04
   35.6450005       7.02638878E-04
   35.7599983       7.04546401E-04
   35.8750000       7.03112455E-04
   35.9900017       6.98265852E-04
   36.1049995       6.89942390E-04
   36.2200012       6.78221171E-04
   36.3349991       6.63511630E-04
   36.4500008       6.46701199E-04
   36.5649986       6.29182498E-04
   36.6800003       6.12723408E-04
   36.7949982       5.99201652E-04
   36.9099998       5.90273470E-04
   37.0250015       5.87074202E-04
   37.1399994       5.90032781E-04
   37.2550011       5.98844897E-04
   37.3699989       6.12593722E-04
   37.4850006       6.29963703E-04
   37.5999985       6.49473281E-04
   37.7150002       6.69660571E-04
   37.8300018       6.89190289E-04
   37.9449997       7.06888444E-04
   38.0600014       7.21741817E-04
   38.1749992       7.32907443E-04
   38.2900009       7.39759125E-04
   38.4049988       7.41970667E-04
   38.5200005       7.39604002E-04
   38.6349983       7.33155583E-04
   38.7500000       7.23523321E-04
   38.8650017       7.11882603E-04
   38.9799995       6.99495373E-04
   39.0950012       6.87503489E-04
   39.2099991       6.76765339E-04
   39.3250008       6.67778426E-04
   39.4399986       6.60699152E-04
   39.5550003       6.55434676E-04
   39.6699982       6.51757524E-04
   39.7849998       6.49393536E-04
   39.9000015       6.48053945E-04
   40.0149994       6.47415116E-04
   40.1300011       6.47080713E-04
   40.2449989       6.46573608E-04
   40.3600006       6.45393156E-04
   40.4749985       6.43141218E-04
   40.5900002       6.39682461E-04
   40.7050018       6.35276549E-04
   40.8199997       6.30615919E-04
   40.9350014       6.26730558E-04
   41.0499992       6.24767679E-04
   41.1650009       6.25703193E-04
   41.2799988       6.30076276E-04
   41.3950005       6.37833669E-04
   41.5099983       6.48342248E-04
   41.6250000       6.60564343E-04
   41.7400017       6.73336966E-04
   41.8549995       6.85655919E-04
   41.9700012       6.96867704E-04
   42.0849991       7.06709514E-04
   42.2000008       7.15198228E-04
   42.3149986       7.22430996E-04
   42.4300003       7.28394138E-04
   42.5449982       7.32872461E-04
   42.6599998       7.35508453E-04
   42.7750015       7.35991751E-04
   42.8899994       7.34301109E-04
   43.0050011       7.30887114E-04
   43.1199989       7.26697966E-04
   43.2350006       7.23007717E-04
   43.3499985       7.21079647E-04
   43.4650002       7.21769407E-04
   43.5800018       7.25204940E-04
   43.6949997       7.30661675E-04
   43.8100014       7.36690417E-04
   43.9249992       7.41466589E-04
   44.0400009       7.43254204E-04
   44.1549988       7.40834046E-04
   44.2700005       7.33763387E-04
   44.3849983       7.22394092E-04
