  -1.50000000         6.58912761E-18
  -1.38125002        -1.08660181E-09
  -1.26250005        -4.56856819E-09
  -1.14374995        -1.30173623E-08
  -1.02499998        -3.13520019E-08
 -0.906250000        -6.82209134E-08
 -0.787500024        -1.37015036E-07
 -0.668749988        -2.54920423E-07
 -0.550000012        -4.37276384E-07
 -0.431250006        -6.83730320E-07
 -0.312500000        -9.53271979E-07
 -0.193749994        -1.12822715E-06
  -7.50000030E-02    -9.73047236E-07
   4.37499993E-02    -1.01163955E-07
  0.162499994         2.03046261E-06
  0.281250000         6.07782613E-06
  0.400000006         1.27019339E-05
  0.518750012         2.23946463E-05
  0.637499988         3.52550960E-05
  0.756250024         5.07516706E-05
  0.875000000         6.75166375E-05
  0.993749976         8.32226433E-05
   1.11249995         9.45814099E-05
   1.23125005         9.74866634E-05
   1.35000002         8.72998862E-05
   1.46875000         5.92531869E-05
   1.58749998         8.92253956E-06
   1.70624995        -6.72889364E-05
   1.82500005        -1.71722902E-04
   1.94375002        -3.05153255E-04
   2.06250000        -4.66634694E-04
   2.18125010        -6.53537689E-04
   2.29999995        -8.61767970E-04
   2.41875005        -1.08614564E-03
   2.53749990        -1.32089388E-03
   2.65625000        -1.56017323E-03
   2.77500010        -1.79859193E-03
   2.89374995        -2.03162339E-03
   3.01250005        -2.25587911E-03
   3.13124990        -2.46920134E-03
   3.25000000        -2.67057400E-03
   3.36875010        -2.85986811E-03
   3.48749995        -3.03746946E-03
   3.60625005        -3.20385373E-03
   3.72499990        -3.35917785E-03
   3.84375000        -3.50296148E-03
   3.96250010        -3.63391079E-03
   4.08125019        -3.74992611E-03
   4.19999981        -3.84829519E-03
   4.31874990        -3.92605131E-03
   4.43750000        -3.98044894E-03
   4.55625010        -4.00948199E-03
   4.67500019        -4.01237188E-03
   4.79374981        -3.98994004E-03
   4.91249990        -3.94480256E-03
   5.03125000        -3.88134294E-03
   5.15000010        -3.80544993E-03
   5.26875019        -3.72404652E-03
   5.38749981        -3.64444801E-03
   5.50624990        -3.57364141E-03
   5.62500000        -3.51756113E-03
   5.74375010        -3.48046492E-03
   5.86250019        -3.46448831E-03
   5.98124981        -3.46944085E-03
   6.09999990        -3.49287409E-03
   6.21875000        -3.53041850E-03
   6.33750010        -3.57634597E-03
   6.45625019        -3.62428930E-03
   6.57499981        -3.66802863E-03
   6.69374990        -3.70223681E-03
   6.81250000        -3.72309191E-03
   6.93125010        -3.72867589E-03
   7.05000019        -3.71911237E-03
   7.16874981        -3.69642559E-03
   7.28749990        -3.66414804E-03
   7.40625000        -3.62673635E-03
   7.52500010        -3.58887669E-03
   7.64375019        -3.55478143E-03
   7.76249981        -3.52757727E-03
   7.88124990        -3.50886909E-03
   8.00000000        -3.49854142E-03
   8.11874962        -3.49482428E-03
   8.23750019        -3.49461613E-03
   8.35624981        -3.49401077E-03
   8.47500038        -3.48895625E-03
   8.59375000        -3.47595126E-03
   8.71249962        -3.45267565E-03
   8.83125019        -3.41845769E-03
   8.94999981        -3.37451533E-03
   9.06875038        -3.32392333E-03
   9.18750000        -3.27130733E-03
   9.30624962        -3.22230021E-03
   9.42500019        -3.18283099E-03
   9.54374981        -3.15833953E-03
   9.66250038        -3.15302354E-03
   9.78125000        -3.16922250E-03
   9.89999962        -3.20701860E-03
   10.0187502        -3.26411868E-03
   10.1374998        -3.33602913E-03
   10.2562504        -3.41650844E-03
   10.3750000        -3.49824131E-03
   10.4937496        -3.57364514E-03
   10.6125002        -3.63571034E-03
   10.7312498        -3.67876468E-03
   10.8500004        -3.69906891E-03
   10.9687500        -3.69517109E-03
   11.0874996        -3.66798020E-03
   11.2062502        -3.62055469E-03
   11.3249998        -3.55764688E-03
   11.4437504        -3.48506286E-03
   11.5625000        -3.40893515E-03
   11.6812496        -3.33500141E-03
   11.8000002        -3.26798670E-03
   11.9187498        -3.21116601E-03
   12.0375004        -3.16615938E-03
   12.1562500        -3.13297426E-03
   12.2749996        -3.11027700E-03
   12.3937502        -3.09584313E-03
   12.5124998        -3.08711152E-03
   12.6312504        -3.08175292E-03
   12.7500000        -3.07816849E-03
   12.8687496        -3.07583949E-03
   12.9875002        -3.07547813E-03
   13.1062498        -3.07895639E-03
   13.2250004        -3.08902469E-03
   13.3437500        -3.10886116E-03
   13.4624996        -3.14151752E-03
   13.5812502        -3.18934536E-03
   13.6999998        -3.25348554E-03
   13.8187504        -3.33349593E-03
   13.9375000        -3.42717697E-03
   14.0562496        -3.53061967E-03
   14.1750002        -3.63847776E-03
   14.2937498        -3.74442898E-03
   14.4125004        -3.84176732E-03
   14.5312500        -3.92405177E-03
   14.6499996        -3.98572860E-03
   14.7687502        -4.02264809E-03
   14.8874998        -4.03242186E-03
   15.0062504        -4.01457073E-03
   15.1250000        -3.97046749E-03
   15.2437496        -3.90308048E-03
   15.3625002        -3.81657341E-03
   15.4812498        -3.71581363E-03
   15.6000004        -3.60586308E-03
   15.7187500        -3.49152111E-03
   15.8374996        -3.37697286E-03
   15.9562502        -3.26558435E-03
   16.0750008        -3.15985386E-03
   16.1937504        -3.06151318E-03
   16.3125000        -2.97173765E-03
   16.4312496        -2.89142295E-03
   16.5499992        -2.82146479E-03
   16.6687508        -2.76298705E-03
   16.7875004        -2.71747098E-03
   16.9062500        -2.68675713E-03
   17.0249996        -2.67291674E-03
   17.1437492        -2.67800456E-03
   17.2625008        -2.70373560E-03
   17.3812504        -2.75113690E-03
   17.5000000        -2.82023009E-03
   17.6187496        -2.90980167E-03
   17.7374992        -3.01730493E-03
   17.8562508        -3.13891773E-03
   17.9750004        -3.26975621E-03
   18.0937500        -3.40422476E-03
   18.2124996        -3.53646162E-03
   18.3312492        -3.66082252E-03
   18.4500008        -3.77234141E-03
   18.5687504        -3.86711070E-03
   18.6875000        -3.94253014E-03
   18.8062496        -3.99739854E-03
   18.9249992        -4.03183792E-03
   19.0437508        -4.04707622E-03
   19.1625004        -4.04511159E-03
   19.2812500        -4.02832730E-03
   19.3999996        -3.99911031E-03
   19.5187492        -3.95953236E-03
   19.6375008        -3.91114596E-03
   19.7562504        -3.85491573E-03
   19.8750000        -3.79130105E-03
   19.9937496        -3.72046046E-03
   20.1124992        -3.64254625E-03
   20.2312508        -3.55802779E-03
   20.3500004        -3.46798333E-03
   20.4687500        -3.37430183E-03
   20.5874996        -3.27974861E-03
   20.7062492        -3.18786991E-03
   20.8250008        -3.10273631E-03
   20.9437504        -3.02854902E-03
   21.0625000        -2.96916231E-03
   21.1812496        -2.92758225E-03
   21.2999992        -2.90551549E-03
   21.4187508        -2.90304096E-03
   21.5375004        -2.91845412E-03
   21.6562500        -2.94832420E-03
   21.7749996        -2.98776105E-03
   21.8937492        -3.03087989E-03
   22.0125008        -3.07140197E-03
   22.1312504        -3.10332212E-03
   22.2500000        -3.12156067E-03
   22.3687496        -3.12251481E-03
   22.4874992        -3.10443458E-03
   22.6062508        -3.06757540E-03
   22.7250004        -3.01410560E-03
   22.8437500        -2.94778123E-03
   22.9624996        -2.87343282E-03
   23.0812492        -2.79633328E-03
   23.2000008        -2.72153481E-03
   23.3187504        -2.65326281E-03
   23.4375000        -2.59444979E-03
   23.5562496        -2.54647480E-03
   23.6749992        -2.50913412E-03
   23.7937508        -2.48085172E-03
   23.9125004        -2.45908811E-03
   24.0312500        -2.44089146E-03
   24.1499996        -2.42350111E-03
   24.2687492        -2.40491587E-03
   24.3875008        -2.38434109E-03
   24.5062504        -2.36244034E-03
   24.6250000        -2.34135170E-03
   24.7437496        -2.32445658E-03
   24.8624992        -2.31593358E-03
   24.9812508        -2.32014921E-03
   25.1000004        -2.34097592E-03
   25.2187500        -2.38112966E-03
   25.3374996        -2.44162721E-03
   25.4562492        -2.52144295E-03
   25.5750008        -2.61742086E-03
   25.6937504        -2.72447104E-03
   25.8125000        -2.83602206E-03
   25.9312496        -2.94469041E-03
   26.0499992        -3.04307486E-03
   26.1687508        -3.12458305E-03
   26.2875004        -3.18417791E-03
   26.4062500        -3.21894954E-03
   26.5249996        -3.22843972E-03
   26.6437492        -3.21467454E-03
   26.7625008        -3.18189687E-03
   26.8812504        -3.13604088E-03
   27.0000000        -3.08401161E-03
   27.1187496        -3.03286477E-03
   27.2374992        -2.98899435E-03
   27.3562508        -2.95742741E-03
   27.4750004        -2.94132158E-03
   27.5937500        -2.94171576E-03
   27.7124996        -2.95756687E-03
   27.8312492        -2.98605277E-03
   27.9500008        -3.02309124E-03
   28.0687504        -3.06400075E-03
   28.1875000        -3.10420198E-03
   28.3062496        -3.13986233E-03
   28.4249992        -3.16839269E-03
   28.5437508        -3.18873278E-03
   28.6625004        -3.20138456E-03
   28.7812500        -3.20819882E-03
   28.8999996        -3.21194832E-03
   29.0187492        -3.21575557E-03
   29.1375008        -3.22245993E-03
   29.2562504        -3.23402486E-03
   29.3750000        -3.25106899E-03
   29.4937496        -3.27259465E-03
   29.6124992        -3.29596200E-03
   29.7312508        -3.31711257E-03
   29.8500004        -3.33101838E-03
   29.9687500        -3.33229918E-03
   30.0874996        -3.31592257E-03
   30.2062492        -3.27789690E-03
   30.3250008        -3.21585964E-03
   30.4437504        -3.12948623E-03
   30.5625000        -3.02065909E-03
   30.6812496        -2.89338129E-03
   30.7999992        -2.75343913E-03
   30.9187508        -2.60786223E-03
   31.0375004        -2.46425043E-03
   31.1562500        -2.33005174E-03
   31.2749996        -2.21187994E-03
   31.3937492        -2.11495860E-03
   31.5125008        -2.04274943E-03
   31.6312504        -1.99680054E-03
   31.7500000        -1.97682600E-03
   31.8687496        -1.98098365E-03
   31.9874992        -2.00630561E-03
   32.1062508        -2.04920815E-03
   32.2249985        -2.10600533E-03
   32.3437500        -2.17335299E-03
   32.4625015        -2.24856287E-03
   32.5812492        -2.32974929E-03
   32.7000008        -2.41580047E-03
   32.8187485        -2.50619161E-03
   32.9375000        -2.60068220E-03
   33.0562515        -2.69895606E-03
   33.1749992        -2.80027394E-03
   33.2937508        -2.90319859E-03
   33.4124985        -3.00544570E-03
   33.5312500        -3.10389418E-03
   33.6500015        -3.19475401E-03
   33.7687492        -3.27388151E-03
   33.8875008        -3.33719375E-03
   34.0062485        -3.38112679E-03
   34.1250000        -3.40307225E-03
   34.2437515        -3.40173068E-03
   34.3624992        -3.37732979E-03
   34.4812508        -3.33167333E-03
   34.5999985        -3.26801487E-03
   34.7187500        -3.19077121E-03
   34.8375015        -3.10511002E-03
   34.9562492        -3.01647233E-03
   35.0750008        -2.93008704E-03
   35.1937485        -2.85054441E-03
   35.3125000        -2.78147799E-03
   35.4312515        -2.72539095E-03
   35.5499992        -2.68363860E-03
   35.6687508        -2.65655713E-03
   35.7874985        -2.64370604E-03
   35.9062500        -2.64417240E-03
   36.0250015        -2.65688542E-03
   36.1437492        -2.68088421E-03
   36.2625008        -2.71549099E-03
   36.3812485        -2.76036537E-03
   36.5000000        -2.81543261E-03
   36.6187515        -2.88069807E-03
   36.7374992        -2.95598526E-03
   36.8562508        -3.04065226E-03
   36.9749985        -3.13333352E-03
   37.0937500        -3.23176477E-03
   37.2125015        -3.33273760E-03
   37.3312492        -3.43219866E-03
   37.4500008        -3.52550205E-03
   37.5687485        -3.60778766E-03
   37.6875000        -3.67444288E-03
   37.8062515        -3.72158689E-03
   37.9249992        -3.74651258E-03
   38.0437508        -3.74802039E-03
   38.1624985        -3.72659741E-03
   38.2812500        -3.68440221E-03
   38.4000015        -3.62506136E-03
   38.5187492        -3.55328922E-03
   38.6375008        -3.47438524E-03
   38.7562485        -3.39366798E-03
   38.8750000        -3.31592280E-03
   38.9937515        -3.24493600E-03
   39.1124992        -3.18317441E-03
   39.2312508        -3.13165551E-03
   39.3499985        -3.09001817E-03
   39.4687500        -3.05678183E-03
   39.5875015        -3.02975345E-03
   39.7062492        -3.00651742E-03
   39.8250008        -2.98493472E-03
   39.9437485        -2.96357227E-03
   40.0625000        -2.94200261E-03
   40.1812515        -2.92091747E-03
   40.2999992        -2.90204049E-03
   40.4187508        -2.88785063E-03
   40.5374985        -2.88115162E-03
   40.6562500        -2.88455607E-03
   40.7750015        -2.89995666E-03
   40.8937492        -2.92807724E-03
   41.0125008        -2.96816556E-03
   41.1312485        -3.01789050E-03
   41.2500000        -3.07346997E-03
   41.3687515        -3.13002011E-03
   41.4874992        -3.18208756E-03
   41.6062508        -3.22430371E-03
   41.7249985        -3.25206923E-03
   41.8437500        -3.26218014E-03
   41.9625015        -3.25330580E-03
   42.0812492        -3.22625111E-03
   42.2000008        -3.18395486E-03
   42.3187485        -3.13122338E-03
   42.4375000        -3.07422108E-03
   42.5562515        -3.01977945E-03
   42.6749992        -2.97461450E-03
   42.7937508        -2.94454372E-03
   42.9124985        -2.93381396E-03
   43.0312500        -2.94461544E-03
   43.1500015        -2.97685293E-03
   43.2687492        -3.02819721E-03
   43.3875008        -3.09440796E-03
   43.5062485        -3.16988374E-03
   43.6250000        -3.24836187E-03
   43.7437515        -3.32367280E-03
   43.8624992        -3.39045189E-03
   43.9812508        -3.44470609E-03
   44.0999985        -3.48417414E-03
   44.2187500        -3.50842928E-03
   44.3375015        -3.51871829E-03
   44.4562492        -3.51757160E-03
   44.5750008        -3.50824231E-03
   44.6937485        -3.49406037E-03
   44.8125000        -3.47779668E-03
   44.9312515        -3.46113835E-03
   45.0499992        -3.44434590E-03
   45.1687508        -3.42615065E-03
   45.2874985        -3.40390601E-03
   45.4062500        -3.37398075E-03
   45.5250015        -3.33232991E-03
   45.6437492        -3.27517535E-03
   45.7625008        -3.19968956E-03
   45.8812485        -3.10458848E-03
