  -1.50000000         6.58912761E-18
  -1.38125002        -1.08660181E-09
  -1.26250005        -4.56856819E-09
  -1.14374995        -1.30173623E-08
  -1.02499998        -3.13520019E-08
 -0.906250000        -6.82208992E-08
 -0.787500024        -1.37015007E-07
 -0.668749988        -2.54920394E-07
 -0.550000012        -4.37276299E-07
 -0.431250006        -6.83729922E-07
 -0.312500000        -9.53271524E-07
 -0.193749994        -1.12822670E-06
  -7.50000030E-02    -9.73046440E-07
   4.37499993E-02    -1.01163693E-07
  0.162499994         2.03046307E-06
  0.281250000         6.07782749E-06
  0.400000006         1.27019339E-05
  0.518750012         2.23946463E-05
  0.637499988         3.52550960E-05
  0.756250024         5.07516779E-05
  0.875000000         6.75166448E-05
  0.993749976         8.32226433E-05
   1.11249995         9.45814172E-05
   1.23125005         9.74866707E-05
   1.35000002         8.72999080E-05
   1.46875000         5.92532269E-05
   1.58749998         8.92258049E-06
   1.70624995        -6.72888855E-05
   1.82500005        -1.71722830E-04
   1.94375002        -3.05153109E-04
   2.06250000        -4.66634432E-04
   2.18125010        -6.53537223E-04
   2.29999995        -8.61767330E-04
   2.41875005        -1.08614482E-03
   2.53749990        -1.32089271E-03
   2.65625000        -1.56017172E-03
   2.77500010        -1.79859006E-03
   2.89374995        -2.03162106E-03
   3.01250005        -2.25587608E-03
   3.13124990        -2.46919808E-03
   3.25000000        -2.67057028E-03
   3.36875010        -2.85986369E-03
   3.48749995        -3.03746457E-03
   3.60625005        -3.20384791E-03
   3.72499990        -3.35917133E-03
   3.84375000        -3.50295403E-03
   3.96250010        -3.63390264E-03
   4.08125019        -3.74991726E-03
   4.19999981        -3.84828565E-03
   4.31874990        -3.92604107E-03
   4.43750000        -3.98043776E-03
   4.55625010        -4.00946988E-03
   4.67500019        -4.01235884E-03
   4.79374981        -3.98992607E-03
   4.91249990        -3.94478766E-03
   5.03125000        -3.88132641E-03
   5.15000010        -3.80543247E-03
   5.26875019        -3.72402789E-03
   5.38749981        -3.64442891E-03
   5.50624990        -3.57362116E-03
   5.62500000        -3.51753994E-03
   5.74375010        -3.48044280E-03
   5.86250019        -3.46446503E-03
   5.98124981        -3.46941687E-03
   6.09999990        -3.49284941E-03
   6.21875000        -3.53039312E-03
   6.33750010        -3.57631943E-03
   6.45625019        -3.62426206E-03
   6.57499981        -3.66800069E-03
   6.69374990        -3.70220817E-03
   6.81250000        -3.72306234E-03
   6.93125010        -3.72864585E-03
   7.05000019        -3.71908187E-03
   7.16874981        -3.69639415E-03
   7.28749990        -3.66411544E-03
   7.40625000        -3.62670328E-03
   7.52500010        -3.58884269E-03
   7.64375019        -3.55474674E-03
   7.76249981        -3.52754211E-03
   7.88124990        -3.50883324E-03
   8.00000000        -3.49850440E-03
   8.11874962        -3.49478680E-03
   8.23750019        -3.49457795E-03
   8.35624981        -3.49397142E-03
   8.47500038        -3.48891574E-03
   8.59375000        -3.47591029E-03
   8.71249962        -3.45263397E-03
   8.83125019        -3.41841509E-03
   8.94999981        -3.37447179E-03
   9.06875038        -3.32387909E-03
   9.18750000        -3.27126239E-03
   9.30624962        -3.22225480E-03
   9.42500019        -3.18278512E-03
   9.54374981        -3.15829297E-03
   9.66250038        -3.15297674E-03
   9.78125000        -3.16917477E-03
   9.89999962        -3.20697040E-03
   10.0187502        -3.26407002E-03
   10.1374998        -3.33597977E-03
   10.2562504        -3.41645861E-03
   10.3750000        -3.49819101E-03
   10.4937496        -3.57359438E-03
   10.6125002        -3.63565865E-03
   10.7312498        -3.67871206E-03
   10.8500004        -3.69901513E-03
   10.9687500        -3.69511638E-03
   11.0874996        -3.66792455E-03
   11.2062502        -3.62049835E-03
   11.3249998        -3.55758984E-03
   11.4437504        -3.48500512E-03
   11.5625000        -3.40887671E-03
   11.6812496        -3.33494274E-03
   11.8000002        -3.26792756E-03
   11.9187498        -3.21110641E-03
   12.0375004        -3.16609931E-03
   12.1562500        -3.13291349E-03
   12.2749996        -3.11021577E-03
   12.3937502        -3.09578143E-03
   12.5124998        -3.08704912E-03
   12.6312504        -3.08169005E-03
   12.7500000        -3.07810516E-03
   12.8687496        -3.07577569E-03
   12.9875002        -3.07541410E-03
   13.1062498        -3.07889236E-03
   13.2250004        -3.08896066E-03
   13.3437500        -3.10879713E-03
   13.4624996        -3.14145349E-03
   13.5812502        -3.18928156E-03
   13.6999998        -3.25342128E-03
   13.8187504        -3.33343167E-03
   13.9375000        -3.42711224E-03
   14.0562496        -3.53055424E-03
   14.1750002        -3.63841094E-03
   14.2937498        -3.74436076E-03
   14.4125004        -3.84169747E-03
   14.5312500        -3.92398005E-03
   14.6499996        -3.98565456E-03
   14.7687502        -4.02257266E-03
   14.8874998        -4.03234456E-03
   15.0062504        -4.01449250E-03
   15.1250000        -3.97038786E-03
   15.2437496        -3.90300062E-03
   15.3625002        -3.81649332E-03
   15.4812498        -3.71573330E-03
   15.6000004        -3.60578252E-03
   15.7187500        -3.49143986E-03
   15.8374996        -3.37689067E-03
   15.9562502        -3.26550100E-03
   16.0750008        -3.15976981E-03
   16.1937504        -3.06142773E-03
   16.3125000        -2.97165127E-03
   16.4312496        -2.89133564E-03
   16.5499992        -2.82137678E-03
   16.6687508        -2.76289880E-03
   16.7875004        -2.71738251E-03
   16.9062500        -2.68666935E-03
   17.0249996        -2.67282967E-03
   17.1437492        -2.67791888E-03
   17.2625008        -2.70365179E-03
   17.3812504        -2.75105448E-03
   17.5000000        -2.82014883E-03
   17.6187496        -2.90972064E-03
   17.7374992        -3.01722344E-03
   17.8562508        -3.13883554E-03
   17.9750004        -3.26967286E-03
   18.0937500        -3.40414001E-03
   18.2124996        -3.53637524E-03
   18.3312492        -3.66073381E-03
   18.4500008        -3.77225084E-03
   18.5687504        -3.86701850E-03
   18.6875000        -3.94243654E-03
   18.8062496        -3.99730355E-03
   18.9249992        -4.03174246E-03
   19.0437508        -4.04697936E-03
   19.1625004        -4.04501334E-03
   19.2812500        -4.02822811E-03
   19.3999996        -3.99900926E-03
   19.5187492        -3.95942992E-03
   19.6375008        -3.91104119E-03
   19.7562504        -3.85480863E-03
   19.8750000        -3.79119115E-03
   19.9937496        -3.72034800E-03
   20.1124992        -3.64243146E-03
   20.2312508        -3.55791138E-03
   20.3500004        -3.46786575E-03
   20.4687500        -3.37418402E-03
   20.5874996        -3.27963056E-03
   20.7062492        -3.18775210E-03
   20.8250008        -3.10261850E-03
   20.9437504        -3.02843167E-03
   21.0625000        -2.96904566E-03
   21.1812496        -2.92746583E-03
   21.2999992        -2.90539931E-03
   21.4187508        -2.90292432E-03
   21.5375004        -2.91833747E-03
   21.6562500        -2.94820662E-03
   21.7749996        -2.98764277E-03
   21.8937492        -3.03076115E-03
   22.0125008        -3.07128229E-03
   22.1312504        -3.10320151E-03
   22.2500000        -3.12143960E-03
   22.3687496        -3.12239351E-03
   22.4874992        -3.10431398E-03
   22.6062508        -3.06745572E-03
   22.7250004        -3.01398709E-03
   22.8437500        -2.94766389E-03
   22.9624996        -2.87331664E-03
   23.0812492        -2.79621826E-03
   23.2000008        -2.72142095E-03
   23.3187504        -2.65314966E-03
   23.4375000        -2.59433710E-03
   23.5562496        -2.54636188E-03
   23.6749992        -2.50902120E-03
   23.7937508        -2.48073856E-03
   23.9125004        -2.45897518E-03
   24.0312500        -2.44077854E-03
   24.1499996        -2.42338842E-03
   24.2687492        -2.40480388E-03
   24.3875008        -2.38423049E-03
   24.5062504        -2.36233184E-03
   24.6250000        -2.34124530E-03
   24.7437496        -2.32435321E-03
   24.8624992        -2.31583300E-03
   24.9812508        -2.32005166E-03
   25.1000004        -2.34088069E-03
   25.2187500        -2.38103652E-03
   25.3374996        -2.44153501E-03
   25.4562492        -2.52135075E-03
   25.5750008        -2.61732889E-03
   25.6937504        -2.72437814E-03
   25.8125000        -2.83592846E-03
   25.9312496        -2.94459565E-03
   26.0499992        -3.04297917E-03
   26.1687508        -3.12448665E-03
   26.2875004        -3.18408082E-03
   26.4062500        -3.21885222E-03
   26.5249996        -3.22834332E-03
   26.6437492        -3.21457884E-03
   26.7625008        -3.18180211E-03
   26.8812504        -3.13594704E-03
   27.0000000        -3.08391871E-03
   27.1187496        -3.03277257E-03
   27.2374992        -2.98890215E-03
   27.3562508        -2.95733474E-03
   27.4750004        -2.94122798E-03
   27.5937500        -2.94162077E-03
   27.7124996        -2.95747048E-03
   27.8312492        -2.98595452E-03
   27.9500008        -3.02299089E-03
   28.0687504        -3.06389946E-03
   28.1875000        -3.10409977E-03
   28.3062496        -3.13976011E-03
   28.4249992        -3.16829071E-03
   28.5437508        -3.18863173E-03
   28.6625004        -3.20128491E-03
   28.7812500        -3.20810056E-03
   28.8999996        -3.21185146E-03
   29.0187492        -3.21565941E-03
   29.1375008        -3.22236377E-03
   29.2562504        -3.23392870E-03
   29.3750000        -3.25097190E-03
   29.4937496        -3.27249593E-03
   29.6124992        -3.29586118E-03
   29.7312508        -3.31700942E-03
   29.8500004        -3.33091314E-03
   29.9687500        -3.33219185E-03
   30.0874996        -3.31581361E-03
   30.2062492        -3.27778677E-03
   30.3250008        -3.21574928E-03
   30.4437504        -3.12937587E-03
   30.5625000        -3.02054966E-03
   30.6812496        -2.89327349E-03
   30.7999992        -2.75333342E-03
   30.9187508        -2.60775886E-03
   31.0375004        -2.46414961E-03
   31.1562500        -2.32995301E-03
   31.2749996        -2.21178331E-03
   31.3937492        -2.11486430E-03
   31.5125008        -2.04265653E-03
   31.6312504        -1.99670903E-03
   31.7500000        -1.97673589E-03
   31.8687496        -1.98089518E-03
   31.9874992        -2.00621923E-03
   32.1062508        -2.04912387E-03
   32.2249985        -2.10592407E-03
   32.3437500        -2.17327522E-03
   32.4625015        -2.24848883E-03
   32.5812492        -2.32967897E-03
   32.7000008        -2.41573364E-03
   32.8187485        -2.50612805E-03
   32.9375000        -2.60062073E-03
   33.0562515        -2.69889645E-03
   33.1749992        -2.80021550E-03
   33.2937508        -2.90313968E-03
   33.4124985        -3.00538610E-03
   33.5312500        -3.10383271E-03
   33.6500015        -3.19468998E-03
   33.7687492        -3.27381538E-03
   33.8875008        -3.33712553E-03
   34.0062485        -3.38105671E-03
   34.1250000        -3.40300053E-03
   34.2437515        -3.40165803E-03
   34.3624992        -3.37725715E-03
   34.4812508        -3.33160069E-03
   34.5999985        -3.26794293E-03
   34.7187500        -3.19069973E-03
   34.8375015        -3.10503901E-03
   34.9562492        -3.01640132E-03
   35.0750008        -2.93001602E-03
   35.1937485        -2.85047339E-03
   35.3125000        -2.78140651E-03
   35.4312515        -2.72531901E-03
   35.5499992        -2.68356618E-03
   35.6687508        -2.65648472E-03
   35.7874985        -2.64363363E-03
   35.9062500        -2.64410023E-03
   36.0250015        -2.65681418E-03
   36.1437492        -2.68081436E-03
   36.2625008        -2.71542324E-03
   36.3812485        -2.76029995E-03
   36.5000000        -2.81536975E-03
   36.6187515        -2.88063660E-03
   36.7374992        -2.95592519E-03
   36.8562508        -3.04059265E-03
   36.9749985        -3.13327345E-03
   37.0937500        -3.23170400E-03
   37.2125015        -3.33267520E-03
   37.3312492        -3.43213370E-03
   37.4500008        -3.52543429E-03
   37.5687485        -3.60771734E-03
   37.6875000        -3.67436977E-03
   37.8062515        -3.72151122E-03
   37.9249992        -3.74643435E-03
   38.0437508        -3.74794053E-03
   38.1624985        -3.72651592E-03
   38.2812500        -3.68431956E-03
   38.4000015        -3.62497754E-03
   38.5187492        -3.55320424E-03
   38.6375008        -3.47429886E-03
   38.7562485        -3.39357997E-03
   38.8750000        -3.31583340E-03
   38.9937515        -3.24484473E-03
   39.1124992        -3.18308128E-03
   39.2312508        -3.13156075E-03
   39.3499985        -3.08992155E-03
   39.4687500        -3.05668358E-03
   39.5875015        -3.02965404E-03
   39.7062492        -3.00641730E-03
   39.8250008        -2.98483367E-03
   39.9437485        -2.96347146E-03
   40.0625000        -2.94190273E-03
   40.1812515        -2.92081852E-03
   40.2999992        -2.90194293E-03
   40.4187508        -2.88775470E-03
   40.5374985        -2.88105733E-03
   40.6562500        -2.88446224E-03
   40.7750015        -2.89986399E-03
   40.8937492        -2.92798458E-03
   41.0125008        -2.96807243E-03
   41.1312485        -3.01779667E-03
   41.2500000        -3.07337521E-03
   41.3687515        -3.12992395E-03
   41.4874992        -3.18198977E-03
   41.6062508        -3.22420476E-03
   41.7249985        -3.25196958E-03
   41.8437500        -3.26208002E-03
   41.9625015        -3.25320568E-03
   42.0812492        -3.22615099E-03
   42.2000008        -3.18385498E-03
   42.3187485        -3.13112442E-03
   42.4375000        -3.07412259E-03
   42.5562515        -3.01968190E-03
   42.6749992        -2.97451671E-03
   42.7937508        -2.94444617E-03
   42.9124985        -2.93371570E-03
   43.0312500        -2.94451648E-03
   43.1500015        -2.97675328E-03
   43.2687492        -3.02809640E-03
   43.3875008        -3.09430645E-03
   43.5062485        -3.16978130E-03
   43.6250000        -3.24825826E-03
   43.7437515        -3.32356896E-03
   43.8624992        -3.39034735E-03
   43.9812508        -3.44460108E-03
   44.0999985        -3.48406844E-03
   44.2187500        -3.50832241E-03
   44.3375015        -3.51861026E-03
   44.4562492        -3.51746241E-03
   44.5750008        -3.50813172E-03
   44.6937485        -3.49394721E-03
   44.8125000        -3.47768120E-03
   44.9312515        -3.46102030E-03
   45.0499992        -3.44422529E-03
   45.1687508        -3.42602725E-03
   45.2874985        -3.40378098E-03
   45.4062500        -3.37385363E-03
   45.5250015        -3.33220116E-03
   45.6437492        -3.27504589E-03
   45.7625008        -3.19955964E-03
   45.8812485        -3.10445880E-03
