  -1.50000000        -0.00000000    
  -1.38499999         9.77330217E-10
  -1.26999998         3.99543643E-09
  -1.15499997         1.11281055E-08
  -1.03999996         2.65442335E-08
 -0.925000012         5.82250124E-08
 -0.810000002         1.20265256E-07
 -0.694999993         2.35444602E-07
 -0.579999983         4.37535164E-07
 -0.465000004         7.72967724E-07
 -0.349999994         1.30243723E-06
 -0.234999999         2.10502162E-06
 -0.119999997         3.29002614E-06
  -4.99999989E-03     5.02367902E-06
  0.109999999         7.57687121E-06
  0.224999994         1.13943861E-05
  0.340000004         1.71751053E-05
  0.455000013         2.59391381E-05
  0.569999993         3.90469686E-05
  0.685000002         5.81342501E-05
  0.800000012         8.49388380E-05
  0.915000021         1.21023426E-04
   1.02999997         1.67432925E-04
   1.14499998         2.24357820E-04
   1.25999999         2.90891854E-04
   1.37500000         3.64965323E-04
   1.49000001         4.43499739E-04
   1.60500002         5.22777787E-04
   1.72000003         5.98961604E-04
   1.83500004         6.68650086E-04
   1.95000005         7.29347114E-04
   2.06500006         7.79736380E-04
   2.18000007         8.19705194E-04
   2.29500008         8.50132958E-04
   2.41000009         8.72519624E-04
   2.52500010         8.88569106E-04
   2.64000010         8.99844919E-04
   2.75500011         9.07580194E-04
   2.86999989         9.12663992E-04
   2.98499990         9.15769197E-04
   3.09999990         9.17537662E-04
   3.21499991         9.18734178E-04
   3.32999992         9.20296588E-04
   3.44499993         9.23263549E-04
   3.55999994         9.28605383E-04
   3.67499995         9.37028730E-04
   3.78999996         9.48829344E-04
   3.90499997         9.63852101E-04
   4.01999998         9.81572666E-04
   4.13500023         1.00127119E-03
   4.25000000         1.02223293E-03
   4.36499977         1.04390329E-03
   4.48000002         1.06594025E-03
   4.59499979         1.08815148E-03
   4.71000004         1.11034047E-03
   4.82499981         1.13212981E-03
   4.94000006         1.15283579E-03
   5.05499983         1.17145828E-03
   5.17000008         1.18681497E-03
   5.28499985         1.19779678E-03
   5.40000010         1.20368239E-03
   5.51499987         1.20442652E-03
   5.63000011         1.20082486E-03
   5.74499989         1.19449990E-03
   5.86000013         1.18768599E-03
   5.97499990         1.18285068E-03
   6.09000015         1.18223380E-03
   6.20499992         1.18740927E-03
   6.32000017         1.19897362E-03
   6.43499994         1.21643278E-03
   6.55000019         1.23830722E-03
   6.66499996         1.26241962E-03
   6.78000021         1.28628989E-03
   6.89499998         1.30753405E-03
   7.01000023         1.32418040E-03
   7.12500000         1.33485068E-03
   7.23999977         1.33880030E-03
   7.35500002         1.33585779E-03
   7.46999979         1.32632989E-03
   7.58500004         1.31093280E-03
   7.69999981         1.29078026E-03
   7.81500006         1.26741966E-03
   7.92999983         1.24286476E-03
   8.04500008         1.21955888E-03
   8.15999985         1.20021193E-03
   8.27499962         1.18749810E-03
   8.39000034         1.18365139E-03
   8.50500011         1.19004690E-03
   8.61999989         1.20687869E-03
   8.73499966         1.23303104E-03
   8.85000038         1.26619660E-03
   8.96500015         1.30322797E-03
   9.07999992         1.34064443E-03
   9.19499969         1.37517857E-03
   9.31000042         1.40423141E-03
   9.42500019         1.42614648E-03
   9.53999996         1.44025474E-03
   9.65499973         1.44672312E-03
   9.77000046         1.44627283E-03
   9.88500023         1.43986836E-03
   10.0000000         1.42846757E-03
   10.1149998         1.41288585E-03
   10.2299995         1.39378477E-03
   10.3450003         1.37175131E-03
   10.4600000         1.34740421E-03
   10.5749998         1.32147013E-03
   10.6899996         1.29478343E-03
   10.8050003         1.26820442E-03
   10.9200001         1.24248187E-03
   11.0349998         1.21811253E-03
   11.1499996         1.19525520E-03
   11.2650003         1.17373955E-03
   11.3800001         1.15318224E-03
   11.4949999         1.13318255E-03
   11.6099997         1.11353921E-03
   11.7250004         1.09441835E-03
   11.8400002         1.07640820E-03
   11.9549999         1.06043310E-03
   12.0699997         1.04753789E-03
   12.1850004         1.03860523E-03
   12.3000002         1.03408890E-03
   12.4150000         1.03385490E-03
   12.5299997         1.03718892E-03
   12.6450005         1.04298233E-03
   12.7600002         1.05004932E-03
   12.8750000         1.05748000E-03
   12.9899998         1.06492080E-03
   13.1049995         1.07268931E-03
   13.2200003         1.08167704E-03
   13.3350000         1.09306374E-03
   13.4499998         1.10792043E-03
   13.5649996         1.12681661E-03
   13.6800003         1.14954275E-03
   13.7950001         1.17502257E-03
   13.9099998         1.20142952E-03
   14.0249996         1.22646382E-03
   14.1400003         1.24770286E-03
   14.2550001         1.26292685E-03
   14.3699999         1.27035042E-03
   14.4849997         1.26872922E-03
   14.6000004         1.25736091E-03
   14.7150002         1.23603444E-03
   14.8299999         1.20498787E-03
   14.9449997         1.16491586E-03
   15.0600004         1.11702760E-03
   15.1750002         1.06312113E-03
   15.2900000         1.00560975E-03
   15.4049997         9.47440392E-04
   15.5200005         8.91867501E-04
   15.6350002         8.42091977E-04
   15.7500000         8.00822279E-04
   15.8649998         7.69848819E-04
   15.9799995         7.49734987E-04
   16.0949993         7.39708543E-04
   16.2099991         7.37793976E-04
   16.3250008         7.41168798E-04
   16.4400005         7.46673613E-04
   16.5550003         7.51369342E-04
   16.6700001         7.53021683E-04
   16.7849998         7.50414445E-04
   16.8999996         7.43437384E-04
   17.0149994         7.32950517E-04
   17.1299992         7.20478420E-04
   17.2450008         7.07826461E-04
   17.3600006         6.96720090E-04
   17.4750004         6.88546279E-04
   17.5900002         6.84236526E-04
   17.7049999         6.84282626E-04
   17.8199997         6.88835222E-04
   17.9349995         6.97814394E-04
   18.0499992         7.10973865E-04
   18.1650009         7.27889303E-04
   18.2800007         7.47885439E-04
   18.3950005         7.69950915E-04
   18.5100002         7.92706618E-04
   18.6250000         8.14479019E-04
   18.7399998         8.33491795E-04
   18.8549995         8.48142023E-04
   18.9699993         8.57287378E-04
   19.0849991         8.60452012E-04
   19.2000008         8.57881329E-04
   19.3150005         8.50415789E-04
   19.4300003         8.39216169E-04
   19.5450001         8.25422700E-04
   19.6599998         8.09854886E-04
   19.7749996         7.92850333E-04
   19.8899994         7.74294371E-04
   20.0049992         7.53830886E-04
   20.1200008         7.31187058E-04
   20.2350006         7.06501305E-04
   20.3500004         6.80547964E-04
   20.4650002         6.54776639E-04
   20.5799999         6.31147646E-04
   20.6949997         6.11800526E-04
   20.8099995         5.98642684E-04
   20.9249992         5.92965924E-04
   21.0400009         5.95184392E-04
   21.1550007         6.04752742E-04
   21.2700005         6.20269042E-04
   21.3850002         6.39722333E-04
   21.5000000         6.60812308E-04
   21.6149998         6.81260717E-04
   21.7299995         6.99052121E-04
   21.8449993         7.12572946E-04
   21.9599991         7.20653275E-04
   22.0750008         7.22548284E-04
   22.1900005         7.17905175E-04
   22.3050003         7.06755498E-04
   22.4200001         6.89549255E-04
   22.5349998         6.67215150E-04
   22.6499996         6.41203078E-04
   22.7649994         6.13457756E-04
   22.8799992         5.86276525E-04
   22.9950008         5.62042580E-04
   23.1100006         5.42861759E-04
   23.2250004         5.30178077E-04
   23.3400002         5.24464878E-04
   23.4549999         5.25082694E-04
   23.5699997         5.30363992E-04
   23.6849995         5.37925283E-04
   23.7999992         5.45144489E-04
   23.9150009         5.49693534E-04
   24.0300007         5.49996563E-04
   24.1450005         5.45505492E-04
   24.2600002         5.36735635E-04
   24.3750000         5.25071926E-04
   24.4899998         5.12419327E-04
   24.6049995         5.00803289E-04
   24.7199993         4.92032501E-04
   24.8349991         4.87493584E-04
   24.9500008         4.88098944E-04
   25.0650005         4.94351843E-04
   25.1800003         5.06457058E-04
   25.2950001         5.24403527E-04
   25.4099998         5.47969248E-04
   25.5249996         5.76645019E-04
   25.6399994         6.09515875E-04
   25.7549992         6.45168184E-04
   25.8700008         6.81690522E-04
   25.9850006         7.16805400E-04
   26.1000004         7.48127582E-04
   26.2150002         7.73495471E-04
   26.3299999         7.91295315E-04
   26.4449997         8.00688809E-04
   26.5599995         8.01683462E-04
   26.6749992         7.95025495E-04
   26.7900009         7.81945826E-04
   26.9050007         7.63832068E-04
   27.0200005         7.41918862E-04
   27.1350002         7.17079500E-04
   27.2500000         6.89772423E-04
   27.3649998         6.60148042E-04
   27.4799995         6.28273876E-04
   27.5949993         5.94399520E-04
   27.7099991         5.59175212E-04
   27.8250008         5.23745257E-04
   27.9400005         4.89683065E-04
   28.0550003         4.58775263E-04
   28.1700001         4.32715111E-04
   28.2849998         4.12789057E-04
   28.3999996         3.99645447E-04
   28.5149994         3.93209164E-04
   28.6299992         3.92759452E-04
   28.7450008         3.97141179E-04
   28.8600006         4.05037863E-04
   28.9750004         4.15223622E-04
   29.0900002         4.26724582E-04
   29.2049999         4.38859715E-04
   29.3199997         4.51177999E-04
   29.4349995         4.63349948E-04
   29.5499992         4.75083885E-04
   29.6650009         4.86124511E-04
   29.7800007         4.96350403E-04
   29.8950005         5.05937205E-04
   30.0100002         5.15514403E-04
   30.1250000         5.26229036E-04
   30.2399998         5.39651606E-04
   30.3549995         5.57506864E-04
   30.4699993         5.81275497E-04
   30.5849991         6.11760013E-04
   30.7000008         6.48737769E-04
   30.8150005         6.90804911E-04
   30.9300003         7.35470676E-04
   31.0450001         7.79493945E-04
   31.1599998         8.19387496E-04
   31.2749996         8.51975288E-04
   31.3899994         8.74875928E-04
   31.5049992         8.86814727E-04
   31.6200008         8.87715083E-04
   31.7350006         8.78580264E-04
   31.8500004         8.61224835E-04
   31.9650002         8.37940432E-04
   32.0800018         8.11179460E-04
   32.1949997         7.83313590E-04
   32.3100014         7.56488182E-04
   32.4249992         7.32556102E-04
   32.5400009         7.13051355E-04
   32.6549988         6.99161668E-04
   32.7700005         6.91669411E-04
   32.8849983         6.90862187E-04
   33.0000000         6.96439645E-04
   33.1150017         7.07463827E-04
   33.2299995         7.22401193E-04
   33.3450012         7.39284384E-04
   33.4599991         7.55989924E-04
   33.5750008         7.70587125E-04
   33.6899986         7.81680516E-04
   33.8050003         7.88658508E-04
   33.9199982         7.91774946E-04
   34.0349998         7.92029663E-04
   34.1500015         7.90870457E-04
   34.2649994         7.89789774E-04
   34.3800011         7.89925805E-04
   34.4949989         7.91779370E-04
   34.6100006         7.95124914E-04
   34.7249985         7.99137983E-04
   34.8400002         8.02695926E-04
   34.9550018         8.04753974E-04
   35.0699997         8.04681273E-04
   35.1850014         8.02453025E-04
   35.2999992         7.98647583E-04
   35.4150009         7.94258784E-04
   35.5299988         7.90393387E-04
   35.6450005         7.87954777E-04
   35.7599983         7.87412457E-04
   35.8750000         7.88720034E-04
   35.9900017         7.91390543E-04
   36.1049995         7.94686552E-04
   36.2200012         7.97848101E-04
   36.3349991         8.00280133E-04
   36.4500008         8.01646558E-04
   36.5649986         8.01860879E-04
   36.6800003         8.01005401E-04
   36.7949982         7.99238391E-04
   36.9099998         7.96746346E-04
   37.0250015         7.93775776E-04
   37.1399994         7.90739839E-04
   37.2550011         7.88353616E-04
   37.3699989         7.87732250E-04
   37.4850006         7.90385180E-04
   37.5999985         7.98064051E-04
   37.7150002         8.12471146E-04
   37.8300018         8.34875915E-04
   37.9449997         8.65729060E-04
   38.0600014         9.04373999E-04
   38.1749992         9.48943314E-04
   38.2900009         9.96485236E-04
   38.4049988         1.04331633E-03
   38.5200005         1.08553341E-03
   38.6349983         1.11958501E-03
   38.7500000         1.14278123E-03
   38.8650017         1.15363800E-03
   38.9799995         1.15199620E-03
   39.0950012         1.13890669E-03
   39.2099991         1.11633551E-03
   39.3250008         1.08677347E-03
   39.4399986         1.05285528E-03
   39.5550003         1.01706514E-03
   39.6699982         9.81570571E-04
   39.7849998         9.48174391E-04
   39.9000015         9.18336795E-04
   40.0149994         8.93203891E-04
   40.1300011         8.73591052E-04
   40.2449989         8.59905500E-04
   40.3600006         8.52034602E-04
   40.4749985         8.49260483E-04
   40.5900002         8.50267068E-04
   40.7050018         8.53286183E-04
   40.8199997         8.56383180E-04
   40.9350014         8.57828418E-04
   41.0499992         8.56463914E-04
   41.1650009         8.51960678E-04
   41.2799988         8.44888156E-04
   41.3950005         8.36565625E-04
   41.5099983         8.28734715E-04
   41.6250000         8.23141017E-04
   41.7400017         8.21141002E-04
   41.8549995         8.23440205E-04
   41.9700012         8.30025587E-04
   42.0849991         8.40293302E-04
   42.2000008         8.53316160E-04
   42.3149986         8.68155970E-04
   42.4300003         8.84121342E-04
   42.5449982         9.00894345E-04
   42.6599998         9.18499776E-04
   42.7750015         9.37140023E-04
   42.8899994         9.56959499E-04
   43.0050011         9.77823162E-04
   43.1199989         9.99180251E-04
   43.2350006         1.02005678E-03
   43.3499985         1.03917520E-03
   43.4650002         1.05516415E-03
   43.5800018         1.06679031E-03
   43.6949997         1.07314961E-03
   43.8100014         1.07376440E-03
   43.9249992         1.06857554E-03
   44.0400009         1.05784717E-03
   44.1549988         1.04203552E-03
   44.2700005         1.02168298E-03
   44.3849983         9.97382216E-04
