  -1.50000000         3.00161552E-18
  -1.38125002        -6.92017998E-10
  -1.26250005        -3.22188254E-09
  -1.14374995        -1.03001696E-08
  -1.02499998        -2.78797341E-08
 -0.906250000        -6.80993750E-08
 -0.787500024        -1.53938927E-07
 -0.668749988        -3.25775233E-07
 -0.550000012        -6.49440551E-07
 -0.431250006        -1.22452525E-06
 -0.312500000        -2.19083495E-06
 -0.193749994        -3.73060766E-06
  -7.50000030E-02    -6.06482081E-06
   4.37499993E-02    -9.44384192E-06
  0.162499994        -1.41353830E-05
  0.281250000        -2.04153021E-05
  0.400000006        -2.85681072E-05
  0.518750012        -3.89034212E-05
  0.637499988        -5.17920889E-05
  0.756250024        -6.77214630E-05
  0.875000000        -8.73649697E-05
  0.993749976        -1.11656664E-04
   1.11249995        -1.41857803E-04
   1.23125005        -1.79600451E-04
   1.35000002        -2.26892371E-04
   1.46875000        -2.86068651E-04
   1.58749998        -3.59680678E-04
   1.70624995        -4.50318097E-04
   1.82500005        -5.60370157E-04
   1.94375002        -6.91741181E-04
   2.06250000        -8.45546427E-04
   2.18125010        -1.02181954E-03
   2.29999995        -1.21927075E-03
   2.41875005        -1.43513072E-03
   2.53749990        -1.66511326E-03
   2.65625000        -1.90351484E-03
   2.77500010        -2.14346102E-03
   2.89374995        -2.37728562E-03
   3.01250005        -2.59701931E-03
   3.13124990        -2.79494119E-03
   3.25000000        -2.96414760E-03
   3.36875010        -3.09907412E-03
   3.48749995        -3.19592212E-03
   3.60625005        -3.25293699E-03
   3.72499990        -3.27051780E-03
   3.84375000        -3.25113488E-03
   3.96250010        -3.19907349E-03
   4.08125019        -3.12002585E-03
   4.19999981        -3.02058179E-03
   4.31874990        -2.90766475E-03
   4.43750000        -2.78797979E-03
   4.55625010        -2.66752252E-03
   4.67500019        -2.55119381E-03
   4.79374981        -2.44255434E-03
   4.91249990        -2.34372774E-03
   5.03125000        -2.25545047E-03
   5.15000010        -2.17724941E-03
   5.26875019        -2.10771547E-03
   5.38749981        -2.04483396E-03
   5.50624990        -1.98633666E-03
   5.62500000        -1.93003460E-03
   5.74375010        -1.87410240E-03
   5.86250019        -1.81729556E-03
   5.98124981        -1.75908639E-03
   6.09999990        -1.69971667E-03
   6.21875000        -1.64017302E-03
   6.33750010        -1.58209517E-03
   6.45625019        -1.52762886E-03
   6.57499981        -1.47924153E-03
   6.69374990        -1.43951294E-03
   6.81250000        -1.41091587E-03
   6.93125010        -1.39560096E-03
   7.05000019        -1.39519735E-03
   7.16874981        -1.41064287E-03
   7.28749990        -1.44205580E-03
   7.40625000        -1.48865918E-03
   7.52500010        -1.54876767E-03
   7.64375019        -1.61984563E-03
   7.76249981        -1.69863587E-03
   7.88124990        -1.78135734E-03
   8.00000000        -1.86395657E-03
   8.11874962        -1.94239989E-03
   8.23750019        -2.01297458E-03
   8.35624981        -2.07257271E-03
   8.47500038        -2.11892533E-03
   8.59375000        -2.15076213E-03
   8.71249962        -2.16787285E-03
   8.83125019        -2.17106240E-03
   8.94999981        -2.16200622E-03
   9.06875038        -2.14301469E-03
   9.18750000        -2.11674627E-03
   9.30624962        -2.08589621E-03
   9.42500019        -2.05290690E-03
   9.54374981        -2.01973692E-03
   9.66250038        -1.98771851E-03
   9.78125000        -1.95752247E-03
   9.89999962        -1.92923332E-03
   10.0187502        -1.90252310E-03
   10.1374998        -1.87689450E-03
   10.2562504        -1.85195799E-03
   10.3750000        -1.82769622E-03
   10.4937496        -1.80467544E-03
   10.6125002        -1.78416714E-03
   10.7312498        -1.76815421E-03
   10.8500004        -1.75921409E-03
   10.9687500        -1.76028744E-03
   11.0874996        -1.77435752E-03
   11.2062502        -1.80407707E-03
   11.3249998        -1.85138837E-03
   11.4437504        -1.91718468E-03
   11.5625000        -2.00105482E-03
   11.6812496        -2.10114475E-03
   11.8000002        -2.21415679E-03
   11.9187498        -2.33548577E-03
   12.0375004        -2.45948648E-03
   12.1562500        -2.57984106E-03
   12.2749996        -2.68999161E-03
   12.3937502        -2.78360187E-03
   12.5124998        -2.85500055E-03
   12.6312504        -2.89957528E-03
   12.7500000        -2.91408389E-03
   12.8687496        -2.89687025E-03
   12.9875002        -2.84796651E-03
   13.1062498        -2.76909163E-03
   13.2250004        -2.66354787E-03
   13.3437500        -2.53602839E-03
   13.4624996        -2.39235605E-03
   13.5812502        -2.23916722E-03
   13.6999998        -2.08355812E-03
   13.8187504        -1.93271413E-03
   13.9375000        -1.79353729E-03
   14.0562496        -1.67229108E-03
   14.1750002        -1.57427951E-03
   14.2937498        -1.50358083E-03
   14.4125004        -1.46284990E-03
   14.5312500        -1.45320827E-03
   14.6499996        -1.47422811E-03
   14.7687502        -1.52401917E-03
   14.8874998        -1.59941230E-03
   15.0062504        -1.69622921E-03
   15.1250000        -1.80961762E-03
   15.2437496        -1.93442218E-03
   15.3625002        -2.06555775E-03
   15.4812498        -2.19834992E-03
   15.6000004        -2.32880632E-03
   15.7187500        -2.45379703E-03
   15.8374996        -2.57112249E-03
   15.9562502        -2.67947139E-03
   16.0750008        -2.77827517E-03
   16.1937504        -2.86748703E-03
   16.3125000        -2.94731837E-03
   16.4312496        -3.01797199E-03
   16.5499992        -3.07941437E-03
   16.6687508        -3.13121732E-03
   16.7875004        -3.17249750E-03
   16.9062500        -3.20195663E-03
   17.0249996        -3.21802380E-03
   17.1437492        -3.21907201E-03
   17.2625008        -3.20368120E-03
   17.3812504        -3.17090307E-03
   17.5000000        -3.12049384E-03
   17.6187496        -3.05306911E-03
   17.7374992        -2.97016650E-03
   17.8562508        -2.87419255E-03
   17.9750004        -2.76826485E-03
   18.0937500        -2.65596411E-03
   18.2124996        -2.54102657E-03
   18.3312492        -2.42701382E-03
   18.4500008        -2.31700344E-03
   18.5687504        -2.21333187E-03
   18.6875000        -2.11742474E-03
   18.8062496        -2.02972651E-03
   18.9249992        -1.94974104E-03
   19.0437508        -1.87616807E-03
   19.1625004        -1.80711935E-03
   19.2812500        -1.74038578E-03
   19.3999996        -1.67372474E-03
   19.5187492        -1.60513341E-03
   19.6375008        -1.53308269E-03
   19.7562504        -1.45669072E-03
   19.8750000        -1.37582305E-03
   19.9937496        -1.29111845E-03
   20.1124992        -1.20394409E-03
   20.2312508        -1.11629034E-03
   20.3500004        -1.03062042E-03
   20.4687500        -9.49689420E-04
   20.5874996        -8.76347185E-04
   20.7062492        -8.13338091E-04
   20.8250008        -7.63108081E-04
   20.9437504        -7.27628998E-04
   21.0625000        -7.08247419E-04
   21.1812496        -7.05567305E-04
   21.2999992        -7.19375385E-04
   21.4187508        -7.48616119E-04
   21.5375004        -7.91424944E-04
   21.6562500        -8.45225470E-04
   21.7749996        -9.06889385E-04
   21.8937492        -9.72956186E-04
   22.0125008        -1.03989942E-03
   22.1312504        -1.10441993E-03
   22.2500000        -1.16374251E-03
   22.3687496        -1.21588365E-03
   22.4874992        -1.25986279E-03
   22.6062508        -1.29582733E-03
   22.7250004        -1.32507237E-03
   22.8437500        -1.34994392E-03
   22.9624996        -1.37362920E-03
   23.0812492        -1.39984896E-03
   23.2000008        -1.43248029E-03
   23.3187504        -1.47514918E-03
   23.4375000        -1.53083273E-03
   23.5562496        -1.60151836E-03
   23.6749992        -1.68795383E-03
   23.7937508        -1.78951828E-03
   23.9125004        -1.90422719E-03
   24.0312500        -2.02886853E-03
   24.1499996        -2.15925393E-03
   24.2687492        -2.29055248E-03
   24.3875008        -2.41766893E-03
   24.5062504        -2.53562350E-03
   24.6250000        -2.63988995E-03
   24.7437496        -2.72666407E-03
   24.8624992        -2.79303221E-03
   24.9812508        -2.83704419E-03
   25.1000004        -2.85768509E-03
   25.2187500        -2.85477540E-03
   25.3374996        -2.82881549E-03
   25.4562492        -2.78081489E-03
   25.5750008        -2.71212892E-03
   25.6937504        -2.62433128E-03
   25.8125000        -2.51913187E-03
   25.9312496        -2.39835284E-03
   26.0499992        -2.26394949E-03
   26.1687508        -2.11806898E-03
   26.2875004        -1.96312252E-03
   26.4062500        -1.80185121E-03
   26.5249996        -1.63736730E-03
   26.6437492        -1.47315173E-03
   26.7625008        -1.31300092E-03
   26.8812504        -1.16092258E-03
   27.0000000        -1.02098624E-03
   27.1187496        -8.97139718E-04
   27.2374992        -7.93010695E-04
   27.3562508        -7.11709145E-04
   27.4750004        -6.55647484E-04
   27.5937500        -6.26392197E-04
   27.7124996        -6.24556502E-04
   27.8312492        -6.49739464E-04
   27.9500008        -7.00511737E-04
   28.0687504        -7.74448854E-04
   28.1875000        -8.68207251E-04
   28.3062496        -9.77642252E-04
   28.4249992        -1.09796319E-03
   28.5437508        -1.22392515E-03
   28.6625004        -1.35005370E-03
   28.7812500        -1.47089723E-03
   28.8999996        -1.58130017E-03
   29.0187492        -1.67668599E-03
   29.1375008        -1.75333151E-03
   29.2562504        -1.80861400E-03
   29.3750000        -1.84120808E-03
   29.4937496        -1.85120734E-03
   29.6124992        -1.84015429E-03
   29.7312508        -1.81096350E-03
   29.8500004        -1.76773476E-03
   29.9687500        -1.71546568E-03
   30.0874996        -1.65968167E-03
   30.2062492        -1.60601630E-03
   30.3250008        -1.55977788E-03
   30.4437504        -1.52554526E-03
   30.5625000        -1.50683289E-03
   30.6812496        -1.50585757E-03
   30.7999992        -1.52343186E-03
   30.9187508        -1.55898975E-03
   31.0375004        -1.61074218E-03
   31.1562500        -1.67593744E-03
   31.2749996        -1.75119715E-03
   31.3937492        -1.83288346E-03
   31.5125008        -1.91745802E-03
   31.6312504        -2.00178940E-03
   31.7500000        -2.08337815E-03
   31.8687496        -2.16048141E-03
   31.9874992        -2.23212806E-03
   32.1062508        -2.29803636E-03
   32.2249985        -2.35845312E-03
   32.3437500        -2.41394434E-03
   32.4625015        -2.46517197E-03
   32.5812492        -2.51268758E-03
   32.7000008        -2.55677081E-03
   32.8187485        -2.59733130E-03
   32.9375000        -2.63388059E-03
   33.0562515        -2.66557047E-03
   33.1749992        -2.69128708E-03
   33.2937508        -2.70977872E-03
   33.4124985        -2.71980045E-03
   33.5312500        -2.72024889E-03
   33.6500015        -2.71027558E-03
   33.7687492        -2.68936437E-03
   33.8875008        -2.65737064E-03
   34.0062485        -2.61452142E-03
   34.1250000        -2.56138900E-03
   34.2437515        -2.49884091E-03
   34.3624992        -2.42798193E-03
   34.4812508        -2.35009496E-03
   34.5999985        -2.26658559E-03
   34.7187500        -2.17893766E-03
   34.8375015        -2.08867295E-03
   34.9562492        -1.99732045E-03
   35.0750008        -1.90638669E-03
   35.1937485        -1.81732920E-03
   35.3125000        -1.73152902E-03
   35.4312515        -1.65026775E-03
   35.5499992        -1.57471036E-03
   35.6687508        -1.50589761E-03
   35.7874985        -1.44475582E-03
   35.9062500        -1.39212073E-03
   36.0250015        -1.34877954E-03
   36.1437492        -1.31552061E-03
   36.2625008        -1.29318435E-03
   36.3812485        -1.28270034E-03
   36.5000000        -1.28509721E-03
   36.6187515        -1.30147138E-03
   36.7374992        -1.33290689E-03
   36.8562508        -1.38034462E-03
   36.9749985        -1.44440867E-03
   37.0937500        -1.52520544E-03
   37.2125015        -1.62212050E-03
   37.3312492        -1.73364300E-03
   37.4500008        -1.85724662E-03
   37.5687485        -1.98935601E-03
   37.6875000        -2.12541688E-03
   37.8062515        -2.26007774E-03
   37.9249992        -2.38747708E-03
   38.0437508        -2.50161649E-03
   38.1624985        -2.59678648E-03
   38.2812500        -2.66800355E-03
   38.4000015        -2.71141552E-03
   38.5187492        -2.72462633E-03
   38.6375008        -2.70691141E-03
   38.7562485        -2.65929266E-03
   38.8750000        -2.58446834E-03
   38.9937515        -2.48660170E-03
   39.1124992        -2.37099547E-03
   39.2312508        -2.24367995E-03
   39.3499985        -2.11096369E-03
   39.4687500        -1.97898643E-03
   39.5875015        -1.85331795E-03
   39.7062492        -1.73863606E-03
   39.8250008        -1.63850444E-03
   39.9437485        -1.55526330E-03
   40.0625000        -1.49002497E-03
   40.1812515        -1.44276430E-03
   40.2999992        -1.41247921E-03
   40.4187508        -1.39739539E-03
   40.5374985        -1.39518990E-03
   40.6562500        -1.40320975E-03
   40.7750015        -1.41866913E-03
   40.8937492        -1.43881468E-03
   41.0125008        -1.46105455E-03
   41.1312485        -1.48305448E-03
   41.2500000        -1.50280446E-03
   41.3687515        -1.51866104E-03
   41.4874992        -1.52937369E-03
   41.6062508        -1.53409468E-03
   41.7249985        -1.53237570E-03
   41.8437500        -1.52415119E-03
   41.9625015        -1.50970637E-03
   42.0812492        -1.48963078E-03
   42.2000008        -1.46475958E-03
   42.3187485        -1.43610663E-03
   42.4375000        -1.40479731E-03
   42.5562515        -1.37200858E-03
   42.6749992        -1.33892556E-03
   42.7937508        -1.30672206E-03
   42.9124985        -1.27656525E-03
   43.0312500        -1.24964665E-03
   43.1500015        -1.22722820E-03
   43.2687492        -1.21069362E-03
   43.3875008        -1.20158691E-03
   43.5062485        -1.20162347E-03
   43.6250000        -1.21265615E-03
   43.7437515        -1.23659102E-03
   43.8624992        -1.27524603E-03
   43.9812508        -1.33016519E-03
   44.0999985        -1.40240218E-03
   44.2187500        -1.49230158E-03
   44.3375015        -1.59930578E-03
   44.4562492        -1.72181951E-03
   44.5750008        -1.85716059E-03
   44.6937485        -2.00161291E-03
   44.8125000        -2.15059356E-03
   44.9312515        -2.29891995E-03
   45.0499992        -2.44116317E-03
   45.1687508        -2.57204822E-03
   45.2874985        -2.68686353E-03
   45.4062500        -2.78183050E-03
   45.5250015        -2.85439426E-03
   45.6437492        -2.90340115E-03
   45.7625008        -2.92913988E-03
   45.8812485        -2.93324725E-03
