  -1.50000000         0.00000000    
  -1.38499999        -8.24483481E-10
  -1.26999998        -3.71710041E-09
  -1.15499997        -1.14847554E-08
  -1.03999996        -3.00785885E-08
 -0.925000012        -7.12757355E-08
 -0.810000002        -1.56764273E-07
 -0.694999993        -3.23636158E-07
 -0.579999983        -6.30691716E-07
 -0.465000004        -1.16412696E-06
 -0.349999994        -2.04039611E-06
 -0.234999999        -3.40379552E-06
 -0.119999997        -5.41708232E-06
  -4.99999989E-03    -8.24539075E-06
  0.109999999        -1.20365103E-05
  0.224999994        -1.69032919E-05
  0.340000004        -2.29154757E-05
  0.455000013        -3.01076907E-05
  0.569999993        -3.85078092E-05
  0.685000002        -4.81856623E-05
  0.800000012        -5.93178011E-05
  0.915000021        -7.22600234E-05
   1.02999997        -8.76171180E-05
   1.14499998        -1.06298030E-04
   1.25999999        -1.29545340E-04
   1.37500000        -1.58929164E-04
   1.49000001        -1.96298366E-04
   1.60500002        -2.43686212E-04
   1.72000003        -3.03171459E-04
   1.83500004        -3.76702141E-04
   1.95000005        -4.65894176E-04
   2.06500006        -5.71822398E-04
   2.18000007        -6.94824557E-04
   2.29500008        -8.34340753E-04
   2.41000009        -9.88809974E-04
   2.52500010        -1.15564140E-03
   2.64000010        -1.33127102E-03
   2.75500011        -1.51130848E-03
   2.86999989        -1.69076666E-03
   2.98499990        -1.86435832E-03
   3.09999990        -2.02683825E-03
   3.21499991        -2.17335764E-03
   3.32999992        -2.29980214E-03
   3.44499993        -2.40307674E-03
   3.55999994        -2.48131528E-03
   3.67499995        -2.53398810E-03
   3.78999996        -2.56190193E-03
   3.90499997        -2.56708986E-03
   4.01999998        -2.55260407E-03
   4.13500023        -2.52223248E-03
   4.25000000        -2.48016743E-03
   4.36499977        -2.43065972E-03
   4.48000002        -2.37769005E-03
   4.59499979        -2.32468965E-03
   4.71000004        -2.27433047E-03
   4.82499981        -2.22840370E-03
   4.94000006        -2.18778942E-03
   5.05499983        -2.15251395E-03
   5.17000008        -2.12188391E-03
   5.28499985        -2.09467439E-03
   5.40000010        -2.06935126E-03
   5.51499987        -2.04430474E-03
   5.63000011        -2.01806426E-03
   5.74499989        -1.98948523E-03
   5.86000013        -1.95788592E-03
   5.97499990        -1.92312908E-03
   6.09000015        -1.88564695E-03
   6.20499992        -1.84640905E-03
   6.32000017        -1.80684251E-03
   6.43499994        -1.76871486E-03
   6.55000019        -1.73398782E-03
   6.66499996        -1.70465827E-03
   6.78000021        -1.68259500E-03
   6.89499998        -1.66938547E-03
   7.01000023        -1.66620035E-03
   7.12500000        -1.67368574E-03
   7.23999977        -1.69189065E-03
   7.35500002        -1.72023370E-03
   7.46999979        -1.75751466E-03
   7.58500004        -1.80197111E-03
   7.69999981        -1.85137708E-03
   7.81500006        -1.90318050E-03
   7.92999983        -1.95467076E-03
   8.04500008        -2.00316194E-03
   8.15999985        -2.04618182E-03
   8.27499962        -2.08164426E-03
   8.39000034        -2.10799603E-03
   8.50500011        -2.12431699E-03
   8.61999989        -2.13036616E-03
   8.73499966        -2.12656707E-03
   8.85000038        -2.11393088E-03
   8.96500015        -2.09392700E-03
   9.07999992        -2.06831261E-03
   9.19499969        -2.03894032E-03
   9.31000042        -2.00756500E-03
   9.42500019        -1.97567488E-03
   9.53999996        -1.94436347E-03
   9.65499973        -1.91425998E-03
   9.77000046        -1.88552891E-03
   9.88500023        -1.85793394E-03
   10.0000000        -1.83096237E-03
   10.1149998        -1.80399255E-03
   10.2299995        -1.77647977E-03
   10.3450003        -1.74813904E-03
   10.4600000        -1.71909633E-03
   10.5749998        -1.68998621E-03
   10.6899996        -1.66198087E-03
   10.8050003        -1.63674168E-03
   10.9200001        -1.61629496E-03
   11.0349998        -1.60284434E-03
   11.1499996        -1.59853697E-03
   11.2650003        -1.60521071E-03
   11.3800001        -1.62415090E-03
   11.4949999        -1.65588164E-03
   11.6099997        -1.70001923E-03
   11.7250004        -1.75520405E-03
   11.8400002        -1.81911909E-03
   11.9549999        -1.88859785E-03
   12.0699997        -1.95981003E-03
   12.1850004        -2.02851067E-03
   12.3000002        -2.09033070E-03
   12.4150000        -2.14108010E-03
   12.5299997        -2.17704219E-03
   12.6450005        -2.19523394E-03
   12.7600002        -2.19361275E-03
   12.8750000        -2.17121420E-03
   12.9899998        -2.12821830E-03
   13.1049995        -2.06593703E-03
   13.2200003        -1.98673271E-03
   13.3350000        -1.89387309E-03
   13.4499998        -1.79133797E-03
   13.5649996        -1.68358791E-03
   13.6800003        -1.57531572E-03
   13.7950001        -1.47118943E-03
   13.9099998        -1.37560756E-03
   14.0249996        -1.29247410E-03
   14.1400003        -1.22500851E-03
   14.2550001        -1.17559975E-03
   14.3699999        -1.14571082E-03
   14.4849997        -1.13584078E-03
   14.6000004        -1.14554458E-03
   14.7150002        -1.17351138E-03
   14.8299999        -1.21769425E-03
   14.9449997        -1.27548375E-03
   15.0600004        -1.34391093E-03
   15.1750002        -1.41986529E-03
   15.2900000        -1.50030886E-03
   15.4049997        -1.58246781E-03
   15.5200005        -1.66398555E-03
   15.6350002        -1.74302352E-03
   15.7500000        -1.81830127E-03
   15.8649998        -1.88907317E-03
   15.9799995        -1.95504818E-03
   16.0949993        -2.01626192E-03
   16.2099991        -2.07292056E-03
   16.3250008        -2.12523621E-03
   16.4400005        -2.17327499E-03
   16.5550003        -2.21684063E-03
   16.6700001        -2.25540833E-03
   16.7849998        -2.28811917E-03
   16.8999996        -2.31383857E-03
   17.0149994        -2.33127060E-03
   17.1299992        -2.33911653E-03
   17.2450008        -2.33625667E-03
   17.3600006        -2.32193060E-03
   17.4750004        -2.29589408E-03
   17.5900002        -2.25852919E-03
   17.7049999        -2.21089134E-03
   17.8199997        -2.15468463E-03
   17.9349995        -2.09216448E-03
   18.0499992        -2.02597817E-03
   18.1650009        -1.95895531E-03
   18.2800007        -1.89387461E-03
   18.3950005        -1.83323096E-03
   18.5100002        -1.77902530E-03
   18.6250000        -1.73260411E-03
   18.7399998        -1.69456063E-03
   18.8549995        -1.66471093E-03
   18.9699993        -1.64214312E-03
   19.0849991        -1.62533461E-03
   19.2000008        -1.61232450E-03
   19.3150005        -1.60091917E-03
   19.4300003        -1.58891396E-03
   19.5450001        -1.57430570E-03
   19.6599998        -1.55547902E-03
   19.7749996        -1.53134926E-03
   19.8899994        -1.50145276E-03
   20.0049992        -1.46597752E-03
   20.1200008        -1.42573903E-03
   20.2350006        -1.38210237E-03
   20.3500004        -1.33686280E-03
   20.4650002        -1.29209575E-03
   20.5799999        -1.24998961E-03
   20.6949997        -1.21267361E-03
   20.8099995        -1.18205417E-03
   20.9249992        -1.15966971E-03
   21.0400009        -1.14657427E-03
   21.1550007        -1.14325620E-03
   21.2700005        -1.14959758E-03
   21.3850002        -1.16487837E-03
   21.5000000        -1.18782523E-03
   21.6149998        -1.21670449E-03
   21.7299995        -1.24945270E-03
   21.8449993        -1.28384028E-03
   21.9599991        -1.31765543E-03
   22.0750008        -1.34889537E-03
   22.1900005        -1.37595064E-03
   22.3050003        -1.39776478E-03
   22.4200001        -1.41395337E-03
   22.5349998        -1.42487069E-03
   22.6499996        -1.43161125E-03
   22.7649994        -1.43594318E-03
   22.8799992        -1.44017558E-03
   22.9950008        -1.44696760E-03
   23.1100006        -1.45909458E-03
   23.2250004        -1.47919252E-03
   23.3400002        -1.50950393E-03
   23.4549999        -1.55164988E-03
   23.5699997        -1.60645193E-03
   23.6849995        -1.67382148E-03
   23.7999992        -1.75272895E-03
   23.9150009        -1.84125616E-03
   24.0300007        -1.93672627E-03
   24.1450005        -2.03589769E-03
   24.2600002        -2.13520252E-03
   24.3750000        -2.23100442E-03
   24.4899998        -2.31984886E-03
   24.6049995        -2.39868322E-03
   24.7199993        -2.46502296E-03
   24.8349991        -2.51705642E-03
   24.9500008        -2.55367742E-03
   25.0650005        -2.57445010E-03
   25.1800003        -2.57952139E-03
   25.2950001        -2.56948988E-03
   25.4099998        -2.54525756E-03
   25.5249996        -2.50788359E-03
   25.6399994        -2.45845970E-03
   25.7549992        -2.39801896E-03
   25.8700008        -2.32749153E-03
   25.9850006        -2.24770629E-03
   26.1000004        -2.15943391E-03
   26.2150002        -2.06346251E-03
   26.3299999        -1.96068920E-03
   26.4449997        -1.85221562E-03
   26.5599995        -1.73942582E-03
   26.6749992        -1.62403844E-03
   26.7900009        -1.50811987E-03
   26.9050007        -1.39405567E-03
   27.0200005        -1.28447916E-03
   27.1350002        -1.18216267E-03
   27.2500000        -1.08988071E-03
   27.3649998        -1.01025496E-03
   27.4799995        -9.45595326E-04
   27.5949993        -8.97748687E-04
   27.7099991        -8.67966912E-04
   27.8250008        -8.56803497E-04
   27.9400005        -8.64047382E-04
   28.0550003        -8.88696406E-04
   28.1700001        -9.28975700E-04
   28.2849998        -9.82399099E-04
   28.3999996        -1.04587292E-03
   28.5149994        -1.11583818E-03
   28.6299992        -1.18844560E-03
   28.7450008        -1.25975593E-03
   28.8600006        -1.32595538E-03
   28.9750004        -1.38357468E-03
   29.0900002        -1.42969936E-03
   29.2049999        -1.46215432E-03
   29.3199997        -1.47965108E-03
   29.4349995        -1.48188125E-03
   29.5499992        -1.46954868E-03
   29.6650009        -1.44432916E-03
   29.7800007        -1.40876160E-03
   29.8950005        -1.36606977E-03
   30.0100002        -1.31993124E-03
   30.1250000        -1.27420621E-03
   30.2399998        -1.23265199E-03
   30.3549995        -1.19864463E-03
   30.4699993        -1.17493467E-03
   30.5849991        -1.16345985E-03
   30.7000008        -1.16522901E-03
   30.8150005        -1.18029304E-03
   30.9300003        -1.20779919E-03
   31.0450001        -1.24612602E-03
   31.1599998        -1.29308028E-03
   31.2749996        -1.34613714E-03
   31.3899994        -1.40269438E-03
   31.5049992        -1.46031566E-03
   31.6200008        -1.51693635E-03
   31.7350006        -1.57101266E-03
   31.8500004        -1.62159943E-03
   31.9650002        -1.66835333E-03
   32.0800018        -1.71146588E-03
   32.1949997        -1.75153639E-03
   32.3100014        -1.78940641E-03
   32.4249992        -1.82597584E-03
   32.5400009        -1.86202466E-03
   32.6549988        -1.89806125E-03
   32.7700005        -1.93421496E-03
   32.8849983        -1.97018217E-03
   33.0000000        -2.00523064E-03
   33.1150017        -2.03825813E-03
   33.2299995        -2.06789491E-03
   33.3450012        -2.09263712E-03
   33.4599991        -2.11099396E-03
   33.5750008        -2.12163036E-03
   33.6899986        -2.12349161E-03
   33.8050003        -2.11589970E-03
   33.9199982        -2.09860876E-03
   34.0349998        -2.07182369E-03
   34.1500015        -2.03617825E-03
   34.2649994        -1.99268153E-03
   34.3800011        -1.94263877E-03
   34.4949989        -1.88755756E-03
   34.6100006        -1.82904699E-03
   34.7249985        -1.76871964E-03
   34.8400002        -1.70810195E-03
   34.9550018        -1.64856075E-03
   35.0699997        -1.59124762E-03
   35.1850014        -1.53706328E-03
   35.2999992        -1.48664508E-03
   35.4150009        -1.44037476E-03
   35.5299988        -1.39840809E-03
   35.6450005        -1.36072282E-03
   35.7599983        -1.32718205E-03
   35.8750000        -1.29761035E-03
   35.9900017        -1.27187406E-03
   36.1049995        -1.24996086E-03
   36.2200012        -1.23204850E-03
   36.3349991        -1.21855352E-03
   36.4500008        -1.21015310E-03
   36.5649986        -1.20777043E-03
   36.6800003        -1.21252087E-03
   36.7949982        -1.22561934E-03
   36.9099998        -1.24825060E-03
   37.0250015        -1.28141546E-03
   37.1399994        -1.32576411E-03
   37.2550011        -1.38143555E-03
   37.3699989        -1.44792232E-03
   37.4850006        -1.52397819E-03
   37.5999985        -1.60758651E-03
   37.7150002        -1.69599860E-03
   37.8300018        -1.78584713E-03
   37.9449997        -1.87332951E-03
   38.0600014        -1.95445027E-03
   38.1749992        -2.02530134E-03
   38.2900009        -2.08235672E-03
   38.4049988        -2.12275214E-03
   38.5200005        -2.14452343E-03
   38.6349983        -2.14677816E-03
   38.7500000        -2.12978199E-03
   38.8650017        -2.09495169E-03
   38.9799995        -2.04475201E-03
   39.0950012        -1.98250730E-03
   39.2099991        -1.91214669E-03
   39.3250008        -1.83790317E-03
   39.4399986        -1.76400028E-03
   39.5550003        -1.69435143E-03
   39.6699982        -1.63229869E-03
   39.7849998        -1.58041390E-03
   39.9000015        -1.54037343E-03
   40.0149994        -1.51291466E-03
   40.1300011        -1.49787019E-03
   40.2449989        -1.49426993E-03
   40.3600006        -1.50049524E-03
   40.4749985        -1.51446764E-03
   40.5900002        -1.53384847E-03
   40.7050018        -1.55623478E-03
   40.8199997        -1.57933147E-03
   40.9350014        -1.60109135E-03
   41.0499992        -1.61981408E-03
   41.1650009        -1.63420301E-03
   41.2799988        -1.64338283E-03
   41.3950005        -1.64688216E-03
   41.5099983        -1.64459017E-03
   41.6250000        -1.63669488E-03
   41.7400017        -1.62361213E-03
   41.8549995        -1.60591118E-03
   41.9700012        -1.58424559E-03
   42.0849991        -1.55929278E-03
   42.2000008        -1.53170584E-03
   42.3149986        -1.50208164E-03
   42.4300003        -1.47094508E-03
   42.5449982        -1.43875158E-03
   42.6599998        -1.40590651E-03
   42.7750015        -1.37280044E-03
   42.8899994        -1.33985630E-03
   43.0050011        -1.30758504E-03
   43.1199989        -1.27664115E-03
   43.2350006        -1.24787155E-03
   43.3499985        -1.22234900E-03
   43.4650002        -1.20138051E-03
   43.5800018        -1.18648598E-03
   43.6949997        -1.17933971E-03
   43.8100014        -1.18167617E-03
   43.9249992        -1.19516300E-03
   44.0400009        -1.22125004E-03
   44.1549988        -1.26100716E-03
   44.2700005        -1.31496741E-03
   44.3849983        -1.38299400E-03
