  -1.50000000       0.00000000    
  -1.38499999      -1.28434707E-10
  -1.26999998      -7.49887097E-10
  -1.15499997      -2.88546076E-09
  -1.03999996      -8.99094044E-09
 -0.925000012      -2.44863880E-08
 -0.810000002      -6.05667410E-08
 -0.694999993      -1.39005124E-07
 -0.579999983      -2.99766242E-07
 -0.465000004      -6.12167923E-07
 -0.349999994      -1.18996172E-06
 -0.234999999      -2.21002642E-06
 -0.119999997      -3.93347182E-06
  -4.99999989E-03  -6.72712622E-06
  0.109999999      -1.10829678E-05
  0.224999994      -1.76334888E-05
  0.340000004      -2.71622521E-05
  0.455000013      -4.06110121E-05
  0.569999993      -5.90867421E-05
  0.685000002      -8.38731867E-05
  0.800000012      -1.16451134E-04
  0.915000021      -1.58528826E-04
   1.02999997      -2.12078987E-04
   1.14499998      -2.79373198E-04
   1.25999999      -3.62998078E-04
   1.37500000      -4.65834193E-04
   1.49000001      -5.90977084E-04
   1.60500002      -7.41584518E-04
   1.72000003      -9.20641643E-04
   1.83500004      -1.13064656E-03
   1.95000005      -1.37323653E-03
   2.06500006      -1.64878473E-03
   2.18000007      -1.95601257E-03
   2.29500008      -2.29166960E-03
   2.41000009      -2.65033077E-03
   2.52500010      -3.02435947E-03
   2.64000010      -3.40406690E-03
   2.75500011      -3.77808092E-03
   2.86999989      -4.13390994E-03
   2.98499990      -4.45867283E-03
   3.09999990      -4.73993178E-03
   3.21499991      -4.96655470E-03
   3.32999992      -5.12952777E-03
   3.44499993      -5.22263767E-03
   3.55999994      -5.24294376E-03
   3.67499995      -5.19099645E-03
   3.78999996      -5.07077854E-03
   3.90499997      -4.88936948E-03
   4.01999998      -4.65636421E-03
   4.13500023      -4.38311417E-03
   4.25000000      -4.08185972E-03
   4.36499977      -3.76484054E-03
   4.48000002      -3.44347046E-03
   4.59499979      -3.12764943E-03
   4.71000004      -2.82526505E-03
   4.82499981      -2.54191528E-03
   4.94000006      -2.28085788E-03
   5.05499983      -2.04316806E-03
   5.17000008      -1.82806479E-03
   5.28499985      -1.63335900E-03
   5.40000010      -1.45595917E-03
   5.51499987      -1.29238691E-03
   5.63000011      -1.13924919E-03
   5.74499989      -9.93632246E-04
   5.86000013      -8.53394158E-04
   5.97499990      -7.17347371E-04
   6.09000015      -5.85333095E-04
   6.20499992      -4.58199182E-04
   6.32000017      -3.37696954E-04
   6.43499994      -2.26313918E-04
   6.55000019      -1.27061503E-04
   6.66499996      -4.32298584E-05
   6.78000021       2.18766727E-05
   6.89499998       6.52125382E-05
   7.01000023       8.42606023E-05
   7.12500000       7.72878630E-05
   7.23999977       4.35695838E-05
   7.35500002      -1.64346184E-05
   7.46999979      -1.00972116E-04
   7.58500004      -2.06975150E-04
   7.69999981      -3.30137264E-04
   7.81500006      -4.65099321E-04
   7.92999983      -6.05737849E-04
   8.04500008      -7.45543628E-04
   8.15999985      -8.78060120E-04
   8.27499962      -9.97344148E-04
   8.39000034      -1.09840347E-03
   8.50500011      -1.17756450E-03
   8.61999989      -1.23272417E-03
   8.73499966      -1.26346049E-03
   8.85000038      -1.27097964E-03
   8.96500015      -1.25790806E-03
   9.07999992      -1.22795207E-03
   9.19499969      -1.18546595E-03
   9.31000042      -1.13498187E-03
   9.42500019      -1.08076562E-03
   9.53999996      -1.02644763E-03
   9.65499973      -9.74781753E-04
   9.77000046      -9.27558343E-04
   9.88500023      -8.85677757E-04
   10.0000000      -8.49370495E-04
   10.1149998      -8.18524219E-04
   10.2299995      -7.93068379E-04
   10.3450003      -7.73349602E-04
   10.4600000      -7.60438968E-04
   10.5749998      -7.56315538E-04
   10.6899996      -7.63891672E-04
   10.8050003      -7.86860415E-04
   10.9200001      -8.29378143E-04
   11.0349998      -8.95612640E-04
   11.1499996      -9.89207882E-04
   11.2650003      -1.11273257E-03
   11.3800001      -1.26717705E-03
   11.4949999      -1.45156658E-03
   11.6099997      -1.66273781E-03
   11.7250004      -1.89531292E-03
   11.8400002      -2.14188197E-03
   11.9549999      -2.39337469E-03
   12.0699997      -2.63959472E-03
   12.1850004      -2.86986027E-03
   12.3000002      -3.07369512E-03
   12.4150000      -3.24151060E-03
   12.5299997      -3.36522027E-03
   12.6450005      -3.43874563E-03
   12.7600002      -3.45838070E-03
   12.8750000      -3.42300022E-03
   12.9899998      -3.33411247E-03
   13.1049995      -3.19576333E-03
   13.2200003      -3.01431608E-03
   13.3350000      -2.79812375E-03
   13.4499998      -2.55712285E-03
   13.5649996      -2.30236608E-03
   13.6800003      -2.04551802E-03
   13.7950001      -1.79832859E-03
   13.9099998      -1.57210534E-03
   14.0249996      -1.37719722E-03
   14.1400003      -1.22251618E-03
   14.2550001      -1.11511617E-03
   14.3699999      -1.05985475E-03
   14.4849997      -1.05916441E-03
   14.6000004      -1.11295318E-03
   14.7150002      -1.21865363E-03
   14.8299999      -1.37142499E-03
   14.9449997      -1.56450050E-03
   15.0600004      -1.78966334E-03
   15.1750002      -2.03781296E-03
   15.2900000      -2.29957630E-03
   15.4049997      -2.56590871E-03
   15.5200005      -2.82863318E-03
   15.6350002      -3.08086025E-03
   15.7500000      -3.31725669E-03
   15.8649998      -3.53413471E-03
   15.9799995      -3.72936763E-03
   16.0949993      -3.90214450E-03
   16.2099991      -4.05260967E-03
   16.3250008      -4.18143487E-03
   16.4400005      -4.28939331E-03
   16.5550003      -4.37698746E-03
   16.6700001      -4.44418611E-03
   16.7849998      -4.49030474E-03
   16.8999996      -4.51404415E-03
   17.0149994      -4.51367442E-03
   17.1299992      -4.48733801E-03
   17.2450008      -4.43341909E-03
   17.3600006      -4.35092952E-03
   17.4750004      -4.23983764E-03
   17.5900002      -4.10130620E-03
   17.7049999      -3.93778458E-03
   17.8199997      -3.75294546E-03
   17.9349995      -3.55146988E-03
   18.0499992      -3.33869946E-03
   18.1650009      -3.12020537E-03
   18.2800007      -2.90132337E-03
   18.3950005      -2.68671266E-03
   18.5100002      -2.47999351E-03
   18.6250000      -2.28350423E-03
   18.7399998      -2.09820317E-03
   18.8549995      -1.92372524E-03
   18.9699993      -1.75857695E-03
   19.0849991      -1.60044373E-03
   19.2000008      -1.44656922E-03
   19.3150005      -1.29415980E-03
   19.4300003      -1.14076887E-03
   19.5450001      -9.84621234E-04
   19.6599998      -8.24849238E-04
   19.7749996      -6.61624188E-04
   19.8899994      -4.96181601E-04
   20.0049992      -3.30748677E-04
   20.1200008      -1.68393381E-04
   20.2350006      -1.28162064E-05
   20.3500004       1.31890542E-04
   20.4650002       2.61496782E-04
   20.5799999       3.71885835E-04
   20.6949997       4.59291943E-04
   20.8099995       5.20519214E-04
   20.9249992       5.53137856E-04
   21.0400009       5.55654871E-04
   21.1550007       5.27653203E-04
   21.2700005       4.69892722E-04
   21.3850002       3.84358136E-04
   21.5000000       2.74242950E-04
   21.6149998       1.43854268E-04
   21.7299995      -1.57083321E-06
   21.8449993      -1.56139184E-04
   21.9599991      -3.13657307E-04
   22.0750008      -4.68049955E-04
   22.1900005      -6.13810029E-04
   22.3050003      -7.46438571E-04
   22.4200001      -8.62827757E-04
   22.5349998      -9.61544050E-04
   22.6499996      -1.04296976E-03
   22.7649994      -1.10927678E-03
   22.8799992      -1.16422318E-03
   22.9950008      -1.21278304E-03
   23.1100006      -1.26063998E-03
   23.2250004      -1.31359173E-03
   23.3400002      -1.37692725E-03
   23.4549999      -1.45484006E-03
   23.5699997      -1.54994486E-03
   23.6849995      -1.66294456E-03
   23.7999992      -1.79248909E-03
   23.9150009      -1.93523581E-03
   24.0300007      -2.08610389E-03
   24.1450005      -2.23868992E-03
   24.2600002      -2.38579605E-03
   24.3750000      -2.52000988E-03
   24.4899998      -2.63427082E-03
   24.6049995      -2.72236858E-03
   24.7199993      -2.77932244E-03
   24.8349991      -2.80161644E-03
   24.9500008      -2.78728455E-03
   25.0650005      -2.73585296E-03
   25.1800003      -2.64817686E-03
   25.2950001      -2.52619968E-03
   25.4099998      -2.37269560E-03
   25.5249996      -2.19101692E-03
   25.6399994      -1.98489940E-03
   25.7549992      -1.75832771E-03
   25.8700008      -1.51547824E-03
   25.9850006      -1.26072264E-03
   26.1000004      -9.98671632E-04
   26.2150002      -7.34234869E-04
   26.3299999      -4.72661428E-04
   26.4449997      -2.19539797E-04
   26.5599995       1.92648386E-05
   26.6749992       2.37741799E-04
   26.7900009       4.29929933E-04
   26.9050007       5.90163749E-04
   27.0200005       7.13346351E-04
   27.1350002       7.95222819E-04
   27.2500000       8.32627935E-04
   27.3649998       8.23684968E-04
   27.4799995       7.67939782E-04
   27.5949993       6.66422886E-04
   27.7099991       5.21639886E-04
   27.8250008       3.37498263E-04
   27.9400005       1.19180855E-04
   28.0550003      -1.27020438E-04
   28.1700001      -3.93900467E-04
   28.2849998      -6.73559203E-04
   28.3999996      -9.57639539E-04
   28.5149994      -1.23758684E-03
   28.6299992      -1.50493113E-03
   28.7450008      -1.75159669E-03
   28.8600006      -1.97023409E-03
   28.9750004      -2.15457007E-03
   29.0900002      -2.29975302E-03
   29.2049999      -2.40267348E-03
   29.3199997      -2.46222597E-03
   29.4349995      -2.47947802E-03
   29.5499992      -2.45771534E-03
   29.6650009      -2.40233843E-03
   29.7800007      -2.32059951E-03
   29.8950005      -2.22118455E-03
   30.0100002      -2.11366476E-03
   30.1250000      -2.00785464E-03
   30.2399998      -1.91313517E-03
   30.3549995      -1.83779688E-03
   30.4699993      -1.78847299E-03
   30.5849991      -1.76971126E-03
   30.7000008      -1.78372953E-03
   30.8150005      -1.83037668E-03
   30.9300003      -1.90729741E-03
   31.0450001      -2.01028073E-03
   31.1599998      -2.13374803E-03
   31.2749996      -2.27132230E-03
   31.3899994      -2.41642026E-03
   31.5049992      -2.56279903E-03
   31.6200008      -2.70500500E-03
   31.7350006      -2.83868425E-03
   31.8500004      -2.96073663E-03
   31.9650002      -3.06931115E-03
   32.0800018      -3.16366460E-03
   32.1949997      -3.24391993E-03
   32.3100014      -3.31076630E-03
   32.4249992      -3.36515112E-03
   32.5400009      -3.40800383E-03
   32.6549988      -3.44003015E-03
   32.7700005      -3.46159050E-03
   32.8849983      -3.47266952E-03
   33.0000000      -3.47292586E-03
   33.1150017      -3.46180145E-03
   33.2299995      -3.43866483E-03
   33.3450012      -3.40295467E-03
   33.4599991      -3.35430377E-03
   33.5750008      -3.29262344E-03
   33.6899986      -3.21814325E-03
   33.8050003      -3.13140173E-03
   33.9199982      -3.03320889E-03
   34.0349998      -2.92458641E-03
   34.1500015      -2.80670566E-03
   34.2649994      -2.68084230E-03
   34.3800011      -2.54834909E-03
   34.4949989      -2.41065817E-03
   34.6100006      -2.26930017E-03
   34.7249985      -2.12593609E-03
   34.8400002      -1.98238413E-03
   34.9550018      -1.84063346E-03
   35.0699997      -1.70282810E-03
   35.1850014      -1.57122384E-03
   35.2999992      -1.44811301E-03
   35.4150009      -1.33573322E-03
   35.5299988      -1.23616820E-03
   35.6450005      -1.15126173E-03
   35.7599983      -1.08255749E-03
   35.8750000      -1.03127642E-03
   35.9900017      -9.98336822E-04
   36.1049995      -9.84410523E-04
   36.2200012      -9.90001950E-04
   36.3349991      -1.01552985E-03
   36.4500008      -1.06138643E-03
   36.5649986      -1.12794980E-03
   36.6800003      -1.21553347E-03
   36.7949982      -1.32426177E-03
   36.9099998      -1.45388010E-03
   37.0250015      -1.60351431E-03
   37.1399994      -1.77141500E-03
   37.2550011      -1.95472338E-03
   37.3699989      -2.14930484E-03
   37.4850006      -2.34969100E-03
   37.5999985      -2.54915794E-03
   37.7150002      -2.73995986E-03
   37.8300018      -2.91371276E-03
   37.9449997      -3.06190178E-03
   38.0600014      -3.17647541E-03
   38.1749992      -3.25046270E-03
   38.2900009      -3.27855628E-03
   38.4049988      -3.25759663E-03
   38.5200005      -3.18689877E-03
   38.6349983      -3.06839054E-03
   38.7500000      -2.90653808E-03
   38.8650017      -2.70806416E-03
   38.9799995      -2.48149061E-03
   39.0950012      -2.23654509E-03
   39.2099991      -1.98349380E-03
   39.3250008      -1.73246290E-03
   39.4399986      -1.49281125E-03
   39.5550003      -1.27260364E-03
   39.6699982      -1.07822649E-03
   39.7849998      -9.14162607E-04
   39.9000015      -7.82927615E-04
   40.0149994      -6.85151201E-04
   40.1300011      -6.19777304E-04
   40.2449989      -5.84344962E-04
   40.3600006      -5.75312413E-04
   40.4749985      -5.88391151E-04
   40.5900002      -6.18859893E-04
   40.7050018      -6.61841419E-04
   40.8199997      -7.12534180E-04
   40.9350014      -7.66399666E-04
   41.0499992      -8.19309556E-04
   41.1650009      -8.67664232E-04
   41.2799988      -9.08489747E-04
   41.3950005      -9.39516467E-04
   41.5099983      -9.59241181E-04
   41.6250000      -9.66965861E-04
   41.7400017      -9.62808030E-04
   41.8549995      -9.47671186E-04
   41.9700012      -9.23171698E-04
   42.0849991      -8.91520234E-04
   42.2000008      -8.55363032E-04
   42.3149986      -8.17596330E-04
   42.4300003      -7.81171257E-04
   42.5449982      -7.48911116E-04
   42.6599998      -7.23361911E-04
   42.7750015      -7.06693740E-04
   42.8899994      -7.00662204E-04
   43.0050011      -7.06630992E-04
   43.1199989      -7.25644873E-04
   43.2350006      -7.58533715E-04
   43.3499985      -8.06021970E-04
   43.4650002      -8.68813891E-04
   43.5800018      -9.47630615E-04
   43.6949997      -1.04317698E-03
   43.8100014      -1.15603418E-03
   43.9249992      -1.28648197E-03
   44.0400009      -1.43427157E-03
   44.1549988      -1.59838132E-03
   44.2700005      -1.77679688E-03
   44.3849983      -1.96635537E-03
