  -1.50000000        -9.92498614E-18
  -1.38125002         1.04210840E-09
  -1.26250005         4.30757652E-09
  -1.14374995         1.21638548E-08
  -1.02499998         2.94752347E-08
 -0.906250000         6.56790817E-08
 -0.787500024         1.37539146E-07
 -0.668749988         2.72139999E-07
 -0.550000012         5.09445897E-07
 -0.431250006         9.04094804E-07
 -0.312500000         1.52760481E-06
 -0.193749994         2.47502931E-06
  -7.50000030E-02     3.88345188E-06
   4.37499993E-02     5.97138705E-06
  0.162499994         9.10503968E-06
  0.281250000         1.38873938E-05
  0.400000006         2.12500308E-05
  0.518750012         3.25105393E-05
  0.637499988         4.93491170E-05
  0.756250024         7.36648144E-05
  0.875000000         1.07298525E-04
  0.993749976         1.51652377E-04
   1.11249995         2.07280638E-04
   1.23125005         2.73557904E-04
   1.35000002         3.48532951E-04
   1.46875000         4.29041596E-04
   1.58749998         5.11088350E-04
   1.70624995         5.90429932E-04
   1.82500005         6.63231534E-04
   1.94375002         7.26636557E-04
   2.06250000         7.79112626E-04
   2.18125010         8.20497749E-04
   2.29999995         8.51757883E-04
   2.41875005         8.74551595E-04
   2.53749990         8.90743861E-04
   2.65625000         9.02014959E-04
   2.77500010         9.09661059E-04
   2.89374995         9.14606906E-04
   3.01250005         9.17573518E-04
   3.13124990         9.19295475E-04
   3.25000000         9.20674240E-04
   3.36875010         9.22796375E-04
   3.48749995         9.26805544E-04
   3.60625005         9.33684583E-04
   3.72499990         9.44037572E-04
   3.84375000         9.57965967E-04
   3.96250010         9.75086819E-04
   4.08125019         9.94688482E-04
   4.19999981         1.01596129E-03
   4.31874990         1.03821245E-03
   4.43750000         1.06098165E-03
   4.55625010         1.08401780E-03
   4.67500019         1.10712857E-03
   4.79374981         1.12997124E-03
   4.91249990         1.15188118E-03
   5.03125000         1.17182103E-03
   5.15000010         1.18850148E-03
   5.26875019         1.20065955E-03
   5.38749981         1.20742538E-03
   5.50624990         1.20866764E-03
   5.62500000         1.20520627E-03
   5.74375010         1.19880703E-03
   5.86250019         1.19193422E-03
   5.98124981         1.18730508E-03
   6.09999990         1.18734664E-03
   6.21875000         1.19369046E-03
   6.33750010         1.20682979E-03
   6.45625019         1.22602400E-03
   6.57499981         1.24946423E-03
   6.69374990         1.27464591E-03
   6.81250000         1.29884004E-03
   6.93125010         1.31954101E-03
   7.05000019         1.33478898E-03
   7.16874981         1.34332047E-03
   7.28749990         1.34456472E-03
   7.40625000         1.33854779E-03
   7.52500010         1.32579391E-03
   7.64375019         1.30728155E-03
   7.76249981         1.28446810E-03
   7.88124990         1.25934451E-03
   8.00000000         1.23443548E-03
   8.11874962         1.21266837E-03
   8.23750019         1.19706965E-03
   8.35624981         1.19031419E-03
   8.47500038         1.19422423E-03
   8.59375000         1.20934576E-03
   8.71249962         1.23474142E-03
   8.83125019         1.26807287E-03
   8.94999981         1.30597630E-03
   9.06875038         1.34464120E-03
   9.18750000         1.38045126E-03
   9.30624962         1.41052471E-03
   9.42500019         1.43303792E-03
   9.54374981         1.44727807E-03
   9.66250038         1.45345624E-03
   9.78125000         1.45237590E-03
   9.89999962         1.44507806E-03
   10.0187502         1.43257005E-03
   10.1374998         1.41569704E-03
   10.2562504         1.39515742E-03
   10.3750000         1.37160765E-03
   10.4937496         1.34577975E-03
   10.6125002         1.31854077E-03
   10.7312498         1.29085337E-03
   10.8500004         1.26364478E-03
   10.9687500         1.23763492E-03
   11.0874996         1.21319294E-03
   11.2062502         1.19028799E-03
   11.3249998         1.16856943E-03
   11.4437504         1.14756508E-03
   11.5625000         1.12693862E-03
   11.6812496         1.10671879E-03
   11.8000002         1.08741689E-03
   11.9187498         1.06997543E-03
   12.0375004         1.05555018E-03
   12.1562500         1.04518631E-03
   12.2749996         1.03948964E-03
   12.3937502         1.03841140E-03
   12.5124998         1.04122772E-03
   12.6312504         1.04673940E-03
   12.7500000         1.05363631E-03
   12.8687496         1.06091483E-03
   12.9875002         1.06820802E-03
   13.1062498         1.07591168E-03
   13.2250004         1.08505692E-03
   13.3437500         1.09695655E-03
   13.4624996         1.11273315E-03
   13.5812502         1.13287580E-03
   13.6999998         1.15695468E-03
   13.8187504         1.18357444E-03
   13.9375000         1.21056684E-03
   14.0562496         1.23534468E-03
   14.1750002         1.25530886E-03
   14.2937498         1.26818893E-03
   14.4125004         1.27225183E-03
   14.5312500         1.26636622E-03
   14.6499996         1.24997029E-03
   14.7687502         1.22301828E-03
   14.8874998         1.18596863E-03
   15.0062504         1.13984081E-03
   15.1250000         1.08631165E-03
   15.2437496         1.02778175E-03
   15.3625002         9.67331347E-04
   15.4812498         9.08506277E-04
   15.6000004         8.54929036E-04
   15.7187500         8.09790858E-04
   15.8374996         7.75332563E-04
   15.9562502         7.52444030E-04
   16.0750008         7.40492658E-04
   16.1937504         7.37442635E-04
   16.3125000         7.40250456E-04
   16.4312496         7.45456724E-04
   16.5499992         7.49838247E-04
   16.6687508         7.50973297E-04
   16.7875004         7.47598882E-04
   16.9062500         7.39691895E-04
   17.0249996         7.28287210E-04
   17.1437492         7.15103291E-04
   17.2625008         7.02096615E-04
   17.3812504         6.91065739E-04
   17.5000000         6.83394319E-04
   17.6187496         6.79965247E-04
   17.7374992         6.81216654E-04
   17.8562508         6.87263790E-04
   17.9750004         6.98003627E-04
   18.0937500         7.13140180E-04
   18.2124996         7.32121989E-04
   18.3312492         7.54034379E-04
   18.4500008         7.77523848E-04
   18.5687504         8.00831418E-04
   18.6875000         8.21973255E-04
   18.8062496         8.39045795E-04
   18.9249992         8.50577431E-04
   19.0437508         8.55811813E-04
   19.1625004         8.54823156E-04
   19.2812500         8.48413329E-04
   19.3999996         8.37813073E-04
   19.5187492         8.24283925E-04
   19.6375008         8.08753481E-04
   19.7562504         7.91608007E-04
   19.8750000         7.72715895E-04
   19.9937496         7.51672953E-04
   20.1124992         7.28181563E-04
   20.2312508         7.02433579E-04
   20.3500004         6.75357995E-04
   20.4687500         6.48642424E-04
   20.5874996         6.24509703E-04
   20.7062492         6.05309033E-04
   20.8250008         5.93034027E-04
   20.9437504         5.88901283E-04
   21.0625000         5.93096600E-04
   21.1812496         6.04743371E-04
   21.2999992         6.22081454E-04
   21.4187508         6.42789819E-04
   21.5375004         6.64358202E-04
   21.6562500         6.84414525E-04
   21.7749996         7.00947072E-04
   21.8937492         7.12405483E-04
   22.0125008         7.17708666E-04
   22.1312504         7.16214126E-04
   22.2500000         7.07705040E-04
   22.3687496         6.92425936E-04
   22.4874992         6.71161455E-04
   22.6062508         6.45309512E-04
   22.7250004         6.16883510E-04
   22.8437500         5.88379567E-04
   22.9624996         5.62483445E-04
   23.0812492         5.41648304E-04
   23.2000008         5.27626951E-04
   23.3187504         5.21084643E-04
   23.4375000         5.21409384E-04
   23.5562496         5.26799820E-04
   23.6749992         5.34631487E-04
   23.7937508         5.42022695E-04
   23.9125004         5.46458294E-04
   24.0312500         5.46310272E-04
   24.1499996         5.41124376E-04
   24.2687492         5.31616271E-04
   24.3875008         5.19404130E-04
   24.5062504         5.06584067E-04
   24.6250000         4.95284796E-04
   24.7437496         4.87326499E-04
   24.8624992         4.84051037E-04
   24.9812508         4.86321136E-04
   25.1000004         4.94621519E-04
   25.2187500         5.09168138E-04
   25.3374996         5.29947632E-04
   25.4562492         5.56654471E-04
   25.5750008         5.88553958E-04
   25.6937504         6.24345674E-04
   25.8125000         6.62116159E-04
   25.9312496         6.99442404E-04
   26.0499992         7.33660010E-04
   26.1687508         7.62243348E-04
   26.2875004         7.83203403E-04
   26.4062500         7.95391446E-04
   26.5249996         7.98622088E-04
   26.6437492         7.93580431E-04
   26.7625008         7.81543320E-04
   26.8812504         7.63999531E-04
   27.0000000         7.42283009E-04
   27.1187496         7.17325893E-04
   27.2374992         6.89596985E-04
   27.3562508         6.59234065E-04
   27.4750004         6.26314024E-04
   27.5937500         5.91163000E-04
   27.7124996         5.54593513E-04
   27.8312492         5.17983048E-04
   27.9500008         4.83155571E-04
   28.0687504         4.52094886E-04
   28.1875000         4.26572544E-04
   28.3062496         4.07803396E-04
   28.4249992         3.96230957E-04
   28.5437508         3.91503825E-04
   28.6625004         3.92639311E-04
   28.7812500         3.98310833E-04
   28.8999996         4.07158223E-04
   29.0187492         4.18022973E-04
   29.1375008         4.30047192E-04
   29.2562504         4.42635850E-04
   29.3750000         4.55339032E-04
   29.4937496         4.67743288E-04
   29.6124992         4.79451090E-04
   29.7312508         4.90184058E-04
   29.8500004         4.99981106E-04
   29.9687500         5.09404228E-04
   30.0874996         5.19644585E-04
   30.2062492         5.32438164E-04
   30.3250008         5.49762044E-04
   30.4437504         5.73363621E-04
   30.5625000         6.04239467E-04
   30.6812496         6.42216008E-04
   30.7999992         6.85765001E-04
   30.9187508         7.32122746E-04
   31.0375004         7.77698006E-04
   31.1562500         8.18670960E-04
   31.2749996         8.51635472E-04
   31.3937492         8.74134013E-04
   31.5125008         8.84973502E-04
   31.6312504         8.84278677E-04
   31.7500000         8.73312587E-04
   31.8687496         8.54147947E-04
   31.9874992         8.29293276E-04
   32.1062508         8.01366346E-04
   32.2249985         7.72866420E-04
   32.3437500         7.46049045E-04
   32.4625015         7.22868775E-04
   32.5812492         7.04937673E-04
   32.7000008         6.93454407E-04
   32.8187485         6.89092267E-04
   32.9375000         6.91867550E-04
   33.0562515         7.01043929E-04
   33.1749992         7.15136470E-04
   33.2937508         7.32063490E-04
   33.4124985         7.49451574E-04
   33.5312500         7.65046861E-04
   33.6500015         7.77141657E-04
   33.7687492         7.84901378E-04
   33.8875008         7.88491219E-04
   34.0062485         7.88957346E-04
   34.1250000         7.87880272E-04
   34.2437515         7.86898425E-04
   34.3624992         7.87237484E-04
   34.4812508         7.89387443E-04
   34.5999985         7.93021813E-04
   34.7187500         7.97177432E-04
   34.8375015         8.00627749E-04
   34.9562492         8.02321243E-04
   35.0750008         8.01739050E-04
   35.1937485         7.99056434E-04
   35.3125000         7.95068278E-04
   35.4312515         7.90916558E-04
   35.5499992         7.87724683E-04
   35.6687508         7.86268560E-04
   35.7874985         7.86788121E-04
   35.9062500         7.88986217E-04
   36.0250015         7.92191364E-04
   36.1437492         7.95604545E-04
   36.2625008         7.98532099E-04
   36.3812485         8.00526119E-04
   36.5000000         8.01402552E-04
   36.6187515         8.01163784E-04
   36.7374992         7.99891714E-04
   36.8562508         7.97686691E-04
   36.9749985         7.94699707E-04
   37.0937500         7.91261496E-04
   37.2125015         7.88056350E-04
   37.3312492         7.86257966E-04
   37.4500008         7.87541911E-04
   37.5687485         7.93918094E-04
   37.6875000         8.07385659E-04
   37.8062515         8.29472323E-04
   37.9249992         8.60767206E-04
   38.0437508         9.00576066E-04
   38.1624985         9.46805871E-04
   38.2812500         9.96135408E-04
   38.4000015         1.04445394E-03
   38.5187492         1.08748139E-03
   38.6375008         1.12143497E-03
   38.7562485         1.14359194E-03
   38.8750000         1.15263113E-03
   38.9937515         1.14869315E-03
   39.1124992         1.13317755E-03
   39.2312508         1.10835861E-03
   39.3499985         1.07694103E-03
   39.4687500         1.04167161E-03
   39.5875015         1.00508146E-03
   39.7062492         9.69375018E-04
   39.8250008         9.36421158E-04
   39.9437485         9.07772221E-04
   40.0625000         8.84638925E-04
   40.1812515         8.67789786E-04
   40.2999992         8.57398903E-04
   40.4187508         8.52913363E-04
   40.5374985         8.53027741E-04
   40.6562500         8.55830964E-04
   40.7750015         8.59134831E-04
   40.8937492         8.60920059E-04
   41.0125008         8.59786640E-04
   41.1312485         8.55275430E-04
   41.2500000         8.47959192E-04
   41.3687515         8.39268032E-04
   41.4874992         8.31099343E-04
   41.6062508         8.25327763E-04
   41.7249985         8.23360635E-04
   41.8437500         8.25862342E-04
   41.9625015         8.32717109E-04
   42.0812492         8.43213813E-04
   42.2000008         8.56372120E-04
   42.3187485         8.71289638E-04
   42.4375000         8.87392554E-04
   42.5562515         9.04516026E-04
   42.6749992         9.22803127E-04
   42.7937508         9.42472892E-04
   42.9124985         9.63548897E-04
   43.0312500         9.85647785E-04
   43.1500015         1.00789999E-03
   43.2687492         1.02902646E-03
   43.3875008         1.04754535E-03
   43.5062485         1.06203684E-03
   43.6250000         1.07138290E-03
   43.7437515         1.07491121E-03
   43.8624992         1.07241177E-03
   43.9812508         1.06404081E-03
   44.0999985         1.05017121E-03
   44.2187500         1.03126362E-03
   44.3375015         1.00782490E-03
   44.4562492         9.80479061E-04
   44.5750008         9.50125686E-04
   44.6937485         9.18110774E-04
   44.8125000         8.86317808E-04
   44.9312515         8.57094303E-04
   45.0499992         8.32984282E-04
   45.1687508         8.16303364E-04
   45.2874985         8.08657671E-04
   45.4062500         8.10544298E-04
   45.5250015         8.21163354E-04
   45.6437492         8.38513894E-04
   45.7625008         8.59766791E-04
   45.8812485         8.81822780E-04
