  -1.50000000       0.00000000    
  -1.38499999       5.07326514E-10
  -1.26999998       8.69237515E-10
  -1.15499997      -1.50224810E-09
  -1.03999996      -1.29187407E-08
 -0.925000012      -4.70591992E-08
 -0.810000002      -1.31992223E-07
 -0.694999993      -3.22208678E-07
 -0.579999983      -7.16360091E-07
 -0.465000004      -1.47861795E-06
 -0.349999994      -2.85645729E-06
 -0.234999999      -5.18079423E-06
 -0.119999997      -8.82817676E-06
  -4.99999989E-03  -1.41233259E-05
  0.109999999      -2.11686438E-05
  0.224999994      -2.96080179E-05
  0.340000004      -3.83632178E-05
  0.455000013      -4.54134970E-05
  0.569999993      -4.77089743E-05
  0.685000002      -4.13023881E-05
  0.800000012      -2.17452071E-05
  0.915000021       1.52720058E-05
   1.02999997       7.31307591E-05
   1.14499998       1.53504792E-04
   1.25999999       2.55769264E-04
   1.37500000       3.76753247E-04
   1.49000001       5.10917453E-04
   1.60500002       6.50941161E-04
   1.72000003       7.88606296E-04
   1.83500004       9.15800629E-04
   1.95000005       1.02544576E-03
   2.06500006       1.11218647E-03
   2.18000007       1.17275026E-03
   2.29500008       1.20596937E-03
   2.41000009       1.21253217E-03
   2.52500010       1.19457126E-03
   2.64000010       1.15520635E-03
   2.75500011       1.09812652E-03
   2.86999989       1.02725939E-03
   2.98499990       9.46525659E-04
   3.09999990       8.59652529E-04
   3.21499991       7.70012324E-04
   3.32999992       6.80461235E-04
   3.44499993       5.93186822E-04
   3.55999994       5.09581354E-04
   3.67499995       4.30185493E-04
   3.78999996       3.54728545E-04
   3.90499997       2.82283843E-04
   4.01999998       2.11528895E-04
   4.13500023       1.41075347E-04
   4.25000000       6.98112781E-05
   4.36499977      -2.80251334E-06
   4.48000002      -7.65425793E-05
   4.59499979      -1.50381296E-04
   4.71000004      -2.22610019E-04
   4.82499981      -2.91120901E-04
   4.94000006      -3.53800540E-04
   5.05499983      -4.08974418E-04
   5.17000008      -4.55815461E-04
   5.28499985      -4.94628272E-04
   5.40000010      -5.26936783E-04
   5.51499987      -5.55340550E-04
   5.63000011      -5.83147106E-04
   5.74499989      -6.13837794E-04
   5.86000013      -6.50484057E-04
   5.97499990      -6.95225666E-04
   6.09000015      -7.48930499E-04
   6.20499992      -8.11104139E-04
   6.32000017      -8.80058680E-04
   6.43499994      -9.53285256E-04
   6.55000019      -1.02792529E-03
   6.66499996      -1.10122154E-03
   6.78000021      -1.17084722E-03
   6.89499998      -1.23506621E-03
   7.01000023      -1.29273918E-03
   7.12500000      -1.34323561E-03
   7.23999977      -1.38634106E-03
   7.35500002      -1.42223120E-03
   7.46999979      -1.45153655E-03
   7.58500004      -1.47546234E-03
   7.69999981      -1.49588275E-03
   7.81500006      -1.51530630E-03
   7.92999983      -1.53663941E-03
   8.04500008      -1.56274030E-03
   8.15999985      -1.59582985E-03
   8.27499962      -1.63689838E-03
   8.39000034      -1.68527418E-03
   8.50500011      -1.73850334E-03
   8.61999989      -1.79261307E-03
   8.73499966      -1.84273429E-03
   8.85000038      -1.88396347E-03
   8.96500015      -1.91226858E-03
   9.07999992      -1.92523818E-03
   9.19499969      -1.92251627E-03
   9.31000042      -1.90584315E-03
   9.42500019      -1.87873596E-03
   9.53999996      -1.84591487E-03
   9.65499973      -1.81263324E-03
   9.77000046      -1.78405852E-03
   9.88500023      -1.76480308E-03
   10.0000000      -1.75863167E-03
   10.1149998      -1.76831556E-03
   10.2299995      -1.79555581E-03
   10.3450003      -1.84091053E-03
   10.4600000      -1.90369179E-03
   10.5749998      -1.98184815E-03
   10.6899996      -2.07189913E-03
   10.8050003      -2.16900418E-03
   10.9200001      -2.26723310E-03
   11.0349998      -2.36006221E-03
   11.1499996      -2.44105072E-03
   11.2650003      -2.50460301E-03
   11.3800001      -2.54667667E-03
   11.4949999      -2.56530568E-03
   11.6099997      -2.56083300E-03
   11.7250004      -2.53581721E-03
   11.8400002      -2.49463087E-03
   11.9549999      -2.44283257E-03
   12.0699997      -2.38642842E-03
   12.1850004      -2.33114441E-03
   12.3000002      -2.28181272E-03
   12.4150000      -2.24194769E-03
   12.5299997      -2.21354142E-03
   12.6450005      -2.19707075E-03
   12.7600002      -2.19168724E-03
   12.8750000      -2.19552591E-03
   12.9899998      -2.20608176E-03
   13.1049995      -2.22058338E-03
   13.2200003      -2.23632460E-03
   13.3350000      -2.25091702E-03
   13.4499998      -2.26245658E-03
   13.5649996      -2.26961169E-03
   13.6800003      -2.27165991E-03
   13.7950001      -2.26849481E-03
   13.9099998      -2.26062350E-03
   14.0249996      -2.24915473E-03
   14.1400003      -2.23575905E-03
   14.2550001      -2.22256640E-03
   14.3699999      -2.21197354E-03
   14.4849997      -2.20635324E-03
   14.6000004      -2.20768666E-03
   14.7150002      -2.21718382E-03
   14.8299999      -2.23498000E-03
   14.9449997      -2.26000068E-03
   15.0600004      -2.29005422E-03
   15.1750002      -2.32216646E-03
   15.2900000      -2.35309382E-03
   15.4049997      -2.37990543E-03
   15.5200005      -2.40048603E-03
   15.6350002      -2.41383072E-03
   15.7500000      -2.42005731E-03
   15.8649998      -2.42013577E-03
   15.9799995      -2.41542421E-03
   16.0949993      -2.40714732E-03
   16.2099991      -2.39597820E-03
   16.3250008      -2.38183746E-03
   16.4400005      -2.36395816E-03
   16.5550003      -2.34117545E-03
   16.6700001      -2.31233425E-03
   16.7849998      -2.27667135E-03
   16.8999996      -2.23405263E-03
   17.0149994      -2.18500476E-03
   17.1299992      -2.13055499E-03
   17.2450008      -2.07196618E-03
   17.3600006      -2.01048539E-03
   17.4750004      -1.94721331E-03
   17.5900002      -1.88314635E-03
   17.7049999      -1.81937055E-03
   17.8199997      -1.75731338E-03
   17.9349995      -1.69893249E-03
   18.0499992      -1.64672255E-03
   18.1650009      -1.60348241E-03
   18.2800007      -1.57186517E-03
   18.3950005      -1.55381067E-03
   18.5100002      -1.55001355E-03
   18.6250000      -1.55957497E-03
   18.7399998      -1.57995103E-03
   18.8549995      -1.60722632E-03
   18.9699993      -1.63665705E-03
   19.0849991      -1.66336051E-03
   19.2000008      -1.68299628E-03
   19.3150005      -1.69230113E-03
   19.4300003      -1.68938783E-03
   19.5450001      -1.67378760E-03
   19.6599998      -1.64627656E-03
   19.7749996      -1.60857220E-03
   19.8899994      -1.56298827E-03
   20.0049992      -1.51212432E-03
   20.1200008      -1.45862356E-03
   20.2350006      -1.40500197E-03
   20.3500004      -1.35352020E-03
   20.4650002      -1.30606676E-03
   20.5799999      -1.26402837E-03
   20.6949997      -1.22814905E-03
   20.8099995      -1.19839876E-03
   20.9249992      -1.17388868E-03
   21.0400009      -1.15287432E-03
   21.1550007      -1.13287277E-03
   21.2700005      -1.11090345E-03
   21.3850002      -1.08383736E-03
   21.5000000      -1.04881485E-03
   21.6149998      -1.00367446E-03
   21.7299995      -9.47335269E-04
   21.8449993      -8.80056177E-04
   21.9599991      -8.03525967E-04
   22.0750008      -7.20753917E-04
   22.1900005      -6.35750708E-04
   22.3050003      -5.53042686E-04
   22.4200001      -4.77087015E-04
   22.5349998      -4.11681016E-04
   22.6499996      -3.59476020E-04
   22.7649994      -3.21675063E-04
   22.8799992      -2.97969469E-04
   22.9950008      -2.86707625E-04
   23.1100006      -2.85240181E-04
   23.2250004      -2.90347321E-04
   23.3400002      -2.98647938E-04
   23.4549999      -3.06902162E-04
   23.5699997      -3.12174845E-04
   23.6849995      -3.11877462E-04
   23.7999992      -3.03753885E-04
   23.9150009      -2.85886228E-04
   24.0300007      -2.56793952E-04
   24.1450005      -2.15635228E-04
   24.2600002      -1.62477299E-04
   24.3750000      -9.85399820E-05
   24.4899998      -2.63047077E-05
   24.6049995       5.05980825E-05
   24.7199993       1.27756313E-04
   24.8349991       2.00546900E-04
   24.9500008       2.64792994E-04
   25.0650005       3.17354192E-04
   25.1800003       3.56497971E-04
   25.2950001       3.81969294E-04
   25.4099998       3.94751172E-04
   25.5249996       3.96599527E-04
   25.6399994       3.89507535E-04
   25.7549992       3.75248957E-04
   25.8700008       3.55130702E-04
   25.9850006       3.29997070E-04
   26.1000004       3.00447718E-04
   26.2150002       2.67152936E-04
   26.3299999       2.31136422E-04
   26.4449997       1.93900880E-04
   26.5599995       1.57342773E-04
   26.6749992       1.23480277E-04
   26.7900009       9.40863465E-05
   26.9050007       7.03502956E-05
   27.0200005       5.26868389E-05
   27.1350002       4.07498519E-05
   27.2500000       3.36484336E-05
   27.3649998       3.02848803E-05
   27.4799995       2.97050628E-05
   27.5949993       3.13464880E-05
   27.7099991       3.51088311E-05
   27.8250008       4.12385452E-05
   27.9400005       5.00798560E-05
   28.0550003       6.17795449E-05
   28.1700001       7.60600160E-05
   28.2849998       9.21282262E-05
   28.3999996       1.08758446E-04
   28.5149994       1.24522281E-04
   28.6299992       1.38095158E-04
   28.7450008       1.48554551E-04
   28.8600006       1.55585425E-04
   28.9750004       1.59544245E-04
   29.0900002       1.61370190E-04
   29.2049999       1.62372366E-04
   29.3199997       1.63944627E-04
   29.4349995       1.67274222E-04
   29.5499992       1.73104665E-04
   29.6650009       1.81588955E-04
   29.7800007       1.92252861E-04
   29.8950005       2.04065102E-04
   30.0100002       2.15589927E-04
   30.1250000       2.25188938E-04
   30.2399998       2.31227605E-04
   30.3549995       2.32253413E-04
   30.4699993       2.27111392E-04
   30.5849991       2.14989865E-04
   30.7000008       1.95402739E-04
   30.8150005       1.68134284E-04
   30.9300003       1.33189271E-04
   31.0450001       9.07839494E-05
   31.1599998       4.14051137E-05
   31.2749996      -1.40749971E-05
   31.3899994      -7.42586853E-05
   31.5049992      -1.37127150E-04
   31.6200008      -2.00053313E-04
   31.7350006      -2.59972992E-04
   31.8500004      -3.13721714E-04
   31.9650002      -3.58492369E-04
   32.0800018      -3.92316550E-04
   32.1949997      -4.14454727E-04
   32.3100014      -4.25584643E-04
   32.4249992      -4.27729130E-04
   32.5400009      -4.23922786E-04
   32.6549988      -4.17701463E-04
   32.7700005      -4.12536960E-04
   32.8849983      -4.11358487E-04
   33.0000000      -4.16265539E-04
   33.1150017      -4.28479514E-04
   33.2299995      -4.48495557E-04
   33.3450012      -4.76342771E-04
   33.4599991      -5.11828694E-04
   33.5750008      -5.54664526E-04
   33.6899986      -6.04428409E-04
   33.8050003      -6.60392339E-04
   33.9199982      -7.21307180E-04
   34.0349998      -7.85266049E-04
   34.1500015      -8.49751348E-04
   34.2649994      -9.11908050E-04
   34.3800011      -9.69009241E-04
   34.4949989      -1.01900043E-03
   34.6100006      -1.06097257E-03
   34.7249985      -1.09541905E-03
   34.8400002      -1.12419098E-03
   34.9550018      -1.15014624E-03
   35.0699997      -1.17657939E-03
   35.1850014      -1.20657845E-03
   35.2999992      -1.24246802E-03
   35.4150009      -1.28546613E-03
   35.5299988      -1.33561098E-03
   35.6450005      -1.39193260E-03
   35.7599983      -1.45277928E-03
   35.8750000      -1.51617930E-03
   35.9900017      -1.58012717E-03
   36.1049995      -1.64273614E-03
   36.2200012      -1.70225627E-03
   36.3349991      -1.75701117E-03
   36.4500008      -1.80533645E-03
   36.5649986      -1.84559415E-03
   36.6800003      -1.87630288E-03
   36.7949982      -1.89637113E-03
   36.9099998      -1.90537586E-03
   37.0250015      -1.90380425E-03
   37.1399994      -1.89317518E-03
   37.2550011      -1.87598856E-03
   37.3699989      -1.85549376E-03
   37.4850006      -1.83531456E-03
   37.5999985      -1.81900186E-03
   37.7150002      -1.80959876E-03
   37.8300018      -1.80929573E-03
   37.9449997      -1.81923190E-03
   38.0600014      -1.83945836E-03
   38.1749992      -1.86905835E-03
   38.2900009      -1.90638262E-03
   38.4049988      -1.94935058E-03
   38.5200005      -1.99575792E-03
   38.6349983      -2.04353966E-03
   38.7500000      -2.09094607E-03
   38.8650017      -2.13661767E-03
   38.9799995      -2.17955210E-03
   39.0950012      -2.21900363E-03
   39.2099991      -2.25434639E-03
   39.3250008      -2.28496152E-03
   39.4399986      -2.31019082E-03
   39.5550003      -2.32937839E-03
   39.6699982      -2.34199432E-03
   39.7849998      -2.34779925E-03
   39.9000015      -2.34698993E-03
   40.0149994      -2.34026648E-03
   40.1300011      -2.32877675E-03
   40.2449989      -2.31394172E-03
   40.3600006      -2.29720376E-03
   40.4749985      -2.27977242E-03
   40.5900002      -2.26245821E-03
   40.7050018      -2.24565342E-03
   40.8199997      -2.22947611E-03
   40.9350014      -2.21403711E-03
   41.0499992      -2.19973316E-03
   41.1650009      -2.18745298E-03
   41.2799988      -2.17860192E-03
   41.3950005      -2.17490201E-03
   41.5099983      -2.17800308E-03
   41.6250000      -2.18900247E-03
   41.7400017      -2.20802054E-03
   41.8549995      -2.23396649E-03
   41.9700012      -2.26458162E-03
   42.0849991      -2.29676836E-03
   42.2000008      -2.32712133E-03
   42.3149986      -2.35252525E-03
   42.4300003      -2.37065670E-03
   42.5449982      -2.38026702E-03
   42.6599998      -2.38119764E-03
   42.7750015      -2.37415242E-03
   42.8899994      -2.36033858E-03
   43.0050011      -2.34110211E-03
   43.1199989      -2.31767981E-03
   43.2350006      -2.29112688E-03
   43.3499985      -2.26240233E-03
   43.4650002      -2.23253574E-03
   43.5800018      -2.20275950E-03
   43.6949997      -2.17451295E-03
   43.8100014      -2.14926666E-03
   43.9249992      -2.12820014E-03
   44.0400009      -2.11181864E-03
   44.1549988      -2.09964602E-03
   44.2700005      -2.09010625E-03
   44.3849983      -2.08066683E-03
