  -1.50000000         0.00000000    
  -1.38499999         5.96471039E-10
  -1.26999998         1.85183913E-09
  -1.15499997         3.23095706E-09
  -1.03999996         3.06072856E-09
 -0.925000012        -2.77899037E-09
 -0.810000002        -2.37893722E-08
 -0.694999993        -8.04938125E-08
 -0.579999983        -2.13609965E-07
 -0.465000004        -4.96323196E-07
 -0.349999994        -1.04655396E-06
 -0.234999999        -2.03212335E-06
 -0.119999997        -3.65758615E-06
  -4.99999989E-03    -6.11957284E-06
  0.109999999        -9.52080245E-06
  0.224999994        -1.37435054E-05
  0.340000004        -1.83002339E-05
  0.455000013        -2.21992013E-05
  0.569999993        -2.38747180E-05
  0.685000002        -2.12326104E-05
  0.800000012        -1.18412536E-05
  0.915000021         6.73704199E-06
   1.02999997         3.65221313E-05
   1.14499998         7.86839955E-05
   1.25999999         1.33202237E-04
   1.37500000         1.98705136E-04
   1.49000001         2.72538309E-04
   1.60500002         3.51058843E-04
   1.72000003         4.30096959E-04
   1.83500004         5.05488715E-04
   1.95000005         5.73572237E-04
   2.06500006         6.31555973E-04
   2.18000007         6.77705742E-04
   2.29500008         7.11347559E-04
   2.41000009         7.32722227E-04
   2.52500010         7.42755947E-04
   2.64000010         7.42814562E-04
   2.75500011         7.34493136E-04
   2.86999989         7.19466072E-04
   2.98499990         6.99396187E-04
   3.09999990         6.75879710E-04
   3.21499991         6.50400645E-04
   3.32999992         6.24273438E-04
   3.44499993         5.98568236E-04
   3.55999994         5.74032310E-04
   3.67499995         5.51031728E-04
   3.78999996         5.29535871E-04
   3.90499997         5.09168196E-04
   4.01999998         4.89320257E-04
   4.13500023         4.69319959E-04
   4.25000000         4.48617327E-04
   4.36499977         4.26953309E-04
   4.48000002         4.04471153E-04
   4.59499979         3.81741469E-04
   4.71000004         3.59689642E-04
   4.82499981         3.39432387E-04
   4.94000006         3.22053820E-04
   5.05499983         3.08362418E-04
   5.17000008         2.98681873E-04
   5.28499985         2.92723300E-04
   5.40000010         2.89573567E-04
   5.51499987         2.87807023E-04
   5.63000011         2.85706308E-04
   5.74499989         2.81548739E-04
   5.86000013         2.73897545E-04
   5.97499990         2.61836802E-04
   6.09000015         2.45099189E-04
   6.20499992         2.24066811E-04
   6.32000017         1.99650691E-04
   6.43499994         1.73091103E-04
   6.55000019         1.45731305E-04
   6.66499996         1.18824937E-04
   6.78000021         9.34121563E-05
   6.89499998         7.02795587E-05
   7.01000023         4.99816015E-05
   7.12500000         3.28861061E-05
   7.23999977         1.92010921E-05
   7.35500002         8.95414996E-06
   7.46999979         1.92284210E-06
   7.58500004        -2.45140359E-06
   7.69999981        -5.11751932E-06
   7.81500006        -7.38602148E-06
   7.92999983        -1.07825463E-05
   8.04500008        -1.67918606E-05
   8.15999985        -2.65385479E-05
   8.27499962        -4.04807397E-05
   8.39000034        -5.82078173E-05
   8.50500011        -7.84104195E-05
   8.61999989        -9.90497574E-05
   8.73499966        -1.17703406E-04
   8.85000038        -1.32011992E-04
   8.96500015        -1.40123520E-04
   9.07999992        -1.41037162E-04
   9.19499969        -1.34770220E-04
   9.31000042        -1.22328405E-04
   9.42500019        -1.05505809E-04
   9.53999996        -8.65833572E-05
   9.65499973        -6.80078956E-05
   9.77000046        -5.21214315E-05
   9.88500023        -4.09813183E-05
   10.0000000        -3.62685169E-05
   10.1149998        -3.92517322E-05
   10.2299995        -5.07621153E-05
   10.3450003        -7.11395624E-05
   10.4600000        -1.00143538E-04
   10.5749998        -1.36847899E-04
   10.6899996        -1.79568626E-04
   10.8050003        -2.25877855E-04
   10.9200001        -2.72747217E-04
   11.0349998        -3.16825579E-04
   11.1499996        -3.54822812E-04
   11.2650003        -3.83931270E-04
   11.3800001        -4.02206148E-04
   11.4949999        -4.08823573E-04
   11.6099997        -4.04169172E-04
   11.7250004        -3.89741850E-04
   11.8400002        -3.67901346E-04
   11.9549999        -3.41515319E-04
   12.0699997        -3.13578377E-04
   12.1850004        -2.86867114E-04
   12.3000002        -2.63681315E-04
   12.4150000        -2.45689473E-04
   12.5299997        -2.33877145E-04
   12.6450005        -2.28577177E-04
   12.7600002        -2.29551646E-04
   12.8750000        -2.36099615E-04
   12.9899998        -2.47171381E-04
   13.1049995        -2.61478766E-04
   13.2200003        -2.77601124E-04
   13.3350000        -2.94091529E-04
   13.4499998        -3.09583847E-04
   13.5649996        -3.22903943E-04
   13.6800003        -3.33178963E-04
   13.7950001        -3.39932216E-04
   13.9099998        -3.43150721E-04
   14.0249996        -3.43305786E-04
   14.1400003        -3.41313571E-04
   14.2550001        -3.38426820E-04
   14.3699999        -3.36064637E-04
   14.4849997        -3.35598626E-04
   14.6000004        -3.38130776E-04
   14.7150002        -3.44304513E-04
   14.8299999        -3.54192045E-04
   14.9449997        -3.67287430E-04
   15.0600004        -3.82614700E-04
   15.1750002        -3.98930250E-04
   15.2900000        -4.14974988E-04
   15.4049997        -4.29715350E-04
   15.5200005        -4.42513381E-04
   15.6350002        -4.53183369E-04
   15.7500000        -4.61924326E-04
   15.8649998        -4.69153165E-04
   15.9799995        -4.75291832E-04
   16.0949993        -4.80574032E-04
   16.2099991        -4.84931224E-04
   16.3250008        -4.87987243E-04
   16.4400005        -4.89157974E-04
   16.5550003        -4.87815269E-04
   16.6700001        -4.83457698E-04
   16.7849998        -4.75827925E-04
   16.8999996        -4.64941928E-04
   17.0149994        -4.51028143E-04
   17.1299992        -4.34409361E-04
   17.2450008        -4.15384828E-04
   17.3600006        -3.94167058E-04
   17.4750004        -3.70911264E-04
   17.5900002        -3.45833774E-04
   17.7049999        -3.19380779E-04
   17.8199997        -2.92381679E-04
   17.9349995        -2.66114570E-04
   18.0499992        -2.42238442E-04
   18.1650009        -2.22582137E-04
   18.2800007        -2.08830039E-04
   18.3950005        -2.02178504E-04
   18.5100002        -2.03055199E-04
   18.6250000        -2.10975762E-04
   18.7399998        -2.24580188E-04
   18.8549995        -2.41840302E-04
   18.9699993        -2.60384957E-04
   19.0849991        -2.77862739E-04
   19.2000008        -2.92260258E-04
   19.3150005        -3.02111875E-04
   19.4300003        -3.06578993E-04
   19.5450001        -3.05411319E-04
   19.6599998        -2.98835163E-04
   19.7749996        -2.87421397E-04
   19.8899994        -2.71977246E-04
   20.0049992        -2.53481325E-04
   20.1200008        -2.33054132E-04
   20.2350006        -2.11936174E-04
   20.3500004        -1.91440180E-04
   20.4650002        -1.72852844E-04
   20.5799999        -1.57285540E-04
   20.6949997        -1.45496364E-04
   20.8099995        -1.37725045E-04
   20.9249992        -1.33587717E-04
   21.0400009        -1.32069501E-04
   21.1550007        -1.31629611E-04
   21.2700005        -1.30409651E-04
   21.3850002        -1.26509447E-04
   21.5000000        -1.18280586E-04
   21.6149998        -1.04585117E-04
   21.7299995        -8.49753633E-05
   21.8449993        -5.97683284E-05
   21.9599991        -3.00067986E-05
   22.0750008         2.67918676E-06
   22.1900005         3.62849532E-05
   22.3050003         6.86822896E-05
   22.4200001         9.78710304E-05
   22.5349998         1.22199825E-04
   22.6499996         1.40527161E-04
   22.7649994         1.52310371E-04
   22.8799992         1.57619957E-04
   22.9950008         1.57088347E-04
   23.1100006         1.51813074E-04
   23.2250004         1.43239522E-04
   23.3400002         1.33041045E-04
   23.4549999         1.23010628E-04
   23.5699997         1.14964969E-04
   23.6849995         1.10652742E-04
   23.7999992         1.11652946E-04
   23.9150009         1.19254473E-04
   24.0300007         1.34317277E-04
   24.1450005         1.57135015E-04
   24.2600002         1.87329089E-04
   24.3750000         2.23811920E-04
   24.4899998         2.64848553E-04
   24.6049995         3.08227987E-04
   24.7199993         3.51523049E-04
   24.8349991         3.92395625E-04
   24.9500008         4.28884843E-04
   25.0650005         4.59613308E-04
   25.1800003         4.83871263E-04
   25.2950001         5.01564355E-04
   25.4099998         5.13054198E-04
   25.5249996         5.18944347E-04
   25.6399994         5.19879104E-04
   25.7549992         5.16412954E-04
   25.8700008         5.08978846E-04
   25.9850006         4.97948902E-04
   26.1000004         4.83745796E-04
   26.2150002         4.66952333E-04
   26.3299999         4.48363513E-04
   26.4449997         4.28950705E-04
   26.5599995         4.09746688E-04
   26.6749992         3.91682668E-04
   26.7900009         3.75435338E-04
   26.9050007         3.61335668E-04
   27.0200005         3.49370908E-04
   27.1350002         3.39278340E-04
   27.2500000         3.30697716E-04
   27.3649998         3.23327142E-04
   27.4799995         3.17028607E-04
   27.5949993         3.11845564E-04
   27.7099991         3.07931565E-04
   27.8250008         3.05415306E-04
   27.9400005         3.04257032E-04
   28.0550003         3.04150220E-04
   28.1700001         3.04509653E-04
   28.2849998         3.04557296E-04
   28.3999996         3.03483161E-04
   28.5149994         3.00636486E-04
   28.6299992         2.95688747E-04
   28.7450008         2.88724405E-04
   28.8600006         2.80235981E-04
   28.9750004         2.71029334E-04
   29.0900002         2.62070476E-04
   29.2049999         2.54316925E-04
   29.3199997         2.48575961E-04
   29.4349995         2.45414820E-04
   29.5499992         2.45129515E-04
   29.6650009         2.47757212E-04
   29.7800007         2.53112143E-04
   29.8950005         2.60818575E-04
   30.0100002         2.70329474E-04
   30.1250000         2.80930020E-04
   30.2399998         2.91739241E-04
   30.3549995         3.01726104E-04
   30.4699993         3.09754803E-04
   30.5849991         3.14666977E-04
   30.7000008         3.15393292E-04
   30.8150005         3.11079290E-04
   30.9300003         3.01203923E-04
   31.0450001         2.85669987E-04
   31.1599998         2.64849776E-04
   31.2749996         2.39579822E-04
   31.3899994         2.11100763E-04
   31.5049992         1.80952047E-04
   31.6200008         1.50828011E-04
   31.7350006         1.22412617E-04
   31.8500004         9.72077032E-05
   31.9650002         7.63771750E-05
   32.0800018         6.06262947E-05
   32.1949997         5.01362083E-05
   32.3100014         4.45652113E-05
   32.4249992         4.31170483E-05
   32.5400009         4.46642625E-05
   32.6549988         4.79023256E-05
   32.7700005         5.15046886E-05
   32.8849983         5.42507732E-05
   33.0000000         5.51109770E-05
   33.1150017         5.32858721E-05
   33.2299995         4.82127798E-05
   33.3450012         3.95618772E-05
   33.4599991         2.72418292E-05
   33.5750008         1.14235645E-05
   33.6899986        -7.42303109E-06
   33.8050003        -2.85038714E-05
   33.9199982        -5.07153454E-05
   34.0349998        -7.27232473E-05
   34.1500015        -9.31139439E-05
   34.2649994        -1.10599896E-04
   34.3800011        -1.24238402E-04
   34.4949989        -1.33612877E-04
   34.6100006        -1.38925912E-04
   34.7249985        -1.40975695E-04
   34.8400002        -1.41016120E-04
   34.9550018        -1.40534554E-04
   35.0699997        -1.41000288E-04
   35.1850014        -1.43644284E-04
   35.2999992        -1.49315427E-04
   35.4150009        -1.58434108E-04
   35.5299988        -1.71029169E-04
   35.6450005        -1.86823905E-04
   35.7599983        -2.05325865E-04
   35.8750000        -2.25885538E-04
   35.9900017        -2.47708609E-04
   36.1049995        -2.69836251E-04
   36.2200012        -2.91123433E-04
   36.3349991        -3.10257514E-04
   36.4500008        -3.25840549E-04
   36.5649986        -3.36541532E-04
   36.6800003        -3.41292965E-04
   36.7949982        -3.39485676E-04
   36.9099998        -3.31110961E-04
   37.0250015        -3.16805847E-04
   37.1399994        -2.97787308E-04
   37.2550011        -2.75687751E-04
   37.3699989        -2.52331723E-04
   37.4850006        -2.29506579E-04
   37.5999985        -2.08774247E-04
   37.7150002        -1.91356419E-04
   37.8300018        -1.78097849E-04
   37.9449997        -1.69492007E-04
   38.0600014        -1.65736739E-04
   38.1749992        -1.66791171E-04
   38.2900009        -1.72411790E-04
   38.4049988        -1.82165008E-04
   38.5200005        -1.95426925E-04
   38.6349983        -2.11388557E-04
   38.7500000        -2.29085330E-04
   38.8650017        -2.47456686E-04
   38.9799995        -2.65430630E-04
   39.0950012        -2.82017398E-04
   39.2099991        -2.96389597E-04
   39.3250008        -3.07933922E-04
   39.4399986        -3.16266000E-04
   39.5550003        -3.21212166E-04
   39.6699982        -3.22771608E-04
   39.7849998        -3.21073749E-04
   39.9000015        -3.16343911E-04
   40.0149994        -3.08883464E-04
   40.1300011        -2.99060775E-04
   40.2449989        -2.87308387E-04
   40.3600006        -2.74120248E-04
   40.4749985        -2.60042754E-04
   40.5900002        -2.45663890E-04
   40.7050018        -2.31600701E-04
   40.8199997        -2.18489746E-04
   40.9350014        -2.06978046E-04
   41.0499992        -1.97708097E-04
   41.1650009        -1.91287967E-04
   41.2799988        -1.88238351E-04
   41.3950005        -1.88919512E-04
   41.5099983        -1.93446613E-04
   41.6250000        -2.01615316E-04
   41.7400017        -2.12862666E-04
   41.8549995        -2.26283213E-04
   41.9700012        -2.40709662E-04
   42.0849991        -2.54847575E-04
   42.2000008        -2.67440890E-04
   42.3149986        -2.77431420E-04
   42.4300003        -2.84080772E-04
   42.5449982        -2.87030067E-04
   42.6599998        -2.86295166E-04
   42.7750015        -2.82210443E-04
   42.8899994        -2.75346974E-04
   43.0050011        -2.66433082E-04
   43.1199989        -2.56294239E-04
   43.2350006        -2.45815114E-04
   43.3499985        -2.35911401E-04
   43.4650002        -2.27489698E-04
   43.5800018        -2.21378446E-04
   43.6949997        -2.18223358E-04
   43.8100014        -2.18363275E-04
   43.9249992        -2.21714639E-04
   44.0400009        -2.27705095E-04
   44.1549988        -2.35285013E-04
   44.2700005        -2.43033224E-04
   44.3849983        -2.49344448E-04
