  -1.50000000        -1.12348891E-18
  -1.38125002         6.36005526E-10
  -1.26250005         1.96201189E-09
  -1.14374995         3.34600792E-09
  -1.02499998         2.80730861E-09
 -0.906250000        -4.64280303E-09
 -0.787500024        -3.07638715E-08
 -0.668749988        -1.01307229E-07
 -0.550000012        -2.67575018E-07
 -0.431250006        -6.21289757E-07
 -0.312500000        -1.30790011E-06
 -0.193749994        -2.52807081E-06
  -7.50000030E-02    -4.51219830E-06
   4.37499993E-02    -7.45196348E-06
  0.162499994        -1.13801807E-05
  0.281250000        -1.60073632E-05
  0.400000006        -2.05476044E-05
  0.518750012        -2.35892785E-05
  0.637499988        -2.30760106E-05
  0.756250024        -1.64508765E-05
  0.875000000        -9.79672905E-07
  0.993749976         2.57842566E-05
   1.11249995         6.54832693E-05
   1.23125005         1.18508455E-04
   1.35000002         1.83740893E-04
   1.46875000         2.58560322E-04
   1.58749998         3.39134247E-04
   1.70624995         4.20928933E-04
   1.82500005         4.99329471E-04
   1.94375002         5.70232922E-04
   2.06250000         6.30497583E-04
   2.18125010         6.78176642E-04
   2.29999995         7.12526613E-04
   2.41875005         7.33837835E-04
   2.53749990         7.43164506E-04
   2.65625000         7.42038828E-04
   2.77500010         7.32232060E-04
   2.89374995         7.15589500E-04
   3.01250005         6.93932408E-04
   3.13124990         6.68997120E-04
   3.25000000         6.42378815E-04
   3.36875010         6.15456840E-04
   3.48749995         5.89302799E-04
   3.60625005         5.64591726E-04
   3.72499990         5.41549525E-04
   3.84375000         5.19964786E-04
   3.96250010         4.99282614E-04
   4.08125019         4.78772505E-04
   4.19999981         4.57740709E-04
   4.31874990         4.35744994E-04
   4.43750000         4.12759575E-04
   4.55625010         3.89247201E-04
   4.67500019         3.66115273E-04
   4.79374981         3.44556815E-04
   4.91249990         3.25803994E-04
   5.03125000         3.10841366E-04
   5.15000010         3.00146494E-04
   5.26875019         2.93517456E-04
   5.38749981         2.90034164E-04
   5.50624990         2.88172538E-04
   5.62500000         2.86053575E-04
   5.74375010         2.81776738E-04
   5.86250019         2.73761601E-04
   5.98124981         2.61023466E-04
   6.09999990         2.43316943E-04
   6.21875000         2.21125287E-04
   6.33750010         1.95506902E-04
   6.45625019         1.67852893E-04
   6.57499981         1.39627038E-04
   6.69374990         1.12155583E-04
   6.81250000         8.65077309E-05
   6.93125010         6.34728349E-05
   7.05000019         4.35992479E-05
   7.16874981         2.72432699E-05
   7.28749990         1.45775812E-05
   7.40625000         5.53782229E-06
   7.52500010        -2.76637962E-07
   7.64375019        -3.69599456E-06
   7.76249981        -6.00069734E-06
   7.88124990        -8.81125834E-06
   8.00000000        -1.38356509E-05
   8.11874962        -2.25097938E-05
   8.23750019        -3.56189375E-05
   8.35624981        -5.30098587E-05
   8.47500038        -7.34901187E-05
   8.59375000        -9.49695241E-05
   8.71249962        -1.14825278E-04
   8.83125019        -1.30412984E-04
   8.94999981        -1.39595824E-04
   9.06875038        -1.41165539E-04
   9.18750000        -1.35058814E-04
   9.30624962        -1.22334473E-04
   9.42500019        -1.04945830E-04
   9.54374981        -8.53908496E-05
   9.66250038        -6.63420433E-05
   9.78125000        -5.03417614E-05
   9.89999962        -3.96072792E-05
   10.0187502        -3.59350524E-05
   10.1374998        -4.06614017E-05
   10.2562504        -5.46226584E-05
   10.3750000        -7.80742412E-05
   10.4937496        -1.10569781E-04
   10.6125002        -1.50838285E-04
   10.7312498        -1.96724446E-04
   10.8500004        -2.45260628E-04
   10.9687500        -2.92901794E-04
   11.0874996        -3.35917895E-04
   11.2062502        -3.70877271E-04
   11.3249998        -3.95131472E-04
   11.4437504        -4.07193322E-04
   11.5625000        -4.06931591E-04
   11.6812496        -3.95543611E-04
   11.8000002        -3.75320931E-04
   11.9187498        -3.49269598E-04
   12.0375004        -3.20668682E-04
   12.1562500        -2.92651646E-04
   12.2749996        -2.67876982E-04
   12.3937502        -2.48322060E-04
   12.5124998        -2.35200627E-04
   12.6312504        -2.28982230E-04
   12.7500000        -2.29479047E-04
   12.8687496        -2.35965999E-04
   12.9875002        -2.47311225E-04
   13.1062498        -2.62103917E-04
   13.2250004        -2.78778694E-04
   13.3437500        -2.95740290E-04
   13.4624996        -3.11492302E-04
   13.5812502        -3.24770284E-04
   13.6999998        -3.34670884E-04
   13.8187504        -3.40761384E-04
   13.9375000        -3.43151914E-04
   14.0562496        -3.42503918E-04
   14.1750002        -3.39961291E-04
   14.2937498        -3.36997356E-04
   14.4125004        -3.35190707E-04
   14.5312500        -3.35961609E-04
   14.6499996        -3.40319501E-04
   14.7687502        -3.48674221E-04
   14.8874998        -3.60763661E-04
   15.0062504        -3.75719625E-04
   15.1250000        -3.92264192E-04
   15.2437496        -4.08991997E-04
   15.3625002        -4.24667494E-04
   15.4812498        -4.38456889E-04
   15.6000004        -4.50034189E-04
   15.7187500        -4.59536357E-04
   15.8374996        -4.67387086E-04
   15.9562502        -4.74051543E-04
   16.0750008        -4.79805138E-04
   16.1937504        -4.84588527E-04
   16.3125000        -4.87995509E-04
   16.4312496        -4.89386031E-04
   16.5499992        -4.88078455E-04
   16.6687508        -4.83544951E-04
   16.7875004        -4.75539389E-04
   16.9062500        -4.64115787E-04
   17.0249996        -4.49541345E-04
   17.1437492        -4.32153087E-04
   17.2625008        -4.12228866E-04
   17.3812504        -3.89942201E-04
   17.5000000        -3.65432701E-04
   17.6187496        -3.38975573E-04
   17.7374992        -3.11187556E-04
   17.8562508        -2.83178728E-04
   17.9750004        -2.56571424E-04
   18.0937500        -2.33342391E-04
   18.2124996        -2.15507098E-04
   18.3312492        -2.04718017E-04
   18.4500008        -2.01886229E-04
   18.5687504        -2.06932367E-04
   18.6875000        -2.18741567E-04
   18.8062496        -2.35333675E-04
   18.9249992        -2.54204264E-04
   19.0437508        -2.72741512E-04
   19.1625004        -2.88617332E-04
   19.2812500        -3.00064043E-04
   19.3999996        -3.05999274E-04
   19.5187492        -3.06005444E-04
   19.6375008        -3.00215004E-04
   19.7562504        -2.89166492E-04
   19.8750000        -2.73684243E-04
   19.9937496        -2.54808285E-04
   20.1124992        -2.33763334E-04
   20.2312508        -2.11931940E-04
   20.3500004        -1.90790699E-04
   20.4687500        -1.71783118E-04
   20.5874996        -1.56131151E-04
   20.7062492        -1.44619611E-04
   20.8250008        -1.37407871E-04
   20.9437504        -1.33926384E-04
   21.0625000        -1.32898480E-04
   21.1812496        -1.32499685E-04
   21.2999992        -1.30630578E-04
   21.4187508        -1.25253195E-04
   21.5375004        -1.14726681E-04
   21.6562500        -9.80788391E-05
   21.7749996        -7.51695261E-05
   21.8937492        -4.67189820E-05
   22.0125008        -1.42070667E-05
   22.1312504         2.03346644E-05
   22.2500000         5.45989678E-05
   22.3687496         8.63016467E-05
   22.4874992         1.13456808E-04
   22.6062508         1.34595248E-04
   22.7250004         1.48896841E-04
   22.8437500         1.56234353E-04
   22.9624996         1.57132308E-04
   23.0812492         1.52668435E-04
   23.2000008         1.44342674E-04
   23.3187504         1.33941066E-04
   23.4375000         1.23414808E-04
   23.5562496         1.14769726E-04
   23.6749992         1.09960616E-04
   23.7937508         1.10767563E-04
   23.9125004         1.18646036E-04
   24.0312500         1.34553818E-04
   24.1499996         1.58781069E-04
   24.2687492         1.90827515E-04
   24.3875008         2.29373851E-04
   24.5062504         2.72382051E-04
   24.6250000         3.17328086E-04
   24.7437496         3.61533894E-04
   24.8624992         4.02529695E-04
   24.9812508         4.38367861E-04
   25.1000004         4.67812526E-04
   25.2187500         4.90368635E-04
   25.3374996         5.06156706E-04
   25.4562492         5.15686581E-04
   25.5750008         5.19611058E-04
   25.6937504         5.18537010E-04
   25.8125000         5.12947736E-04
   25.9312496         5.03242307E-04
   26.0499992         4.89854254E-04
   26.1687508         4.73384018E-04
   26.2875004         4.54675348E-04
   26.4062500         4.34790854E-04
   26.5249996         4.14885173E-04
   26.6437492         3.96017742E-04
   26.7625008         3.78968427E-04
   26.8812504         3.64128180E-04
   27.0000000         3.51498544E-04
   27.1187496         3.40804661E-04
   27.2374992         3.31674237E-04
   27.3562508         3.23817279E-04
   27.4750004         3.17136524E-04
   27.5937500         3.11730430E-04
   27.7124996         3.07790528E-04
   27.8312492         3.05435417E-04
   27.9500008         3.04549787E-04
   28.0687504         3.04694986E-04
   28.1875000         3.05131485E-04
   28.3062496         3.04953835E-04
   28.4249992         3.03299166E-04
   28.5437508         2.99564563E-04
   28.6625004         2.93565943E-04
   28.7812500         2.85594171E-04
   28.8999996         2.76357692E-04
   29.0187492         2.66833842E-04
   29.1375008         2.58080545E-04
   29.2562504         2.51058518E-04
   29.3750000         2.46504787E-04
   29.4937496         2.44873110E-04
   29.6124992         2.46332173E-04
   29.7312508         2.50794605E-04
   29.8500004         2.57949898E-04
   29.9687500         2.67282507E-04
   30.0874996         2.78072810E-04
   30.2062492         2.89394724E-04
   30.3250008         3.00130923E-04
   30.4437504         3.09024355E-04
   30.5625000         3.14773381E-04
   30.6812496         3.16163234E-04
   30.7999992         3.12214572E-04
   30.9187508         3.02323460E-04
   31.0375004         2.86367605E-04
   31.1562500         2.64759758E-04
   31.2749996         2.38440305E-04
   31.3937492         2.08805737E-04
   31.5125008         1.77581183E-04
   31.6312504         1.46648134E-04
   31.7500000         1.17845630E-04
   31.8687496         9.27676883E-05
   31.9874992         7.25841819E-05
   32.1062508         5.79132466E-05
   32.2249985         4.87678008E-05
   32.3437500         4.45876212E-05
   32.4625015         4.43489334E-05
   32.5812492         4.67291793E-05
   32.7000008         5.02898038E-05
   32.8187485         5.36402513E-05
   32.9375000         5.55548213E-05
   33.0562515         5.50350087E-05
   33.1749992         5.13286795E-05
   33.2937508         4.39316100E-05
   33.4124985         3.25992733E-05
   33.5312500         1.73823264E-05
   33.6500015        -1.31937702E-06
   33.7687492        -2.27140426E-05
   33.8875008        -4.56235502E-05
   34.0062485        -6.85714549E-05
   34.1250000        -8.99619045E-05
   34.2437515        -1.08328561E-04
   34.3624992        -1.22599449E-04
   34.4812508        -1.32311383E-04
   34.5999985        -1.37712283E-04
   34.7187500        -1.39717915E-04
   34.8375015        -1.39732641E-04
   34.9562492        -1.39379510E-04
   35.0750008        -1.40213422E-04
   35.1937485        -1.43487210E-04
   35.3125000        -1.50019230E-04
   35.4312515        -1.60174051E-04
   35.5499992        -1.73926150E-04
   35.6687508        -1.90957740E-04
   35.7874985        -2.10738435E-04
   35.9062500        -2.32553837E-04
   36.0250015        -2.55486957E-04
   36.1437492        -2.78382999E-04
   36.2625008        -2.99845793E-04
   36.3812485        -3.18307633E-04
   36.5000000        -3.32188385E-04
   36.6187515        -3.40121886E-04
   36.7374992        -3.41198902E-04
   36.8562508        -3.35160090E-04
   36.9749985        -3.22481967E-04
   37.0937500        -3.04329471E-04
   37.2125015        -2.82383902E-04
   37.3312492        -2.58594140E-04
   37.4500008        -2.34912368E-04
   37.5687485        -2.13074774E-04
   37.6875000        -1.94465290E-04
   37.8062515        -1.80069706E-04
   37.9249992        -1.70498170E-04
   38.0437508        -1.66039681E-04
   38.1624985        -1.66713609E-04
   38.2812500        -1.72298416E-04
   38.4000015        -1.82335527E-04
   38.5187492        -1.96128458E-04
   38.6375008        -2.12757324E-04
   38.7562485        -2.31127342E-04
   38.8750000        -2.50053126E-04
   38.9937515        -2.68366217E-04
   39.1124992        -2.85021262E-04
   39.2312508        -2.99177453E-04
   39.3499985        -3.10239615E-04
   39.4687500        -3.17857193E-04
   39.5875015        -3.21892963E-04
   39.7062492        -3.22379725E-04
   39.8250008        -3.19479383E-04
   39.9437485        -3.13457334E-04
   40.0625000        -3.04667134E-04
   40.1812515        -2.93545541E-04
   40.2999992        -2.80603359E-04
   40.4187508        -2.66414892E-04
   40.5374985        -2.51604273E-04
   40.6562500        -2.36832726E-04
   40.7750015        -2.22792733E-04
   40.8937492        -2.10204074E-04
   41.0125008        -1.99801652E-04
   41.1312485        -1.92302978E-04
   41.2500000        -1.88343460E-04
   41.3687515        -1.88383739E-04
   41.4874992        -1.92601045E-04
   41.6062508        -2.00795665E-04
   41.7249985        -2.12344647E-04
   41.8437500        -2.26228556E-04
   41.9625015        -2.41137197E-04
   42.0812492        -2.55638850E-04
   42.2000008        -2.68376607E-04
   42.3187485        -2.78246909E-04
   42.4375000        -2.84520938E-04
   42.5562515        -2.86889757E-04
   42.6749992        -2.85437272E-04
   42.7937508        -2.80566310E-04
   42.9124985        -2.72912497E-04
   43.0312500        -2.63273163E-04
   43.1500015        -2.52562779E-04
   43.2687492        -2.41783855E-04
   43.3875008        -2.31988844E-04
   43.5062485        -2.24207193E-04
   43.6250000        -2.19324458E-04
   43.7437515        -2.17927300E-04
   43.8624992        -2.20147660E-04
   43.9812508        -2.25556039E-04
   44.0999985        -2.33147191E-04
   44.2187500        -2.41440255E-04
   44.3375015        -2.48684781E-04
   44.4562492        -2.53129780E-04
   44.5750008        -2.53299368E-04
   44.6937485        -2.48211407E-04
   44.8125000        -2.37502754E-04
   44.9312515        -2.21442795E-04
   45.0499992        -2.00858092E-04
   45.1687508        -1.76999936E-04
   45.2874985        -1.51395521E-04
   45.4062500        -1.25707826E-04
   45.5250015        -1.01612364E-04
   45.6437492        -8.06848984E-05
   45.7625008        -6.42821615E-05
   45.8812485        -5.34106766E-05
