  -1.50000000         0.00000000    
  -1.38499999        -9.63997882E-10
  -1.26999998        -4.10614298E-09
  -1.15499997        -1.18833734E-08
  -1.03999996        -2.90840294E-08
 -0.925000012        -6.43787459E-08
 -0.810000002        -1.32010896E-07
 -0.694999993        -2.52645350E-07
 -0.579999983        -4.51444180E-07
 -0.465000004        -7.50468757E-07
 -0.349999994        -1.15209946E-06
 -0.234999999        -1.61107005E-06
 -0.119999997        -1.99550141E-06
  -4.99999989E-03    -2.04190405E-06
  0.109999999        -1.31439435E-06
  0.224999994         8.17531884E-07
  0.340000004         5.16749242E-06
  0.455000013         1.26753757E-05
  0.569999993         2.43013237E-05
  0.685000002         4.08766973E-05
  0.800000012         6.29279675E-05
  0.915000021         9.04964254E-05
   1.02999997         1.22979429E-04
   1.14499998         1.59017553E-04
   1.25999999         1.96446781E-04
   1.37500000         2.32327759E-04
   1.49000001         2.63055321E-04
   1.60500002         2.84543232E-04
   1.72000003         2.92471319E-04
   1.83500004         2.82575144E-04
   1.95000005         2.50955462E-04
   2.06500006         1.94380031E-04
   2.18000007         1.10553679E-04
   2.29500008        -1.66796042E-06
   2.41000009        -1.42138670E-04
   2.52500010        -3.09368392E-04
   2.64000010        -5.00561437E-04
   2.75500011        -7.11743836E-04
   2.86999989        -9.37969482E-04
   2.98499990        -1.17359043E-03
   3.09999990        -1.41256955E-03
   3.21499991        -1.64881244E-03
   3.32999992        -1.87649566E-03
   3.44499993        -2.09036632E-03
   3.55999994        -2.28599412E-03
   3.67499995        -2.45996006E-03
   3.78999996        -2.60997191E-03
   3.90499997        -2.73490022E-03
   4.01999998        -2.83473823E-03
   4.13500023        -2.91049667E-03
   4.25000000        -2.96403584E-03
   4.36499977        -2.99786264E-03
   4.48000002        -3.01490072E-03
   4.59499979        -3.01825698E-03
   4.71000004        -3.01099918E-03
   4.82499981        -2.99596204E-03
   4.94000006        -2.97559123E-03
   5.05499983        -2.95183389E-03
   5.17000008        -2.92608072E-03
   5.28499985        -2.89915851E-03
   5.40000010        -2.87136808E-03
   5.51499987        -2.84256367E-03
   5.63000011        -2.81225983E-03
   5.74499989        -2.77976086E-03
   5.86000013        -2.74429470E-03
   5.97499990        -2.70514423E-03
   6.09000015        -2.66176322E-03
   6.20499992        -2.61386950E-03
   6.32000017        -2.56150519E-03
   6.43499994        -2.50506471E-03
   6.55000019        -2.44528335E-03
   6.66499996        -2.38319300E-03
   6.78000021        -2.32004630E-03
   6.89499998        -2.25721695E-03
   7.01000023        -2.19608494E-03
   7.12500000        -2.13791803E-03
   7.23999977        -2.08375743E-03
   7.35500002        -2.03432282E-03
   7.46999979        -1.98994041E-03
   7.58500004        -1.95050670E-03
   7.69999981        -1.91548979E-03
   7.81500006        -1.88397046E-03
   7.92999983        -1.85472204E-03
   8.04500008        -1.82632322E-03
   8.15999985        -1.79729587E-03
   8.27499962        -1.76625594E-03
   8.39000034        -1.73206558E-03
   8.50500011        -1.69397134E-03
   8.61999989        -1.65171595E-03
   8.73499966        -1.60561106E-03
   8.85000038        -1.55656098E-03
   8.96500015        -1.50603359E-03
   9.07999992        -1.45597511E-03
   9.19499969        -1.40867464E-03
   9.31000042        -1.36658619E-03
   9.42500019        -1.33212225E-03
   9.53999996        -1.30743440E-03
   9.65499973        -1.29420194E-03
   9.77000046        -1.29344547E-03
   9.88500023        -1.30538584E-03
   10.0000000        -1.32936088E-03
   10.1149998        -1.36381364E-03
   10.2299995        -1.40635285E-03
   10.3450003        -1.45388721E-03
   10.4600000        -1.50282343E-03
   10.5749998        -1.54931366E-03
   10.6899996        -1.58953352E-03
   10.8050003        -1.61996845E-03
   10.9200001        -1.63768278E-03
   11.0349998        -1.64055091E-03
   11.1499996        -1.62742729E-03
   11.2650003        -1.59824290E-03
   11.3800001        -1.55401533E-03
   11.4949999        -1.49677449E-03
   11.6099997        -1.42940646E-03
   11.7250004        -1.35542965E-03
   11.8400002        -1.27872208E-03
   11.9549999        -1.20322348E-03
   12.0699997        -1.13263703E-03
   12.1850004        -1.07015646E-03
   12.3000002        -1.01824314E-03
   12.4150000        -9.78468684E-04
   12.5299997        -9.51438793E-04
   12.6450005        -9.36799566E-04
   12.7600002        -9.33326199E-04
   12.8750000        -9.39081830E-04
   12.9899998        -9.51631111E-04
   13.1049995        -9.68285720E-04
   13.2200003        -9.86360246E-04
   13.3350000        -1.00341311E-03
   13.4499998        -1.01745082E-03
   13.5649996        -1.02707965E-03
   13.6800003        -1.03159051E-03
   13.7950001        -1.03097374E-03
   13.9099998        -1.02586485E-03
   14.0249996        -1.01742928E-03
   14.1400003        -1.00720185E-03
   14.2550001        -9.96896299E-04
   14.3699999        -9.88207874E-04
   14.4849997        -9.82628902E-04
   14.6000004        -9.81293852E-04
   14.7150002        -9.84870945E-04
   14.8299999        -9.93510010E-04
   14.9449997        -1.00684830E-03
   15.0600004        -1.02407392E-03
   15.1750002        -1.04403857E-03
   15.2900000        -1.06540567E-03
   15.4049997        -1.08681864E-03
   15.5200005        -1.10707176E-03
   15.6350002        -1.12526538E-03
   15.7500000        -1.14092929E-03
   15.8649998        -1.15410239E-03
   15.9799995        -1.16536021E-03
   16.0949993        -1.17578695E-03
   16.2099991        -1.18689402E-03
   16.3250008        -1.20049180E-03
   16.4400005        -1.21852627E-03
   16.5550003        -1.24289352E-03
   16.6700001        -1.27524848E-03
   16.7849998        -1.31682504E-03
   16.8999996        -1.36828120E-03
   17.0149994        -1.42958225E-03
   17.1299992        -1.49993412E-03
   17.2450008        -1.57777045E-03
   17.3600006        -1.66079588E-03
   17.4750004        -1.74608512E-03
   17.5900002        -1.83022744E-03
   17.7049999        -1.90951151E-03
   17.8199997        -1.98013498E-03
   17.9349995        -2.03842716E-03
   18.0499992        -2.08107079E-03
   18.1650009        -2.10530427E-03
   18.2800007        -2.10909965E-03
   18.3950005        -2.09129765E-03
   18.5100002        -2.05169525E-03
   18.6250000        -1.99108128E-03
   18.7399998        -1.91121630E-03
   18.8549995        -1.81475794E-03
   18.9699993        -1.70513790E-03
   19.0849991        -1.58639799E-03
   19.2000008        -1.46299286E-03
   19.3150005        -1.33957411E-03
   19.4300003        -1.22076692E-03
   19.5450001        -1.11095316E-03
   19.6599998        -1.01407373E-03
   19.7749996        -9.33460775E-04
   19.8899994        -8.71711294E-04
   20.0049992        -8.30606092E-04
   20.1200008        -8.11078877E-04
   20.2350006        -8.13235878E-04
   20.3500004        -8.36420280E-04
   20.4650002        -8.79316067E-04
   20.5799999        -9.40081140E-04
   20.6949997        -1.01649680E-03
   20.8099995        -1.10612309E-03
   20.9249992        -1.20644493E-03
   21.0400009        -1.31499965E-03
   21.1550007        -1.42947433E-03
   21.2700005        -1.54776999E-03
   21.3850002        -1.66802562E-03
   21.5000000        -1.78860733E-03
   21.6149998        -1.90806470E-03
   21.7299995        -2.02506431E-03
   21.8449993        -2.13830965E-03
   21.9599991        -2.24646297E-03
   22.0750008        -2.34807725E-03
   22.1900005        -2.44155433E-03
   22.3050003        -2.52513541E-03
   22.4200001        -2.59693223E-03
   22.5349998        -2.65499717E-03
   22.6499996        -2.69743311E-03
   22.7649994        -2.72253202E-03
   22.8799992        -2.72893370E-03
   22.9950008        -2.71578529E-03
   23.1100006        -2.68289121E-03
   23.2250004        -2.63083330E-03
   23.3400002        -2.56104511E-03
   23.4549999        -2.47583329E-03
   23.5699997        -2.37833452E-03
   23.6849995        -2.27240636E-03
   23.7999992        -2.16245907E-03
   23.9150009        -2.05323379E-03
   24.0300007        -1.94954313E-03
   24.1450005        -1.85599481E-03
   24.2600002        -1.77671493E-03
   24.3750000        -1.71509618E-03
   24.4899998        -1.67358865E-03
   24.6049995        -1.65355287E-03
   24.7199993        -1.65518362E-03
   24.8349991        -1.67751522E-03
   24.9500008        -1.71850447E-03
   25.0650005        -1.77518767E-03
   25.1800003        -1.84389588E-03
   25.2950001        -1.92051427E-03
   25.4099998        -2.00076122E-03
   25.5249996        -2.08046869E-03
   25.6399994        -2.15583760E-03
   25.7549992        -2.22365442E-03
   25.8700008        -2.28144834E-03
   25.9850006        -2.32758466E-03
   26.1000004        -2.36128503E-03
   26.2150002        -2.38258345E-03
   26.3299999        -2.39222031E-03
   26.4449997        -2.39149109E-03
   26.5599995        -2.38206703E-03
   26.6749992        -2.36580078E-03
   26.7900009        -2.34454218E-03
   26.9050007        -2.31997506E-03
   27.0200005        -2.29349127E-03
   27.1350002        -2.26611015E-03
   27.2500000        -2.23844661E-03
   27.3649998        -2.21072859E-03
   27.4799995        -2.18285667E-03
   27.5949993        -2.15449673E-03
   27.7099991        -2.12519336E-03
   27.8250008        -2.09448976E-03
   27.9400005        -2.06204224E-03
   28.0550003        -2.02771439E-03
   28.1700001        -1.99164171E-03
   28.2849998        -1.95426168E-03
   28.3999996        -1.91630621E-03
   28.5149994        -1.87875668E-03
   28.6299992        -1.84276770E-03
   28.7450008        -1.80956721E-03
   28.8600006        -1.78034429E-03
   28.9750004        -1.75613444E-03
   29.0900002        -1.73771393E-03
   29.2049999        -1.72551454E-03
   29.3199997        -1.71956525E-03
   29.4349995        -1.71946804E-03
   29.5499992        -1.72440906E-03
   29.6650009        -1.73320516E-03
   29.7800007        -1.74438348E-03
   29.8950005        -1.75628508E-03
   30.0100002        -1.76718796E-03
   30.1250000        -1.77543715E-03
   30.2399998        -1.77957420E-03
   30.3549995        -1.77845336E-03
   30.4699993        -1.77133863E-03
   30.5849991        -1.75797124E-03
   30.7000008        -1.73860346E-03
   30.8150005        -1.71399652E-03
   30.9300003        -1.68538000E-03
   31.0450001        -1.65437639E-03
   31.1599998        -1.62289455E-03
   31.2749996        -1.59300026E-03
   31.3899994        -1.56676956E-03
   31.5049992        -1.54613820E-03
   31.6200008        -1.53275416E-03
   31.7350006        -1.52784598E-03
   31.8500004        -1.53211516E-03
   31.9650002        -1.54566136E-03
   32.0800018        -1.56794686E-03
   32.1949997        -1.59780332E-03
   32.3100014        -1.63348368E-03
   32.4249992        -1.67275418E-03
   32.5400009        -1.71302434E-03
   32.6549988        -1.75150519E-03
   32.7700005        -1.78538496E-03
   32.8849983        -1.81201159E-03
   33.0000000        -1.82906853E-03
   33.1150017        -1.83473004E-03
   33.2299995        -1.82778609E-03
   33.3450012        -1.80772552E-03
   33.4599991        -1.77477300E-03
   33.5750008        -1.72987406E-03
   33.6899986        -1.67463173E-03
   33.8050003        -1.61119667E-03
   33.9199982        -1.54212234E-03
   34.0349998        -1.47019245E-03
   34.1500015        -1.39823800E-03
   34.2649994        -1.32895506E-03
   34.3800011        -1.26473955E-03
   34.4949989        -1.20755041E-03
   34.6100006        -1.15881197E-03
   34.7249985        -1.11936196E-03
   34.8400002        -1.08944741E-03
   34.9550018        -1.06876763E-03
   35.0699997        -1.05655822E-03
   35.1850014        -1.05170591E-03
   35.2999992        -1.05288357E-03
   35.4150009        -1.05869118E-03
   35.5299988        -1.06778916E-03
   35.6450005        -1.07901136E-03
   35.7599983        -1.09144871E-03
   35.8750000        -1.10449421E-03
   35.9900017        -1.11784867E-03
   36.1049995        -1.13148778E-03
   36.2200012        -1.14559417E-03
   36.3349991        -1.16046588E-03
   36.4500008        -1.17641094E-03
   36.5649986        -1.19364099E-03
   36.6800003        -1.21217745E-03
   36.7949982        -1.23178179E-03
   36.9099998        -1.25191896E-03
   37.0250015        -1.27175963E-03
   37.1399994        -1.29022368E-03
   37.2550011        -1.30606187E-03
   37.3699989        -1.31796836E-03
   37.4850006        -1.32471474E-03
   37.5999985        -1.32529193E-03
   37.7150002        -1.31904695E-03
   37.8300018        -1.30579760E-03
   37.9449997        -1.28591526E-03
   38.0600014        -1.26036431E-03
   38.1749992        -1.23069144E-03
   38.2900009        -1.19896291E-03
   38.4049988        -1.16765348E-03
   38.5200005        -1.13949284E-03
   38.6349983        -1.11728045E-03
   38.7500000        -1.10368477E-03
   38.8650017        -1.10104005E-03
   38.9799995        -1.11115840E-03
   39.0950012        -1.13517256E-03
   39.2099991        -1.17342093E-03
   39.3250008        -1.22538453E-03
   39.4399986        -1.28968270E-03
   39.5550003        -1.36412575E-03
   39.6699982        -1.44582347E-03
   39.7849998        -1.53133902E-03
   39.9000015        -1.61687995E-03
   40.0149994        -1.69851014E-03
   40.1300011        -1.77236961E-03
   40.2449989        -1.83488743E-03
   40.3600006        -1.88297185E-03
   40.4749985        -1.91416941E-03
   40.5900002        -1.92678091E-03
   40.7050018        -1.91993127E-03
   40.8199997        -1.89358986E-03
   40.9350014        -1.84854399E-03
   41.0499992        -1.78632955E-03
   41.1650009        -1.70912652E-03
   41.2799988        -1.61962910E-03
   41.3950005        -1.52089819E-03
   41.5099983        -1.41620892E-03
   41.6250000        -1.30890217E-03
   41.7400017        -1.20224617E-03
   41.8549995        -1.09931780E-03
   41.9700012        -1.00290694E-03
   42.0849991        -9.15445969E-04
   42.2000008        -8.38965992E-04
   42.3149986        -7.75078079E-04
   42.4300003        -7.24976824E-04
   42.5449982        -6.89462060E-04
   42.6599998        -6.68973778E-04
   42.7750015        -6.63634855E-04
   42.8899994        -6.73296454E-04
   43.0050011        -6.97580515E-04
   43.1199989        -7.35915732E-04
   43.2350006        -7.87564088E-04
   43.3499985        -8.51635705E-04
   43.4650002        -9.27092100E-04
   43.5800018        -1.01273926E-03
   43.6949997        -1.10721239E-03
   43.8100014        -1.20895728E-03
   43.9249992        -1.31621177E-03
   44.0400009        -1.42699329E-03
   44.1549988        -1.53909659E-03
   44.2700005        -1.65010756E-03
   44.3849983        -1.75743585E-03
