  -7.19999981         1.01704429E-17
  -7.01949978         3.27348522E-12
  -6.83900023         9.45099207E-12
  -6.65850019         1.69904438E-11
  -6.47800016         2.37008954E-11
  -6.29750013         2.74629191E-11
  -6.11700010         2.68258939E-11
  -5.93650007         2.11990720E-11
  -5.75600004         1.05284297E-11
  -5.57550001        -5.40375904E-12
  -5.39499998        -2.77276726E-11
  -5.21449995        -5.89302704E-11
  -5.03399992        -1.02818337E-10
  -4.85349989        -1.64111724E-10
  -4.67299986        -2.48016330E-10
  -4.49249983        -3.60165481E-10
  -4.31199980        -5.07128006E-10
  -4.13149977        -6.97366387E-10
  -3.95099998        -9.42277700E-10
  -3.77049994        -1.25690691E-09
  -3.58999991        -1.66011238E-09
  -3.40949988        -2.17427054E-09
  -3.22900009        -2.82483015E-09
  -3.04850006        -3.64007846E-09
  -2.86800003        -4.65131844E-09
  -2.68750000        -5.89338001E-09
  -2.50699997        -7.40519512E-09
  -2.32649994        -9.23009313E-09
  -2.14599991        -1.14155556E-08
  -1.96550000        -1.40123646E-08
  -1.78499997        -1.70732477E-08
  -1.60450006        -2.06512496E-08
  -1.42400002        -2.47980836E-08
  -1.24349999        -2.95626137E-08
  -1.06299996        -3.49895437E-08
 -0.882499993        -4.11181738E-08
 -0.702000022        -4.79809401E-08
 -0.521499991        -5.56015003E-08
 -0.340999991        -6.39923456E-08
 -0.160500005        -7.31520871E-08
   1.99999996E-02    -8.30627798E-08
  0.200499997        -9.36877811E-08
  0.381000012        -1.04970617E-07
  0.561500013        -1.16834649E-07
  0.741999984        -1.29183434E-07
  0.922500014        -1.41901097E-07
   1.10300004        -1.54852756E-07
   1.28349996        -1.67884977E-07
   1.46399999        -1.80826319E-07
   1.64450002        -1.93489328E-07
   1.82500005        -2.05672933E-07
   2.00550008        -2.17166217E-07
   2.18600011        -2.27752182E-07
   2.36649990        -2.37212006E-07
   2.54699993        -2.45328124E-07
   2.72749996        -2.51887712E-07
   2.90799999        -2.56685439E-07
   3.08850002        -2.59527098E-07
   3.26900005        -2.60232355E-07
   3.44950008        -2.58639147E-07
   3.63000011        -2.54606334E-07
   3.81049991        -2.48016363E-07
   3.99099994        -2.38776522E-07
   4.17150021        -2.26818486E-07
   4.35200024        -2.12097646E-07
   4.53249979        -1.94590854E-07
   4.71299982        -1.74295323E-07
   4.89349985        -1.51227866E-07
   5.07399988        -1.25425103E-07
   5.25449991        -9.69446532E-08
   5.43499994        -6.58654571E-08
   5.61549997        -3.22867955E-08
   5.79600000         3.67364938E-09
   5.97650003         4.18846255E-08
   6.15700006         8.22051121E-08
   6.33750010         1.24488707E-07
   6.51800013         1.68584450E-07
   6.69850016         2.14335017E-07
   6.87900019         2.61573035E-07
   7.05950022         3.10117457E-07
   7.23999977         3.59771747E-07
   7.42049980         4.10324901E-07
   7.60099983         4.61557249E-07
   7.78149986         5.13247812E-07
   7.96199989         5.65184905E-07
   8.14249992         6.17174237E-07
   8.32299995         6.69044937E-07
   8.50349998         7.20651826E-07
   8.68400002         7.71872919E-07
   8.86450005         8.22602090E-07
   9.04500008         8.72738497E-07
   9.22550011         9.22174593E-07
   9.40600014         9.70785436E-07
   9.58650017         1.01841738E-06
   9.76700020         1.06488073E-06
   9.94750023         1.10994199E-06
   10.1280003         1.15331807E-06
   10.3085003         1.19466642E-06
   10.4890003         1.23357506E-06
   10.6695004         1.26954740E-06
   10.8500004         1.30198396E-06
   11.0305004         1.33016295E-06
   11.2110004         1.35321943E-06
   11.3915005         1.37012626E-06
   11.5719995         1.37968084E-06
   11.7524996         1.38050075E-06
   11.9329996         1.37102779E-06
   12.1134996         1.34954678E-06
   12.2939997         1.31421791E-06
   12.4744997         1.26312079E-06
   12.6549997         1.19431093E-06
   12.8354998         1.10588769E-06
   13.0159998         9.96069957E-07
   13.1964998         8.63281059E-07
   13.3769999         7.06241167E-07
   13.5574999         5.24066309E-07
   13.7379999         3.16363810E-07
   13.9184999         8.33284801E-08
   14.0990000        -1.74174971E-07
   14.2795000        -4.54541890E-07
   14.4600000        -7.55383269E-07
   14.6405001        -1.07350729E-06
   14.8210001        -1.40493341E-06
   15.0015001        -1.74493744E-06
   15.1820002        -2.08813549E-06
   15.3625002        -2.42860187E-06
   15.5430002        -2.76001697E-06
   15.7235003        -3.07585151E-06
   15.9040003        -3.36957714E-06
   16.0844994        -3.63489721E-06
   16.2649994        -3.86599368E-06
   16.4454994        -4.05778246E-06
   16.6259995        -4.20616925E-06
   16.8064995        -4.30829186E-06
   16.9869995        -4.36274331E-06
   17.1674995        -4.36976097E-06
   17.3479996        -4.33137302E-06
   17.5284996        -4.25148892E-06
   17.7089996        -4.13592807E-06
   17.8894997        -3.99237615E-06
   18.0699997        -3.83026327E-06
   18.2504997        -3.66056634E-06
   18.4309998        -3.49552965E-06
   18.6114998        -3.34831361E-06
   18.7919998        -3.23257245E-06
   18.9724998        -3.16198384E-06
   19.1529999        -3.14973408E-06
   19.3334999        -3.20797949E-06
   19.5139999        -3.34730976E-06
   19.6945000        -3.57621457E-06
   19.8750000        -3.90058631E-06
   20.0555000        -4.32326988E-06
   20.2360001        -4.84368411E-06
   20.4165001        -5.45752573E-06
   20.5970001        -6.15658564E-06
   20.7775002        -6.92869389E-06
   20.9580002        -7.75776880E-06
   21.1385002        -8.62403613E-06
   21.3190002        -9.50434605E-06
   21.4995003        -1.03726625E-05
   21.6800003        -1.12006383E-05
   21.8605003        -1.19583092E-05
   22.0410004        -1.26148661E-05
   22.2215004        -1.31394891E-05
   22.4020004        -1.35022265E-05
   22.5825005        -1.36748722E-05
   22.7630005        -1.36318440E-05
   22.9435005        -1.33510366E-05
   23.1240005        -1.28146157E-05
   23.3045006        -1.20097602E-05
   23.4850006        -1.09292923E-05
   23.6655006        -9.57221982E-06
   23.8460007        -7.94415337E-06
   24.0265007        -6.05757714E-06
   24.2070007        -3.93198025E-06
   24.3875008        -1.59381386E-06
   24.5680008         9.23712889E-07
   24.7485008         3.58100783E-06
   24.9290009         6.33262243E-06
   25.1095009         9.12793803E-06
   25.2900009         1.19119813E-05
   25.4705009         1.46263455E-05
   25.6509991         1.72101991E-05
   25.8314991         1.96013789E-05
   26.0119991         2.17375327E-05
   26.1924992         2.35572570E-05
   26.3729992         2.50012799E-05
   26.5534992         2.60135803E-05
   26.7339993         2.65424987E-05
   26.9144993         2.65417493E-05
   27.0949993         2.59713670E-05
   27.2754993         2.47985408E-05
   27.4559994         2.29983361E-05
   27.6364994         2.05542474E-05
   27.8169994         1.74586530E-05
   27.9974995         1.37130664E-05
   28.1779995         9.32823150E-06
   28.3584995         4.32405614E-06
   28.5389996        -1.27064379E-06
   28.7194996        -7.41857230E-06
   28.8999996        -1.40745142E-05
   29.0804996        -2.11860570E-05
   29.2609997        -2.86944669E-05
   29.4414997        -3.65356391E-05
   29.6219997        -4.46411359E-05
   29.8024998        -5.29392855E-05
   29.9829998        -6.13563388E-05
   30.1634998        -6.98176445E-05
   30.3439999        -7.82487405E-05
   30.5244999        -8.65765105E-05
   30.7049999        -9.47301523E-05
   30.8855000        -1.02642218E-04
   31.0660000        -1.10249443E-04
   31.2465000        -1.17493466E-04
   31.4270000        -1.24321508E-04
   31.6075001        -1.30686778E-04
   31.7880001        -1.36548930E-04
   31.9685001        -1.41874130E-04
   32.1489983        -1.46635241E-04
   32.3294983        -1.50811655E-04
   32.5099983        -1.54389141E-04
   32.6904984        -1.57359580E-04
   32.8709984        -1.59720454E-04
   33.0514984        -1.61474454E-04
   33.2319984        -1.62628858E-04
   33.4124985        -1.63195029E-04
   33.5929985        -1.63187709E-04
   33.7734985        -1.62624579E-04
   33.9539986        -1.61525531E-04
   34.1344986        -1.59912335E-04
   34.3149986        -1.57807997E-04
   34.4954987        -1.55236485E-04
   34.6759987        -1.52222347E-04
   34.8564987        -1.48790539E-04
   35.0369987        -1.44966267E-04
   35.2174988        -1.40775024E-04
   35.3979988        -1.36242568E-04
   35.5784988        -1.31395194E-04
   35.7589989        -1.26259765E-04
   35.9394989        -1.20864090E-04
   36.1199989        -1.15237104E-04
   36.3004990        -1.09409164E-04
   36.4809990        -1.03412240E-04
   36.6614990        -9.72801281E-05
   36.8419991        -9.10484960E-05
   37.0224991        -8.47549236E-05
   37.2029991        -7.84387958E-05
   37.3834991        -7.21410834E-05
   37.5639992        -6.59039943E-05
   37.7444992        -5.97705584E-05
   37.9249992        -5.37841261E-05
   38.1054993        -4.79877563E-05
   38.2859993        -4.24236023E-05
   38.4664993        -3.71322567E-05
   38.6469994        -3.21520929E-05
   38.8274994        -2.75185721E-05
   39.0079994        -2.32636594E-05
   39.1884995        -1.94152108E-05
   39.3689995        -1.59964857E-05
   39.5494995        -1.30257376E-05
   39.7299995        -1.05158806E-05
   39.9104996        -8.47433148E-06
   40.0909996        -6.90294200E-06
   40.2714996        -5.79809921E-06
   40.4519997        -5.15095689E-06
   40.6324997        -4.94771484E-06
   40.8129997        -5.17010949E-06
   40.9934998        -5.79590824E-06
   41.1739998        -6.79945742E-06
   41.3544998        -8.15229487E-06
   41.5349998        -9.82364872E-06
   41.7154999        -1.17810005E-05
   41.8959999        -1.39905360E-05
   42.0764999        -1.64175271E-05
   42.2570000        -1.90266765E-05
   42.4375000        -2.17823617E-05
   42.6180000        -2.46487871E-05
   42.7985001        -2.75901002E-05
   42.9790001        -3.05704270E-05
   43.1595001        -3.35538607E-05
   43.3400002        -3.65044471E-05
   43.5205002        -3.93861446E-05
   43.7010002        -4.21627301E-05
   43.8815002        -4.47978236E-05
   44.0620003        -4.72547981E-05
   44.2425003        -4.94969354E-05
   44.4230003        -5.14874482E-05
   44.6035004        -5.31897567E-05
   44.7840004        -5.45677758E-05
   44.9645004        -5.55863553E-05
   45.1450005        -5.62118948E-05
   45.3255005        -5.64130351E-05
   45.5060005        -5.61614725E-05
   45.6865005        -5.54328544E-05
   45.8670006        -5.42078269E-05
   46.0475006        -5.24729876E-05
   46.2280006        -5.02219518E-05
   46.4085007        -4.74562621E-05
   46.5890007        -4.41862612E-05
   46.7695007        -4.04318016E-05
   46.9500008        -3.62227511E-05
   47.1305008        -3.15992438E-05
   47.3110008        -2.66116549E-05
   47.4915009        -2.13203566E-05
   47.6720009        -1.57950781E-05
   47.8525009        -1.01140531E-05
   48.0330009        -4.36287019E-06
   48.2135010         1.36695087E-06
   48.3940010         6.97969108E-06
   48.5745010         1.23771524E-05
   48.7550011         1.74608012E-05
   48.9355011         2.21338305E-05
   49.1160011         2.63032143E-05
   49.2965012         2.98818541E-05
   49.4770012         3.27904891E-05
   49.6575012         3.49595321E-05
   49.8380013         3.63306281E-05
   50.0185013         3.68579822E-05
   50.1990013         3.65094238E-05
   50.3795013         3.52670722E-05
   50.5600014         3.31277297E-05
   50.7405014         3.01028504E-05
   50.9210014         2.62182348E-05
   51.1015015         2.15134205E-05
   51.2820015         1.60407235E-05
   51.4625015         9.86409304E-06
   51.6430016         3.05768344E-06
   51.8235016        -4.29569945E-06
   52.0040016        -1.21063713E-05
   52.1845016        -2.02796236E-05
   52.3650017        -2.87176626E-05
   52.5455017        -3.73216462E-05
   52.7260017        -4.59935472E-05
   52.9065018        -5.46382071E-05
   53.0870018        -6.31650037E-05
   53.2675018        -7.14895796E-05
   53.4480019        -7.95352025E-05
   53.6285019        -8.72340170E-05
   53.8089981        -9.45280844E-05
   53.9894981        -1.01369966E-04
   54.1699982        -1.07723186E-04
   54.3504982        -1.13562397E-04
   54.5309982        -1.18873162E-04
   54.7114983        -1.23651625E-04
   54.8919983        -1.27903695E-04
   55.0724983        -1.31644367E-04
   55.2529984        -1.34896662E-04
   55.4334984        -1.37690484E-04
   55.6139984        -1.40061529E-04
   55.7944984        -1.42050005E-04
   55.9749985        -1.43699508E-04
   56.1554985        -1.45055688E-04
   56.3359985        -1.46165199E-04
   56.5164986        -1.47074621E-04
   56.6969986        -1.47829633E-04
   56.8774986        -1.48474093E-04
   57.0579987        -1.49049607E-04
   57.2384987        -1.49594969E-04
   57.4189987        -1.50146006E-04
   57.5994987        -1.50735374E-04
   57.7799988        -1.51392742E-04
   57.9604988        -1.52144712E-04
   58.1409988        -1.53015222E-04
   58.3214989        -1.54025882E-04
   58.5019989        -1.55196278E-04
   58.6824989        -1.56544425E-04
   58.8629990        -1.58087176E-04
   59.0434990        -1.59840536E-04
   59.2239990        -1.61819800E-04
   59.4044991        -1.64039651E-04
   59.5849991        -1.66514044E-04
   59.7654991        -1.69256120E-04
   59.9459991        -1.72277825E-04
   60.1264992        -1.75589710E-04
   60.3069992        -1.79200288E-04
   60.4874992        -1.83115539E-04
   60.6679993        -1.87338330E-04
   60.8484993        -1.91867643E-04
   61.0289993        -1.96697918E-04
   61.2094994        -2.01818315E-04
   61.3899994        -2.07212011E-04
   61.5704994        -2.12855870E-04
   61.7509995        -2.18719884E-04
   61.9314995        -2.24767064E-04
   62.1119995        -2.30953447E-04
   62.2924995        -2.37228349E-04
   62.4729996        -2.43534902E-04
   62.6534996        -2.49810750E-04
   62.8339996        -2.55989144E-04
   63.0144997        -2.62000161E-04
   63.1949997        -2.67772150E-04
   63.3754997        -2.73233483E-04
   63.5559998        -2.78314139E-04
   63.7364998        -2.82947643E-04
   63.9169998        -2.87072617E-04
   64.0975037        -2.90634431E-04
   64.2779999        -2.93586607E-04
   64.4585037        -2.95892212E-04
   64.6389999        -2.97524763E-04
   64.8195038        -2.98469007E-04
   65.0000000        -2.98721454E-04
   65.1804962        -2.98290252E-04
   65.3610001        -2.97195336E-04
   65.5414963        -2.95467413E-04
   65.7220001        -2.93147139E-04
   65.9024963        -2.90283759E-04
   66.0830002        -2.86933588E-04
   66.2634964        -2.83158326E-04
   66.4440002        -2.79022963E-04
   66.6244965        -2.74593884E-04
   66.8050003        -2.69936922E-04
   66.9854965        -2.65115290E-04
   67.1660004        -2.60187895E-04
   67.3464966        -2.55207444E-04
   67.5270004        -2.50219164E-04
   67.7074966        -2.45259434E-04
   67.8880005        -2.40355046E-04
   68.0684967        -2.35522588E-04
   68.2490005        -2.30768128E-04
   68.4294968        -2.26087272E-04
   68.6100006        -2.21465409E-04
   68.7904968        -2.16878238E-04
   68.9710007        -2.12292522E-04
   69.1514969        -2.07667283E-04
   69.3320007        -2.02954878E-04
   69.5124969        -1.98102513E-04
   69.6930008        -1.93053987E-04
   69.8734970        -1.87751153E-04
   70.0540009        -1.82135875E-04
   70.2344971        -1.76151647E-04
   70.4150009        -1.69745399E-04
   70.5954971        -1.62868906E-04
   70.7760010        -1.55480520E-04
   70.9564972        -1.47546467E-04
   71.1370010        -1.39041993E-04
   71.3174973        -1.29952445E-04
   71.4980011        -1.20273806E-04
   71.6784973        -1.10013498E-04
   71.8590012        -9.91905181E-05
   72.0394974        -8.78355713E-05
   72.2200012        -7.59909526E-05
   72.4004974        -6.37102348E-05
   72.5810013        -5.10576647E-05
   72.7614975        -3.81074351E-05
   72.9420013        -2.49427867E-05
   73.1224976        -1.16547917E-05
   73.3030014         1.65878600E-06
   73.4834976         1.48951067E-05
   73.6640015         2.79475298E-05
   73.8444977         4.07075422E-05
   74.0250015         5.30661164E-05
   74.2054977         6.49153517E-05
   74.3860016         7.61502015E-05
   74.5664978         8.66701157E-05
   74.7470016         9.63803250E-05
   74.9274979         1.05193518E-04
   75.1080017         1.13030968E-04
   75.2884979         1.19823912E-04
   75.4690018         1.25514343E-04
   75.6494980         1.30055982E-04
   75.8300018         1.33415015E-04
   76.0104980         1.35570444E-04
   76.1910019         1.36514354E-04
   76.3714981         1.36251983E-04
   76.5520020         1.34801521E-04
   76.7324982         1.32194094E-04
   76.9130020         1.28472966E-04
   77.0934982         1.23693040E-04
   77.2740021         1.17919968E-04
   77.4544983         1.11228946E-04
   77.6350021         1.03703613E-04
   77.8154984         9.54348798E-05
   77.9960022         8.65194233E-05
   78.1764984         7.70583647E-05
   78.3570023         6.71559101E-05
   78.5374985         5.69178992E-05
   78.7180023         4.64502118E-05
   78.8984985         3.58575380E-05
   79.0790024         2.52416503E-05
   79.2594986         1.47001447E-05
   79.4400024         4.32502384E-06
   79.6204987        -5.79848665E-06
   79.8010025        -1.55930284E-05
   79.9814987        -2.49901241E-05
   80.1620026        -3.39310573E-05
   80.3424988        -4.23676065E-05
   80.5230026        -5.02629664E-05
   80.7034988        -5.75917729E-05
   80.8840027        -6.43405874E-05
   81.0644989        -7.05077182E-05
   81.2450027        -7.61028423E-05
   81.4254990        -8.11464997E-05
   81.6060028        -8.56692350E-05
   81.7864990        -8.97107457E-05
   81.9670029        -9.33187257E-05
   82.1474991        -9.65477957E-05
   82.3280029        -9.94578368E-05
   82.5084991        -1.02112957E-04
   82.6890030        -1.04579558E-04
   82.8694992        -1.06924846E-04
