  -7.19999981         4.27090390E-18
  -7.01949978         7.29315642E-13
  -6.83900023         2.34022480E-12
  -6.65850019         4.92507467E-12
  -6.47800016         8.51614612E-12
  -6.29750013         1.31007358E-11
  -6.11700010         1.86548763E-11
  -5.93650007         2.51941558E-11
  -5.75600004         3.28329690E-11
  -5.57550001         4.18378006E-11
  -5.39499998         5.26589848E-11
  -5.21449995         6.59312258E-11
  -5.03399992         8.24441626E-11
  -4.85349989         1.03096129E-10
  -4.67299986         1.28851541E-10
  -4.49249983         1.60720201E-10
  -4.31199980         1.99768049E-10
  -4.13149977         2.47156212E-10
  -3.95099998         3.04195807E-10
  -3.77049994         3.72402720E-10
  -3.58999991         4.53541510E-10
  -3.40949988         5.49654322E-10
  -3.22900009         6.63076261E-10
  -3.04850006         7.96445632E-10
  -2.86800003         9.52716350E-10
  -2.68750000         1.13518006E-09
  -2.50699997         1.34751088E-09
  -2.32649994         1.59384128E-09
  -2.14599991         1.87889082E-09
  -1.96550000         2.20815832E-09
  -1.78499997         2.58819566E-09
  -1.60450006         3.02698155E-09
  -1.42400002         3.53438878E-09
  -1.24349999         4.12275503E-09
  -1.06299996         4.80755080E-09
 -0.882499993         5.60809532E-09
 -0.702000022         6.54830989E-09
 -0.521499991         7.65743824E-09
 -0.340999991         8.97073882E-09
 -0.160500005         1.05301066E-08
   1.99999996E-02     1.23846107E-08
  0.200499997         1.45909178E-08
  0.381000012         1.72136669E-08
  0.561500013         2.03257020E-08
  0.741999984         2.40081359E-08
  0.922500014         2.83501667E-08
   1.10300004         3.34486714E-08
   1.28349996         3.94074782E-08
   1.46399999         4.63362007E-08
   1.64450002         5.43488525E-08
   1.82500005         6.35619131E-08
   2.00550008         7.40921138E-08
   2.18600011         8.60538307E-08
   2.36649990         9.95563170E-08
   2.54699993         1.14700583E-07
   2.72749996         1.31576229E-07
   2.90799999         1.50258430E-07
   3.08850002         1.70804853E-07
   3.26900005         1.93252831E-07
   3.44950008         2.17616900E-07
   3.63000011         2.43886745E-07
   3.81049991         2.72025602E-07
   3.99099994         3.01969152E-07
   4.17150021         3.33625024E-07
   4.35200024         3.66873024E-07
   4.53249979         4.01566041E-07
   4.71299982         4.37531583E-07
   4.89349985         4.74573937E-07
   5.07399988         5.12477129E-07
   5.25449991         5.51008725E-07
   5.43499994         5.89923673E-07
   5.61549997         6.28968905E-07
   5.79600000         6.67888628E-07
   5.97650003         7.06429091E-07
   6.15700006         7.44343879E-07
   6.33750010         7.81398057E-07
   6.51800013         8.17372268E-07
   6.69850016         8.52064943E-07
   6.87900019         8.85293787E-07
   7.05950022         9.16895942E-07
   7.23999977         9.46726800E-07
   7.42049980         9.74659088E-07
   7.60099983         1.00058230E-06
   7.78149986         1.02440276E-06
   7.96199989         1.04604555E-06
   8.14249992         1.06545758E-06
   8.32299995         1.08261167E-06
   8.50349998         1.09751011E-06
   8.68400002         1.11018596E-06
   8.86450005         1.12070313E-06
   9.04500008         1.12915120E-06
   9.22550011         1.13563658E-06
   9.40600014         1.14027080E-06
   9.58650017         1.14315856E-06
   9.76700020         1.14438569E-06
   9.94750023         1.14401246E-06
   10.1280003         1.14207273E-06
   10.3085003         1.13858084E-06
   10.4890003         1.13354554E-06
   10.6695004         1.12698933E-06
   10.8500004         1.11897032E-06
   11.0305004         1.10960173E-06
   11.2110004         1.09906614E-06
   11.3915005         1.08762231E-06
   11.5719995         1.07560209E-06
   11.7524996         1.06339951E-06
   11.9329996         1.05145557E-06
   12.1134996         1.04024218E-06
   12.2939997         1.03025081E-06
   12.4744997         1.02199056E-06
   12.6549997         1.01599653E-06
   12.8354998         1.01284900E-06
   13.0159998         1.01320063E-06
   13.1964998         1.01780438E-06
   13.3769999         1.02753597E-06
   13.5574999         1.04340370E-06
   13.7379999         1.06653806E-06
   13.9184999         1.09815835E-06
   14.0990000         1.13951637E-06
   14.2795000         1.19181846E-06
   14.4600000         1.25613553E-06
   14.6405001         1.33330491E-06
   14.8210001         1.42383840E-06
   15.0015001         1.52783991E-06
   15.1820002         1.64493986E-06
   15.3625002         1.77425113E-06
   15.5430002         1.91433969E-06
   15.7235003         2.06321624E-06
   15.9040003         2.21833284E-06
   16.0844994         2.37658855E-06
   16.2649994         2.53433518E-06
   16.4454994         2.68738290E-06
   16.6259995         2.83100280E-06
   16.8064995         2.95993527E-06
   16.9869995         3.06840684E-06
   17.1674995         3.15016018E-06
   17.3479996         3.19851051E-06
   17.5284996         3.20642675E-06
   17.7089996         3.16664523E-06
   17.8894997         3.07181290E-06
   18.0699997         2.91465358E-06
   18.2504997         2.68815506E-06
   18.4309998         2.38576285E-06
   18.6114998         2.00156683E-06
   18.7919998         1.53047438E-06
   18.9724998         9.68356062E-07
   19.1529999         3.12153702E-07
   19.3334999        -4.40050115E-07
   19.5139999        -1.28900501E-06
   19.6945000        -2.23430766E-06
   19.8750000        -3.27444832E-06
   20.0555000        -4.40688700E-06
   20.2360001        -5.62814284E-06
   20.4165001        -6.93389666E-06
   20.5970001        -8.31908437E-06
   20.7775002        -9.77798118E-06
   20.9580002        -1.13042852E-05
   21.1385002        -1.28911579E-05
   21.3190002        -1.45312770E-05
   21.4995003        -1.62168562E-05
   21.6800003        -1.79396593E-05
   21.8605003        -1.96910150E-05
   22.0410004        -2.14618231E-05
   22.2215004        -2.32425573E-05
   22.4020004        -2.50232788E-05
   22.5825005        -2.67936284E-05
   22.7630005        -2.85428450E-05
   22.9435005        -3.02597346E-05
   23.1240005        -3.19326718E-05
   23.3045006        -3.35495934E-05
   23.4850006        -3.50979535E-05
   23.6655006        -3.65647138E-05
   23.8460007        -3.79363410E-05
   24.0265007        -3.91988106E-05
   24.2070007        -4.03376362E-05
   24.3875008        -4.13379530E-05
   24.5680008        -4.21846125E-05
   24.7485008        -4.28623534E-05
   24.9290009        -4.33559908E-05
   25.1095009        -4.36506671E-05
   25.2900009        -4.37321251E-05
   25.4705009        -4.35870315E-05
   25.6509991        -4.32033412E-05
   25.8314991        -4.25706348E-05
   26.0119991        -4.16805451E-05
   26.1924992        -4.05271385E-05
   26.3729992        -3.91073008E-05
   26.5534992        -3.74211013E-05
   26.7339993        -3.54721415E-05
   26.9144993        -3.32678392E-05
   27.0949993        -3.08196286E-05
   27.2754993        -2.81431094E-05
   27.4559994        -2.52580667E-05
   27.6364994        -2.21884020E-05
   27.8169994        -1.89619604E-05
   27.9974995        -1.56102378E-05
   28.1779995        -1.21680150E-05
   28.3584995        -8.67289873E-06
   28.5389996        -5.16480532E-06
   28.7194996        -1.68539509E-06
   28.8999996         1.72250759E-06
   29.0804996         5.01551676E-06
   29.2609997         8.15028216E-06
   29.4414997         1.10840765E-05
   29.6219997         1.37753432E-05
   29.8024998         1.61842345E-05
   29.9829998         1.82731001E-05
   30.1634998         2.00069262E-05
   30.3439999         2.13537223E-05
   30.5244999         2.22848321E-05
   30.7049999         2.27751607E-05
   30.8855000         2.28033259E-05
   31.0660000         2.23517145E-05
   31.2465000         2.14064312E-05
   31.4270000         1.99571914E-05
   31.6075001         1.79971157E-05
   31.7880001         1.55224843E-05
   31.9685001         1.25324495E-05
   32.1489983         9.02874126E-06
   32.3294983         5.01539353E-06
   32.5099983         4.98499901E-07
   32.6904984        -4.51400319E-06
   32.8709984        -1.00124644E-05
   33.0514984        -1.59855936E-05
   33.2319984        -2.24204905E-05
   33.4124985        -2.93025860E-05
   33.5929985        -3.66155436E-05
   33.7734985        -4.43411664E-05
   33.9539986        -5.24591851E-05
   34.1344986        -6.09471172E-05
   34.3149986        -6.97800278E-05
   34.4954987        -7.89304177E-05
   34.6759987        -8.83680041E-05
   34.8564987        -9.80595796E-05
   35.0369987        -1.07968866E-04
   35.2174988        -1.18056443E-04
   35.3979988        -1.28279687E-04
   35.5784988        -1.38592804E-04
   35.7589989        -1.48946827E-04
   35.9394989        -1.59289746E-04
   36.1199989        -1.69566745E-04
   36.3004990        -1.79720417E-04
   36.4809990        -1.89691171E-04
   36.6614990        -1.99417584E-04
   36.8419991        -2.08837053E-04
   37.0224991        -2.17886191E-04
   37.2029991        -2.26501623E-04
   37.3834991        -2.34620660E-04
   37.5639992        -2.42181966E-04
   37.7444992        -2.49126344E-04
   37.9249992        -2.55397375E-04
   38.1054993        -2.60942266E-04
   38.2859993        -2.65712268E-04
   38.4664993        -2.69663520E-04
   38.6469994        -2.72757345E-04
   38.8274994        -2.74960825E-04
   39.0079994        -2.76247098E-04
   39.1884995        -2.76595732E-04
   39.3689995        -2.75992788E-04
   39.5494995        -2.74431106E-04
   39.7299995        -2.71910190E-04
   39.9104996        -2.68436299E-04
   40.0909996        -2.64022121E-04
   40.2714996        -2.58686719E-04
   40.4519997        -2.52455036E-04
   40.6324997        -2.45357456E-04
   40.8129997        -2.37429311E-04
   40.9934998        -2.28710138E-04
   41.1739998        -2.19243055E-04
   41.3544998        -2.09073900E-04
   41.5349998        -1.98250389E-04
   41.7154999        -1.86821373E-04
   41.8959999        -1.74835892E-04
   42.0764999        -1.62342403E-04
   42.2570000        -1.49388070E-04
   42.4375000        -1.36018061E-04
   42.6180000        -1.22275000E-04
   42.7985001        -1.08198466E-04
   42.9790001        -9.38247322E-05
   43.1595001        -7.91864368E-05
   43.3400002        -6.43125313E-05
   43.5205002        -4.92283725E-05
   43.7010002        -3.39557228E-05
   43.8815002        -1.85130866E-05
   44.0620003        -2.91593278E-06
   44.2425003         1.28228730E-05
   44.4230003         2.86925897E-05
   44.6035004         4.46840713E-05
   44.7840004         6.07892580E-05
   44.9645004         7.70004044E-05
   45.1450005         9.33094634E-05
   45.3255005         1.09707216E-04
   45.5060005         1.26182480E-04
   45.6865005         1.42721343E-04
   45.8670006         1.59306204E-04
   46.0475006         1.75915120E-04
   46.2280006         1.92520994E-04
   46.4085007         2.09091071E-04
   46.5890007         2.25586598E-04
   46.7695007         2.41962509E-04
   46.9500008         2.58167507E-04
   47.1305008         2.74144375E-04
   47.3110008         2.89830263E-04
   47.4915009         3.05157359E-04
   47.6720009         3.20053718E-04
   47.8525009         3.34444136E-04
   48.0330009         3.48250876E-04
   48.2135010         3.61394894E-04
   48.3940010         3.73796734E-04
   48.5745010         3.85377323E-04
   48.7550011         3.96059215E-04
   48.9355011         4.05767438E-04
   49.1160011         4.14430484E-04
   49.2965012         4.21981356E-04
   49.4770012         4.28358442E-04
   49.6575012         4.33506590E-04
   49.8380013         4.37378098E-04
   50.0185013         4.39933501E-04
   50.1990013         4.41142416E-04
   50.3795013         4.40984411E-04
   50.5600014         4.39449301E-04
   50.7405014         4.36537695E-04
   50.9210014         4.32261091E-04
   51.1015015         4.26641956E-04
   51.2820015         4.19713499E-04
   51.4625015         4.11519344E-04
   51.6430016         4.02113190E-04
   51.8235016         3.91558046E-04
   52.0040016         3.79925710E-04
   52.1845016         3.67295987E-04
   52.3650017         3.53756041E-04
   52.5455017         3.39399470E-04
   52.7260017         3.24325578E-04
   52.9065018         3.08638380E-04
   53.0870018         2.92445766E-04
   53.2675018         2.75858503E-04
   53.4480019         2.58989166E-04
   53.6285019         2.41950940E-04
   53.8089981         2.24856529E-04
   53.9894981         2.07816804E-04
   54.1699982         1.90939638E-04
   54.3504982         1.74328481E-04
   54.5309982         1.58081180E-04
   54.7114983         1.42288598E-04
   54.8919983         1.27033520E-04
   55.0724983         1.12389345E-04
   55.2529984         9.84192011E-05
   55.4334984         8.51748264E-05
   55.6139984         7.26958242E-05
   55.7944984         6.10088864E-05
   55.9749985         5.01272370E-05
   56.1554985         4.00502686E-05
   56.3359985         3.07632581E-05
   56.5164986         2.22374529E-05
   56.6969986         1.44302730E-05
   56.8774986         7.28584655E-06
   57.0579987         7.35815718E-07
   57.2384987        -5.29953604E-06
   57.4189987        -1.09099274E-05
   57.5994987        -1.61933731E-05
   57.7799988        -2.12542654E-05
   57.9604988        -2.62012636E-05
   58.1409988        -3.11450349E-05
   58.3214989        -3.61958155E-05
   58.5019989        -4.14611168E-05
   58.6824989        -4.70433806E-05
   58.8629990        -5.30377656E-05
   59.0434990        -5.95301935E-05
   59.2239990        -6.65956104E-05
   59.4044991        -7.42965349E-05
   59.5849991        -8.26818796E-05
   59.7654991        -9.17863217E-05
   59.9459991        -1.01629848E-04
   60.1264992        -1.12217749E-04
   60.3069992        -1.23541075E-04
   60.4874992        -1.35577211E-04
   60.6679993        -1.48291147E-04
   60.8484993        -1.61636679E-04
   61.0289993        -1.75558162E-04
   61.2094994        -1.89992294E-04
   61.3899994        -2.04870274E-04
   61.5704994        -2.20119808E-04
   61.7509995        -2.35667321E-04
   61.9314995        -2.51440128E-04
   62.1119995        -2.67368305E-04
   62.2924995        -2.83386733E-04
   62.4729996        -2.99436389E-04
   62.6534996        -3.15465819E-04
   62.8339996        -3.31431715E-04
   63.0144997        -3.47299589E-04
   63.1949997        -3.63043597E-04
   63.3754997        -3.78646015E-04
   63.5559998        -3.94096540E-04
   63.7364998        -4.09390894E-04
   63.9169998        -4.24529135E-04
   64.0975037        -4.39513824E-04
   64.2779999        -4.54348163E-04
   64.4585037        -4.69033577E-04
   64.6389999        -4.83567885E-04
   64.8195038        -4.97942965E-04
   65.0000000        -5.12143248E-04
   65.1804962        -5.26143820E-04
   65.3610001        -5.39909466E-04
   65.5414963        -5.53393213E-04
   65.7220001        -5.66536211E-04
   65.9024963        -5.79267216E-04
   66.0830002        -5.91502641E-04
   66.2634964        -6.03147317E-04
   66.4440002        -6.14095188E-04
   66.6244965        -6.24230364E-04
   66.8050003        -6.33428688E-04
   66.9854965        -6.41559775E-04
   67.1660004        -6.48488407E-04
   67.3464966        -6.54077274E-04
   67.5270004        -6.58188947E-04
   67.7074966        -6.60688384E-04
   67.8880005        -6.61445432E-04
   68.0684967        -6.60337100E-04
   68.2490005        -6.57249766E-04
   68.4294968        -6.52081508E-04
   68.6100006        -6.44743792E-04
   68.7904968        -6.35163335E-04
   68.9710007        -6.23283209E-04
   69.1514969        -6.09064125E-04
   69.3320007        -5.92485070E-04
   69.5124969        -5.73543715E-04
   69.6930008        -5.52256883E-04
   69.8734970        -5.28659730E-04
   70.0540009        -5.02805866E-04
   70.2344971        -4.74766333E-04
   70.4150009        -4.44628560E-04
   70.5954971        -4.12495341E-04
   70.7760010        -3.78483179E-04
   70.9564972        -3.42720596E-04
   71.1370010        -3.05346446E-04
   71.3174973        -2.66507792E-04
   71.4980011        -2.26357981E-04
   71.6784973        -1.85054450E-04
   71.8590012        -1.42756850E-04
   72.0394974        -9.96249364E-05
   72.2200012        -5.58168576E-05
   72.4004974        -1.14874820E-05
   72.5810013         3.32129421E-05
   72.7614975         7.81400595E-05
   72.9420013         1.23156206E-04
   73.1224976         1.68131242E-04
   73.3030014         2.12942905E-04
   73.4834976         2.57477077E-04
   73.6640015         3.01628024E-04
   73.8444977         3.45298176E-04
   74.0250015         3.88398068E-04
   74.2054977         4.30846150E-04
   74.3860016         4.72568296E-04
   74.5664978         5.13497333E-04
   74.7470016         5.53572841E-04
   74.9274979         5.92740369E-04
   75.1080017         6.30950904E-04
   75.2884979         6.68160268E-04
   75.4690018         7.04328704E-04
   75.6494980         7.39420007E-04
   75.8300018         7.73401058E-04
   76.0104980         8.06241704E-04
   76.1910019         8.37913947E-04
   76.3714981         8.68391653E-04
   76.5520020         8.97650723E-04
   76.7324982         9.25668282E-04
   76.9130020         9.52422793E-04
   77.0934982         9.77894058E-04
   77.2740021         1.00206246E-03
   77.4544983         1.02490943E-03
   77.6350021         1.04641635E-03
   77.8154984         1.06656493E-03
   77.9960022         1.08533644E-03
   78.1764984         1.10271107E-03
   78.3570023         1.11866836E-03
   78.5374985         1.13318616E-03
   78.7180023         1.14624086E-03
   78.8984985         1.15780695E-03
   79.0790024         1.16785697E-03
   79.2594986         1.17636193E-03
   79.4400024         1.18329097E-03
   79.6204987         1.18861208E-03
   79.8010025         1.19229243E-03
   79.9814987         1.19429862E-03
   80.1620026         1.19459734E-03
   80.3424988         1.19315635E-03
   80.5230026         1.18994410E-03
   80.7034988         1.18493161E-03
   80.8840027         1.17809221E-03
   81.0644989         1.16940273E-03
   81.2450027         1.15884386E-03
   81.4254990         1.14640093E-03
   81.6060028         1.13206427E-03
   81.7864990         1.11583003E-03
   81.9670029         1.09770009E-03
   82.1474991         1.07768294E-03
   82.3280029         1.05579360E-03
   82.5084991         1.03205419E-03
   82.6890030         1.00649334E-03
   82.8694992         9.79147037E-04
