  -7.19999981         0.00000000    
  -7.01999998         7.25277043E-13
  -6.84000015         2.32707018E-12
  -6.65999985         4.89733818E-12
  -6.48000002         8.46857480E-12
  -6.30000019         1.30285357E-11
  -6.11999989         1.85533013E-11
  -5.94000006         2.50571976E-11
  -5.76000023         3.26512081E-11
  -5.57999992         4.15957963E-11
  -5.40000010         5.23328880E-11
  -5.21999979         6.54871782E-11
  -5.03999996         8.18378143E-11
  -4.86000013         1.02273100E-10
  -4.67999983         1.27747923E-10
  -4.50000000         1.59262284E-10
  -4.32000017         1.97870720E-10
  -4.13999987         2.44719661E-10
  -3.96000004         3.01101144E-10
  -3.77999997         3.68507502E-10
  -3.59999990         4.48675236E-10
  -3.42000008         5.43614098E-10
  -3.24000001         6.55623111E-10
  -3.05999994         7.87300836E-10
  -2.88000011         9.41557277E-10
  -2.70000005         1.12163456E-09
  -2.51999998         1.33114919E-09
  -2.33999991         1.57416480E-09
  -2.16000009         1.85531390E-09
  -1.98000002         2.17998464E-09
  -1.79999995         2.55458144E-09
  -1.62000000         2.98688541E-09
  -1.44000006         3.48650908E-09
  -1.25999999         4.06545597E-09
  -1.08000004         4.73875783E-09
 -0.899999976         5.52519319E-09
 -0.720000029         6.44800924E-09
 -0.540000021         7.53566542E-09
 -0.360000014         8.82250539E-09
 -0.180000007         1.03493720E-08
   0.00000000         1.21641364E-08
  0.180000007         1.43221621E-08
  0.360000014         1.68866734E-08
  0.540000021         1.99289758E-08
  0.720000029         2.35285551E-08
  0.899999976         2.77729235E-08
   1.08000004         3.27572813E-08
   1.25999999         3.85837780E-08
   1.44000006         4.53604940E-08
   1.62000000         5.32000151E-08
   1.79999995         6.22176444E-08
   1.98000002         7.25293177E-08
   2.16000009         8.42489740E-08
   2.33999991         9.74858665E-08
   2.51999998         1.12341574E-07
   2.70000005         1.28906876E-07
   2.88000011         1.47258717E-07
   3.05999994         1.67457117E-07
   3.24000001         1.89542476E-07
   3.42000008         2.13533028E-07
   3.59999990         2.39422661E-07
   3.77999997         2.67179416E-07
   3.96000004         2.96744076E-07
   4.13999987         3.28029813E-07
   4.32000017         3.60922229E-07
   4.50000000         3.95279983E-07
   4.67999983         4.30936353E-07
   4.86000013         4.67701284E-07
   5.03999996         5.05364198E-07
   5.21999979         5.43697126E-07
   5.40000010         5.82459222E-07
   5.57999992         6.21400716E-07
   5.76000023         6.60268029E-07
   5.94000006         6.98808719E-07
   6.11999989         7.36776542E-07
   6.30000019         7.73936051E-07
   6.48000002         8.10066012E-07
   6.65999985         8.44962756E-07
   6.84000015         8.78441426E-07
   7.01999998         9.10336325E-07
   7.19999981         9.40500172E-07
   7.38000011         9.68803079E-07
   7.55999994         9.95131700E-07
   7.73999977         1.01938952E-06
   7.92000008         1.04149774E-06
   8.10000038         1.06139828E-06
   8.27999973         1.07905817E-06
   8.46000004         1.09447205E-06
   8.64000034         1.10766564E-06
   8.81999969         1.11869520E-06
   9.00000000         1.12764371E-06
   9.18000031         1.13461351E-06
   9.35999966         1.13971532E-06
   9.53999996         1.14305578E-06
   9.72000027         1.14472584E-06
   9.89999962         1.14479246E-06
   10.0799999         1.14329589E-06
   10.2600002         1.14025443E-06
   10.4399996         1.13567694E-06
   10.6199999         1.12957980E-06
   10.8000002         1.12200883E-06
   10.9799995         1.11305951E-06
   11.1599998         1.10289250E-06
   11.3400002         1.09174300E-06
   11.5200005         1.07991991E-06
   11.6999998         1.06779817E-06
   11.8800001         1.05580330E-06
   12.0600004         1.04439584E-06
   12.2399998         1.03405864E-06
   12.4200001         1.02529145E-06
   12.6000004         1.01861576E-06
   12.7799997         1.01459148E-06
   12.9600000         1.01384057E-06
   13.1400003         1.01707587E-06
   13.3199997         1.02512615E-06
   13.5000000         1.03894979E-06
   13.6800003         1.05963068E-06
   13.8599997         1.08835468E-06
   14.0400000         1.12636008E-06
   14.2200003         1.17486707E-06
   14.3999996         1.23499217E-06
   14.5799999         1.30765386E-06
   14.7600002         1.39347799E-06
   14.9399996         1.49271250E-06
   15.1199999         1.60515719E-06
   15.3000002         1.73011233E-06
   15.4799995         1.86634554E-06
   15.6599998         2.01207558E-06
   15.8400002         2.16497028E-06
   16.0200005         2.32214711E-06
   16.2000008         2.48018114E-06
   16.3799992         2.63510856E-06
   16.5599995         2.78243238E-06
   16.7399998         2.91712831E-06
   16.9200001         3.03365482E-06
   17.1000004         3.12597990E-06
   17.2800007         3.18762432E-06
   17.4599991         3.21173388E-06
   17.6399994         3.19117748E-06
   17.8199997         3.11867802E-06
   18.0000000         2.98696932E-06
   18.1800003         2.78897278E-06
   18.3600006         2.51798747E-06
   18.5400009         2.16787748E-06
   18.7199993         1.73325202E-06
   18.8999996         1.20961761E-06
   19.0799999         5.93501682E-07
   19.2600002        -1.17461894E-07
   19.4400005        -9.24490735E-07
   19.6200008        -1.82765189E-06
   19.7999992        -2.82589758E-06
   19.9799995        -3.91712683E-06
   20.1599998        -5.09826759E-06
   20.3400002        -6.36537925E-06
   20.5200005        -7.71374289E-06
   20.7000008        -9.13795520E-06
   20.8799992        -1.06320067E-05
   21.0599995        -1.21893436E-05
   21.2399998        -1.38029109E-05
   21.4200001        -1.54651862E-05
   21.6000004        -1.71682004E-05
   21.7800007        -1.89035472E-05
   21.9599991        -2.06623899E-05
   22.1399994        -2.24354753E-05
   22.3199997        -2.42131318E-05
   22.5000000        -2.59852750E-05
   22.6800003        -2.77414129E-05
   22.8600006        -2.94706460E-05
   23.0400009        -3.11616459E-05
   23.2199993        -3.28026545E-05
   23.3999996        -3.43814463E-05
   23.5799999        -3.58853213E-05
   23.7600002        -3.73010917E-05
   23.9400005        -3.86150605E-05
   24.1200008        -3.98130796E-05
   24.2999992        -4.08805608E-05
   24.4799995        -4.18026029E-05
   24.6599998        -4.25641010E-05
   24.8400002        -4.31499175E-05
   25.0200005        -4.35451257E-05
   25.2000008        -4.37352573E-05
   25.3799992        -4.37065828E-05
   25.5599995        -4.34464746E-05
   25.7399998        -4.29437387E-05
   25.9200001        -4.21890072E-05
   26.1000004        -4.11751025E-05
   26.2800007        -3.98974626E-05
   26.4599991        -3.83544793E-05
   26.6399994        -3.65478772E-05
   26.8199997        -3.44830041E-05
   27.0000000        -3.21690932E-05
   27.1800003        -2.96194394E-05
   27.3600006        -2.68514650E-05
   27.5400009        -2.38867269E-05
   27.7199993        -2.07507765E-05
   27.8999996        -1.74729539E-05
   28.0799999        -1.40860484E-05
   28.2600002        -1.06259022E-05
   28.4400005        -7.13092095E-06
   28.6200008        -3.64154857E-06
   28.7999992        -1.99697510E-07
   28.9799995         3.15184570E-06
   29.1599998         6.37000039E-06
   29.3400002         9.41197686E-06
   29.5200005         1.22358506E-05
   29.7000008         1.48010859E-05
   29.8799992         1.70690546E-05
   30.0599995         1.90034953E-05
   30.2399998         2.05709275E-05
   30.4200001         2.17409943E-05
   30.6000004         2.24867381E-05
   30.7800007         2.27848086E-05
   30.9599991         2.26155553E-05
   31.1399994         2.19630419E-05
   31.3199997         2.08149850E-05
   31.5000000         1.91625986E-05
   31.6800003         1.70003641E-05
   31.8600006         1.43257794E-05
   32.0400009         1.11390755E-05
   32.2200012         7.44291538E-06
   32.4000015         3.24214034E-06
   32.5800018        -1.45645970E-06
   32.7599983        -6.64432991E-06
   32.9399986        -1.23112677E-05
   33.1199989        -1.84454566E-05
   33.2999992        -2.50334851E-05
   33.4799995        -3.20602703E-05
   33.6599998        -3.95089119E-05
   33.8400002        -4.73606342E-05
   34.0200005        -5.55945335E-05
   34.2000008        -6.41874503E-05
   34.3800011        -7.31137625E-05
   34.5600014        -8.23452065E-05
   34.7400017        -9.18507212E-05
   34.9199982        -1.01596306E-04
   35.0999985        -1.11544912E-04
   35.2799988        -1.21656325E-04
   35.4599991        -1.31887195E-04
   35.6399994        -1.42191013E-04
   35.8199997        -1.52518158E-04
   36.0000000        -1.62816170E-04
   36.1800003        -1.73029737E-04
   36.3600006        -1.83101190E-04
   36.5400009        -1.92970823E-04
   36.7200012        -2.02577270E-04
   36.9000015        -2.11858118E-04
   37.0800018        -2.20750459E-04
   37.2599983        -2.29191603E-04
   37.4399986        -2.37119690E-04
   37.6199989        -2.44474475E-04
   37.7999992        -2.51198071E-04
   37.9799995        -2.57235515E-04
   38.1599998        -2.62535701E-04
   38.3400002        -2.67051655E-04
   38.5200005        -2.70741410E-04
   38.7000008        -2.73568236E-04
   38.8800011        -2.75501283E-04
   39.0600014        -2.76515755E-04
   39.2400017        -2.76593200E-04
   39.4199982        -2.75721774E-04
   39.5999985        -2.73896178E-04
   39.7799988        -2.71117839E-04
   39.9599991        -2.67394760E-04
   40.1399994        -2.62741261E-04
   40.3199997        -2.57177831E-04
   40.5000000        -2.50730751E-04
   40.6800003        -2.43431467E-04
   40.8600006        -2.35316184E-04
   41.0400009        -2.26425153E-04
   41.2200012        -2.16801840E-04
   41.4000015        -2.06492288E-04
   41.5800018        -1.95544213E-04
   41.7599983        -1.84006145E-04
   41.9399986        -1.71926629E-04
   42.1199989        -1.59353513E-04
   42.2999992        -1.46333099E-04
   42.4799995        -1.32909598E-04
   42.6599998        -1.19124590E-04
   42.8400002        -1.05016567E-04
   43.0200005        -9.06206478E-05
   43.2000008        -7.59683753E-05
   43.3800011        -6.10876596E-05
   43.5600014        -4.60027950E-05
   43.7400017        -3.07346709E-05
   43.9199982        -1.53009532E-05
   44.0999985         2.83580306E-07
   44.2799988         1.60066411E-05
   44.4599991         3.18579587E-05
   44.6399994         4.78287511E-05
   44.8199997         6.39111095E-05
   45.0000000         8.00973794E-05
   45.1800003         9.63794009E-05
   45.3600006         1.12747708E-04
   45.5400009         1.29190768E-04
   45.7200012         1.45694125E-04
   45.9000015         1.62239565E-04
   46.0800018         1.78804432E-04
   46.2599983         1.95360873E-04
   46.4399986         2.11875362E-04
   46.6199989         2.28308316E-04
   46.7999992         2.44613999E-04
   46.9799995         2.60740489E-04
   47.1599998         2.76630046E-04
   47.3400002         2.92219484E-04
   47.5200005         3.07440932E-04
   47.7000008         3.22222419E-04
   47.8800011         3.36488913E-04
   48.0600014         3.50163056E-04
   48.2400017         3.63166328E-04
   48.4199982         3.75419913E-04
   48.5999985         3.86845641E-04
   48.7799988         3.97366995E-04
   48.9599991         4.06910025E-04
   49.1399994         4.15404385E-04
   49.3199997         4.22784244E-04
   49.5000000         4.28989239E-04
   49.6800003         4.33965703E-04
   49.8600006         4.37667157E-04
   50.0400009         4.40055621E-04
   50.2200012         4.41102165E-04
   50.4000015         4.40787611E-04
   50.5800018         4.39103111E-04
   50.7599983         4.36050410E-04
   50.9399986         4.31642227E-04
   51.1199989         4.25901904E-04
   51.2999992         4.18863492E-04
   51.4799995         4.10571374E-04
   51.6599998         4.01079655E-04
   51.8400002         3.90451663E-04
   52.0200005         3.78759403E-04
   52.2000008         3.66082677E-04
   52.3800011         3.52508505E-04
   52.5600014         3.38130252E-04
   52.7400017         3.23046726E-04
   52.9199982         3.07361508E-04
   53.0999985         2.91181845E-04
   53.2799988         2.74617749E-04
   53.4599991         2.57780950E-04
   53.6399994         2.40783760E-04
   53.8199997         2.23737865E-04
   54.0000000         2.06753073E-04
   54.1800003         1.89936152E-04
   54.3600006         1.73389402E-04
   54.5400009         1.57209477E-04
   54.7200012         1.41486118E-04
   54.9000015         1.26300933E-04
   55.0800018         1.11726302E-04
   55.2599983         9.78243261E-05
   55.4399986         8.46458570E-05
   55.6199989         7.22296900E-05
   55.7999992         6.06018803E-05
   55.9799995         4.97751316E-05
   56.1599998         3.97484291E-05
   56.3400002         3.05068515E-05
   56.5200005         2.20215516E-05
   56.7000008         1.42500467E-05
   56.8800011         7.13671216E-06
   57.0600014         6.13581221E-07
   57.2400017        -5.39854454E-06
   57.4199982        -1.09887287E-05
   57.5999985        -1.62542165E-05
   57.7799988        -2.12985615E-05
   57.9599991        -2.62295343E-05
   58.1399994        -3.11568474E-05
   58.3199997        -3.61898383E-05
   58.5000000        -4.14351234E-05
   58.6800003        -4.69943443E-05
   58.8600006        -5.29619829E-05
   59.0400009        -5.94233898E-05
   59.2200012        -6.64531108E-05
   59.4000015        -7.41133845E-05
   59.5800018        -8.24531307E-05
   59.7599983        -9.15071141E-05
   59.9399986        -1.01295598E-04
   60.1199989        -1.11824345E-04
   60.2999992        -1.23084945E-04
   60.4799995        -1.35055554E-04
   60.6599998        -1.47701867E-04
   60.8400002        -1.60978569E-04
   61.0200005        -1.74830886E-04
   61.2000008        -1.89196377E-04
   61.3800011        -2.04007025E-04
   61.5600014        -2.19191250E-04
   61.7400017        -2.34676147E-04
   61.9199982        -2.50389479E-04
   62.0999985        -2.66261748E-04
   62.2799988        -2.82227964E-04
   62.4599991        -2.98229192E-04
   62.6399994        -3.14213801E-04
   62.8199997        -3.30138340E-04
   63.0000000        -3.45967885E-04
   63.1800003        -3.61676124E-04
   63.3600006        -3.77244956E-04
   63.5400009        -3.92663525E-04
   63.7200012        -4.07927117E-04
   63.9000015        -4.23035439E-04
   64.0800018        -4.37990937E-04
   64.2600021        -4.52796783E-04
   64.4400024        -4.67454607E-04
   64.6200027        -4.81962750E-04
   64.8000031        -4.96313907E-04
   64.9800034        -5.10493410E-04
   65.1600037        -5.24477917E-04
   65.3399963        -5.38233435E-04
   65.5199966        -5.51715028E-04
   65.6999969        -5.64865710E-04
   65.8799973        -5.77616331E-04
   66.0599976        -5.89885574E-04
   66.2399979        -6.01580483E-04
   66.4199982        -6.12597098E-04
   66.5999985        -6.22821739E-04
   66.7799988        -6.32132404E-04
   66.9599991        -6.40400336E-04
   67.1399994        -6.47492008E-04
   67.3199997        -6.53271389E-04
   67.5000000        -6.57602097E-04
   67.6800003        -6.60349673E-04
   67.8600006        -6.61384081E-04
   68.0400009        -6.60582155E-04
   68.2200012        -6.57829689E-04
   68.4000015        -6.53023599E-04
   68.5800018        -6.46073720E-04
   68.7600021        -6.36904850E-04
   68.9400024        -6.25457731E-04
   69.1200027        -6.11690280E-04
   69.3000031        -5.95578458E-04
   69.4800034        -5.77116676E-04
   69.6600037        -5.56318089E-04
   69.8399963        -5.33214305E-04
   70.0199966        -5.07855089E-04
   70.1999969        -4.80307644E-04
   70.3799973        -4.50655731E-04
   70.5599976        -4.18998388E-04
   70.7399979        -3.85448686E-04
   70.9199982        -3.50131828E-04
   71.0999985        -3.13183584E-04
   71.2799988        -2.74748367E-04
   71.4599991        -2.34977080E-04
   71.6399994        -1.94025255E-04
   71.8199997        -1.52050823E-04
   72.0000000        -1.09212357E-04
   72.1800003        -6.56671764E-05
   72.3600006        -2.15696673E-05
   72.5400009         2.29301077E-05
   72.7200012         6.76875425E-05
   72.9000015         1.12564609E-04
   73.0800018         1.57430433E-04
   73.2600021         2.02161929E-04
   73.4400024         2.46643991E-04
   73.6200027         2.90769764E-04
   73.8000031         3.34440498E-04
   73.9800034         3.77565564E-04
   74.1600037         4.20062133E-04
   74.3399963         4.61854943E-04
   74.5199966         5.02875657E-04
   74.6999969         5.43062808E-04
   74.8799973         5.82360895E-04
   75.0599976         6.20719919E-04
   75.2399979         6.58095116E-04
   75.4199982         6.94445916E-04
   75.5999985         7.29735417E-04
   75.7799988         7.63930148E-04
   75.9599991         7.96999258E-04
   76.1399994         8.28914694E-04
   76.3199997         8.59649794E-04
   76.5000000         8.89180345E-04
   76.6800003         9.17483121E-04
   76.8600006         9.44536529E-04
   77.0400009         9.70320078E-04
   77.2200012         9.94814327E-04
   77.4000015         1.01800042E-03
   77.5800018         1.03986007E-03
   77.7600021         1.06037490E-03
   77.9400024         1.07952650E-03
   78.1200027         1.09729590E-03
   78.3000031         1.11366285E-03
   78.4800034         1.12860615E-03
   78.6600037         1.14210264E-03
   78.8399963         1.15412765E-03
   79.0199966         1.16465462E-03
   79.1999969         1.17365515E-03
   79.3799973         1.18109921E-03
   79.5599976         1.18695549E-03
   79.7399979         1.19119149E-03
   79.9199982         1.19377440E-03
   80.0999985         1.19467103E-03
   80.2799988         1.19384879E-03
   80.4599991         1.19127636E-03
   80.6399994         1.18692382E-03
   80.8199997         1.18076405E-03
   81.0000000         1.17277261E-03
   81.1800003         1.16292899E-03
   81.3600006         1.15121680E-03
   81.5400009         1.13762461E-03
   81.7200012         1.12214626E-03
   81.9000015         1.10478152E-03
   82.0800018         1.08553632E-03
   82.2600021         1.06442312E-03
   82.4400024         1.04146113E-03
   82.6200027         1.01667631E-03
   82.8000031         9.90101486E-04
   82.9800034         9.61776706E-04
   83.1600037         9.31748538E-04
   83.3399963         9.00070299E-04
   83.5199966         8.66802002E-04
   83.6999969         8.32009770E-04
   83.8799973         7.95765896E-04
   84.0599976         7.58148439E-04
   84.2399979         7.19241158E-04
   84.4199982         6.79132936E-04
   84.5999985         6.37917663E-04
   84.7799988         5.95694117E-04
   84.9599991         5.52565500E-04
   85.1399994         5.08639321E-04
   85.3199997         4.64027049E-04
   85.5000000         4.18843905E-04
   85.6800003         3.73208401E-04
   85.8600006         3.27242131E-04
   86.0400009         2.81069166E-04
   86.2200012         2.34815729E-04
   86.4000015         1.88609512E-04
   86.5800018         1.42579156E-04
   86.7600021         9.68535533E-05
   86.9400024         5.15612192E-05
   87.1200027         6.82961399E-06
   87.3000031        -3.72155155E-05
   87.4800034        -8.04507508E-05
   87.6600037        -1.22755635E-04
   87.8399963        -1.64013167E-04
   88.0199966        -2.04110474E-04
   88.1999969        -2.42939364E-04
   88.3799973        -2.80396838E-04
   88.5599976        -3.16385733E-04
   88.7399979        -3.50815390E-04
   88.9199982        -3.83602397E-04
   89.0999985        -4.14671405E-04
   89.2799988        -4.43955709E-04
   89.4599991        -4.71398293E-04
   89.6399994        -4.96952445E-04
   89.8199997        -5.20582485E-04
   90.0000000        -5.42264257E-04
   90.1800003        -5.61985653E-04
   90.3600006        -5.79746848E-04
   90.5400009        -5.95560356E-04
   90.7200012        -6.09450915E-04
   90.9000015        -6.21455256E-04
   91.0800018        -6.31621573E-04
   91.2600021        -6.40009122E-04
   91.4400024        -6.46687287E-04
   91.6200027        -6.51734939E-04
   91.8000031        -6.55239681E-04
   91.9800034        -6.57296448E-04
   92.1600037        -6.58006873E-04
   92.3399963        -6.57477882E-04
   92.5199966        -6.55820419E-04
   92.6999969        -6.53148105E-04
   92.8799973        -6.49575610E-04
   93.0599976        -6.45217253E-04
   93.2399979        -6.40185259E-04
   93.4199982        -6.34588010E-04
   93.5999985        -6.28528709E-04
   93.7799988        -6.22103631E-04
   93.9599991        -6.15400902E-04
   94.1399994        -6.08499162E-04
   94.3199997        -6.01466745E-04
   94.5000000        -5.94360929E-04
   94.6800003        -5.87227114E-04
   94.8600006        -5.80098829E-04
   95.0400009        -5.72997553E-04
   95.2200012        -5.65932714E-04
   95.4000015        -5.58901927E-04
   95.5800018        -5.51891513E-04
   95.7600021        -5.44876792E-04
   95.9400024        -5.37823071E-04
   96.1200027        -5.30686404E-04
   96.3000031        -5.23414754E-04
   96.4800034        -5.15949039E-04
   96.6600037        -5.08224824E-04
   96.8399963        -5.00173657E-04
   97.0199966        -4.91724990E-04
   97.1999969        -4.82807634E-04
   97.3799973        -4.73351887E-04
   97.5599976        -4.63291071E-04
   97.7399979        -4.52563108E-04
   97.9199982        -4.41112148E-04
   98.0999985        -4.28889645E-04
   98.2799988        -4.15855582E-04
   98.4599991        -4.01979167E-04
   98.6399994        -3.87239474E-04
   98.8199997        -3.71625909E-04
   99.0000000        -3.55138414E-04
   99.1800003        -3.37787496E-04
   99.3600006        -3.19594197E-04
   99.5400009        -3.00589803E-04
   99.7200012        -2.80815613E-04
   99.9000015        -2.60322413E-04
   100.080002        -2.39169749E-04
   100.260002        -2.17425157E-04
   100.440002        -1.95163113E-04
   100.620003        -1.72463901E-04
