  -7.19999981       0.00000000    
  -7.01999998      -1.18329782E-12
  -6.84000015      -3.68632902E-12
  -6.65999985      -7.60771220E-12
  -6.48000002      -1.33171599E-11
  -6.30000019      -2.18052104E-11
  -6.11999989      -3.49825099E-11
  -5.94000006      -5.59134926E-11
  -5.76000023      -8.90216026E-11
  -5.57999992      -1.40281606E-10
  -5.40000010      -2.17338342E-10
  -5.21999979      -3.29441918E-10
  -5.03999996      -4.87137997E-10
  -4.86000013      -7.01800507E-10
  -4.67999983      -9.85257986E-10
  -4.50000000      -1.34982459E-09
  -4.32000017      -1.80894377E-09
  -4.13999987      -2.37842324E-09
  -3.96000004      -3.07801296E-09
  -3.77999997      -3.93296684E-09
  -3.59999990      -4.97528951E-09
  -3.42000008      -6.24451646E-09
  -3.24000001      -7.78802534E-09
  -3.05999994      -9.66092184E-09
  -2.88000011      -1.19254810E-08
  -2.70000005      -1.46501069E-08
  -2.51999998      -1.79077251E-08
  -2.33999991      -2.17736762E-08
  -2.16000009      -2.63232547E-08
  -1.98000002      -3.16291029E-08
  -1.79999995      -3.77586247E-08
  -1.62000000      -4.47714328E-08
  -1.44000006      -5.27167465E-08
  -1.25999999      -6.16306295E-08
  -1.08000004      -7.15329733E-08
 -0.899999976      -8.24241937E-08
 -0.720000029      -9.42818019E-08
 -0.540000021      -1.07056771E-07
 -0.360000014      -1.20669867E-07
 -0.180000007      -1.35008108E-07
   4.44089210E-16  -1.49921561E-07
  0.180000007      -1.65221152E-07
  0.360000014      -1.80677844E-07
  0.540000021      -1.96024047E-07
  0.720000029      -2.10957225E-07
  0.899999976      -2.25145712E-07
   1.08000004      -2.38236794E-07
   1.25999999      -2.49866247E-07
   1.44000006      -2.59669775E-07
   1.62000000      -2.67295235E-07
   1.79999995      -2.72416287E-07
   1.98000002      -2.74746355E-07
   2.16000009      -2.74052582E-07
   2.33999991      -2.70169181E-07
   2.51999998      -2.63009412E-07
   2.70000005      -2.52575546E-07
   2.88000011      -2.38967033E-07
   3.05999994      -2.22386319E-07
   3.24000001      -2.03141610E-07
   3.42000008      -1.81647778E-07
   3.59999990      -1.58423560E-07
   3.77999997      -1.34086093E-07
   3.96000004      -1.09343176E-07
   4.13999987      -8.49818989E-08
   4.32000017      -6.18561344E-08
   4.50000000      -4.08711927E-08
   4.67999983      -2.29679404E-08
   4.86000013      -9.10452602E-09
   5.03999996      -2.38857406E-10
   5.21999979       2.68997402E-09
   5.40000010      -1.22119426E-09
   5.57999992      -1.28224782E-08
   5.76000023      -3.28972476E-08
   5.94000006      -6.21471656E-08
   6.11999989      -1.01181655E-07
   6.30000019      -1.50507915E-07
   6.48000002      -2.10524490E-07
   6.65999985      -2.81515867E-07
   6.84000015      -3.63651708E-07
   7.01999998      -4.56986697E-07
   7.19999981      -5.61462969E-07
   7.38000011      -6.76915647E-07
   7.55999994      -8.03077228E-07
   7.73999977      -9.39586414E-07
   7.92000008      -1.08599534E-06
   8.10000038      -1.24178007E-06
   8.27999973      -1.40635018E-06
   8.46000004      -1.57905833E-06
   8.64000034      -1.75921014E-06
   8.81999969      -1.94607105E-06
   9.00000000      -2.13887301E-06
   9.18000031      -2.33681726E-06
   9.35999966      -2.53907615E-06
   9.53999996      -2.74479203E-06
   9.72000027      -2.95307518E-06
   9.89999962      -3.16300043E-06
   10.0799999      -3.37360439E-06
   10.2600002      -3.58388388E-06
   10.4399996      -3.79279413E-06
   10.6199999      -3.99925057E-06
   10.8000002      -4.20212928E-06
   10.9799995      -4.40026406E-06
   11.1599998      -4.59244893E-06
   11.3400002      -4.77742697E-06
   11.5200005      -4.95388304E-06
   11.6999998      -5.12042470E-06
   11.8800001      -5.27556585E-06
   12.0600004      -5.41769896E-06
   12.2399998      -5.54507460E-06
   12.4200001      -5.65577875E-06
   12.6000004      -5.74771911E-06
   12.7799997      -5.81861877E-06
   12.9600000      -5.86602937E-06
   13.1400003      -5.88734974E-06
   13.3199997      -5.87986096E-06
   13.5000000      -5.84077816E-06
   13.6800003      -5.76729872E-06
   13.8599997      -5.65666687E-06
   14.0400000      -5.50622917E-06
   14.2200003      -5.31349406E-06
   14.3999996      -5.07618461E-06
   14.5799999      -4.79228811E-06
   14.7600002      -4.46010517E-06
   14.9399996      -4.07829839E-06
   15.1199999      -3.64594803E-06
   15.3000002      -3.16261480E-06
   15.4799995      -2.62840967E-06
   15.6599998      -2.04407843E-06
   15.8400002      -1.41108819E-06
   16.0200005      -7.31717307E-07
   16.2000008      -9.13758313E-09
   16.3799992       7.52516655E-07
   16.5599995       1.54810380E-06
   16.7399998       2.37145878E-06
   16.9200001       3.21540756E-06
   17.1000004       4.07182642E-06
   17.2800007       4.93172774E-06
   17.4599991       5.78537765E-06
   17.6399994       6.62244065E-06
   17.8199997       7.43214059E-06
   18.0000000       8.20342939E-06
   18.1800003       8.92516709E-06
   18.3600006       9.58629516E-06
   18.5400009       1.01760188E-05
   18.7199993       1.06839807E-05
   18.8999996       1.11004401E-05
   19.0799999       1.14164541E-05
   19.2600002       1.16240544E-05
   19.4400005       1.17164273E-05
   19.6200008       1.16880829E-05
   19.7999992       1.15350158E-05
   19.9799995       1.12548478E-05
   20.1599998       1.08469440E-05
   20.3400002       1.03124949E-05
   20.5200005       9.65456002E-06
   20.7000008       8.87807346E-06
   20.8799992       7.98980273E-06
   21.0599995       6.99828024E-06
   21.2399998       5.91368143E-06
   21.4200001       4.74768740E-06
   21.6000004       3.51331119E-06
   21.7800007       2.22470567E-06
   21.9599991       8.96952429E-07
   22.1399994      -4.54167321E-07
   22.3199997      -1.81242569E-06
   22.5000000      -3.16141200E-06
   22.6800003      -4.48481842E-06
   22.8600006      -5.76674074E-06
   23.0400009      -6.99199745E-06
   23.2199993      -8.14646501E-06
   23.3999996      -9.21740047E-06
   23.5799999      -1.01937649E-05
   23.7600002      -1.10665342E-05
   23.9400005      -1.18289636E-05
   24.1200008      -1.24768221E-05
   24.2999992      -1.30085436E-05
   24.4799995      -1.34253414E-05
   24.6599998      -1.37312263E-05
   24.8400002      -1.39329668E-05
   25.0200005      -1.40399634E-05
   25.2000008      -1.40640723E-05
   25.3799992      -1.40193697E-05
   25.5599995      -1.39218837E-05
   25.7399998      -1.37892921E-05
   25.9200001      -1.36405979E-05
   26.1000004      -1.34958127E-05
   26.2800007      -1.33756339E-05
   26.4599991      -1.33010844E-05
   26.6399994      -1.32932018E-05
   26.8199997      -1.33726580E-05
   27.0000000      -1.35594173E-05
   27.1800003      -1.38723453E-05
   27.3600006      -1.43288144E-05
   27.5400009      -1.49443313E-05
   27.7199993      -1.57321447E-05
   27.8999996      -1.67029120E-05
   28.0799999      -1.78644095E-05
   28.2600002      -1.92213120E-05
   28.4400005      -2.07750654E-05
   28.6200008      -2.25238655E-05
   28.7999992      -2.44627226E-05
   28.9799995      -2.65836352E-05
   29.1599998      -2.88758529E-05
   29.3400002      -3.13262062E-05
   29.5200005      -3.39194921E-05
   29.7000008      -3.66388849E-05
   29.8799992      -3.94664021E-05
   30.0599995      -4.23833117E-05
   30.2399998      -4.53706089E-05
   30.4200001      -4.84094744E-05
   30.6000004      -5.14816929E-05
   30.7800007      -5.45701041E-05
   30.9599991      -5.76590246E-05
   31.1399994      -6.07346919E-05
   31.3199997      -6.37856137E-05
   31.5000000      -6.68029461E-05
   31.6800003      -6.97807700E-05
   31.8600006      -7.27162987E-05
   32.0400009      -7.56099762E-05
   32.2200012      -7.84655058E-05
   32.4000015      -8.12897269E-05
   32.5800018      -8.40923603E-05
   32.7599983      -8.68857242E-05
   32.9399986      -8.96842539E-05
   33.1199989      -9.25040295E-05
   33.2999992      -9.53621857E-05
   33.4799995      -9.82763377E-05
   33.6599998      -1.01263940E-04
   33.8400002      -1.04341663E-04
   34.0200005      -1.07524815E-04
   34.2000008      -1.10826724E-04
   34.3800011      -1.14258211E-04
   34.5600014      -1.17827040E-04
   34.7400017      -1.21537501E-04
   34.9199982      -1.25389954E-04
   35.0999985      -1.29380467E-04
   35.2799988      -1.33500595E-04
   35.4599991      -1.37737079E-04
   35.6399994      -1.42071833E-04
   35.8199997      -1.46481820E-04
   36.0000000      -1.50939115E-04
   36.1800003      -1.55411180E-04
   36.3600006      -1.59861011E-04
   36.5400009      -1.64247584E-04
   36.7200012      -1.68526327E-04
   36.9000015      -1.72649699E-04
   37.0800018      -1.76567861E-04
   37.2599983      -1.80229414E-04
   37.4399986      -1.83582204E-04
   37.6199989      -1.86574165E-04
   37.7999992      -1.89154132E-04
   37.9799995      -1.91272746E-04
   38.1599998      -1.92883163E-04
   38.3400002      -1.93941916E-04
   38.5200005      -1.94409440E-04
   38.7000008      -1.94250766E-04
   38.8800011      -1.93436004E-04
   39.0600014      -1.91940679E-04
   39.2400017      -1.89746104E-04
   39.4199982      -1.86839519E-04
   39.5999985      -1.83214288E-04
   39.7799988      -1.78869828E-04
   39.9599991      -1.73811582E-04
   40.1399994      -1.68050829E-04
   40.3199997      -1.61604403E-04
   40.5000000      -1.54494264E-04
   40.6800003      -1.46747043E-04
   40.8600006      -1.38393312E-04
   41.0400009      -1.29467036E-04
   41.2200012      -1.20004668E-04
   41.4000015      -1.10044384E-04
   41.5800018      -9.96253075E-05
   41.7599983      -8.87866408E-05
   41.9399986      -7.75670414E-05
   42.1199989      -6.60039441E-05
   42.2999992      -5.41330555E-05
   42.4799995      -4.19880089E-05
   42.6599998      -2.96001144E-05
   42.8400002      -1.69982195E-05
   43.0200005      -4.20872902E-06
   43.2000008       8.74430862E-06
   43.3800011       2.18390796E-05
   43.5600014       3.50556802E-05
   43.7400017       4.83759504E-05
   43.9199982       6.17830374E-05
   44.0999985       7.52611231E-05
   44.2799988       8.87949791E-05
   44.4599991       1.02369457E-04
   44.6399994       1.15969066E-04
   44.8199997       1.29577369E-04
   45.0000000       1.43176396E-04
   45.1800003       1.56746100E-04
   45.3600006       1.70263651E-04
   45.5400009       1.83702956E-04
   45.7200012       1.97034198E-04
   45.9000015       2.10223341E-04
   46.0800018       2.23231968E-04
   46.2599983       2.36017120E-04
   46.4399986       2.48531403E-04
   46.6199989       2.60723260E-04
   46.7999992       2.72537349E-04
   46.9799995       2.83915055E-04
   47.1599998       2.94795231E-04
   47.3400002       3.05114983E-04
   47.5200005       3.14810459E-04
   47.7000008       3.23817687E-04
   47.8800011       3.32073483E-04
   48.0600014       3.39516235E-04
   48.2400017       3.46086919E-04
   48.4199982       3.51729715E-04
   48.5999985       3.56393022E-04
   48.7799988       3.60030244E-04
   48.9599991       3.62600520E-04
   49.1399994       3.64069536E-04
   49.3199997       3.64410429E-04
   49.5000000       3.63604253E-04
   49.6800003       3.61640850E-04
   49.8600006       3.58519144E-04
   50.0400009       3.54247488E-04
   50.2200012       3.48844100E-04
   50.4000015       3.42336774E-04
   50.5800018       3.34762881E-04
   50.7599983       3.26168956E-04
   50.9399986       3.16610211E-04
   51.1199989       3.06149857E-04
   51.2999992       2.94858532E-04
   51.4799995       2.82813300E-04
   51.6599998       2.70096789E-04
   51.8400002       2.56796455E-04
   52.0200005       2.43003393E-04
   52.2000008       2.28811477E-04
   52.3800011       2.14316184E-04
   52.5600014       1.99613598E-04
   52.7400017       1.84799181E-04
   52.9199982       1.69966559E-04
   53.0999985       1.55206304E-04
   53.2799988       1.40604650E-04
   53.4599991       1.26242347E-04
   53.6399994       1.12193389E-04
   53.8199997       9.85240113E-05
   54.0000000       8.52916637E-05
   54.1800003       7.25442296E-05
   54.3600006       6.03193039E-05
   54.5400009       4.86437020E-05
   54.7200012       3.75330856E-05
   54.9000015       2.69917691E-05
   55.0800018       1.70126732E-05
   55.2599983       7.57743328E-06
   55.4399986      -1.34332674E-06
   55.6199989      -9.78958451E-06
   55.7999992      -1.78113005E-05
   55.9799995      -2.54676670E-05
   56.1599998      -3.28261376E-05
   56.3400002      -3.99612909E-05
   56.5200005      -4.69535262E-05
   56.7000008      -5.38875720E-05
   56.8800011      -6.08508963E-05
   57.0600014      -6.79319492E-05
   57.2400017      -7.52184205E-05
   57.4199982      -8.27953918E-05
   57.5999985      -9.07435897E-05
   57.7799988      -9.91376655E-05
   57.9599991      -1.08044616E-04
   58.1399994      -1.17522388E-04
   58.3199997      -1.27618623E-04
   58.5000000      -1.38369753E-04
   58.6800003      -1.49800195E-04
   58.8600006      -1.61921955E-04
   59.0400009      -1.74734421E-04
   59.2200012      -1.88224541E-04
   59.4000015      -2.02367111E-04
   59.5800018      -2.17125562E-04
   59.7599983      -2.32452701E-04
   59.9399986      -2.48291908E-04
   60.1199989      -2.64578412E-04
   60.2999992      -2.81240646E-04
   60.4799995      -2.98201747E-04
   60.6599998      -3.15381185E-04
   60.8400002      -3.32696130E-04
   61.0200005      -3.50062968E-04
   61.2000008      -3.67398694E-04
   61.3800011      -3.84621992E-04
   61.5600014      -4.01654368E-04
   61.7400017      -4.18420765E-04
   61.9199982      -4.34850343E-04
   62.0999985      -4.50876600E-04
   62.2799988      -4.66437603E-04
   62.4599991      -4.81475610E-04
   62.6399994      -4.95937013E-04
   62.8199997      -5.09771344E-04
   63.0000000      -5.22930874E-04
   63.1800003      -5.35369560E-04
   63.3600006      -5.47042175E-04
   63.5400009      -5.57903200E-04
   63.7200012      -5.67905954E-04
   63.9000015      -5.77001891E-04
   64.0800018      -5.85139380E-04
   64.2600021      -5.92263415E-04
   64.4400024      -5.98315266E-04
   64.6200027      -6.03232183E-04
   64.8000031      -6.06947695E-04
   64.9800034      -6.09391544E-04
   65.1600037      -6.10490853E-04
   65.3399963      -6.10170478E-04
   65.5199966      -6.08354341E-04
   65.6999969      -6.04966306E-04
   65.8799973      -5.99931809E-04
   66.0599976      -5.93179080E-04
   66.2399979      -5.84640657E-04
   66.4199982      -5.74255013E-04
   66.5999985      -5.61967958E-04
   66.7799988      -5.47734322E-04
   66.9599991      -5.31519123E-04
   67.1399994      -5.13299310E-04
   67.3199997      -4.93064697E-04
   67.5000000      -4.70819417E-04
   67.6800003      -4.46582446E-04
   67.8600006      -4.20388620E-04
   68.0400009      -3.92288930E-04
   68.2200012      -3.62350635E-04
   68.4000015      -3.30657029E-04
   68.5800018      -2.97307124E-04
   68.7600021      -2.62414833E-04
   68.9400024      -2.26107804E-04
   69.1200027      -1.88526348E-04
   69.3000031      -1.49821833E-04
   69.4800034      -1.10154921E-04
   69.6600037      -6.96940042E-05
   69.8399963      -2.86129798E-05
   70.0199966       1.29106347E-05
   70.1999969       5.46978845E-05
   70.3799973       9.65705403E-05
   70.5599976       1.38353338E-04
   70.7399979       1.79876224E-04
   70.9199982       2.20976479E-04
   71.0999985       2.61500711E-04
   71.2799988       3.01306834E-04
   71.4599991       3.40265833E-04
   71.6399994       3.78262834E-04
   71.8199997       4.15198592E-04
   72.0000000       4.50989784E-04
   72.1800003       4.85569471E-04
   72.3600006       5.18886955E-04
   72.5400009       5.50907222E-04
   72.7200012       5.81609958E-04
   72.9000015       6.10988587E-04
   73.0800018       6.39048754E-04
   73.2600021       6.65806409E-04
   73.4400024       6.91286637E-04
   73.6200027       7.15521164E-04
   73.8000031       7.38547009E-04
   73.9800034       7.60404393E-04
   74.1600037       7.81134935E-04
   74.3399963       8.00780137E-04
   74.5199966       8.19379464E-04
   74.6999969       8.36969120E-04
   74.8799973       8.53580714E-04
   75.0599976       8.69240204E-04
   75.2399979       8.83966917E-04
   75.4199982       8.97773018E-04
   75.5999985       9.10663279E-04
   75.7799988       9.22635023E-04
   75.9599991       9.33678122E-04
   76.1399994       9.43775813E-04
   76.3199997       9.52904928E-04
   76.5000000       9.61037003E-04
   76.6800003       9.68138920E-04
   76.8600006       9.74173774E-04
   77.0400009       9.79102217E-04
   77.2200012       9.82882688E-04
   77.4000015       9.85472812E-04
   77.5800018       9.86829284E-04
   77.7600021       9.86909610E-04
   77.9400024       9.85671883E-04
   78.1200027       9.83075588E-04
   78.3000031       9.79082193E-04
   78.4800034       9.73656017E-04
   78.6600037       9.66764230E-04
   78.8399963       9.58377903E-04
   79.0199966       9.48472763E-04
   79.1999969       9.37029487E-04
   79.3799973       9.24034393E-04
   79.5599976       9.09480266E-04
   79.7399979       8.93366640E-04
   79.9199982       8.75700207E-04
   80.0999985       8.56495113E-04
   80.2799988       8.35773302E-04
   80.4599991       8.13564286E-04
   80.6399994       7.89905607E-04
   80.8199997       7.64842203E-04
   81.0000000       7.38426286E-04
   81.1800003       7.10717228E-04
   81.3600006       6.81780977E-04
   81.5400009       6.51689246E-04
   81.7200012       6.20519335E-04
   81.9000015       5.88353083E-04
   82.0800018       5.55276289E-04
   82.2600021       5.21377602E-04
   82.4400024       4.86748031E-04
   82.6200027       4.51479747E-04
   82.8000031       4.15665534E-04
   82.9800034       3.79397854E-04
   83.1600037       3.42768326E-04
   83.3399963       3.05867114E-04
   83.5199966       2.68782693E-04
   83.6999969       2.31601385E-04
   83.8799973       1.94407432E-04
   84.0599976       1.57283008E-04
   84.2399979       1.20308177E-04
   84.4199982       8.35612882E-05
   84.5999985       4.71190433E-05
   84.7799988       1.10569672E-05
   84.9599991      -2.45503888E-05
   85.1399994      -5.96289465E-05
   85.3199997      -9.41048711E-05
   85.5000000      -1.27904161E-04
   85.6800003      -1.60952390E-04
   85.8600006      -1.93174317E-04
   86.0400009      -2.24493750E-04
   86.2200012      -2.54833401E-04
   86.4000015      -2.84114853E-04
   86.5800018      -3.12258664E-04
   86.7600021      -3.39184538E-04
   86.9400024      -3.64811771E-04
   87.1200027      -3.89059744E-04
   87.3000031      -4.11848625E-04
   87.4800034      -4.33100126E-04
   87.6600037      -4.52738517E-04
   87.8399963      -4.70691593E-04
   88.0199966      -4.86891833E-04
   88.1999969      -5.01277682E-04
   88.3799973      -5.13794483E-04
   88.5599976      -5.24396077E-04
   88.7399979      -5.33045735E-04
   88.9199982      -5.39717497E-04
   89.0999985      -5.44397277E-04
   89.2799988      -5.47083851E-04
   89.4599991      -5.47789794E-04
   89.6399994      -5.46542229E-04
   89.8199997      -5.43383125E-04
   90.0000000      -5.38370048E-04
   90.1800003      -5.31575584E-04
   90.3600006      -5.23087569E-04
   90.5400009      -5.13008155E-04
   90.7200012      -5.01452887E-04
   90.9000015      -4.88549820E-04
   91.0800018      -4.74437809E-04
   91.2600021      -4.59264847E-04
   91.4400024      -4.43186349E-04
   91.6200027      -4.26363171E-04
   91.8000031      -4.08959575E-04
   91.9800034      -3.91141250E-04
   92.1600037      -3.73073184E-04
   92.3399963      -3.54917865E-04
   92.5199966      -3.36833415E-04
   92.6999969      -3.18971754E-04
   92.8799973      -3.01477063E-04
   93.0599976      -2.84484326E-04
   93.2399979      -2.68117874E-04
   93.4199982      -2.52490572E-04
   93.5999985      -2.37702523E-04
   93.7799988      -2.23840456E-04
   93.9599991      -2.10977189E-04
   94.1399994      -1.99171103E-04
   94.3199997      -1.88466060E-04
   94.5000000      -1.78891351E-04
   94.6800003      -1.70461746E-04
   94.8600006      -1.63177814E-04
   95.0400009      -1.57026341E-04
   95.2200012      -1.51980814E-04
   95.4000015      -1.48002015E-04
   95.5800018      -1.45038663E-04
   95.7600021      -1.43028155E-04
   95.9400024      -1.41897486E-04
   96.1200027      -1.41564073E-04
   96.3000031      -1.41936733E-04
   96.4800034      -1.42916659E-04
   96.6600037      -1.44398698E-04
   96.8399963      -1.46272374E-04
   97.0199966      -1.48423162E-04
   97.1999969      -1.50733817E-04
   97.3799973      -1.53085522E-04
   97.5599976      -1.55359259E-04
   97.7399979      -1.57437011E-04
   97.9199982      -1.59202958E-04
   98.0999985      -1.60544689E-04
   98.2799988      -1.61354241E-04
   98.4599991      -1.61529111E-04
   98.6399994      -1.60973315E-04
   98.8199997      -1.59598174E-04
   99.0000000      -1.57323127E-04
   99.1800003      -1.54076566E-04
   99.3600006      -1.49796295E-04
   99.5400009      -1.44430232E-04
   99.7200012      -1.37936760E-04
   99.9000015      -1.30285087E-04
   100.080002      -1.21455458E-04
   100.260002      -1.11439163E-04
   100.440002      -1.00238642E-04
   100.620003      -8.78673090E-05
