  -7.19999981         5.38084297E-18
  -7.01949978         5.38084297E-18
  -6.83900023         6.17210782E-18
  -6.65850019         1.27325902E-17
  -6.47800016         3.81459898E-17
  -6.29750013         1.02900891E-16
  -6.11700010         2.24338952E-16
  -5.93650007         3.93355827E-16
  -5.75600004         5.39170776E-16
  -5.57550001         4.86802276E-16
  -5.39499998        -8.50395205E-17
  -5.21449995        -1.67614257E-15
  -5.03399992        -4.97772803E-15
  -4.85349989        -1.08598399E-14
  -4.67299986        -2.03334409E-14
  -4.49249983        -3.44965891E-14
  -4.31199980        -5.44831548E-14
  -4.13149977        -8.14377930E-14
  -3.95099998        -1.16539225E-13
  -3.77049994        -1.61085311E-13
  -3.58999991        -2.16639776E-13
  -3.40949988        -2.85227056E-13
  -3.22900009        -3.69550907E-13
  -3.04850006        -4.73206489E-13
  -2.86800003        -6.00855140E-13
  -2.68750000        -7.58332199E-13
  -2.50699997        -9.52665898E-13
  -2.32649994        -1.19199269E-12
  -2.14599991        -1.48537107E-12
  -1.96550000        -1.84250553E-12
  -1.78499997        -2.27340759E-12
  -1.60450006        -2.78802849E-12
  -1.42400002        -3.39588795E-12
  -1.24349999        -4.10572704E-12
  -1.06299996        -4.92519046E-12
 -0.882499993        -5.86054252E-12
 -0.702000022        -6.91639758E-12
 -0.521499991        -8.09545660E-12
 -0.340999991        -9.39819750E-12
 -0.160500005        -1.08224991E-11
   1.99999996E-02    -1.23631461E-11
  0.200499997        -1.40111707E-11
  0.381000012        -1.57530534E-11
  0.561500013        -1.75697928E-11
  0.741999984        -1.94358991E-11
  0.922500014        -2.13184193E-11
   1.10300004        -2.31761103E-11
   1.28349996        -2.49588492E-11
   1.46399999        -2.66074367E-11
   1.64450002        -2.80538683E-11
   1.82500005        -2.92221559E-11
   2.00550008        -3.00296801E-11
   2.18600011        -3.03890246E-11
   2.36649990        -3.02101295E-11
   2.54699993        -2.94025568E-11
   2.72749996        -2.78776169E-11
   2.90799999        -2.55501887E-11
   3.08850002        -2.23401350E-11
   3.26900005        -1.81733326E-11
   3.44950008        -1.29825872E-11
   3.63000011        -6.70867832E-12
   3.81049991         6.98121086E-13
   3.99099994         9.27583444E-12
   4.17150021         1.90478536E-11
   4.35200024         3.00195840E-11
   4.53249979         4.21750863E-11
   4.71299982         5.54743577E-11
   4.89349985         6.98517771E-11
   5.07399988         8.52159385E-11
   5.25449991         1.01450716E-10
   5.43499994         1.18416998E-10
   5.61549997         1.35954054E-10
   5.79600000         1.53880020E-10
   5.97650003         1.71990866E-10
   6.15700006         1.90058788E-10
   6.33750010         2.07831113E-10
   6.51800013         2.25031924E-10
   6.69850016         2.41369258E-10
   6.87900019         2.56548588E-10
   7.05950022         2.70293704E-10
   7.23999977         2.82371848E-10
   7.42049980         2.92619290E-10
   7.60099983         3.00960951E-10
   7.78149986         3.07417841E-10
   7.96199989         3.12097903E-10
   8.14249992         3.15168974E-10
   8.32299995         3.16818072E-10
   8.50349998         3.17205540E-10
   8.68400002         3.16426413E-10
   8.86450005         3.14493598E-10
   9.04500008         3.11354054E-10
   9.22550011         3.06944414E-10
   9.40600014         3.01283831E-10
   9.58650017         2.94590519E-10
   9.76700020         2.87400936E-10
   9.94750023         2.80663381E-10
   10.1280003         2.75776568E-10
   10.3085003         2.74550965E-10
   10.4890003         2.79082618E-10
   10.6695004         2.91546148E-10
   10.8500004         3.13931547E-10
   11.0305004         3.47767565E-10
   11.2110004         3.93880761E-10
   11.3915005         4.52241383E-10
   11.5719995         5.21934329E-10
   11.7524996         6.01274919E-10
   11.9329996         6.88057389E-10
   12.1134996         7.79902254E-10
   12.2939997         8.74635198E-10
   12.4744997         9.70622915E-10
   12.6549997         1.06698594E-09
   12.8354998         1.16362431E-09
   13.0159998         1.26101496E-09
   13.1964998         1.35978273E-09
   13.3769999         1.46007051E-09
   13.5574999         1.56077895E-09
   13.7379999         1.65875291E-09
   13.9184999         1.74800396E-09
   14.0990000         1.81904469E-09
   14.2795000         1.85838855E-09
   14.4600000         1.84823101E-09
   14.6405001         1.76630854E-09
   14.8210001         1.58588453E-09
   15.0015001         1.27581534E-09
   15.1820002         8.00627786E-10
   15.3625002         1.20561991E-10
   15.5430002        -8.08449474E-10
   15.7235003        -2.03485384E-09
   15.9040003        -3.61157637E-09
   16.0844994        -5.59607338E-09
   16.2649994        -8.05024758E-09
   16.4454994        -1.10401572E-08
   16.6259995        -1.46354013E-08
   16.8064995        -1.89081284E-08
   16.9869995        -2.39316282E-08
   17.1674995        -2.97784695E-08
   17.3479996        -3.65182551E-08
   17.5284996        -4.42150245E-08
   17.7089996        -5.29244488E-08
   17.8894997        -6.26909298E-08
   18.0699997        -7.35448040E-08
   18.2504997        -8.54998063E-08
   18.4309998        -9.85510127E-08
   18.6114998        -1.12673398E-07
   18.7919998        -1.27821167E-07
   18.9724998        -1.43928006E-07
   19.1529999        -1.60908101E-07
   19.3334999        -1.78658141E-07
   19.5139999        -1.97059904E-07
   19.6945000        -2.15983462E-07
   19.8750000        -2.35290571E-07
   20.0555000        -2.54838113E-07
   20.2360001        -2.74481323E-07
   20.4165001        -2.94076528E-07
   20.5970001        -3.13483355E-07
   20.7775002        -3.32566430E-07
   20.9580002        -3.51196292E-07
   21.1385002        -3.69250074E-07
   21.3190002        -3.86611674E-07
   21.4995003        -4.03172038E-07
   21.6800003        -4.18829330E-07
   21.8605003        -4.33489163E-07
   22.0410004        -4.47065219E-07
   22.2215004        -4.59479793E-07
   22.4020004        -4.70664304E-07
   22.5825005        -4.80559777E-07
   22.7630005        -4.89116985E-07
   22.9435005        -4.96295684E-07
   23.1240005        -5.02063983E-07
   23.3045006        -5.06396418E-07
   23.4850006        -5.09271842E-07
   23.6655006        -5.10671043E-07
   23.8460007        -5.10573955E-07
   24.0265007        -5.08957100E-07
   24.2070007        -5.05791775E-07
   24.3875008        -5.01041939E-07
   24.5680008        -4.94663936E-07
   24.7485008        -4.86605984E-07
   24.9290009        -4.76808765E-07
   25.1095009        -4.65206796E-07
   25.2900009        -4.51730017E-07
   25.4705009        -4.36305839E-07
   25.6509991        -4.18861390E-07
   25.8314991        -3.99326154E-07
   26.0119991        -3.77634393E-07
   26.1924992        -3.53728211E-07
   26.3729992        -3.27560315E-07
   26.5534992        -2.99097763E-07
   26.7339993        -2.68325465E-07
   26.9144993        -2.35250241E-07
   27.0949993        -1.99905202E-07
   27.2754993        -1.62353970E-07
   27.4559994        -1.22694928E-07
   27.6364994        -8.10649254E-08
   27.8169994        -3.76422378E-08
   27.9974995         7.35155670E-09
   28.1779995         5.36511209E-08
   28.3584995         1.00948341E-07
   28.5389996         1.48895026E-07
   28.7194996         1.97107298E-07
   28.8999996         2.45171520E-07
   29.0804996         2.92651492E-07
   29.2609997         3.39096914E-07
   29.4414997         3.84052470E-07
   29.6219997         4.27067420E-07
   29.8024998         4.67705320E-07
   29.9829998         5.05553601E-07
   30.1634998         5.40232691E-07
   30.3439999         5.71404769E-07
   30.5244999         5.98781526E-07
   30.7049999         6.22131722E-07
   30.8855000         6.41286647E-07
   31.0660000         6.56145971E-07
   31.2465000         6.66680762E-07
   31.4270000         6.72936210E-07
   31.6075001         6.75031629E-07
   31.7880001         6.73159093E-07
   31.9685001         6.67579343E-07
   32.1489983         6.58615534E-07
   32.3294983         6.46644651E-07
   32.5099983         6.32086881E-07
   32.6904984         6.15392821E-07
   32.8709984         5.97030066E-07
   33.0514984         5.77468938E-07
   33.2319984         5.57168619E-07
   33.4124985         5.36564301E-07
   33.5929985         5.16056105E-07
   33.7734985         4.96000439E-07
   33.9539986         4.76703946E-07
   34.1344986         4.58420573E-07
   34.3149986         4.41350920E-07
   34.4954987         4.25644430E-07
   34.6759987         4.11403391E-07
   34.8564987         3.98688115E-07
   35.0369987         3.87523016E-07
   35.2174988         3.77902950E-07
   35.3979988         3.69799210E-07
   35.5784988         3.63165071E-07
   35.7589989         3.57940650E-07
   35.9394989         3.54057050E-07
   36.1199989         3.51439468E-07
   36.3004990         3.50010055E-07
   36.4809990         3.49689572E-07
   36.6614990         3.50398921E-07
   36.8419991         3.52059658E-07
   37.0224991         3.54593993E-07
   37.2029991         3.57923767E-07
   37.3834991         3.61968517E-07
   37.5639992         3.66642439E-07
   37.7444992         3.71850348E-07
   37.9249992         3.77482877E-07
   38.1054993         3.83411106E-07
   38.2859993         3.89480988E-07
   38.4664993         3.95508209E-07
   38.6469994         4.01274150E-07
   38.8274994         4.06523327E-07
   39.0079994         4.10963139E-07
   39.1884995         4.14266395E-07
   39.3689995         4.16076631E-07
   39.5494995         4.16017230E-07
   39.7299995         4.13703560E-07
   39.9104996         4.08758353E-07
   40.0909996         4.00829350E-07
   40.2714996         3.89609511E-07
   40.4519997         3.74858018E-07
   40.6324997         3.56422134E-07
   40.8129997         3.34257692E-07
   40.9934998         3.08448250E-07
   41.1739998         2.79220899E-07
   41.3544998         2.46958734E-07
   41.5349998         2.12207411E-07
   41.7154999         1.75676590E-07
   41.8959999         1.38234739E-07
   42.0764999         1.00897985E-07
   42.2570000         6.48117080E-08
   42.4375000         3.12254933E-08
   42.6180000         1.46361889E-09
   42.7985001        -2.31106565E-08
   42.9790001        -4.11339727E-08
   43.1595001        -5.12845446E-08
   43.3400002        -5.23254222E-08
   43.5205002        -4.31464287E-08
   43.7010002        -2.28056187E-08
   43.8815002         9.43296197E-09
   44.0620003         5.40665006E-08
   44.2425003         1.11325804E-07
   44.4230003         1.81155727E-07
   44.6035004         2.63203617E-07
   44.7840004         3.56816770E-07
   44.9645004         4.61049808E-07
   45.1450005         5.74682531E-07
   45.3255005         6.96246275E-07
   45.5060005         8.24059896E-07
   45.6865005         9.56274221E-07
   45.8670006         1.09092196E-06
   46.0475006         1.22597226E-06
   46.2280006         1.35938853E-06
   46.4085007         1.48918571E-06
   46.5890007         1.61348544E-06
   46.7695007         1.73056799E-06
   46.9500008         1.83891700E-06
   47.1305008         1.93725782E-06
   47.3110008         2.02458477E-06
   47.4915009         2.10018175E-06
   47.6720009         2.16362923E-06
   47.8525009         2.21480104E-06
   48.0330009         2.25385224E-06
   48.2135010         2.28119529E-06
   48.3940010         2.29746774E-06
   48.5745010         2.30349178E-06
   48.7550011         2.30022988E-06
   48.9355011         2.28873273E-06
   49.1160011         2.27008877E-06
   49.2965012         2.24537166E-06
   49.4770012         2.21559026E-06
   49.6575012         2.18164473E-06
   49.8380013         2.14428587E-06
   50.0185013         2.10408621E-06
   50.1990013         2.06141499E-06
   50.3795013         2.01642547E-06
   50.5600014         1.96905080E-06
   50.7405014         1.91900767E-06
   50.9210014         1.86580826E-06
   51.1015015         1.80877976E-06
   51.2820015         1.74708862E-06
   51.4625015         1.67977112E-06
   51.6430016         1.60576417E-06
   51.8235016         1.52394000E-06
   52.0040016         1.43314060E-06
   52.1845016         1.33221181E-06
   52.3650017         1.22003451E-06
   52.5455017         1.09555424E-06
   52.7260017         9.57807288E-07
   52.9065018         8.05941511E-07
   53.0870018         6.39234202E-07
   53.2675018         4.57105301E-07
   53.4480019         2.59126608E-07
   53.6285019         4.50276083E-08
   53.8089981        -1.85301190E-07
   53.9894981        -4.31806370E-07
   54.1699982        -6.94272330E-07
   54.3504982        -9.72319981E-07
   54.5309982        -1.26540726E-06
   54.7114983        -1.57282818E-06
   54.8919983        -1.89371133E-06
   55.0724983        -2.22702033E-06
   55.2529984        -2.57154966E-06
   55.4334984        -2.92592813E-06
   55.6139984        -3.28861779E-06
   55.7944984        -3.65791743E-06
   55.9749985        -4.03196736E-06
   56.1554985        -4.40875692E-06
   56.3359985        -4.78613265E-06
   56.5164986        -5.16181262E-06
   56.6969986        -5.53340033E-06
   56.8774986        -5.89840101E-06
   57.0579987        -6.25424445E-06
   57.2384987        -6.59830721E-06
   57.4189987        -6.92794174E-06
   57.5994987        -7.24050506E-06
   57.7799988        -7.53339418E-06
   57.9604988        -7.80407845E-06
   58.1409988        -8.05013951E-06
   58.3214989        -8.26931046E-06
   58.5019989        -8.45950854E-06
   58.6824989        -8.61887656E-06
   58.8629990        -8.74581656E-06
   59.0434990        -8.83901885E-06
   59.2239990        -8.89749117E-06
   59.4044991        -8.92058233E-06
   59.5849991        -8.90799856E-06
   59.7654991        -8.85982081E-06
   59.9459991        -8.77651109E-06
   60.1264992        -8.65892252E-06
   60.3069992        -8.50829110E-06
   60.4874992        -8.32623664E-06
   60.6679993        -8.11474547E-06
   60.8484993        -7.87616045E-06
   61.0289993        -7.61315596E-06
   61.2094994        -7.32870922E-06
   61.3899994        -7.02607576E-06
   61.5704994        -6.70875306E-06
   61.7509995        -6.38044366E-06
   61.9314995        -6.04501383E-06
   62.1119995        -5.70645443E-06
   62.2924995        -5.36883363E-06
   62.4729996        -5.03625233E-06
   62.6534996        -4.71279236E-06
   62.8339996        -4.40246777E-06
   63.0144997        -4.10916618E-06
   63.1949997        -3.83659426E-06
   63.3754997        -3.58821808E-06
   63.5559998        -3.36720268E-06
   63.7364998        -3.17635272E-06
   63.9169998        -3.01805471E-06
   64.0975037        -2.89422201E-06
   64.2779999        -2.80624408E-06
   64.4585037        -2.75494290E-06
   64.6389999        -2.74053536E-06
   64.8195038        -2.76260357E-06
   65.0000000        -2.82007568E-06
   65.1804962        -2.91121341E-06
   65.3610001        -3.03361230E-06
   65.5414963        -3.18420985E-06
   65.7220001        -3.35930736E-06
   65.9024963        -3.55460088E-06
   66.0830002        -3.76522439E-06
   66.2634964        -3.98580733E-06
   66.4440002        -4.21053983E-06
   66.6244965        -4.43325462E-06
   66.8050003        -4.64751383E-06
   66.9854965        -4.84670772E-06
   67.1660004        -5.02416151E-06
   67.3464966        -5.17324452E-06
   67.5270004        -5.28748615E-06
   67.7074966        -5.36068865E-06
   67.8880005        -5.38704307E-06
   68.0684967        -5.36123525E-06
   68.2490005        -5.27855036E-06
   68.4294968        -5.13496343E-06
   68.6100006        -4.92722120E-06
   68.7904968        -4.65290714E-06
   68.9710007        -4.31048875E-06
   69.1514969        -3.89934712E-06
   69.3320007        -3.41978534E-06
   69.5124969        -2.87301077E-06
   69.6930008        -2.26109978E-06
   69.8734970        -1.58694229E-06
   70.0540009        -8.54160305E-07
   70.2344971        -6.70165576E-08
   70.4150009         7.69693258E-07
   70.5954971         1.65075551E-06
   70.7760010         2.57065949E-06
   70.9564972         3.52371990E-06
   71.1370010         4.50419702E-06
   71.3174973         5.50640561E-06
   71.4980011         6.52482913E-06
   71.6784973         7.55420388E-06
   71.8590012         8.58960266E-06
   72.0394974         9.62650756E-06
   72.2200012         1.06608477E-05
   72.4004974         1.16890424E-05
   72.5810013         1.27080184E-05
   72.7614975         1.37151983E-05
   72.9420013         1.47084875E-05
   73.1224976         1.56862370E-05
   73.3030014         1.66471928E-05
   73.4834976         1.75904279E-05
   73.6640015         1.85152821E-05
   73.8444977         1.94212698E-05
   74.0250015         2.03080126E-05
   74.2054977         2.11751649E-05
   74.3860016         2.20223410E-05
   74.5664978         2.28490608E-05
   74.7470016         2.36546930E-05
   74.9274979         2.44384264E-05
   75.1080017         2.51992442E-05
   75.2884979         2.59359003E-05
   75.4690018         2.66469324E-05
   75.6494980         2.73306559E-05
   75.8300018         2.79851829E-05
   76.0104980         2.86084414E-05
   76.1910019         2.91982051E-05
   76.3714981         2.97521183E-05
   76.5520020         3.02677236E-05
   76.7324982         3.07425107E-05
   76.9130020         3.11739350E-05
   77.0934982         3.15594443E-05
   77.2740021         3.18965285E-05
   77.4544983         3.21827283E-05
   77.6350021         3.24156645E-05
   77.8154984         3.25930487E-05
   77.9960022         3.27126982E-05
   78.1764984         3.27725465E-05
   78.3570023         3.27706402E-05
   78.5374985         3.27051457E-05
   78.7180023         3.25743313E-05
   78.8984985         3.23765707E-05
   79.0790024         3.21103253E-05
   79.2594986         3.17741287E-05
   79.4400024         3.13665878E-05
   79.6204987         3.08863637E-05
   79.8010025         3.03321685E-05
   79.9814987         2.97027600E-05
   80.1620026         2.89969412E-05
   80.3424988         2.82135861E-05
   80.5230026         2.73516271E-05
   80.7034988         2.64101091E-05
   80.8840027         2.53881917E-05
   81.0644989         2.42851966E-05
   81.2450027         2.31006361E-05
   81.4254990         2.18342611E-05
   81.6060028         2.04860735E-05
   81.7864990         1.90564006E-05
   81.9670029         1.75459008E-05
   82.1474991         1.59556221E-05
   82.3280029         1.42870276E-05
   82.5084991         1.25420402E-05
   82.6890030         1.07230771E-05
   82.8694992         8.83308985E-06
