  -7.19999981       0.00000000    
  -7.01999998       0.00000000    
  -6.84000015       0.00000000    
  -6.65999985       0.00000000    
  -6.48000002       0.00000000    
  -6.30000019       0.00000000    
  -6.11999989       0.00000000    
  -5.94000006       0.00000000    
  -5.76000023       0.00000000    
  -5.57999992       0.00000000    
  -5.40000010       0.00000000    
  -5.21999979       0.00000000    
  -5.03999996       0.00000000    
  -4.86000013       0.00000000    
  -4.67999983       0.00000000    
  -4.50000000       1.03696086E-43
  -4.32000017       1.46575819E-42
  -4.13999987       1.75162308E-43
  -3.96000004      -2.32699623E-41
  -3.77999997      -1.54187673E-40
  -3.59999990      -9.26528736E-40
  -3.42000008      -4.21578681E-39
  -3.24000001       1.09219094E-38
  -3.05999994       5.96032437E-38
  -2.88000011       1.05449716E-37
  -2.70000005      -9.52015944E-38
  -2.51999998      -8.44795447E-37
  -2.33999991      -1.64426756E-36
  -2.16000009      -3.57232681E-37
  -1.98000002       5.11674955E-36
  -1.79999995       1.17505067E-35
  -1.62000000       8.08728706E-36
  -1.44000006      -1.75533679E-35
  -1.25999999      -5.58458655E-35
  -1.08000004      -6.49599300E-35
 -0.899999976      -7.97858809E-37
 -0.720000029       1.21837797E-34
 -0.540000021       2.18979399E-34
 -0.360000014       2.42409641E-34
 -0.180000007       2.75667269E-34
   4.44089210E-16   3.24393416E-34
  0.180000007      -2.19483805E-34
  0.360000014      -2.60643942E-33
  0.540000021      -6.92360809E-33
  0.720000029      -8.69695961E-33
  0.899999976       1.96205619E-33
   1.08000004       3.21178382E-32
   1.25999999       6.79347925E-32
   1.44000006       6.19494045E-32
   1.62000000      -4.55124229E-32
   1.79999995      -2.55427164E-31
   1.98000002      -4.28126845E-31
   2.16000009      -2.91483502E-31
   2.33999991       3.67103712E-31
   2.51999998       1.37308085E-30
   2.70000005       1.97112046E-30
   2.88000011       1.12414848E-30
   3.05999994      -1.61045942E-30
   3.24000001      -5.14502931E-30
   3.42000008      -6.84057741E-30
   3.59999990      -4.03421310E-30
   3.77999997       3.53768956E-30
   3.96000004       1.24065323E-29
   4.13999987       1.69620036E-29
   4.32000017       1.34885302E-29
   4.50000000       3.27133194E-30
   4.67999983      -8.87510347E-30
   4.86000013      -2.01789370E-29
   5.03999996      -3.34314897E-29
   5.21999979      -5.16893717E-29
   5.40000010      -6.58935083E-29
   5.57999992      -4.92671146E-29
   5.76000023       2.59325624E-29
   5.94000006       1.52179605E-28
   6.11999989       2.62393944E-28
   6.30000019       2.57820414E-28
   6.48000002       9.25866386E-29
   6.65999985      -1.46157126E-28
   6.84000015      -2.58958614E-28
   7.01999998      -9.64619045E-29
   7.19999981       2.32114377E-28
   7.38000011       3.08881704E-28
   7.55999994      -3.33704991E-28
   7.73999977      -1.73464042E-27
   7.92000008      -3.15956530E-27
   8.10000038      -3.26870795E-27
   8.27999973      -8.55131095E-28
   8.46000004       4.25317708E-27
   8.64000034       1.07259176E-26
   8.81999969       1.59766366E-26
   9.00000000       1.68283152E-26
   9.18000031       1.01009178E-26
   9.35999966      -6.84389066E-27
   9.53999996      -3.47668904E-26
   9.72000027      -6.96623467E-26
   9.89999962      -9.92204780E-26
   10.0799999      -1.01953394E-25
   10.2600002      -5.30932910E-26
   10.4399996       6.15104368E-26
   10.6199999       2.28238710E-25
   10.8000002       3.95242807E-25
   10.9799995       4.78361309E-25
   11.1599998       3.85969574E-25
   11.3400002       5.53830830E-26
   11.5200005      -5.12305402E-25
   11.6999998      -1.22977469E-24
   11.8800001      -1.91738204E-24
   12.0600004      -2.31431516E-24
   12.2399998      -2.11288702E-24
   12.4200001      -1.02840384E-24
   12.6000004       1.08936583E-24
   12.7799997       4.12460105E-24
   12.9600000       7.60194804E-24
   13.1400003       1.07052566E-23
   13.3199997       1.24514152E-23
   13.5000000       1.19882813E-23
   13.6800003       8.91216239E-24
   13.8599997       3.48124633E-24
   14.0400000      -3.34313256E-24
   14.2200003      -1.00061302E-23
   14.3999996      -1.45496322E-23
   14.5799999      -1.48502497E-23
   14.7600002      -8.95785952E-24
   14.9399996       4.37861900E-24
   15.1199999       2.50117248E-23
   15.3000002       5.07347687E-23
   15.4799995       7.70160989E-23
   15.6599998       9.74102359E-23
   15.8400002       1.04610782E-22
   16.0200005       9.17359215E-23
   16.2000008       5.32681860E-23
   16.3799992      -1.47529027E-23
   16.5599995      -1.15323222E-22
   16.7399998      -2.51666268E-22
   16.9200001      -4.29011641E-22
   17.1000004      -6.57362563E-22
   17.2800007      -9.55818406E-22
   17.4599991      -1.35848956E-21
   17.6399994      -1.92083051E-21
   17.8199997      -2.72398472E-21
   18.0000000      -3.87449177E-21
   18.1800003      -5.49779657E-21
   18.3600006      -7.72608099E-21
   18.5400009      -1.06827670E-20
   18.7199993      -1.44665892E-20
   18.8999996      -1.91372306E-20
   19.0799999      -2.47034436E-20
   19.2600002      -3.11142404E-20
   19.4400005      -3.82547220E-20
   19.6200008      -4.59497667E-20
   19.7999992      -5.39784690E-20
   19.9799995      -6.20995311E-20
   20.1599998      -7.00833621E-20
   20.3400002      -7.77428607E-20
   20.5200005      -8.49532196E-20
   20.7000008      -9.16538608E-20
   20.8799992      -9.78287511E-20
   21.0599995      -1.03464087E-19
   21.2399998      -1.08483135E-19
   21.4200001      -1.12657683E-19
   21.6000004      -1.15498505E-19
   21.7800007      -1.16133586E-19
   21.9599991      -1.13192455E-19
   22.1399994      -1.04721583E-19
   22.3199997      -8.81557204E-20
   22.5000000      -6.03624260E-20
   22.6800003      -1.77650769E-20
   22.8600006       4.34623054E-20
   23.0400009       1.27134649E-19
   23.2199993       2.36742736E-19
   23.3999996       3.75090219E-19
   23.5799999       5.43889244E-19
   23.7600002       7.43327763E-19
   23.9400005       9.71626407E-19
   24.1200008       1.22461567E-18
   24.2999992       1.49536191E-18
   24.4799995       1.77388427E-18
   24.6599998       2.04700773E-18
   24.8400002       2.29840963E-18
   25.0200005       2.50892276E-18
   25.2000008       2.65712209E-18
   25.3799992       2.72020247E-18
   25.5599995       2.67510624E-18
   25.7399998       2.49981881E-18
   25.9200001       2.17474841E-18
   26.1000004       1.68412535E-18
   26.2800007       1.01738604E-18
   26.4599991       1.70518307E-19
   26.6399994      -8.52644385E-19
   26.8199997      -2.03922169E-18
   27.0000000      -3.36629215E-18
   27.1800003      -4.80018782E-18
   27.3600006      -6.29626225E-18
   27.5400009      -7.79924942E-18
   27.7199993      -9.24439351E-18
   27.8999996      -1.05594204E-17
   28.0799999      -1.16673949E-17
   28.2600002      -1.24903735E-17
   28.4400005      -1.29536046E-17
   28.6200008      -1.29899360E-17
   28.7999992      -1.25440931E-17
   28.9799995      -1.15765176E-17
   29.1599998      -1.00666913E-17
   29.3400002      -8.01593435E-18
   29.5200005      -5.44973554E-18
   29.7000008      -2.41958229E-18
   29.8799992       9.96065561E-19
   30.0599995       4.69206250E-18
   30.2399998       8.53870009E-18
   30.4200001       1.23859990E-17
   30.6000004       1.60704004E-17
   30.7800007       1.94234184E-17
   30.9599991       2.22818254E-17
   31.1399994       2.44983468E-17
   31.3199997       2.59518570E-17
   31.5000000       2.65562299E-17
   31.6800003       2.62666604E-17
   31.8600006       2.50832479E-17
   32.0400009       2.30516658E-17
   32.2200012       2.02612134E-17
   32.4000015       1.68411872E-17
   32.5800018       1.29558983E-17
   32.7599983       8.79855722E-18
   32.9399986       4.58352978E-18
   33.1199989       5.36151796E-19
   33.2999992      -3.12071174E-18
   33.4799995      -6.18324498E-18
   33.6599998      -8.48531799E-18
   33.8400002      -9.91715356E-18
   34.0200005      -1.04409690E-17
   34.2000008      -1.01013228E-17
   34.3800011      -9.02789635E-18
   34.5600014      -7.43018294E-18
   34.7400017      -5.58439061E-18
   34.9199982      -3.81435521E-18
   35.0999985      -2.46821017E-18
   35.2799988      -1.89372082E-18
   35.4599991      -2.41405465E-18
   35.6399994      -4.30504785E-18
   35.8199997      -7.77465321E-18
   36.0000000      -1.29433723E-17
   36.1800003      -1.98250907E-17
   36.3600006      -2.83080793E-17
   36.5400009      -3.81376816E-17
   36.7200012      -4.89038343E-17
   36.9000015      -6.00378740E-17
   37.0800018      -7.08228467E-17
   37.2599983      -8.04198094E-17
   37.4399986      -8.79100490E-17
   37.6199989      -9.23502685E-17
   37.7999992      -9.28353470E-17
   37.9799995      -8.85625290E-17
   38.1599998      -7.88912260E-17
   38.3400002      -6.33943082E-17
   38.5200005      -4.18988785E-17
   38.7000008      -1.45164490E-17
   38.8800011       1.83362681E-17
   39.0600014       5.59245232E-17
   39.2400017       9.71906780E-17
   39.4199982       1.40759326E-16
   39.5999985       1.84956672E-16
   39.7799988       2.27849322E-16
   39.9599991       2.67306869E-16
   40.1399994       3.01089058E-16
   40.3199997       3.26954850E-16
   40.5000000       3.42784916E-16
   40.6800003       3.46707500E-16
   40.8600006       3.37216363E-16
   41.0400009       3.13270636E-16
   41.2200012       2.74371045E-16
   41.4000015       2.20609758E-16
   41.5800018       1.52695146E-16
   41.7599983       7.19542445E-17
   41.9399986      -1.96831217E-17
   42.1199989      -1.19716725E-16
   42.2999992      -2.25126614E-16
   42.4799995      -3.32446270E-16
   42.6599998      -4.37864524E-16
   42.8400002      -5.37360772E-16
   43.0200005      -6.26872726E-16
   43.2000008      -7.02487092E-16
   43.3800011      -7.60638339E-16
   43.5600014      -7.98294830E-16
   43.7400017      -8.13114678E-16
   43.9199982      -8.03558822E-16
   44.0999985      -7.68957315E-16
   44.2799988      -7.09530807E-16
   44.4599991      -6.26374247E-16
   44.6399994      -5.21410083E-16
   44.8199997      -3.97316315E-16
   45.0000000      -2.57433641E-16
   45.1800003      -1.05652603E-16
   45.3600006       5.37202324E-17
   45.5400009       2.16120231E-16
   45.7200012       3.76909492E-16
   45.9000015       5.31587713E-16
   46.0800018       6.76019272E-16
   46.2599983       8.06658804E-16
   46.4399986       9.20747684E-16
   46.6199989       1.01645510E-15
   46.7999992       1.09294673E-15
   46.9799995       1.15037567E-15
   47.1599998       1.18980929E-15
   47.3400002       1.21311042E-15
   47.5200005       1.22279212E-15
   47.7000008       1.22185604E-15
   47.8800011       1.21361684E-15
   48.0600014       1.20150501E-15
   48.2400017       1.18884208E-15
   48.4199982       1.17858674E-15
   48.5999985       1.17305688E-15
   48.7799988       1.17364017E-15
   48.9599991       1.18051003E-15
   49.1399994       1.19237516E-15
   49.3199997       1.20629583E-15
   49.5000000       1.21760086E-15
   49.6800003       1.21993359E-15
   49.8600006       1.20544022E-15
   50.0400009       1.16508545E-15
   50.2200012       1.08906668E-15
   50.4000015       9.67278803E-16
   50.5800018       7.89795966E-16
   50.7599983       5.47343691E-16
   50.9399986       2.31758696E-16
   51.1199989      -1.63558370E-16
   51.2999992      -6.43190763E-16
   51.4799995      -1.20925611E-15
   51.6599998      -1.86097437E-15
   51.8400002      -2.59428108E-15
   52.0200005      -3.40151300E-15
   52.2000008      -4.27120302E-15
   52.3800011      -5.18801370E-15
   52.5600014      -6.13283279E-15
   52.7400017      -7.08304239E-15
   52.9199982      -8.01295455E-15
   53.0999985      -8.89438551E-15
   53.2799988      -9.69731938E-15
   53.4599991      -1.03906472E-14
   53.6399994      -1.09429177E-14
   53.8199997      -1.13231246E-14
   54.0000000      -1.15015292E-14
   54.1800003      -1.14505234E-14
   54.3600006      -1.11455407E-14
   54.5400009      -1.05659974E-14
   54.7200012      -9.69621993E-15
   54.9000015      -8.52632089E-15
   55.0800018      -7.05295875E-15
   55.2599983      -5.27993710E-15
   55.4399986      -3.21859116E-15
   55.6199989      -8.87937227E-16
   55.7999992       1.68542288E-15
   55.9799995       4.46761091E-15
   56.1599998       7.41794779E-15
   56.3400002       1.04895425E-14
   56.5200005       1.36299451E-14
   56.7000008       1.67818826E-14
   56.8800011       1.98840849E-14
   57.0600014       2.28722596E-14
   57.2400017       2.56802043E-14
   57.4199982       2.82411034E-14
   57.5999985       3.04889137E-14
   57.7799988       3.23598367E-14
   57.9599991       3.37937821E-14
   58.1399994       3.47358115E-14
   58.3199997       3.51375152E-14
   58.5000000       3.49582322E-14
   58.6800003       3.41661446E-14
   58.8600006       3.27391414E-14
   59.0400009       3.06655234E-14
   59.2200012       2.79445300E-14
   59.4000015       2.45867627E-14
   59.5800018       2.06145204E-14
   59.7599983       1.60619808E-14
   59.9399986       1.09751872E-14
   60.1199989       5.41173670E-15
   60.2999992      -5.59852567E-16
   60.4799995      -6.86104819E-15
   60.6599998      -1.34044099E-14
   60.8400002      -2.00947809E-14
   61.0200005      -2.68305055E-14
   61.2000008      -3.35046694E-14
   61.3800011      -4.00064063E-14
   61.5600014      -4.62222661E-14
   61.7400017      -5.20378012E-14
   61.9199982      -5.73391906E-14
   62.0999985      -6.20151784E-14
   62.2799988      -6.59590587E-14
   62.4599991      -6.90709629E-14
   62.6399994      -7.12602313E-14
   62.8199997      -7.24477919E-14
   63.0000000      -7.25683755E-14
   63.1800003      -7.15723257E-14
   63.3600006      -6.94269539E-14
   63.5400009      -6.61173793E-14
   63.7200012      -6.16470172E-14
   63.9000015      -5.60377652E-14
   64.0800018      -4.93300842E-14
   64.2600021      -4.15829412E-14
   64.4400024      -3.28735655E-14
   64.6200027      -2.32969721E-14
   64.8000031      -1.29651335E-14
   64.9800034      -2.00583733E-15
   65.1600037       9.43882102E-15
   65.3399963       2.12142773E-14
   65.5199966       3.31556444E-14
   65.6999969       4.50901286E-14
   65.8799973       5.68395970E-14
   66.0599976       6.82232252E-14
   66.2399979       7.90601241E-14
   66.4199982       8.91719898E-14
   66.5999985       9.83858177E-14
   66.7799988       1.06536897E-13
   66.9599991       1.13472111E-13
   67.1399994       1.19053544E-13
   67.3199997       1.23162168E-13
   67.5000000       1.25701397E-13
   67.6800003       1.26600011E-13
   67.8600006       1.25814452E-13
   68.0400009       1.23330138E-13
   68.2200012       1.19161652E-13
   68.4000015       1.13352205E-13
   68.5800018       1.05972055E-13
   68.7600021       9.71164948E-14
   68.9400024       8.69034255E-14
   69.1200027       7.54709541E-14
   69.3000031       6.29750023E-14
   69.4800034       4.95870468E-14
   69.6600037       3.54917376E-14
   69.8399963       2.08841496E-14
   70.0199966       5.96666144E-15
   70.1999969      -9.05467972E-15
   70.3799973      -2.39740377E-14
   70.5599976      -3.85897606E-14
   70.7399979      -5.27082819E-14
   70.9199982      -6.61479064E-14
   71.0999985      -7.87424528E-14
   71.2799988      -9.03447645E-14
   71.4599991      -1.00830016E-13
   71.6399994      -1.10098677E-13
   71.8199997      -1.18079049E-13
   72.0000000      -1.24729342E-13
   72.1800003      -1.30039181E-13
   72.3600006      -1.34030401E-13
   72.5400009      -1.36756912E-13
   72.7200012      -1.38303309E-13
   72.9000015      -1.38781849E-13
   73.0800018      -1.38328205E-13
   73.2600021      -1.37096077E-13
   73.4400024      -1.35251375E-13
   73.6200027      -1.32966582E-13
   73.8000031      -1.30415589E-13
   73.9800034      -1.27769120E-13
   74.1600037      -1.25190548E-13
   74.3399963      -1.22831866E-13
   74.5199966      -1.20829941E-13
   74.6999969      -1.19302924E-13
   74.8799973      -1.18346901E-13
   75.0599976      -1.18032957E-13
   75.2399979      -1.18404540E-13
   75.4199982      -1.19475149E-13
   75.5999985      -1.21226610E-13
   75.7799988      -1.23608087E-13
   75.9599991      -1.26536192E-13
   76.1399994      -1.29896013E-13
   76.3199997      -1.33543038E-13
   76.5000000      -1.37305382E-13
   76.6800003      -1.40986018E-13
   76.8600006      -1.44364962E-13
   77.0400009      -1.47201817E-13
   77.2200012      -1.49239101E-13
   77.4000015      -1.50206711E-13
   77.5800018      -1.49827877E-13
   77.7600021      -1.47826142E-13
   77.9400024      -1.43932921E-13
   78.1200027      -1.37895378E-13
   78.3000031      -1.29483840E-13
   78.4800034      -1.18498649E-13
   78.6600037      -1.04775902E-13
   78.8399963      -8.81921353E-14
   79.0199966      -6.86672331E-14
   79.1999969      -4.61663280E-14
   79.3799973      -2.07004857E-14
   79.5599976       7.67284372E-15
   79.7399979       3.88495049E-14
   79.9199982       7.26785236E-14
   80.0999985       1.08962169E-13
   80.2799988       1.47457025E-13
   80.4599991       1.87876204E-13
   80.6399994       2.29892982E-13
   80.8199997       2.73145330E-13
   81.0000000       3.17241323E-13
   81.1800003       3.61764790E-13
   81.3600006       4.06281210E-13
   81.5400009       4.50343593E-13
   81.7200012       4.93497929E-13
   81.9000015       5.35288665E-13
   82.0800018       5.75263958E-13
   82.2600021       6.12981020E-13
   82.4400024       6.48011647E-13
   82.6200027       6.79948827E-13
   82.8000031       7.08413363E-13
   82.9800034       7.33060693E-13
   83.1600037       7.53586700E-13
   83.3399963       7.69732314E-13
   83.5199966       7.81286440E-13
   83.6999969       7.88087694E-13
   83.8799973       7.90025326E-13
   84.0599976       7.87039867E-13
   84.2399979       7.79123510E-13
   84.4199982       7.66320655E-13
   84.5999985       7.48727360E-13
   84.7799988       7.26490482E-13
   84.9599991       6.99805556E-13
   85.1399994       6.68913763E-13
   85.3199997       6.34096454E-13
   85.5000000       5.95668100E-13
   85.6800003       5.53966974E-13
   85.8600006       5.09344845E-13
   86.0400009       4.62156463E-13
   86.2200012       4.12750861E-13
   86.4000015       3.61465469E-13
   86.5800018       3.08622431E-13
   86.7600021       2.54527736E-13
   86.9400024       1.99471014E-13
   87.1200027       1.43725350E-13
   87.3000031       8.75469199E-14
   87.4800034       3.11740515E-14
   87.6600037      -2.51743139E-14
   87.8399963      -8.13005398E-14
   88.0199966      -1.37030564E-13
   88.1999969      -1.92216997E-13
   88.3799973      -2.46741673E-13
   88.5599976      -3.00518101E-13
   88.7399979      -3.53492436E-13
   88.9199982      -4.05643157E-13
   89.0999985      -4.56980374E-13
   89.2799988      -5.07544636E-13
   89.4599991      -5.57405521E-13
   89.6399994      -6.06659688E-13
   89.8199997      -6.55427969E-13
   90.0000000      -7.03848926E-13
   90.1800003      -7.52070661E-13
   90.3600006      -8.00239920E-13
   90.5400009      -8.48491579E-13
   90.7200012      -8.96938448E-13
   90.9000015      -9.45664120E-13
   91.0800018      -9.94718522E-13
   91.2600021      -1.04411716E-12
   91.4400024      -1.09384203E-12
   91.6200027      -1.14384630E-12
   91.8000031      -1.19405863E-12
   91.9800034      -1.24438925E-12
   92.1600037      -1.29473396E-12
   92.3399963      -1.34497686E-12
   92.5199966      -1.39499024E-12
   92.6999969      -1.44463348E-12
   92.8799973      -1.49375098E-12
   93.0599976      -1.54217069E-12
   93.2399979      -1.58970450E-12
   93.4199982      -1.63614933E-12
   93.5999985      -1.68128857E-12
   93.7799988      -1.72489399E-12
   93.9599991      -1.76672511E-12
   94.1399994      -1.80652997E-12
   94.3199997      -1.84404358E-12
   94.5000000      -1.87898720E-12
   94.6800003      -1.91106983E-12
   94.8600006      -1.93998853E-12
   95.0400009      -1.96543433E-12
   95.2200012      -1.98709690E-12
   95.4000015      -2.00467355E-12
   95.5800018      -2.01787653E-12
   95.7600021      -2.02643978E-12
   95.9400024      -2.03012108E-12
   96.1200027      -2.02870164E-12
   96.3000031      -2.02198067E-12
   96.4800034      -2.00976735E-12
   96.6600037      -1.99187173E-12
   96.8399963      -1.96809604E-12
   97.0199966      -1.93822606E-12
   97.1999969      -1.90202454E-12
   97.3799973      -1.85922501E-12
   97.5599976      -1.80953061E-12
   97.7399979      -1.75261129E-12
   97.9199982      -1.68810669E-12
   98.0999985      -1.61562712E-12
   98.2799988      -1.53475670E-12
   98.4599991      -1.44505924E-12
   98.6399994      -1.34608394E-12
   98.8199997      -1.23737468E-12
   99.0000000      -1.11848519E-12
   99.1800003      -9.88993067E-13
   99.3600006      -8.48517545E-13
   99.5400009      -6.96733578E-13
   99.7200012      -5.33384263E-13
   99.9000015      -3.58288052E-13
   100.080002      -1.71344276E-13
   100.260002       2.74635407E-14
   100.440002       2.38065129E-13
   100.620003       4.60302152E-13
