  -7.19999981         0.00000000    
  -7.01999998         0.00000000    
  -6.84000015         7.82531161E-19
  -6.65999985         7.25271961E-18
  -6.48000002         3.23105350E-17
  -6.30000019         9.62183834E-17
  -6.11999989         2.16322434E-16
  -5.94000006         3.84249800E-16
  -5.76000023         5.31325821E-16
  -5.57999992         4.86703067E-16
  -5.40000010        -6.42829384E-17
  -5.21999979        -1.61223245E-15
  -5.03999996        -4.83707990E-15
  -4.86000013        -1.05964787E-14
  -4.67999983        -1.98891637E-14
  -4.50000000        -3.38021711E-14
  -4.32000017        -5.34597425E-14
  -4.13999987        -7.99970441E-14
  -3.96000004        -1.14580627E-13
  -3.77999997        -1.58489243E-13
  -3.59999990        -2.13255778E-13
  -3.42000008        -2.80857396E-13
  -3.24000001        -3.63930647E-13
  -3.05999994        -4.65981854E-13
  -2.88000011        -5.91562660E-13
  -2.70000005        -7.46381472E-13
  -2.51999998        -9.37328123E-13
  -2.33999991        -1.17239844E-12
  -2.16000009        -1.46051639E-12
  -1.98000002        -1.81126826E-12
  -1.79999995        -2.23457255E-12
  -1.62000000        -2.74031687E-12
  -1.44000006        -3.33799286E-12
  -1.25999999        -4.03634981E-12
  -1.08000004        -4.84307820E-12
 -0.899999976        -5.76452731E-12
 -0.720000029        -6.80543772E-12
 -0.540000021        -7.96868301E-12
 -0.360000014        -9.25497179E-12
 -0.180000007        -1.06624822E-11
   0.00000000        -1.21863847E-11
  0.180000007        -1.38182252E-11
  0.360000014        -1.55451364E-11
  0.540000021        -1.73489417E-11
  0.720000029        -1.92051600E-11
  0.899999976        -2.10820441E-11
   1.08000004        -2.29397369E-11
   1.25999999        -2.47296506E-11
   1.44000006        -2.63942236E-11
   1.62000000        -2.78671235E-11
   1.79999995        -2.90739776E-11
   1.98000002        -2.99336320E-11
   2.16000009        -3.03599125E-11
   2.33999991        -3.02637256E-11
   2.51999998        -2.95552575E-11
   2.70000005        -2.81461486E-11
   2.88000011        -2.59513157E-11
   3.05999994        -2.28904135E-11
   3.24000001        -1.88889165E-11
   3.42000008        -1.38790108E-11
   3.59999990        -7.80057876E-12
   3.77999997        -6.02604663E-13
   3.96000004         7.75475344E-12
   4.13999987         1.72974326E-11
   4.32000017         2.80341670E-11
   4.50000000         3.99531380E-11
   4.67999983         5.30191759E-11
   4.86000013         6.71719208E-11
   5.03999996         8.23254589E-11
   5.21999979         9.83691739E-11
   5.40000010         1.15169325E-10
   5.57999992         1.32570607E-10
   5.76000023         1.50396806E-10
   5.94000006         1.68450129E-10
   6.11999989         1.86509613E-10
   6.30000019         2.04329789E-10
   6.48000002         2.21641649E-10
   6.65999985         2.38158271E-10
   6.84000015         2.53586846E-10
   7.01999998         2.67647599E-10
   7.19999981         2.80098111E-10
   7.38000011         2.90758834E-10
   7.55999994         2.99534203E-10
   7.73999977         3.06423470E-10
   7.92000008         3.11515230E-10
   8.10000038         3.14965304E-10
   8.27999973         3.16958876E-10
   8.46000004         3.17665366E-10
   8.64000034         3.17197851E-10
   8.81999969         3.15589554E-10
   9.00000000         3.12801118E-10
   9.18000031         3.08765652E-10
   9.35999966         3.03471442E-10
   9.53999996         2.97072533E-10
   9.72000027         2.90008573E-10
   9.89999962         2.83105761E-10
   10.0799999         2.77631890E-10
   10.2600002         2.75280493E-10
   10.4399996         2.78069734E-10
   10.6199999         2.88157914E-10
   10.8000002         3.07596199E-10
   10.9799995         3.38054890E-10
   11.1599998         3.80570575E-10
   11.3400002         4.35364828E-10
   11.5200005         5.01778175E-10
   11.6999998         5.78341597E-10
   11.8800001         6.62986832E-10
   12.0600004         7.53364815E-10
   12.2399998         8.47217629E-10
   12.4200001         9.42731559E-10
   12.6000004         1.03879072E-09
   12.7799997         1.13506426E-09
   12.9600000         1.23187871E-09
   13.1400003         1.32986189E-09
   13.3199997         1.42937873E-09
   13.5000000         1.52981416E-09
   13.6800003         1.62877634E-09
   13.8599997         1.72131076E-09
   14.0400000         1.79919901E-09
   14.2200003         1.85040860E-09
   14.3999996         1.85871829E-09
   14.5799999         1.80352333E-09
   14.7600002         1.65978586E-09
   14.9399996         1.39808087E-09
   15.1199999         9.84675341E-10
   15.3000002         3.81586623E-10
   15.4799995        -4.53413695E-10
   15.6599998        -1.56685354E-09
   15.8400002        -3.00965608E-09
   16.0200005        -4.83721463E-09
   16.2000008        -7.10936865E-09
   16.3799992        -9.89019622E-09
   16.5599995        -1.32475373E-08
   16.7399998        -1.72521570E-08
   16.9200001        -2.19765059E-08
   17.1000004        -2.74930567E-08
   17.2800007        -3.38722224E-08
   17.4599991        -4.11799093E-08
   17.6399994        -4.94748171E-08
   17.8199997        -5.88056004E-08
   18.0000000        -6.92080420E-08
   18.1800003        -8.07024492E-08
   18.3600006        -9.32913835E-08
   18.5400009        -1.06958026E-07
   18.7199993        -1.21665181E-07
   18.8999996        -1.37355144E-07
   19.0799999        -1.53950438E-07
   19.2600002        -1.71355353E-07
   19.4400005        -1.89458376E-07
   19.6200008        -2.08135035E-07
   19.7999992        -2.27251235E-07
   19.9799995        -2.46666673E-07
   20.1599998        -2.66238118E-07
   20.3400002        -2.85822324E-07
   20.5200005        -3.05278490E-07
   20.7000008        -3.24470108E-07
   20.8799992        -3.43266237E-07
   21.0599995        -3.61542192E-07
   21.2399998        -3.79179880E-07
   21.4200001        -3.96068117E-07
   21.6000004        -4.12102736E-07
   21.7800007        -4.27186819E-07
   21.9599991        -4.41231151E-07
   22.1399994        -4.54154758E-07
   22.3199997        -4.65885364E-07
   22.5000000        -4.76360185E-07
   22.6800003        -4.85525845E-07
   22.8600006        -4.93338348E-07
   23.0400009        -4.99762336E-07
   23.2199993        -5.04769787E-07
   23.3999996        -5.08337905E-07
   23.5799999        -5.10446910E-07
   23.7600002        -5.11077531E-07
   23.9400005        -5.10208451E-07
   24.1200008        -5.07813752E-07
   24.2999992        -5.03861258E-07
   24.4799995        -4.98311465E-07
   24.6599998        -4.91116737E-07
   24.8400002        -4.82221878E-07
   25.0200005        -4.71564590E-07
   25.2000008        -4.59077455E-07
   25.3799992        -4.44689363E-07
   25.5599995        -4.28327922E-07
   25.7399998        -4.09921626E-07
   25.9200001        -3.89402516E-07
   26.1000004        -3.66708861E-07
   26.2800007        -3.41787910E-07
   26.4599991        -3.14599276E-07
   26.6399994        -2.85118432E-07
   26.8199997        -2.53340346E-07
   27.0000000        -2.19283677E-07
   27.1800003        -1.82995166E-07
   27.3600006        -1.44553738E-07
   27.5400009        -1.04074452E-07
   27.7199993        -6.17119156E-08
   27.8999996        -1.76626660E-08
   28.0799999         2.78335204E-08
   28.2600002         7.44938689E-08
   28.4400005         1.21994304E-07
   28.6200008         1.69972907E-07
   28.7999992         2.18034927E-07
   28.9799995         2.65759212E-07
   29.1599998         3.12705936E-07
   29.3400002         3.58425098E-07
   29.5200005         4.02466014E-07
   29.7000008         4.44386615E-07
   29.8799992         4.83763131E-07
   30.0599995         5.20199421E-07
   30.2399998         5.53335667E-07
   30.4200001         5.82856899E-07
   30.6000004         6.08500159E-07
   30.7800007         6.30061493E-07
   30.9599991         6.47401293E-07
   31.1399994         6.60449075E-07
   31.3199997         6.69206202E-07
   31.5000000         6.73747593E-07
   31.6800003         6.74221155E-07
   31.8600006         6.70845452E-07
   32.0400009         6.63904530E-07
   32.2200012         6.53741381E-07
   32.4000015         6.40748056E-07
   32.5800018         6.25354630E-07
   32.7599983         6.08016308E-07
   32.9399986         5.89199544E-07
   33.1199989         5.69368297E-07
   33.2999992         5.48970377E-07
   33.4799995         5.28425630E-07
   33.6599998         5.08115647E-07
   33.8400002         4.88376259E-07
   34.0200005         4.69492591E-07
   34.2000008         4.51697161E-07
   34.3800011         4.35170193E-07
   34.5600014         4.20042511E-07
   34.7400017         4.06399920E-07
   34.9199982         3.94288833E-07
   35.0999985         3.83722295E-07
   35.2799988         3.74686152E-07
   35.4599991         3.67145049E-07
   35.6399994         3.61047398E-07
   35.8199997         3.56330276E-07
   36.0000000         3.52922797E-07
   36.1800003         3.50749360E-07
   36.3600006         3.49731920E-07
   36.5400009         3.49791691E-07
   36.7200012         3.50850229E-07
   36.9000015         3.52829829E-07
   37.0800018         3.55653157E-07
   37.2599983         3.59242080E-07
   37.4399986         3.63515255E-07
   37.6199989         3.68384946E-07
   37.7999992         3.73752755E-07
   37.9799995         3.79504712E-07
   38.1599998         3.85505814E-07
   38.3400002         3.91594654E-07
   38.5200005         3.97578702E-07
   38.7000008         4.03230530E-07
   38.8800011         4.08286070E-07
   39.0600014         4.12444876E-07
   39.2400017         4.15373592E-07
   39.4199982         4.16712282E-07
   39.5999985         4.16084191E-07
   39.7799988         4.13108495E-07
   39.9599991         4.07416280E-07
   40.1399994         3.98668874E-07
   40.3199997         3.86577796E-07
   40.5000000         3.70925903E-07
   40.6800003         3.51588682E-07
   40.8600006         3.28554080E-07
   41.0400009         3.01940872E-07
   41.2200012         2.72013580E-07
   41.4000015         2.39192616E-07
   41.5800018         2.04060271E-07
   41.7599983         1.67360326E-07
   41.9399986         1.29991662E-07
   42.1199989         9.29949380E-08
   42.2999992         5.75331747E-08
   42.4799995         2.48661340E-08
   42.6599998        -3.68080433E-09
   42.8400002        -2.67522378E-08
   43.0200005        -4.30023626E-08
   43.2000008        -5.11358813E-08
   43.3800011        -4.99507991E-08
   43.5600014        -3.83802323E-08
   43.7400017        -1.55316382E-08
   43.9199982         1.92758662E-08
   44.0999985         6.64805597E-08
   44.2799988         1.26253070E-07
   44.4599991         1.98477863E-07
   44.6399994         2.82744026E-07
   44.8199997         3.78344623E-07
   45.0000000         4.84286375E-07
   45.1800003         5.99308009E-07
   45.3600006         7.21909487E-07
   45.5400009         8.50388403E-07
   45.7200012         9.82884899E-07
   45.9000015         1.11743191E-06
   46.0800018         1.25201018E-06
   46.2599983         1.38460496E-06
   46.4399986         1.51326230E-06
   46.6199989         1.63614322E-06
   46.7999992         1.75157368E-06
   46.9799995         1.85808778E-06
   47.1599998         1.95446387E-06
   47.3400002         2.03975060E-06
   47.5200005         2.11328438E-06
   47.7000008         2.17469551E-06
   47.8800011         2.22390327E-06
   48.0600014         2.26110114E-06
   48.2400017         2.28673412E-06
   48.4199982         2.30146316E-06
   48.5999985         2.30612750E-06
   48.7799988         2.30169599E-06
   48.9599991         2.28921954E-06
   49.1399994         2.26977818E-06
   49.3199997         2.24443033E-06
   49.5000000         2.21416508E-06
   49.6800003         2.17985735E-06
   49.8600006         2.14223178E-06
   50.0400009         2.10183180E-06
   50.2200012         2.05899823E-06
   50.4000015         2.01385774E-06
   50.5800018         1.96631891E-06
   50.7599983         1.91607705E-06
   50.9399986         1.86262730E-06
   51.1199989         1.80528389E-06
   51.2999992         1.74320530E-06
   51.4799995         1.67542396E-06
   51.6599998         1.60087723E-06
   51.8400002         1.51844222E-06
   52.0200005         1.42696865E-06
   52.2000008         1.32531318E-06
   52.3800011         1.21236974E-06
   52.5600014         1.08709912E-06
   52.7400017         9.48553009E-07
   52.9199982         7.95895460E-07
   53.0999985         6.28419855E-07
   53.2799988         4.45561540E-07
   53.4599991         2.46906751E-07
   53.6399994         3.21982370E-08
   53.8199997        -1.98661994E-07
   54.0000000        -4.45611192E-07
   54.1800003        -7.08424750E-07
   54.3600006        -9.86717509E-07
   54.5400009        -1.27994258E-06
   54.7200012        -1.58739101E-06
   54.9000015        -1.90819037E-06
   55.0800018        -2.24130372E-06
   55.2599983        -2.58552905E-06
   55.4399986        -2.93949915E-06
   55.6199989        -3.30168177E-06
   55.7999992        -3.67038365E-06
   55.9799995        -4.04375487E-06
   56.1599998        -4.41979682E-06
   56.3400002        -4.79636947E-06
   56.5200005        -5.17120634E-06
   56.7000008        -5.54192729E-06
   56.8800011        -5.90605623E-06
   57.0600014        -6.26104247E-06
   57.2400017        -6.60428350E-06
   57.4199982        -6.93315224E-06
   57.5999985        -7.24502888E-06
   57.7799988        -7.53732957E-06
   57.9599991        -7.80754635E-06
   58.1399994        -8.05328091E-06
   58.3199997        -8.27228178E-06
   58.5000000        -8.46248349E-06
   58.6800003        -8.62204251E-06
   58.8600006        -8.74936813E-06
   59.0400009        -8.84315705E-06
   59.2200012        -8.90241881E-06
   59.4000015        -8.92649859E-06
   59.5800018        -8.91509808E-06
   59.7599983        -8.86828548E-06
   59.9399986        -8.78650826E-06
   60.1199989        -8.67059862E-06
   60.2999992        -8.52177072E-06
   60.4799995        -8.34161528E-06
   60.6599998        -8.13208862E-06
   60.8400002        -7.89549995E-06
   61.0200005        -7.63448588E-06
   61.2000008        -7.35198500E-06
   61.3800011        -7.05121374E-06
   61.5600014        -6.73562636E-06
   61.7400017        -6.40888311E-06
   61.9199982        -6.07481024E-06
   62.0999985        -5.73735724E-06
   62.2799988        -5.40055407E-06
   62.4599991        -5.06846618E-06
   62.6399994        -4.74514400E-06
   62.8199997        -4.43457293E-06
   63.0000000        -4.14061969E-06
   63.1800003        -3.86697593E-06
   63.3600006        -3.61709976E-06
   63.5400009        -3.39415692E-06
   63.7200012        -3.20096274E-06
   63.9000015        -3.03992283E-06
   64.0800018        -2.91298079E-06
   64.2600021        -2.82156657E-06
   64.4400024        -2.76655214E-06
   64.6200027        -2.74821491E-06
   64.8000031        -2.76620744E-06
   64.9800034        -2.81953680E-06
   65.1600037        -2.90655248E-06
   65.3399963        -3.02494391E-06
   65.5199966        -3.17175000E-06
   65.6999969        -3.34337619E-06
   65.8799973        -3.53562586E-06
   66.0599976        -3.74374190E-06
   66.2399979        -3.96245969E-06
   66.4199982        -4.18607169E-06
   66.5999985        -4.40850636E-06
   66.7799988        -4.62341131E-06
   66.9599991        -4.82425094E-06
   67.1399994        -5.00441092E-06
   67.3199997        -5.15730426E-06
   67.5000000        -5.27648444E-06
   67.6800003        -5.35576055E-06
   67.8600006        -5.38930590E-06
   68.0400009        -5.37176948E-06
   68.2200012        -5.29837644E-06
   68.4000015        -5.16502087E-06
   68.5800018        -4.96834764E-06
   68.7600021        -4.70581836E-06
   68.9400024        -4.37576455E-06
   69.1200027        -3.97741633E-06
   69.3000031        -3.51091512E-06
   69.4800034        -2.97730321E-06
   69.6600037        -2.37848803E-06
   69.8399963        -1.71719262E-06
   70.0199966        -9.96881113E-07
   70.1999969        -2.21669794E-07
   70.3799973         6.03777778E-07
   70.5599976         1.47436117E-06
   70.7399979         2.38466487E-06
   70.9199982         3.32907553E-06
   71.0999985         4.30190130E-06
   71.2799988         5.29748513E-06
   71.4599991         6.31031253E-06
   71.6399994         7.33510387E-06
   71.8199997         8.36689560E-06
   72.0000000         9.40111295E-06
   72.1800003         1.04336186E-05
   72.3600006         1.14607546E-05
   72.5400009         1.24793605E-05
   72.7200012         1.34867669E-05
   72.9000015         1.44807937E-05
   73.0800018         1.54597055E-05
   73.2600021         1.64221747E-05
   73.4400024         1.73672106E-05
   73.6200027         1.82941021E-05
   73.8000031         1.92023363E-05
   73.9800034         2.00915219E-05
   74.1600037         2.09613172E-05
   74.3399963         2.18113546E-05
   74.5199966         2.26411885E-05
   74.6999969         2.34502386E-05
   74.8799973         2.42377500E-05
   75.0599976         2.50027733E-05
   75.2399979         2.57441316E-05
   75.4199982         2.64604387E-05
   75.5999985         2.71500776E-05
   75.7799988         2.78112311E-05
   75.9599991         2.84418966E-05
   76.1399994         2.90399075E-05
   76.3199997         2.96029539E-05
   76.5000000         3.01286345E-05
   76.6800003         3.06144611E-05
   76.8600006         3.10579198E-05
   77.0400009         3.14564822E-05
   77.2200012         3.18076382E-05
   77.4000015         3.21089283E-05
   77.5800018         3.23579698E-05
   77.7600021         3.25524525E-05
   77.9400024         3.26901863E-05
   78.1200027         3.27690796E-05
   78.3000031         3.27871639E-05
   78.4800034         3.27425769E-05
   78.6600037         3.26335721E-05
   78.8399963         3.24584980E-05
   79.0199966         3.22158085E-05
   79.1999969         3.19040228E-05
   79.3799973         3.15217367E-05
   79.5599976         3.10676078E-05
   79.7399979         3.05403337E-05
   79.9199982         2.99386666E-05
   80.0999985         2.92614077E-05
   80.2799988         2.85074093E-05
   80.4599991         2.76755927E-05
   80.6399994         2.67649684E-05
   80.8199997         2.57746578E-05
   81.0000000         2.47039316E-05
   81.1800003         2.35522330E-05
   81.3600006         2.23192255E-05
   81.5400009         2.10048183E-05
   81.7200012         1.96092151E-05
   81.9000015         1.81329397E-05
   82.0800018         1.65768888E-05
   82.2600021         1.49423549E-05
   82.4400024         1.32310697E-05
   82.6200027         1.14452441E-05
   82.8000031         9.58759392E-06
   82.9800034         7.66139328E-06
   83.1600037         5.67048619E-06
   83.3399963         3.61932962E-06
   83.5199966         1.51299867E-06
   83.6999969        -6.42795669E-07
   83.8799973        -2.84172143E-06
   84.0599976        -5.07684808E-06
   84.2399979        -7.34067044E-06
   84.4199982        -9.62517788E-06
   84.5999985        -1.19219176E-05
   84.7799988        -1.42220779E-05
   84.9599991        -1.65165857E-05
   85.1399994        -1.87961923E-05
   85.3199997        -2.10516064E-05
   85.5000000        -2.32735856E-05
   85.6800003        -2.54530532E-05
   85.8600006        -2.75812163E-05
   86.0400009        -2.96496692E-05
   86.2200012        -3.16505066E-05
   86.4000015        -3.35764125E-05
   86.5800018        -3.54207659E-05
   86.7600021        -3.71777169E-05
   86.9400024        -3.88422523E-05
   87.1200027        -4.04102393E-05
   87.3000031        -4.18784657E-05
   87.4800034        -4.32446250E-05
   87.6600037        -4.45073274E-05
   87.8399963        -4.56660127E-05
   88.0199966        -4.67209247E-05
   88.1999969        -4.76729729E-05
   88.3799973        -4.85236560E-05
   88.5599976        -4.92749095E-05
   88.7399979        -4.99289672E-05
   88.9199982        -5.04882337E-05
   89.0999985        -5.09551101E-05
   89.2799988        -5.13318701E-05
   89.4599991        -5.16205109E-05
   89.6399994        -5.18226407E-05
   89.8199997        -5.19393616E-05
   90.0000000        -5.19711939E-05
   90.1800003        -5.19179921E-05
   90.3600006        -5.17789376E-05
   90.5400009        -5.15525026E-05
   90.7200012        -5.12364786E-05
   90.9000015        -5.08280318E-05
   91.0800018        -5.03237861E-05
   91.2600021        -4.97199071E-05
   91.4400024        -4.90122729E-05
   91.6200027        -4.81965981E-05
   91.8000031        -4.72686224E-05
   91.9800034        -4.62242861E-05
   92.1600037        -4.50599146E-05
   92.3399963        -4.37724120E-05
   92.5199966        -4.23594502E-05
   92.6999969        -4.08196101E-05
   92.8799973        -3.91525537E-05
   93.0599976        -3.73591465E-05
   93.2399979        -3.54415643E-05
   93.4199982        -3.34033575E-05
   93.5999985        -3.12495067E-05
   93.7799988        -2.89864165E-05
   93.9599991        -2.66219049E-05
   94.1399994        -2.41651251E-05
   94.3199997        -2.16264925E-05
   94.5000000        -1.90175560E-05
   94.6800003        -1.63508375E-05
   94.8600006        -1.36396839E-05
   95.0400009        -1.08980685E-05
   95.2200012        -8.14039049E-06
   95.4000015        -5.38128734E-06
   95.5800018        -2.63541983E-06
   95.7600021         8.27204829E-08
   95.9400024         2.75900152E-06
   96.1200027         5.37981032E-06
   96.3000031         7.93222353E-06
   96.4800034         1.04041192E-05
   96.6600037         1.27843095E-05
   96.8399963         1.50625992E-05
   97.0199966         1.72298478E-05
   97.1999969         1.92780080E-05
   97.3799973         2.12001105E-05
   97.5599976         2.29902435E-05
   97.7399979         2.46435175E-05
   97.9199982         2.61559835E-05
   98.0999985         2.75245657E-05
   98.2799988         2.87469538E-05
   98.4599991         2.98215145E-05
   98.6399994         3.07471855E-05
   98.8199997         3.15233774E-05
   99.0000000         3.21498846E-05
   99.1800003         3.26267909E-05
   99.3600006         3.29544091E-05
   99.5400009         3.31332158E-05
   99.7200012         3.31638039E-05
   99.9000015         3.30468611E-05
   100.080002         3.27831403E-05
   100.260002         3.23734712E-05
   100.440002         3.18187631E-05
   100.620003         3.11200420E-05
