  -7.65000010         9.99688385E-18
  -7.53125000         9.99688385E-18
  -7.41249990         9.99688468E-18
  -7.29374981         9.99688550E-18
  -7.17500019         9.99688716E-18
  -7.05625010         9.99688716E-18
  -6.93750000         9.99688716E-18
  -6.81874990         9.99688716E-18
  -6.69999981         9.99688633E-18
  -6.58125019         9.99688716E-18
  -6.46250010         9.99688964E-18
  -6.34375000         9.99689212E-18
  -6.22499990         9.99689460E-18
  -6.10624981         9.99689708E-18
  -5.98750019         9.99689874E-18
  -5.86875010         9.99690039E-18
  -5.75000000         9.99690039E-18
  -5.63124990         9.99690039E-18
  -5.51249981         9.99690122E-18
  -5.39375019         9.99690287E-18
  -5.27500010         9.99690618E-18
  -5.15625000         9.99691115E-18
  -5.03749990         9.99691611E-18
  -4.91874981         9.99692024E-18
  -4.80000019         9.99692438E-18
  -4.68125010         9.99692603E-18
  -4.56250000         9.99692603E-18
  -4.44374990         9.99692603E-18
  -4.32499981         9.99692686E-18
  -4.20625019         9.99693017E-18
  -4.08750010         9.99693596E-18
  -3.96875000         9.99694341E-18
  -3.84999990         9.99695168E-18
  -3.73125005         9.99695829E-18
  -3.61249995         9.99696326E-18
  -3.49375010         9.99696408E-18
  -3.37500000         9.99696326E-18
  -3.25624990         9.99696243E-18
  -3.13750005         9.99696243E-18
  -3.01874995         9.99696657E-18
  -2.90000010         9.99697236E-18
  -2.78125000         9.99698146E-18
  -2.66249990         9.99698973E-18
  -2.54375005         9.99699552E-18
  -2.42499995         9.99699800E-18
  -2.30625010         9.99699800E-18
  -2.18750000         9.99699717E-18
  -2.06874990         9.99699717E-18
  -1.95000005         9.99699965E-18
  -1.83124995         9.99700544E-18
  -1.71249998         9.99701372E-18
  -1.59375000         9.99702281E-18
  -1.47500002         9.99703109E-18
  -1.35625005         9.99703688E-18
  -1.23749995         9.99704019E-18
  -1.11874998         9.99704184E-18
  -1.00000000         9.99704267E-18
 -0.881250024         9.99704432E-18
 -0.762499988         9.99704763E-18
 -0.643750012         9.99705425E-18
 -0.524999976         9.99706252E-18
 -0.406250000         9.99707079E-18
 -0.287499994         9.99707741E-18
 -0.168750003         9.99708237E-18
  -5.00000007E-02     9.99708320E-18
   6.87500015E-02     9.99708403E-18
  0.187500000         9.99708485E-18
  0.306250006         9.99708733E-18
  0.425000012         9.99709147E-18
  0.543749988         9.99709892E-18
  0.662500024         9.99710636E-18
  0.781250000         9.99711380E-18
  0.899999976         9.99711959E-18
   1.01874995         9.99712373E-18
   1.13750005         9.99712621E-18
   1.25625002         9.99712869E-18
   1.37500000         9.99713200E-18
   1.49374998         9.99713862E-18
   1.61249995         9.99714689E-18
   1.73125005         9.99715599E-18
   1.85000002         9.99716426E-18
   1.96875000         9.99717005E-18
   2.08750010         9.99717336E-18
   2.20624995         9.99717419E-18
   2.32500005         9.99717584E-18
   2.44374990         9.99717915E-18
   2.56250000         9.99718494E-18
   2.68125010         9.99719239E-18
   2.79999995         9.99720149E-18
   2.91875005         9.99720893E-18
   3.03749990         9.99721472E-18
   3.15625000         9.99721720E-18
   3.27500010         9.99721803E-18
   3.39374995         9.99721886E-18
   3.51250005         9.99722134E-18
   3.63124990         9.99722713E-18
   3.75000000         9.99723705E-18
   3.86875010         9.99724864E-18
   3.98749995         9.99726022E-18
   4.10624981         9.99726931E-18
   4.22499990         9.99727510E-18
   4.34375000         9.99727759E-18
   4.46250010         9.99727841E-18
   4.58125019         9.99728007E-18
   4.69999981         9.99728420E-18
   4.81874990         9.99729330E-18
   4.93750000         9.99730488E-18
   5.05625010         9.99731729E-18
   5.17500019         9.99732804E-18
   5.29374981         9.99733549E-18
   5.41249990         9.99733880E-18
   5.53125000         9.99733797E-18
   5.65000010         9.99733714E-18
   5.76875019         9.99733797E-18
   5.88749981         9.99734128E-18
   6.00624990         9.99735038E-18
   6.12500000         9.99736196E-18
   6.24375010         9.99737437E-18
   6.36250019         9.99738429E-18
   6.48124981         9.99739174E-18
   6.59999990         9.99739422E-18
   6.71875000         9.99739422E-18
   6.83750010         9.99739339E-18
   6.95625019         9.99739505E-18
   7.07499981         9.99740166E-18
   7.19374990         9.99741242E-18
   7.31250000         9.99742648E-18
   7.43125010         9.99743971E-18
   7.55000019         9.99745129E-18
   7.66874981         9.99745708E-18
   7.78749990         9.99745957E-18
   7.90625000         9.99745957E-18
   8.02499962         9.99745957E-18
   8.14375019         9.99746370E-18
   8.26249981         9.99747197E-18
   8.38125038         9.99748355E-18
   8.50000000         9.99749679E-18
   8.61874962         9.99750754E-18
   8.73750019         9.99751664E-18
   8.85624981         9.99752078E-18
   8.97500038         9.99752243E-18
   9.09375000         9.99752326E-18
   9.21249962         9.99752657E-18
   9.33125019         9.99753484E-18
   9.44999981         9.99754642E-18
   9.56875038         9.99756214E-18
   9.68750000         9.99757785E-18
   9.80624962         9.99759026E-18
   9.92500019         9.99759853E-18
   10.0437498         9.99760350E-18
   10.1625004         9.99760515E-18
   10.2812500         9.99760763E-18
   10.3999996         9.99761342E-18
   10.5187502         9.99762252E-18
   10.6374998         9.99763410E-18
   10.7562504         9.99764651E-18
   10.8750000         9.99765726E-18
   10.9937496         9.99766223E-18
   11.1125002         9.99766305E-18
   11.2312498         9.99766057E-18
   11.3500004         9.99765892E-18
   11.4687500         9.99766057E-18
   11.5874996         9.99766884E-18
   11.7062502         9.99768208E-18
   11.8249998         9.99769779E-18
   11.9437504         9.99771351E-18
   12.0625000         9.99772592E-18
   12.1812496         9.99773254E-18
   12.3000002         9.99773584E-18
   12.4187498         9.99773750E-18
   12.5375004         9.99774081E-18
   12.6562500         9.99774908E-18
   12.7749996         9.99776149E-18
   12.8937502         9.99777720E-18
   13.0124998         9.99779292E-18
   13.1312504         9.99780367E-18
   13.2500000         9.99781029E-18
   13.3687496         9.99781029E-18
   13.4875002         9.99780698E-18
   13.6062498         9.99780533E-18
   13.7250004         9.99780864E-18
   13.8437500         9.99782187E-18
   13.9624996         9.99784338E-18
   14.0812502         9.99787233E-18
   14.1999998         9.99790293E-18
   14.3187504         9.99793189E-18
   14.4375000         9.99795587E-18
   14.5562496         9.99797325E-18
   14.6750002         9.99798565E-18
   14.7937498         9.99799475E-18
   14.9125004         9.99800220E-18
   15.0312500         9.99800881E-18
   15.1499996         9.99801047E-18
   15.2687502         9.99800302E-18
   15.3874998         9.99798483E-18
   15.5062504         9.99795422E-18
   15.6250000         9.99791534E-18
   15.7437496         9.99787316E-18
   15.8625002         9.99783924E-18
   15.9812498         9.99782353E-18
   16.1000004         9.99783593E-18
   16.2187500         9.99788308E-18
   16.3374996         9.99796828E-18
   16.4562492         9.99808905E-18
   16.5750008         9.99823877E-18
   16.6937504         9.99841000E-18
   16.8125000         9.99858784E-18
   16.9312496         9.99875824E-18
   17.0499992         9.99889886E-18
   17.1687508         9.99898737E-18
   17.2875004         9.99899399E-18
   17.4062500         9.99888728E-18
   17.5249996         9.99863664E-18
   17.6437492         9.99821561E-18
   17.7625008         9.99760763E-18
   17.8812504         9.99681023E-18
   18.0000000         9.99583746E-18
   18.1187496         9.99472739E-18
   18.2374992         9.99353625E-18
   18.3562508         9.99234263E-18
   18.4750004         9.99124496E-18
   18.5937500         9.99035739E-18
   18.7124996         9.98980484E-18
   18.8312492         9.98971964E-18
   18.9500008         9.99023414E-18
   19.0687504         9.99147243E-18
   19.1875000         9.99353708E-18
   19.3062496         9.99650500E-18
   19.4249992         1.00004118E-17
   19.5437508         1.00052392E-17
   19.6625004         1.00109161E-17
   19.7812500         1.00173061E-17
   19.8999996         1.00242098E-17
   20.0187492         1.00313649E-17
   20.1375008         1.00384530E-17
   20.2562504         1.00451077E-17
   20.3750000         1.00509236E-17
   20.4937496         1.00554706E-17
   20.6124992         1.00583111E-17
   20.7312508         1.00590150E-17
   20.8500004         1.00571770E-17
   20.9687500         1.00524390E-17
   21.0874996         1.00445038E-17
   21.2062492         1.00331541E-17
   21.3250008         1.00182689E-17
   21.4437504         9.99982944E-18
   21.5625000         9.97793562E-18
   21.6812496         9.95280174E-18
   21.7999992         9.92477107E-18
   21.9187508         9.89430518E-18
   22.0375004         9.86198723E-18
   22.1562500         9.82851123E-18
   22.2749996         9.79466962E-18
   22.3937492         9.76133755E-18
   22.5125008         9.72944643E-18
   22.6312504         9.69995331E-18
   22.7500000         9.67380364E-18
   22.8687496         9.65188501E-18
   22.9874992         9.63497910E-18
   23.1062508         9.62369801E-18
   23.2250004         9.61843300E-18
   23.3437500         9.61928500E-18
   23.4624996         9.62601246E-18
   23.5812492         9.63798176E-18
   23.7000008         9.65412833E-18
   23.8187504         9.67295248E-18
   23.9375000         9.69252688E-18
   24.0562496         9.71055776E-18
   24.1749992         9.72447673E-18
   24.2937508         9.73158966E-18
   24.4125004         9.72926776E-18
   24.5312500         9.71519907E-18
   24.6499996         9.68768456E-18
   24.7687492         9.64597233E-18
   24.8875008         9.59063063E-18
   25.0062504         9.52393175E-18
   25.1250000         9.45024071E-18
   25.2437496         9.37637927E-18
   25.3624992         9.31194604E-18
   25.4812508         9.26956544E-18
   25.6000004         9.26504738E-18
   25.7187500         9.31741040E-18
   25.8374996         9.44877826E-18
   25.9562492         9.68409625E-18
   26.0750008         1.00506886E-17
   26.1937504         1.05776110E-17
   26.3125000         1.12948369E-17
   26.4312496         1.22322485E-17
   26.5499992         1.34184776E-17
   26.6687508         1.48795862E-17
   26.7875004         1.66376395E-17
   26.9062500         1.87091909E-17
   27.0249996         2.11037382E-17
   27.1437492         2.38221680E-17
   27.2625008         2.68552474E-17
   27.3812504         3.01822390E-17
   27.5000000         3.37696419E-17
   27.6187496         3.75701464E-17
   27.7374992         4.15218032E-17
   27.8562508         4.55475424E-17
   27.9750004         4.95549413E-17
   28.0937500         5.34364102E-17
   28.2124996         5.70697183E-17
   28.3312492         6.03189433E-17
   28.4500008         6.30358147E-17
   28.5687504         6.50614874E-17
   28.6875000         6.62287054E-17
   28.8062496         6.63643432E-17
   28.9249992         6.52922774E-17
   29.0437508         6.28366296E-17
   29.1625004         5.88251147E-17
   29.2812500         5.30927266E-17
   29.3999996         4.54854377E-17
   29.5187492         3.58639540E-17
   29.6375008         2.41073865E-17
   29.7562504         1.01168002E-17
   29.8750000        -6.18159392E-18
   29.9937496        -2.48334757E-17
   30.1124992        -4.58538804E-17
   30.2312508        -6.92252168E-17
   30.3500004        -9.48958142E-17
   30.4687500        -1.22778908E-16
   30.5874996        -1.52752400E-16
   30.7062492        -1.84658966E-16
   30.8250008        -2.18306768E-16
   30.9437504        -2.53470798E-16
   31.0625000        -2.89894141E-16
   31.1812496        -3.27290143E-16
   31.2999992        -3.65344130E-16
   31.4187508        -4.03715729E-16
   31.5375004        -4.42040740E-16
   31.6562500        -4.79933156E-16
   31.7749996        -5.16986930E-16
   31.8937492        -5.52777566E-16
   32.0125008        -5.86863389E-16
   32.1312485        -6.18786791E-16
   32.2500000        -6.48074914E-16
   32.3687515        -6.74241138E-16
   32.4874992        -6.96785555E-16
   32.6062508        -7.15196451E-16
   32.7249985        -7.28952107E-16
   32.8437500        -7.37523075E-16
   32.9625015        -7.40374876E-16
   33.0812492        -7.36972610E-16
   33.2000008        -7.26785238E-16
   33.3187485        -7.09292367E-16
   33.4375000        -6.83991546E-16
   33.5562515        -6.50406689E-16
   33.6749992        -6.08098135E-16
   33.7937508        -5.56673812E-16
   33.9124985        -4.95800836E-16
   34.0312500        -4.25218216E-16
   34.1500015        -3.44749953E-16
   34.2687492        -2.54317540E-16
   34.3875008        -1.53953585E-16
   34.5062485        -4.38137420E-17
   34.6250000         7.58125391E-17
   34.7437515         2.04491779E-16
   34.8624992         3.41638590E-16
   34.9812508         4.86510526E-16
   35.0999985         6.38204756E-16
   35.2187500         7.95657170E-16
   35.3375015         9.57645815E-16
   35.4562492         1.12279702E-15
   35.5750008         1.28959422E-15
   35.6937485         1.45639036E-15
   35.8125000         1.62142541E-15
   35.9312515         1.78284257E-15
   36.0499992         1.93871188E-15
   36.1687508         2.08705297E-15
   36.2874985         2.22586071E-15
   36.4062500         2.35313313E-15
   36.5250015         2.46689643E-15
   36.6437492         2.56523505E-15
   36.7625008         2.64631664E-15
   36.8812485         2.70841686E-15
   37.0000000         2.74994329E-15
   37.1187515         2.76945405E-15
   37.2374992         2.76567459E-15
   37.3562508         2.73751032E-15
   37.4749985         2.68405662E-15
   37.5937500         2.60460133E-15
   37.7125015         2.49862776E-15
   37.8312492         2.36581236E-15
   37.9500008         2.20601938E-15
   38.0687485         2.01929542E-15
   38.1875000         1.80586154E-15
   38.3062515         1.56610727E-15
   38.4249992         1.30058235E-15
   38.5437508         1.00999563E-15
   38.6624985         6.95214891E-16
   38.7812500         3.57269762E-16
   38.9000015        -2.63832937E-18
   39.0187492        -3.83123246E-16
   39.1375008        -7.82593857E-16
   39.2562485        -1.19923083E-15
   39.3750000        -1.63096279E-15
   39.4937515        -2.07543634E-15
   39.6124992        -2.52998958E-15
   39.7312508        -2.99162825E-15
   39.8499985        -3.45700679E-15
   39.9687500        -3.92241434E-15
   40.0875015        -4.38377455E-15
   40.2062492        -4.83665215E-15
   40.3250008        -5.27628131E-15
   40.4437485        -5.69759804E-15
   40.5625000        -6.09530076E-15
   40.6812515        -6.46391637E-15
   40.7999992        -6.79788706E-15
   40.9187508        -7.09167027E-15
   41.0374985        -7.33984288E-15
   41.1562500        -7.53722019E-15
   41.2750015        -7.67896692E-15
   41.3937492        -7.76071915E-15
   41.5125008        -7.77868133E-15
   41.6312485        -7.72972198E-15
   41.7500000        -7.61145246E-15
   41.8687515        -7.42227104E-15
   41.9874992        -7.16139929E-15
   42.1062508        -6.82887618E-15
   42.2249985        -6.42553307E-15
   42.3437500        -5.95293485E-15
   42.4625015        -5.41329990E-15
   42.5812492        -4.80938531E-15
   42.7000008        -4.14436407E-15
   42.8187485        -3.42169462E-15
   42.9375000        -2.64497324E-15
   43.0562515        -1.81779899E-15
   43.1749992        -9.43647960E-16
   43.2937508        -2.57743292E-17
   43.4124985         9.32871584E-16
   43.5312500         1.92968992E-15
   43.6500015         2.96242743E-15
   43.7687492         4.02914472E-15
   43.8875008         5.12813948E-15
   44.0062485         6.25781589E-15
   44.1250000         7.41653494E-15
   44.2437515         8.60241833E-15
   44.3624992         9.81314097E-15
   44.4812508         1.10457043E-14
   44.5999985         1.22962113E-14
   44.7187500         1.35596643E-14
   44.8375015         1.48297783E-14
   44.9562492         1.60988302E-14
   45.0750008         1.73575753E-14
   45.1937485         1.85952192E-14
   45.3125000         1.97994494E-14
   45.4312515         2.09565624E-14
   45.5499992         2.20516541E-14
   45.6687508         2.30688796E-14
   45.7874985         2.39918033E-14
   45.9062500         2.48037928E-14
   46.0250015         2.54884530E-14
   46.1437492         2.60301119E-14
   46.2625008         2.64142888E-14
   46.3812485         2.66281934E-14
   46.5000000         2.66611481E-14
   46.6187515         2.65049908E-14
   46.7374992         2.61543937E-14
   46.8562508         2.56070867E-14
   46.9749985         2.48639881E-14
   47.0937500         2.39291991E-14
   47.2125015         2.28098908E-14
   47.3312492         2.15160582E-14
   47.4500008         2.00601593E-14
   47.5687485         1.84566599E-14
   47.6875000         1.67214705E-14
   47.8062515         1.48713337E-14
   47.9249992         1.29231766E-14
   48.0437508         1.08934188E-14
   48.1624985         8.79734348E-15
   48.2812500         6.64849501E-15
   48.4000015         4.45818385E-15
   48.5187492         2.23507897E-15
   48.6375008        -1.50414308E-17
   48.7562485        -2.28939601E-15
   48.8750000        -4.58813819E-15
   48.9937515        -6.91411692E-15
   49.1124992        -9.27251203E-15
   49.2312508        -1.16702793E-14
   49.3499985        -1.41155127E-14
   49.4687500        -1.66166943E-14
   49.5875015        -1.91819047E-14
   49.7062492        -2.18180085E-14
   49.8250008        -2.45298556E-14
   49.9437485        -2.73195823E-14
   50.0625000        -3.01860045E-14
   50.1812515        -3.31241653E-14
   50.2999992        -3.61250540E-14
   50.4187508        -3.91755178E-14
   50.5374985        -4.22584094E-14
   50.6562500        -4.53529053E-14
   50.7750015        -4.84350278E-14
   50.8937492        -5.14783393E-14
   51.0125008        -5.44547453E-14
   51.1312485        -5.73354434E-14
   51.2500000        -6.00918309E-14
   51.3687515        -6.26965453E-14
   51.4874992        -6.51242840E-14
   51.6062508        -6.73525837E-14
   51.7249985        -6.93624506E-14
   51.8437500        -7.11387533E-14
   51.9625015        -7.26703853E-14
   52.0812492        -7.39502250E-14
   52.2000008        -7.49747690E-14
   52.3187485        -7.57435496E-14
   52.4375000        -7.62583491E-14
   52.5562515        -7.65222304E-14
   52.6749992        -7.65383511E-14
   52.7937508        -7.63088933E-14
   52.9124985        -7.58337146E-14
   53.0312500        -7.51092981E-14
   53.1500015        -7.41277225E-14
   53.2687492        -7.28758145E-14
   53.3875008        -7.13345873E-14
   53.5062485        -6.94789685E-14
   53.6250000        -6.72778619E-14
   53.7437515        -6.46945605E-14
   53.8624992        -6.16875054E-14
   53.9812508        -5.82114313E-14
   54.0999985        -5.42187517E-14
   54.2187500        -4.96613215E-14
   54.3375015        -4.44923266E-14
   54.4562492        -3.86683110E-14
   54.5750008        -3.21512599E-14
   54.6937485        -2.49106494E-14
   54.8125000        -1.69253954E-14
   54.9312515        -8.18552057E-15
   55.0499992         1.30638686E-15
   55.1687508         1.15341095E-14
   55.2874985         2.24671220E-14
   55.4062500         3.40603807E-14
   55.5250015         4.62545956E-14
   55.6437492         5.89768848E-14
   55.7625008         7.21419994E-14
   55.8812485         8.56538080E-14
   56.0000000         9.94072581E-14
   56.1187515         1.13290528E-13
   56.2374992         1.27187404E-13
   56.3562508         1.40979744E-13
   56.4749985         1.54549862E-13
   56.5937500         1.67783010E-13
   56.7125015         1.80569440E-13
   56.8312492         1.92806342E-13
   56.9500008         2.04399404E-13
   57.0687485         2.15263964E-13
   57.1875000         2.25325726E-13
   57.3062515         2.34521061E-13
   57.4249992         2.42796885E-13
   57.5437508         2.50109991E-13
   57.6624985         2.56426092E-13
   57.7812500         2.61718625E-13
   57.9000015         2.65967180E-13
   58.0187492         2.69155900E-13
   58.1375008         2.71271693E-13
   58.2562485         2.72302553E-13
   58.3750000         2.72236064E-13
   58.4937515         2.71057997E-13
   58.6124992         2.68751221E-13
   58.7312508         2.65294893E-13
   58.8499985         2.60664184E-13
   58.9687500         2.54830255E-13
   59.0875015         2.47760715E-13
   59.2062492         2.39420354E-13
   59.3250008         2.29772364E-13
   59.4437485         2.18779842E-13
   59.5625000         2.06407536E-13
   59.6812515         1.92623695E-13
   59.7999992         1.77402147E-13
   59.9187508         1.60724353E-13
   60.0374985         1.42581449E-13
   60.1562500         1.22976133E-13
   60.2750015         1.01924389E-13
   60.3937492         7.94569421E-14
   60.5125008         5.56205235E-14
   60.6312485         3.04788272E-14
   60.7500000         4.11306790E-15
   60.8687515        -2.33777519E-14
   60.9874992        -5.18768818E-14
   61.1062508        -8.12501718E-14
   61.2249985        -1.11346818E-13
   61.3437500        -1.42000371E-13
   61.4625015        -1.73029993E-13
   61.5812492        -2.04241965E-13
   61.7000008        -2.35431629E-13
   61.8187485        -2.66385275E-13
   61.9375000        -2.96882636E-13
   62.0562515        -3.26699144E-13
   62.1749992        -3.55608907E-13
   62.2937508        -3.83387468E-13
   62.4124985        -4.09815031E-13
   62.5312500        -4.34679609E-13
   62.6500015        -4.57780623E-13
   62.7687492        -4.78932215E-13
   62.8875008        -4.97966794E-13
   63.0062485        -5.14738371E-13
   63.1250000        -5.29125571E-13
   63.2437515        -5.41034882E-13
   63.3624992        -5.50402876E-13
   63.4812508        -5.57198114E-13
   63.5999985        -5.61422382E-13
   63.7187500        -5.63111461E-13
   63.8375015        -5.62334305E-13
   63.9562492        -5.59192070E-13
   64.0749969        -5.53815403E-13
   64.1937485        -5.46361459E-13
   64.3125000        -5.37009185E-13
   64.4312515        -5.25954280E-13
   64.5500031        -5.13403068E-13
   64.6687469        -4.99565721E-13
   64.7874985        -4.84649322E-13
   64.9062500        -4.68850653E-13
   65.0250015        -4.52348879E-13
   65.1437531        -4.35298932E-13
   65.2624969        -4.17825496E-13
   65.3812485        -4.00017774E-13
   65.5000000        -3.81925909E-13
   65.6187515        -3.63558359E-13
   65.7375031        -3.44881431E-13
   65.8562469        -3.25820236E-13
   65.9749985        -3.06262042E-13
   66.0937500        -2.86060672E-13
   66.2125015        -2.65043494E-13
   66.3312531        -2.43019499E-13
   66.4499969        -2.19788868E-13
   66.5687485        -1.95153708E-13
   66.6875000        -1.68929608E-13
   66.8062515        -1.40956962E-13
   66.9250031        -1.11112786E-13
   67.0437469        -7.93214371E-14
   67.1624985        -4.55645416E-14
   67.2812500        -9.88931295E-15
   67.4000015         2.75848832E-14
   67.5187531         6.66624010E-14
   67.6374969         1.07069532E-13
   67.7562485         1.48455575E-13
   67.8750000         1.90396635E-13
   67.9937515         2.32402314E-13
   68.1125031         2.73925061E-13
   68.2312469         3.14372036E-13
   68.3499985         3.53119227E-13
   68.4687500         3.89527413E-13
   68.5875015         4.22959627E-13
   68.7062531         4.52798796E-13
   68.8249969         4.78466767E-13
   68.9437485         4.99442068E-13
   69.0625000         5.15277057E-13
   69.1812515         5.25613299E-13
   69.3000031         5.30195300E-13
   69.4187469         5.28880704E-13
   69.5374985         5.21648209E-13
   69.6562500         5.08601950E-13
   69.7750015         4.89971778E-13
   69.8937531         4.66110169E-13
   70.0124969         4.37485280E-13
   70.1312485         4.04670519E-13
   70.2500000         3.68330908E-13
   70.3687515         3.29206091E-13
   70.4875031         2.88091653E-13
   70.6062469         2.45818096E-13
   70.7249985         2.03228954E-13
   70.8437500         1.61158535E-13
   70.9625015         1.20410097E-13
   71.0812531         8.17348711E-14
   71.1999969         4.58133016E-14
   71.3187485         1.32385320E-14
   71.4375000        -1.54971589E-14
   71.5562515        -4.00119865E-14
   71.6750031        -6.00406226E-14
   71.7937469        -7.54364155E-14
   71.9124985        -8.61688718E-14
   72.0312500        -9.23175178E-14
   72.1500015        -9.40618365E-14
   72.2687531        -9.16675657E-14
   72.3874969        -8.54707676E-14
   72.5062485        -7.58585902E-14
   72.6250000        -6.32495223E-14
   72.7437515        -4.80724333E-14
   72.8625031        -3.07450700E-14
   72.9812469        -1.16545669E-14
   73.0999985         8.86142915E-15
   73.2187500         3.05303776E-14
   73.3375015         5.31577955E-14
   73.4562531         7.66360377E-14
   73.5749969         1.00949488E-13
   73.6937485         1.26175112E-13
   73.8125000         1.52477992E-13
   73.9312515         1.80103071E-13
   74.0500031         2.09362313E-13
   74.1687469         2.40617612E-13
   74.2874985         2.74261137E-13
   74.4062500         3.10692010E-13
   74.5250015         3.50292169E-13
   74.6437531         3.93400617E-13
   74.7624969         4.40288377E-13
   74.8812485         4.91134585E-13
   75.0000000         5.46004648E-13
   75.1187515         6.04831831E-13
   75.2375031         6.67403524E-13
   75.3562469         7.33351802E-13
