  -7.19999981         9.56747868E-18
  -7.01949978         9.56747868E-18
  -6.83900023         1.56062611E-17
  -6.65850019         3.45917436E-17
  -6.47800016         6.29681315E-17
  -6.29750013         7.23209568E-17
  -6.11700010        -3.73519279E-18
  -5.93650007        -2.77649036E-16
  -5.75600004        -9.09542073E-16
  -5.57550001        -2.10361268E-15
  -5.39499998        -4.10218056E-15
  -5.21449995        -7.17969944E-15
  -5.03399992        -1.16371019E-14
  -4.85349989        -1.77954372E-14
  -4.67299986        -2.59887343E-14
  -4.49249983        -3.65595514E-14
  -4.31199980        -4.98641554E-14
  -4.13149977        -6.62944770E-14
  -3.95099998        -8.63189457E-14
  -3.77049994        -1.10534832E-13
  -3.58999991        -1.39716187E-13
  -3.40949988        -1.74837561E-13
  -3.22900009        -2.17059348E-13
  -3.04850006        -2.67670109E-13
  -2.86800003        -3.27995226E-13
  -2.68750000        -3.99285314E-13
  -2.50699997        -4.82599800E-13
  -2.32649994        -5.78689440E-13
  -2.14599991        -6.87872394E-13
  -1.96550000        -8.09887747E-13
  -1.78499997        -9.43709087E-13
  -1.60450006        -1.08729974E-12
  -1.42400002        -1.23730952E-12
  -1.24349999        -1.38872106E-12
  -1.06299996        -1.53446765E-12
 -0.882499993        -1.66506392E-12
 -0.702000022        -1.76828246E-12
 -0.521499991        -1.82887971E-12
 -0.340999991        -1.82839507E-12
 -0.160500005        -1.74496637E-12
   1.99999996E-02    -1.55314531E-12
  0.200499997        -1.22365822E-12
  0.381000012        -7.23110374E-13
  0.561500013        -1.36340448E-14
  0.741999984         9.47438525E-13
  0.922500014         2.20776349E-12
   1.10300004         3.81985502E-12
   1.28349996         5.84045399E-12
   1.46399999         8.32923921E-12
   1.64450002         1.13470119E-11
   1.82500005         1.49536251E-11
   2.00550008         1.92060968E-11
   2.18600011         2.41572994E-11
   2.36649990         2.98552467E-11
   2.54699993         3.63423597E-11
   2.72749996         4.36539034E-11
   2.90799999         5.18145596E-11
   3.08850002         6.08331233E-11
   3.26900005         7.06961364E-11
   3.44950008         8.13629442E-11
   3.63000011         9.27645044E-11
   3.81049991         1.04807496E-10
   3.99099994         1.17383214E-10
   4.17150021         1.30377473E-10
   4.35200024         1.43675696E-10
   4.53249979         1.57157509E-10
   4.71299982         1.70677722E-10
   4.89349985         1.84036592E-10
   5.07399988         1.96948596E-10
   5.25449991         2.09023882E-10
   5.43499994         2.19777446E-10
   5.61549997         2.28674885E-10
   5.79600000         2.35211434E-10
   5.97650003         2.39005732E-10
   6.15700006         2.39876508E-10
   6.33750010         2.37865561E-10
   6.51800013         2.33179559E-10
   6.69850016         2.26046057E-10
   6.87900019         2.16512044E-10
   7.05950022         2.04244885E-10
   7.23999977         1.88414451E-10
   7.42049980         1.67727970E-10
   7.60099983         1.40653197E-10
   7.78149986         1.05809139E-10
   7.96199989         6.24374719E-11
   8.14249992         1.08220551E-11
   8.32299995        -4.74927146E-11
   8.50349998        -1.09799399E-10
   8.68400002        -1.72679496E-10
   8.86450005        -2.32753400E-10
   9.04500008        -2.87571550E-10
   9.22550011        -3.36429551E-10
   9.40600014        -3.80877885E-10
   9.58650017        -4.24748570E-10
   9.76700020        -4.73619977E-10
   9.94750023        -5.33775413E-10
   10.1280003        -6.10839768E-10
   10.3085003        -7.08371029E-10
   10.4890003        -8.26719082E-10
   10.6695004        -9.62419922E-10
   10.8500004        -1.10828768E-09
   11.0305004        -1.25421584E-09
   11.2110004        -1.38853584E-09
   11.3915005        -1.49965507E-09
   11.5719995        -1.57762359E-09
   11.7524996        -1.61528579E-09
   11.9329996        -1.60874347E-09
   12.1134996        -1.55698621E-09
   12.2939997        -1.46068846E-09
   12.4744997        -1.32032218E-09
   12.6549997        -1.13383247E-09
   12.8354998        -8.94169794E-10
   13.0159998        -5.86952875E-10
   13.1964998        -1.88440596E-10
   13.3769999         3.36131206E-10
   13.5574999         1.03392117E-09
   13.7379999         1.96573180E-09
   13.9184999         3.20729976E-09
   14.0990000         4.85073892E-09
   14.2795000         7.00609259E-09
   14.4600000         9.80281012E-09
   14.6405001         1.33908529E-08
   14.8210001         1.79410993E-08
   15.0015001         2.36447679E-08
   15.1820002         3.07117070E-08
   15.3625002         3.93674853E-08
   15.5430002         4.98493620E-08
   15.7235003         6.24011633E-08
   15.9040003         7.72672450E-08
   16.0844994         9.46854897E-08
   16.2649994         1.14879469E-07
   16.4454994         1.38049671E-07
   16.6259995         1.64363982E-07
   16.8064995         1.93947358E-07
   16.9869995         2.26871094E-07
   17.1674995         2.63141885E-07
   17.3479996         3.02691205E-07
   17.5284996         3.45365947E-07
   17.7089996         3.90920576E-07
   17.8894997         4.39012268E-07
   18.0699997         4.89199465E-07
   18.2504997         5.40944427E-07
   18.4309998         5.93620143E-07
   18.6114998         6.46521698E-07
   18.7919998         6.98881820E-07
   18.9724998         7.49889864E-07
   19.1529999         7.98713359E-07
   19.3334999         8.44521139E-07
   19.5139999         8.86507053E-07
   19.6945000         9.23912751E-07
   19.8750000         9.56048780E-07
   20.0555000         9.82312827E-07
   20.2360001         1.00220495E-06
   20.4165001         1.01533908E-06
   20.5970001         1.02144986E-06
   20.7775002         1.02039644E-06
   20.9580002         1.01216165E-06
   21.1385002         9.96847461E-07
   21.3190002         9.74667955E-07
   21.4995003         9.45939746E-07
   21.6800003         9.11071538E-07
   21.8605003         8.70551560E-07
   22.0410004         8.24935682E-07
   22.2215004         7.74835371E-07
   22.4020004         7.20905916E-07
   22.5825005         6.63835010E-07
   22.7630005         6.04332342E-07
   22.9435005         5.43119882E-07
   23.1240005         4.80922665E-07
   23.3045006         4.18460672E-07
   23.4850006         3.56441262E-07
   23.6655006         2.95552212E-07
   23.8460007         2.36455463E-07
   24.0265007         1.79781566E-07
   24.2070007         1.26124803E-07
   24.3875008         7.60386953E-08
   24.5680008         3.00320693E-08
   24.7485008        -1.14349739E-08
   24.9290009        -4.79551510E-08
   25.1095009        -7.91785411E-08
   25.2900009        -1.04817389E-07
   25.4705009        -1.24650967E-07
   25.6509991        -1.38530211E-07
   25.8314991        -1.46381609E-07
   26.0119991        -1.48209963E-07
   26.1924992        -1.44099999E-07
   26.3729992        -1.34216663E-07
   26.5534992        -1.18804444E-07
   26.7339993        -9.81854882E-08
   26.9144993        -7.27567979E-08
   27.0949993        -4.29860840E-08
   27.2754993        -9.40605371E-09
   27.4559994         2.73928489E-08
   27.6364994         6.67714559E-08
   27.8169994         1.08052525E-07
   27.9974995         1.50532628E-07
   28.1779995         1.93495339E-07
   28.3584995         2.36225333E-07
   28.5389996         2.78022981E-07
   28.7194996         3.18219037E-07
   28.8999996         3.56188764E-07
   29.0804996         3.91364580E-07
   29.2609997         4.23247172E-07
   29.4414997         4.51414962E-07
   29.6219997         4.75531380E-07
   29.8024998         4.95350605E-07
   29.9829998         5.10721122E-07
   30.1634998         5.21587594E-07
   30.3439999         5.27989243E-07
   30.5244999         5.30055161E-07
   30.7049999         5.27995724E-07
   30.8855000         5.22090659E-07
   31.0660000         5.12673978E-07
   31.2465000         5.00116982E-07
   31.4270000         4.84810471E-07
   31.6075001         4.67146862E-07
   31.7880001         4.47504135E-07
   31.9685001         4.26231708E-07
   32.1489983         4.03639945E-07
   32.3294983         3.79992912E-07
   32.5099983         3.55505108E-07
   32.6904984         3.30341038E-07
   32.8709984         3.04617032E-07
   33.0514984         2.78405167E-07
   33.2319984         2.51738101E-07
   33.4124985         2.24615093E-07
   33.5929985         1.97009172E-07
   33.7734985         1.68874635E-07
   33.9539986         1.40154910E-07
   34.1344986         1.10789905E-07
   34.3149986         8.07224296E-08
   34.4954987         4.99032069E-08
   34.6759987         1.82942195E-08
   34.8564987        -1.41296885E-08
   35.0369987        -4.73803823E-08
   35.2174988        -8.14585874E-08
   35.3979988        -1.16356432E-07
   35.5784988        -1.52061475E-07
   35.7589989        -1.88560932E-07
   35.9394989        -2.25845170E-07
   36.1199989        -2.63909328E-07
   36.3004990        -3.02753620E-07
   36.4809990        -3.42381725E-07
   36.6614990        -3.82798248E-07
   36.8419991        -4.24004867E-07
   37.0224991        -4.65996493E-07
   37.2029991        -5.08756671E-07
   37.3834991        -5.52252629E-07
   37.5639992        -5.96430198E-07
   37.7444992        -6.41208089E-07
   37.9249992        -6.86473129E-07
   38.1054993        -7.32075705E-07
   38.2859993        -7.77825790E-07
   38.4664993        -8.23489586E-07
   38.6469994        -8.68787197E-07
   38.8274994        -9.13389556E-07
   39.0079994        -9.56917461E-07
   39.1884995        -9.98941459E-07
   39.3689995        -1.03898435E-06
   39.5494995        -1.07652579E-06
   39.7299995        -1.11101190E-06
   39.9104996        -1.14186741E-06
   40.0909996        -1.16851231E-06
   40.2714996        -1.19038111E-06
   40.4519997        -1.20694472E-06
   40.6324997        -1.21773360E-06
   40.8129997        -1.22236008E-06
   40.9934998        -1.22053848E-06
   41.1739998        -1.21210201E-06
   41.3544998        -1.19701372E-06
   41.5349998        -1.17537388E-06
   41.7154999        -1.14742204E-06
   41.8959999        -1.11353609E-06
   42.0764999        -1.07422682E-06
   42.2570000        -1.03013213E-06
   42.4375000        -9.82007577E-07
   42.6180000        -9.30716226E-07
   42.7985001        -8.77215257E-07
   42.9790001        -8.22540869E-07
   43.1595001        -7.67789857E-07
   43.3400002        -7.14098860E-07
   43.5205002        -6.62620891E-07
   43.7010002        -6.14500095E-07
   43.8815002        -5.70846339E-07
   44.0620003        -5.32708441E-07
   44.2425003        -5.01048760E-07
   44.4230003        -4.76717304E-07
   44.6035004        -4.60428197E-07
   44.7840004        -4.52737424E-07
   44.9645004        -4.54023649E-07
   45.1450005        -4.64470986E-07
   45.3255005        -4.84055590E-07
   45.5060005        -5.12536360E-07
   45.6865005        -5.49450135E-07
   45.8670006        -5.94112521E-07
   46.0475006        -6.45626130E-07
   46.2280006        -7.02895704E-07
   46.4085007        -7.64649599E-07
   46.5890007        -8.29468661E-07
   46.7695007        -8.95818630E-07
   46.9500008        -9.62086233E-07
   47.1305008        -1.02661625E-06
   47.3110008        -1.08774793E-06
   47.4915009        -1.14384920E-06
   47.6720009        -1.19334766E-06
   47.8525009        -1.23475809E-06
   48.0330009        -1.26670557E-06
   48.2135010        -1.28794477E-06
   48.3940010        -1.29737452E-06
   48.5745010        -1.29404930E-06
   48.7550011        -1.27718852E-06
   48.9355011        -1.24618111E-06
   49.1160011        -1.20058826E-06
   49.2965012        -1.14014233E-06
   49.4770012        -1.06474283E-06
   49.6575012        -9.74447971E-07
   49.8380013        -8.69465225E-07
   50.0185013        -7.50142135E-07
   50.1990013        -6.16951979E-07
   50.3795013        -4.70483542E-07
   50.5600014        -3.11432473E-07
   50.7405014        -1.40588185E-07
   50.9210014         4.11742214E-08
   51.1015015         2.32901570E-07
   51.2820015         4.33572779E-07
   51.4625015         6.42104851E-07
   51.6430016         8.57361613E-07
   51.8235016         1.07816163E-06
   52.0040016         1.30329011E-06
   52.1845016         1.53151234E-06
   52.3650017         1.76158710E-06
   52.5455017         1.99228407E-06
   52.7260017         2.22239805E-06
   52.9065018         2.45076012E-06
   53.0870018         2.67624637E-06
   53.2675018         2.89778382E-06
   53.4480019         3.11435201E-06
   53.6285019         3.32498212E-06
   53.8089981         3.52875782E-06
   53.9894981         3.72481304E-06
   54.1699982         3.91233334E-06
   54.3504982         4.09055792E-06
   54.5309982         4.25878261E-06
   54.7114983         4.41636803E-06
   54.8919983         4.56274483E-06
   55.0724983         4.69742190E-06
   55.2529984         4.81999314E-06
   55.4334984         4.93014250E-06
   55.6139984         5.02764624E-06
   55.7944984         5.11237204E-06
   55.9749985         5.18427942E-06
   56.1554985         5.24341885E-06
   56.3359985         5.28992859E-06
   56.5164986         5.32403647E-06
   56.6969986         5.34605215E-06
   56.8774986         5.35636946E-06
   57.0579987         5.35545678E-06
   57.2384987         5.34385572E-06
   57.4189987         5.32216973E-06
   57.5994987         5.29106001E-06
   57.7799988         5.25123460E-06
   57.9604988         5.20344429E-06
   58.1409988         5.14846988E-06
   58.3214989         5.08711946E-06
   58.5019989         5.02022203E-06
   58.6824989         4.94862616E-06
   58.8629990         4.87319539E-06
   59.0434990         4.79480286E-06
   59.2239990         4.71432941E-06
   59.4044991         4.63265224E-06
   59.5849991         4.55062673E-06
   59.7654991         4.46906461E-06
   59.9459991         4.38871530E-06
   60.1264992         4.31023591E-06
   60.3069992         4.23416668E-06
   60.4874992         4.16090597E-06
   60.6679993         4.09069389E-06
   60.8484993         4.02359456E-06
   61.0289993         3.95948973E-06
   61.2094994         3.89807701E-06
   61.3899994         3.83888118E-06
   61.5704994         3.78126697E-06
   61.7509995         3.72445993E-06
   61.9314995         3.66757195E-06
   62.1119995         3.60962872E-06
   62.2924995         3.54960071E-06
   62.4729996         3.48643630E-06
   62.6534996         3.41909731E-06
   62.8339996         3.34659558E-06
   63.0144997         3.26802819E-06
   63.1949997         3.18261368E-06
   63.3754997         3.08971858E-06
   63.5559998         2.98888517E-06
   63.7364998         2.87984790E-06
   63.9169998         2.76254559E-06
   64.0975037         2.63712286E-06
   64.2779999         2.50392941E-06
   64.4585037         2.36350297E-06
   64.6389999         2.21655682E-06
   64.8195038         2.06395407E-06
   65.0000000         1.90668868E-06
   65.1804962         1.74585955E-06
   65.3610001         1.58264493E-06
   65.5414963         1.41827707E-06
   65.7220001         1.25401334E-06
   65.9024963         1.09110988E-06
   66.0830002         9.30786882E-07
   66.2634964         7.74196735E-07
   66.4440002         6.22393543E-07
   66.6244965         4.76301409E-07
   66.8050003         3.36687378E-07
   66.9854965         2.04137905E-07
   67.1660004         7.90426995E-08
   67.3464966        -3.84179017E-08
   67.5270004        -1.48275362E-07
   67.7074966        -2.50773866E-07
   67.8880005        -3.46361787E-07
   68.0684967        -4.35687951E-07
   68.2490005        -5.19590401E-07
   68.4294968        -5.99085979E-07
   68.6100006        -6.75362173E-07
   68.7904968        -7.49764695E-07
   68.9710007        -8.23785115E-07
   69.1514969        -8.99041368E-07
   69.3320007        -9.77255127E-07
   69.5124969        -1.06022503E-06
   69.6930008        -1.14979377E-06
   69.8734970        -1.24781332E-06
   70.0540009        -1.35610662E-06
   70.2344971        -1.47643277E-06
   70.4150009        -1.61045125E-06
   70.5954971        -1.75968933E-06
   70.7760010        -1.92551124E-06
   70.9564972        -2.10908752E-06
   71.1370010        -2.31136664E-06
   71.3174973        -2.53305643E-06
   71.4980011        -2.77460140E-06
   71.6784973        -3.03617298E-06
   71.8590012        -3.31766023E-06
   72.0394974        -3.61866910E-06
   72.2200012        -3.93852997E-06
   72.4004974        -4.27631130E-06
   72.5810013        -4.63083734E-06
   72.7614975        -5.00071656E-06
   72.9420013        -5.38437234E-06
   73.1224976        -5.78007803E-06
   73.3030014        -6.18599006E-06
   73.4834976        -6.60018213E-06
   73.6640015        -7.02068155E-06
   73.8444977        -7.44549197E-06
   74.0250015        -7.87262979E-06
   74.2054977        -8.30013596E-06
   74.3860016        -8.72610872E-06
   74.5664978        -9.14871453E-06
   74.7470016        -9.56620624E-06
   74.9274979        -9.97693496E-06
   75.1080017        -1.03793591E-05
   75.2884979        -1.07720552E-05
   75.4690018        -1.11537229E-05
   75.6494980        -1.15231860E-05
   75.8300018        -1.18793887E-05
   76.0104980        -1.22213878E-05
   76.1910019        -1.25483393E-05
   76.3714981        -1.28594829E-05
   76.5520020        -1.31541337E-05
   76.7324982        -1.34316642E-05
   76.9130020        -1.36915005E-05
   77.0934982        -1.39331141E-05
   77.2740021        -1.41560158E-05
   77.4544983        -1.43597454E-05
   77.6350021        -1.45438789E-05
   77.8154984        -1.47080227E-05
   77.9960022        -1.48518138E-05
   78.1764984        -1.49749148E-05
   78.3570023        -1.50770184E-05
   78.5374985        -1.51578297E-05
   78.7180023        -1.52170678E-05
   78.8984985        -1.52544517E-05
   79.0790024        -1.52696921E-05
   79.2594986        -1.52624907E-05
   79.4400024        -1.52325383E-05
   79.6204987        -1.51795093E-05
   79.8010025        -1.51030745E-05
   79.9814987        -1.50029045E-05
   80.1620026        -1.48786758E-05
   80.3424988        -1.47300761E-05
   80.5230026        -1.45568147E-05
   80.7034988        -1.43586149E-05
   80.8840027        -1.41352220E-05
   81.0644989        -1.38863998E-05
   81.2450027        -1.36119252E-05
   81.4254990        -1.33115927E-05
   81.6060028        -1.29852324E-05
   81.7864990        -1.26327168E-05
   81.9670029        -1.22539941E-05
   82.1474991        -1.18491180E-05
   82.3280029        -1.14182858E-05
   82.5084991        -1.09618704E-05
   82.6890030        -1.04804640E-05
   82.8694992        -9.97491225E-06
