  -7.19999981        -1.13084782E-18
  -7.01949978        -1.13084782E-18
  -6.83900023        -1.52264247E-17
  -6.65850019        -7.03749317E-17
  -6.47800016        -1.96259413E-16
  -6.29750013        -4.01795320E-16
  -6.11700010        -6.35846669E-16
  -5.93650007        -7.33652982E-16
  -5.75600004        -3.54311552E-16
  -5.57550001         1.08321570E-15
  -5.39499998         4.45793779E-15
  -5.21449995         1.09918466E-14
  -5.03399992         2.22770123E-14
  -4.85349989         4.02824374E-14
  -4.67299986         6.73438153E-14
  -4.49249983         1.06147811E-13
  -4.31199980         1.59732240E-13
  -4.13149977         2.31529910E-13
  -3.95099998         3.25483184E-13
  -3.77049994         4.46246501E-13
  -3.58999991         5.99476903E-13
  -3.40949988         7.92193622E-13
  -3.22900009         1.03317300E-12
  -3.04850006         1.33333514E-12
  -2.86800003         1.70607528E-12
  -2.68750000         2.16749839E-12
  -2.50699997         2.73651783E-12
  -2.32649994         3.43479433E-12
  -2.14599991         4.28650041E-12
  -1.96550000         5.31792058E-12
  -1.78499997         6.55690042E-12
  -1.60450006         8.03217909E-12
  -1.42400002         9.77262802E-12
  -1.24349999         1.18064118E-11
  -1.06299996         1.41600750E-11
 -0.882499993         1.68575397E-11
 -0.702000022         1.99189797E-11
 -0.521499991         2.33595331E-11
 -0.340999991         2.71878110E-11
 -0.160500005         3.14041224E-11
   1.99999996E-02     3.59984022E-11
  0.200499997         4.09478042E-11
  0.381000012         4.62139459E-11
  0.561500013         5.17399318E-11
  0.741999984         5.74472102E-11
  0.922500014         6.32324679E-11
   1.10300004         6.89647367E-11
   1.28349996         7.44829129E-11
   1.46399999         7.95939564E-11
   1.64450002         8.40718675E-11
   1.82500005         8.76577907E-11
   2.00550008         9.00611044E-11
   2.18600011         9.09616757E-11
   2.36649990         9.00129277E-11
   2.54699993         8.68456071E-11
   2.72749996         8.10719616E-11
   2.90799999         7.22900767E-11
   3.08850002         6.00885938E-11
   3.26900005         4.40518559E-11
   3.44950008         2.37657741E-11
   3.63000011        -1.17540537E-12
   3.81049991        -3.11612264E-11
   3.99099994        -6.65563646E-11
   4.17150021        -1.07691259E-10
   4.35200024        -1.54852381E-10
   4.53249979        -2.08272441E-10
   4.71299982        -2.68120803E-10
   4.89349985        -3.34494099E-10
   5.07399988        -4.07406997E-10
   5.25449991        -4.86783225E-10
   5.43499994        -5.72446424E-10
   5.61549997        -6.64111655E-10
   5.79600000        -7.61377628E-10
   5.97650003        -8.63721594E-10
   6.15700006        -9.70498237E-10
   6.33750010        -1.08094467E-09
   6.51800013        -1.19419119E-09
   6.69850016        -1.30927769E-09
   6.87900019        -1.42517176E-09
   7.05950022        -1.54078672E-09
   7.23999977        -1.65499336E-09
   7.42049980        -1.76662451E-09
   7.60099983        -1.87447280E-09
   7.78149986        -1.97728145E-09
   7.96199989        -2.07373696E-09
   8.14249992        -2.16246376E-09
   8.32299995        -2.24202990E-09
   8.50349998        -2.31096697E-09
   8.68400002        -2.36780062E-09
   8.86450005        -2.41109621E-09
   9.04500008        -2.43950504E-09
   9.22550011        -2.45180898E-09
   9.40600014        -2.44694998E-09
   9.58650017        -2.42404163E-09
   9.76700020        -2.38235609E-09
   9.94750023        -2.32129338E-09
   10.1280003        -2.24033836E-09
   10.3085003        -2.13901807E-09
   10.4890003        -2.01686801E-09
   10.6695004        -1.87341587E-09
   10.8500004        -1.70818082E-09
   11.0305004        -1.52069057E-09
   11.2110004        -1.31050448E-09
   11.3915005        -1.07723763E-09
   11.5719995        -8.20578550E-10
   11.7524996        -5.40296419E-10
   11.9329996        -2.36239056E-10
   12.1134996         9.16721629E-11
   12.2939997         4.43441256E-10
   12.4744997         8.18978274E-10
   12.6549997         1.21805344E-09
   12.8354998         1.64022373E-09
   13.0159998         2.08474038E-09
   13.1964998         2.55046118E-09
   13.3769999         3.03578940E-09
   13.5574999         3.53867002E-09
   13.7379999         4.05665013E-09
   13.9184999         4.58701610E-09
   14.0990000         5.12699216E-09
   14.2795000         5.67397285E-09
   14.4600000         6.22576213E-09
   14.6405001         6.78079815E-09
   14.8210001         7.33831484E-09
   15.0015001         7.89844812E-09
   15.1820002         8.46226733E-09
   15.3625002         9.03175401E-09
   15.5430002         9.60975655E-09
   15.7235003         1.01999404E-08
   15.9040003         1.08067733E-08
   16.0844994         1.14355645E-08
   16.2649994         1.20925403E-08
   16.4454994         1.27849535E-08
   16.6259995         1.35211469E-08
   16.8064995         1.43105989E-08
   16.9869995         1.51638488E-08
   17.1674995         1.60923150E-08
   17.3479996         1.71079932E-08
   17.5284996         1.82230622E-08
   17.7089996         1.94494945E-08
   17.8894997         2.07985504E-08
   18.0699997         2.22804957E-08
   18.2504997         2.39042581E-08
   18.4309998         2.56774371E-08
   18.6114998         2.76062622E-08
   18.7919998         2.96958778E-08
   18.9724998         3.19505631E-08
   19.1529999         3.43742244E-08
   19.3334999         3.69707394E-08
   19.5139999         3.97442790E-08
   19.6945000         4.26995399E-08
   19.8750000         4.58418477E-08
   20.0555000         4.91769789E-08
   20.2360001         5.27107780E-08
   20.4165001         5.64484814E-08
   20.5970001         6.03935675E-08
   20.7775002         6.45463274E-08
   20.9580002         6.89019259E-08
   21.1385002         7.34481134E-08
   21.3190002         7.81622731E-08
   21.4995003         8.30085796E-08
   21.6800003         8.79347724E-08
   21.8605003         9.28692216E-08
   22.0410004         9.77180292E-08
   22.2215004         1.02362726E-07
   22.4020004         1.06658824E-07
   22.5825005         1.10435117E-07
   22.7630005         1.13493883E-07
   22.9435005         1.15612480E-07
   23.1240005         1.16545536E-07
   23.3045006         1.16028673E-07
   23.4850006         1.13782541E-07
   23.6655006         1.09518382E-07
   23.8460007         1.02943773E-07
   24.0265007         9.37695290E-08
   24.2070007         8.17170474E-08
   24.3875008         6.65262760E-08
   24.5680008         4.79640363E-08
   24.7485008         2.58325770E-08
   24.9290009        -2.21527657E-11
   25.1095009        -2.97024876E-08
   25.2900009        -6.32520454E-08
   25.4705009        -1.00649693E-07
   25.6509991        -1.41805231E-07
   25.8314991        -1.86556747E-07
   26.0119991        -2.34669855E-07
   26.1924992        -2.85838865E-07
   26.3729992        -3.39689620E-07
   26.5534992        -3.95783843E-07
   26.7339993        -4.53624324E-07
   26.9144993        -5.12661245E-07
   27.0949993        -5.72298688E-07
   27.2754993        -6.31901401E-07
   27.4559994        -6.90801869E-07
   27.6364994        -7.48306832E-07
   27.8169994        -8.03704438E-07
   27.9974995        -8.56271129E-07
   28.1779995        -9.05278569E-07
   28.3584995        -9.50000810E-07
   28.5389996        -9.89721912E-07
   28.7194996        -1.02374383E-06
   28.8999996        -1.05139361E-06
   29.0804996        -1.07203255E-06
   29.2609997        -1.08506333E-06
   29.4414997        -1.08993868E-06
   29.6219997        -1.08616996E-06
   29.8024998        -1.07333472E-06
   29.9829998        -1.05108609E-06
   30.1634998        -1.01916089E-06
   30.3439999        -9.77389163E-07
   30.5244999        -9.25702807E-07
   30.7049999        -8.64145022E-07
   30.8855000        -7.92878893E-07
   31.0660000        -7.12195856E-07
   31.2465000        -6.22522862E-07
   31.4270000        -5.24428344E-07
   31.6075001        -4.18626200E-07
   31.7880001        -3.05977437E-07
   31.9685001        -1.87489064E-07
   32.1489983        -6.43095746E-08
   32.3294983         6.22786160E-08
   32.5099983         1.90870793E-07
   32.6904984         3.19955262E-07
   32.8709984         4.47932308E-07
   33.0514984         5.73136845E-07
   33.2319984         6.93864763E-07
   33.4124985         8.08401467E-07
   33.5929985         9.15052908E-07
   33.7734985         1.01217790E-06
   33.9539986         1.09822042E-06
   34.1344986         1.17174136E-06
   34.3149986         1.23144866E-06
   34.4954987         1.27622445E-06
   34.6759987         1.30514888E-06
   34.8564987         1.31751960E-06
   35.0369987         1.31286720E-06
   35.2174988         1.29096588E-06
   35.3979988         1.25183885E-06
   35.5784988         1.19575952E-06
   35.7589989         1.12324824E-06
   35.9394989         1.03506397E-06
   36.1199989         9.32192279E-07
   36.3004990         8.15828230E-07
   36.4809990         6.87355850E-07
   36.6614990         5.48323442E-07
   36.8419991         4.00415530E-07
   37.0224991         2.45421631E-07
   37.2029991         8.52033679E-08
   37.3834991        -7.83398590E-08
   37.5639992        -2.43305266E-07
   37.7444992        -4.07819982E-07
   37.9249992        -5.70072302E-07
   38.1054993        -7.28340353E-07
   38.2859993        -8.81016206E-07
   38.4664993        -1.02662705E-06
   38.6469994        -1.16385138E-06
   38.8274994        -1.29153045E-06
   39.0079994        -1.40867701E-06
   39.1884995        -1.51447898E-06
   39.3689995        -1.60830041E-06
   39.5494995        -1.68967938E-06
   39.7299995        -1.75832361E-06
   39.9104996        -1.81410235E-06
   40.0909996        -1.85703789E-06
   40.2714996        -1.88729371E-06
   40.4519997        -1.90516153E-06
   40.6324997        -1.91104618E-06
   40.8129997        -1.90544961E-06
   40.9934998        -1.88895331E-06
   41.1739998        -1.86220063E-06
   41.3544998        -1.82587860E-06
   41.5349998        -1.78069865E-06
   41.7154999        -1.72737941E-06
   41.8959999        -1.66663006E-06
   42.0764999        -1.59913338E-06
   42.2570000        -1.52553275E-06
   42.4375000        -1.44641842E-06
   42.6180000        -1.36231768E-06
   42.7985001        -1.27368537E-06
   42.9790001        -1.18089770E-06
   43.1595001        -1.08424729E-06
   43.3400002        -9.83940140E-07
   43.5205002        -8.80094319E-07
   43.7010002        -7.72740748E-07
   43.8815002        -6.61824856E-07
   44.0620003        -5.47210618E-07
   44.2425003        -4.28685894E-07
   44.4230003        -3.05970303E-07
   44.6035004        -1.78724889E-07
   44.7840004        -4.65642209E-08
   44.9645004         9.09272941E-08
   45.1450005         2.34177762E-07
   45.3255005         3.83606022E-07
   45.5060005         5.39597579E-07
   45.6865005         7.02478587E-07
   45.8670006         8.72488499E-07
   46.0475006         1.04975243E-06
   46.2280006         1.23425536E-06
   46.4085007         1.42581837E-06
   46.5890007         1.62407810E-06
   46.7695007         1.82847157E-06
   46.9500008         2.03822560E-06
   47.1305008         2.25235317E-06
   47.3110008         2.46965374E-06
   47.4915009         2.68872191E-06
   47.6720009         2.90796061E-06
   47.8525009         3.12559882E-06
   48.0330009         3.33971798E-06
   48.2135010         3.54828148E-06
   48.3940010         3.74916954E-06
   48.5745010         3.94021936E-06
   48.7550011         4.11927113E-06
   48.9355011         4.28421527E-06
   49.1160011         4.43304498E-06
   49.2965012         4.56390990E-06
   49.4770012         4.67516702E-06
   49.6575012         4.76543391E-06
   49.8380013         4.83363465E-06
   50.0185013         4.87904072E-06
   50.1990013         4.90130469E-06
   50.3795013         4.90048114E-06
   50.5600014         4.87704074E-06
   50.7405014         4.83187250E-06
   50.9210014         4.76627065E-06
   51.1015015         4.68191593E-06
   51.2820015         4.58084060E-06
   51.4625015         4.46538979E-06
   51.6430016         4.33816831E-06
   51.8235016         4.20198648E-06
   52.0040016         4.05979563E-06
   52.1845016         3.91462254E-06
   52.3650017         3.76949924E-06
   52.5455017         3.62739070E-06
   52.7260017         3.49112474E-06
   52.9065018         3.36331937E-06
   53.0870018         3.24631696E-06
   53.2675018         3.14211934E-06
   53.4480019         3.05233220E-06
   53.6285019         2.97811516E-06
   53.8089981         2.92014261E-06
   53.9894981         2.87857711E-06
   54.1699982         2.85305350E-06
   54.3504982         2.84267844E-06
   54.5309982         2.84604243E-06
   54.7114983         2.86124600E-06
   54.8919983         2.88593901E-06
   55.0724983         2.91737047E-06
   55.2529984         2.95244877E-06
   55.4334984         2.98780742E-06
   55.6139984         3.01987734E-06
   55.7944984         3.04496280E-06
   55.9749985         3.05931530E-06
   56.1554985         3.05921048E-06
   56.3359985         3.04101604E-06
   56.5164986         3.00126248E-06
   56.6969986         2.93670473E-06
   56.8774986         2.84438011E-06
   57.0579987         2.72165994E-06
   57.2384987         2.56629392E-06
   57.4189987         2.37644872E-06
   57.5994987         2.15073851E-06
   57.7799988         1.88824515E-06
   57.9604988         1.58853186E-06
   58.1409988         1.25164740E-06
   58.3214989         8.78120090E-07
   58.5019989         4.68940897E-07
   58.6824989         2.55400820E-08
   58.8629990        -4.50244585E-07
   59.0434990        -9.56208964E-07
   59.2239990        -1.48982383E-06
   59.4044991        -2.04828439E-06
   59.5849991        -2.62855610E-06
   59.7654991        -3.22742244E-06
   59.9459991        -3.84153100E-06
   60.1264992        -4.46743707E-06
   60.3069992        -5.10163909E-06
   60.4874992        -5.74061278E-06
   60.6679993        -6.38084566E-06
   60.8484993        -7.01886120E-06
   61.0289993        -7.65124332E-06
   61.2094994        -8.27465919E-06
   61.3899994        -8.88587147E-06
   61.5704994        -9.48176057E-06
   61.7509995        -1.00593334E-05
   61.9314995        -1.06157313E-05
   62.1119995        -1.11482332E-05
   62.2924995        -1.16542624E-05
   62.4729996        -1.21313788E-05
   62.6534996        -1.25772749E-05
   62.8339996        -1.29897753E-05
   63.0144997        -1.33668254E-05
   63.1949997        -1.37064872E-05
   63.3754997        -1.40069405E-05
   63.5559998        -1.42664867E-05
   63.7364998        -1.44835558E-05
   63.9169998        -1.46567199E-05
   64.0975037        -1.47847159E-05
   64.2779999        -1.48664685E-05
   64.4585037        -1.49011203E-05
   64.6389999        -1.48880572E-05
   64.8195038        -1.48269392E-05
   65.0000000        -1.47177316E-05
   65.1804962        -1.45607237E-05
   65.3610001        -1.43565530E-05
   65.5414963        -1.41062155E-05
   65.7220001        -1.38110790E-05
   65.9024963        -1.34728853E-05
   66.0830002        -1.30937460E-05
   66.2634964        -1.26761433E-05
   66.4440002        -1.22229094E-05
   66.6244965        -1.17372174E-05
   66.8050003        -1.12225534E-05
   66.9854965        -1.06826883E-05
   67.1660004        -1.01216428E-05
   67.3464966        -9.54364077E-06
   67.5270004        -8.95306312E-06
   67.7074966        -8.35438459E-06
   67.8880005        -7.75211083E-06
   68.0684967        -7.15071337E-06
   68.2490005        -6.55455733E-06
   68.4294968        -5.96783229E-06
   68.6100006        -5.39448592E-06
   68.7904968        -4.83816575E-06
   68.9710007        -4.30216414E-06
   69.1514969        -3.78937943E-06
   69.3320007        -3.30228227E-06
   69.5124969        -2.84289717E-06
   69.6930008        -2.41279395E-06
   69.8734970        -2.01308967E-06
   70.0540009        -1.64446010E-06
   70.2344971        -1.30716035E-06
   70.4150009        -1.00104819E-06
   70.5954971        -7.25617326E-07
   70.7760010        -4.80031474E-07
   70.9564972        -2.63162633E-07
   71.1370010        -7.36327479E-08
   71.3174973         9.01472532E-08
   71.4980011         2.29932297E-07
   71.6784973         3.47603162E-07
   71.8590012         4.45123646E-07
   72.0394974         5.24502070E-07
   72.2200012         5.87758620E-07
   72.4004974         6.36895095E-07
   72.5810013         6.73874069E-07
   72.7614975         7.00602698E-07
   72.9420013         7.18928277E-07
   73.1224976         7.30643990E-07
   73.3030014         7.37495270E-07
   73.4834976         7.41201518E-07
   73.6640015         7.43479404E-07
   73.8444977         7.46064131E-07
   74.0250015         7.50741322E-07
   74.2054977         7.59364184E-07
   74.3860016         7.73875001E-07
   74.5664978         7.96317522E-07
   74.7470016         8.28841848E-07
   74.9274979         8.73702390E-07
   75.1080017         9.33249112E-07
   75.2884979         1.00991099E-06
   75.4690018         1.10617384E-06
   75.6494980         1.22455390E-06
   75.8300018         1.36756910E-06
   76.0104980         1.53770179E-06
   76.1910019         1.73736396E-06
   76.3714981         1.96884957E-06
   76.5520020         2.23429606E-06
   76.7324982         2.53562666E-06
   76.9130020         2.87450280E-06
   77.0934982         3.25226461E-06
   77.2740021         3.66987138E-06
   77.4544983         4.12784539E-06
   77.6350021         4.62621983E-06
   77.8154984         5.16448654E-06
   77.9960022         5.74156047E-06
   78.1764984         6.35574497E-06
   78.3570023         7.00472447E-06
   78.5374985         7.68555583E-06
   78.7180023         8.39468612E-06
   78.8984985         9.12797805E-06
   79.0790024         9.88075135E-06
   79.2594986         1.06478383E-05
   79.4400024         1.14236336E-05
   79.6204987         1.22021784E-05
   79.8010025         1.29772225E-05
   79.9814987         1.37423121E-05
   80.1620026         1.44908699E-05
   80.3424988         1.52162802E-05
   80.5230026         1.59119736E-05
   80.7034988         1.65715210E-05
   80.8840027         1.71887150E-05
   81.0644989         1.77576640E-05
   81.2450027         1.82728618E-05
   81.4254990         1.87292790E-05
   81.6060028         1.91224226E-05
   81.7864990         1.94483982E-05
   81.9670029         1.97039626E-05
   82.1474991         1.98865619E-05
   82.3280029         1.99943406E-05
   82.5084991         2.00261584E-05
   82.6890030         1.99815786E-05
   82.8694992         1.98608523E-05
