  -7.65000010        -2.65026456E-18
  -7.53125000        -2.65026456E-18
  -7.41249990        -2.65026456E-18
  -7.29374981        -2.65026476E-18
  -7.17500019        -2.65026476E-18
  -7.05625010        -2.65026476E-18
  -6.93750000        -2.65026456E-18
  -6.81874990        -2.65026394E-18
  -6.69999981        -2.65026373E-18
  -6.58125019        -2.65026290E-18
  -6.46250010        -2.65026145E-18
  -6.34375000        -2.65026021E-18
  -6.22499990        -2.65025918E-18
  -6.10624981        -2.65025856E-18
  -5.98750019        -2.65025835E-18
  -5.86875010        -2.65025835E-18
  -5.75000000        -2.65025856E-18
  -5.63124990        -2.65025814E-18
  -5.51249981        -2.65025711E-18
  -5.39375019        -2.65025649E-18
  -5.27500010        -2.65025546E-18
  -5.15625000        -2.65025401E-18
  -5.03749990        -2.65025256E-18
  -4.91874981        -2.65025111E-18
  -4.80000019        -2.65024946E-18
  -4.68125010        -2.65024739E-18
  -4.56250000        -2.65024574E-18
  -4.44374990        -2.65024388E-18
  -4.32499981        -2.65024243E-18
  -4.20625019        -2.65024119E-18
  -4.08750010        -2.65023974E-18
  -3.96875000        -2.65023871E-18
  -3.84999990        -2.65023726E-18
  -3.73125005        -2.65023622E-18
  -3.61249995        -2.65023498E-18
  -3.49375010        -2.65023395E-18
  -3.37500000        -2.65023250E-18
  -3.25624990        -2.65023085E-18
  -3.13750005        -2.65022899E-18
  -3.01874995        -2.65022733E-18
  -2.90000010        -2.65022444E-18
  -2.78125000        -2.65022216E-18
  -2.66249990        -2.65021885E-18
  -2.54375005        -2.65021617E-18
  -2.42499995        -2.65021348E-18
  -2.30625010        -2.65021058E-18
  -2.18750000        -2.65020748E-18
  -2.06874990        -2.65020479E-18
  -1.95000005        -2.65020210E-18
  -1.83124995        -2.65019962E-18
  -1.71249998        -2.65019755E-18
  -1.59375000        -2.65019507E-18
  -1.47500002        -2.65019218E-18
  -1.35625005        -2.65018908E-18
  -1.23749995        -2.65018577E-18
  -1.11874998        -2.65018246E-18
  -1.00000000        -2.65017874E-18
 -0.881250024        -2.65017543E-18
 -0.762499988        -2.65017170E-18
 -0.643750012        -2.65016798E-18
 -0.524999976        -2.65016467E-18
 -0.406250000        -2.65016095E-18
 -0.287499994        -2.65015744E-18
 -0.168750003        -2.65015433E-18
  -5.00000007E-02    -2.65015165E-18
   6.87500015E-02    -2.65014916E-18
  0.187500000        -2.65014648E-18
  0.306250006        -2.65014317E-18
  0.425000012        -2.65013944E-18
  0.543749988        -2.65013510E-18
  0.662500024        -2.65013117E-18
  0.781250000        -2.65012621E-18
  0.899999976        -2.65012063E-18
   1.01874995        -2.65011546E-18
   1.13750005        -2.65010987E-18
   1.25625002        -2.65010450E-18
   1.37500000        -2.65009933E-18
   1.49374998        -2.65009436E-18
   1.61249995        -2.65009002E-18
   1.73125005        -2.65008568E-18
   1.85000002        -2.65008175E-18
   1.96875000        -2.65007782E-18
   2.08750010        -2.65007451E-18
   2.20624995        -2.65007058E-18
   2.32500005        -2.65006707E-18
   2.44374990        -2.65006293E-18
   2.56250000        -2.65005817E-18
   2.68125010        -2.65005280E-18
   2.79999995        -2.65004721E-18
   2.91875005        -2.65004122E-18
   3.03749990        -2.65003543E-18
   3.15625000        -2.65002964E-18
   3.27500010        -2.65002343E-18
   3.39374995        -2.65001785E-18
   3.51250005        -2.65001268E-18
   3.63124990        -2.65000751E-18
   3.75000000        -2.65000255E-18
   3.86875010        -2.64999779E-18
   3.98749995        -2.64999283E-18
   4.10624981        -2.64998766E-18
   4.22499990        -2.64998187E-18
   4.34375000        -2.64997608E-18
   4.46250010        -2.64996967E-18
   4.58125019        -2.64996263E-18
   4.69999981        -2.64995540E-18
   4.81874990        -2.64994795E-18
   4.93750000        -2.64994051E-18
   5.05625010        -2.64993327E-18
   5.17500019        -2.64992583E-18
   5.29374981        -2.64991879E-18
   5.41249990        -2.64991259E-18
   5.53125000        -2.64990618E-18
   5.65000010        -2.64989977E-18
   5.76875019        -2.64989398E-18
   5.88749981        -2.64988757E-18
   6.00624990        -2.64988074E-18
   6.12500000        -2.64987433E-18
   6.24375010        -2.64986792E-18
   6.36250019        -2.64986130E-18
   6.48124981        -2.64985407E-18
   6.59999990        -2.64984724E-18
   6.71875000        -2.64983980E-18
   6.83750010        -2.64983173E-18
   6.95625019        -2.64982408E-18
   7.07499981        -2.64981643E-18
   7.19374990        -2.64980857E-18
   7.31250000        -2.64980175E-18
   7.43125010        -2.64979472E-18
   7.55000019        -2.64978831E-18
   7.66874981        -2.64978148E-18
   7.78749990        -2.64977507E-18
   7.90625000        -2.64976783E-18
   8.02499962        -2.64976039E-18
   8.14375019        -2.64975274E-18
   8.26249981        -2.64974467E-18
   8.38125038        -2.64973661E-18
   8.50000000        -2.64972772E-18
   8.61874962        -2.64971882E-18
   8.73750019        -2.64971034E-18
   8.85624981        -2.64970187E-18
   8.97500038        -2.64969380E-18
   9.09375000        -2.64968553E-18
   9.21249962        -2.64967664E-18
   9.33125019        -2.64966774E-18
   9.44999981        -2.64965885E-18
   9.56875038        -2.64965017E-18
   9.68750000        -2.64964086E-18
   9.80624962        -2.64963135E-18
   9.92500019        -2.64962163E-18
   10.0437498        -2.64961253E-18
   10.1625004        -2.64960281E-18
   10.2812500        -2.64959392E-18
   10.3999996        -2.64958482E-18
   10.5187502        -2.64957593E-18
   10.6374998        -2.64956745E-18
   10.7562504        -2.64955938E-18
   10.8750000        -2.64955153E-18
   10.9937496        -2.64954346E-18
   11.1125002        -2.64953560E-18
   11.2312498        -2.64952754E-18
   11.3500004        -2.64951927E-18
   11.4687500        -2.64951099E-18
   11.5874996        -2.64950127E-18
   11.7062502        -2.64949156E-18
   11.8249998        -2.64948142E-18
   11.9437504        -2.64947108E-18
   12.0625000        -2.64946054E-18
   12.1812496        -2.64945020E-18
   12.3000002        -2.64943924E-18
   12.4187498        -2.64942828E-18
   12.5375004        -2.64941773E-18
   12.6562500        -2.64940780E-18
   12.7749996        -2.64939767E-18
   12.8937502        -2.64938795E-18
   13.0124998        -2.64937823E-18
   13.1312504        -2.64936893E-18
   13.2500000        -2.64935983E-18
   13.3687496        -2.64935052E-18
   13.4875002        -2.64934122E-18
   13.6062498        -2.64933191E-18
   13.7250004        -2.64932240E-18
   13.8437500        -2.64931185E-18
   13.9624996        -2.64930068E-18
   14.0812502        -2.64928828E-18
   14.1999998        -2.64927504E-18
   14.3187504        -2.64926057E-18
   14.4375000        -2.64924588E-18
   14.5562496        -2.64923058E-18
   14.6750002        -2.64921507E-18
   14.7937498        -2.64920059E-18
   14.9125004        -2.64918736E-18
   15.0312500        -2.64917640E-18
   15.1499996        -2.64916792E-18
   15.2687502        -2.64916296E-18
   15.3874998        -2.64916192E-18
   15.5062504        -2.64916544E-18
   15.6250000        -2.64917164E-18
   15.7437496        -2.64918095E-18
   15.8625002        -2.64919067E-18
   15.9812498        -2.64919915E-18
   16.1000004        -2.64920225E-18
   16.2187500        -2.64919708E-18
   16.3374996        -2.64917867E-18
   16.4562492        -2.64914373E-18
   16.5750008        -2.64908913E-18
   16.6937504        -2.64901262E-18
   16.8125000        -2.64891356E-18
   16.9312496        -2.64879445E-18
   17.0499992        -2.64865962E-18
   17.1687508        -2.64851734E-18
   17.2875004        -2.64837879E-18
   17.4062500        -2.64825761E-18
   17.5249996        -2.64816931E-18
   17.6437492        -2.64813291E-18
   17.7625008        -2.64816538E-18
   17.8812504        -2.64828346E-18
   18.0000000        -2.64850039E-18
   18.1187496        -2.64882464E-18
   18.2374992        -2.64925746E-18
   18.3562508        -2.64979203E-18
   18.4750004        -2.65041283E-18
   18.5937500        -2.65109380E-18
   18.7124996        -2.65180022E-18
   18.8312492        -2.65248740E-18
   18.9500008        -2.65310344E-18
   19.0687504        -2.65359189E-18
   19.1875000        -2.65389360E-18
   19.3062496        -2.65395192E-18
   19.4249992        -2.65371411E-18
   19.5437508        -2.65313632E-18
   19.6625004        -2.65218692E-18
   19.7812500        -2.65084896E-18
   19.8999996        -2.64912201E-18
   20.0187492        -2.64702511E-18
   20.1375008        -2.64459630E-18
   20.2562504        -2.64189142E-18
   20.3750000        -2.63898491E-18
   20.4937496        -2.63596695E-18
   20.6124992        -2.63293946E-18
   20.7312508        -2.63001683E-18
   20.8500004        -2.62732105E-18
   20.9687500        -2.62497930E-18
   21.0874996        -2.62312248E-18
   21.2062492        -2.62188213E-18
   21.3250008        -2.62138871E-18
   21.4437504        -2.62176984E-18
   21.5625000        -2.62314606E-18
   21.6812496        -2.62562967E-18
   21.7999992        -2.62931786E-18
   21.9187508        -2.63428901E-18
   22.0375004        -2.64059316E-18
   22.1562500        -2.64824686E-18
   22.2749996        -2.65722073E-18
   22.3937492        -2.66743352E-18
   22.5125008        -2.67874025E-18
   22.6312504        -2.69092731E-18
   22.7500000        -2.70370828E-18
   22.8687496        -2.71672562E-18
   22.9874992        -2.72955685E-18
   23.1062508        -2.74172964E-18
   23.2250004        -2.75274293E-18
   23.3437500        -2.76209627E-18
   23.4624996        -2.76932852E-18
   23.5812492        -2.77405751E-18
   23.7000008        -2.77602889E-18
   23.8187504        -2.77516407E-18
   23.9375000        -2.77160285E-18
   24.0562496        -2.76574228E-18
   24.1749992        -2.75826436E-18
   24.2937508        -2.75014661E-18
   24.4125004        -2.74265339E-18
   24.5312500        -2.73730650E-18
   24.6499996        -2.73582936E-18
   24.7687492        -2.74006556E-18
   24.8875008        -2.75187253E-18
   25.0062504        -2.77299417E-18
   25.1250000        -2.80490969E-18
   25.2437496        -2.84867520E-18
   25.3624992        -2.90474957E-18
   25.4812508        -2.97282756E-18
   25.6000004        -3.05167525E-18
   25.7187500        -3.13898478E-18
   25.8374996        -3.23124913E-18
   25.9562492        -3.32367353E-18
   26.0750008        -3.41011618E-18
   26.1937504        -3.48308054E-18
   26.3125000        -3.53374701E-18
   26.4312496        -3.55205541E-18
   26.5499992        -3.52684088E-18
   26.6687508        -3.44602099E-18
   26.7875004        -3.29682718E-18
   26.9062500        -3.06609549E-18
   27.0249996        -2.74059537E-18
   27.1437492        -2.30740812E-18
   27.2625008        -1.75433944E-18
   27.3812504        -1.07038877E-18
   27.5000000        -2.46218478E-19
   27.6187496         7.25333638E-19
   27.7374992         1.84870896E-18
   27.8562508         3.12512434E-18
   27.9750004         4.55202082E-18
   28.0937500         6.12254605E-18
   28.2124996         7.82513935E-18
   28.3312492         9.64305238E-18
   28.4500008         1.15540456E-17
   28.5687504         1.35301362E-17
   28.6875000         1.55374480E-17
   28.8062496         1.75362555E-17
   28.9249992         1.94810762E-17
   29.0437508         2.13210253E-17
   29.1625004         2.30001904E-17
   29.2812500         2.44583179E-17
   29.3999996         2.56315181E-17
   29.5187492         2.64531483E-17
   29.6375008         2.68548702E-17
   29.7562504         2.67676159E-17
   29.8750000         2.61228303E-17
   29.9937496         2.48535216E-17
   30.1124992         2.28954660E-17
   30.2312508         2.01882891E-17
   30.3500004         1.66764426E-17
   30.4687500         1.23102028E-17
   30.5874996         7.04657710E-18
   30.7062492         8.49952740E-19
   30.8250008        -6.30720585E-18
   30.9437504        -1.44437895E-17
   31.0625000        -2.35694892E-17
   31.1812496        -3.36844489E-17
   31.2999992        -4.47787872E-17
   31.4187508        -5.68320660E-17
   31.5375004        -6.98130577E-17
   31.6562500        -8.36790201E-17
   31.7749996        -9.83753462E-17
   31.8937492        -1.13834915E-16
   32.0125008        -1.29977391E-16
   32.1312485        -1.46708740E-16
   32.2500000        -1.63920397E-16
   32.3687515        -1.81488694E-16
   32.4874992        -1.99274043E-16
   32.6062508        -2.17120842E-16
   32.7249985        -2.34856693E-16
   32.8437500        -2.52292151E-16
   32.9625015        -2.69220714E-16
   33.0812492        -2.85419054E-16
   33.2000008        -3.00647092E-16
   33.3187485        -3.14648970E-16
   33.4375000        -3.27153585E-16
   33.5562515        -3.37876519E-16
   33.6749992        -3.46521126E-16
   33.7937508        -3.52780514E-16
   33.9124985        -3.56340382E-16
   34.0312500        -3.56881371E-16
   34.1500015        -3.54082986E-16
   34.2687492        -3.47626530E-16
   34.3875008        -3.37199502E-16
   34.5062485        -3.22500965E-16
   34.6250000        -3.03245471E-16
   34.7437515        -2.79169036E-16
   34.8624992        -2.50034491E-16
   34.9812508        -2.15636814E-16
   35.0999985        -1.75809748E-16
   35.2187500        -1.30430448E-16
   35.3375015        -7.94260346E-17
   35.4562492        -2.27771692E-17
   35.5750008         3.94768539E-17
   35.6937485         1.07234702E-16
   35.8125000         1.80330932E-16
   35.9312515         2.58533567E-16
   36.0499992         3.41545204E-16
   36.1687508         4.29001885E-16
   36.2874985         5.20477288E-16
   36.4062500         6.15483521E-16
   36.5250015         7.13477133E-16
   36.6437492         8.13862396E-16
   36.7625008         9.15998687E-16
   36.8812485         1.01920436E-15
   37.0000000         1.12276441E-15
   37.1187515         1.22593535E-15
   37.2374992         1.32795189E-15
   37.3562508         1.42803169E-15
   37.4749985         1.52537918E-15
   37.5937500         1.61918998E-15
   37.7125015         1.70865403E-15
   37.8312492         1.79295593E-15
   37.9500008         1.87127747E-15
   38.0687485         1.94279733E-15
   38.1875000         2.00669220E-15
   38.3062515         2.06213496E-15
   38.4249992         2.10829592E-15
   38.5437508         2.14434268E-15
   38.6624985         2.16944238E-15
   38.7812500         2.18276155E-15
   38.9000015         2.18347306E-15
   39.0187492         2.17075952E-15
   39.1375008         2.14382112E-15
   39.2562485         2.10188452E-15
   39.3750000         2.04421492E-15
   39.4937515         1.97012918E-15
   39.6124992         1.87901130E-15
   39.7312508         1.77032671E-15
   39.8499985         1.64364276E-15
   39.9687500         1.49864406E-15
   40.0875015         1.33515453E-15
   40.2062492         1.15315192E-15
   40.3250008         9.52784058E-16
   40.4437485         7.34384871E-16
   40.5625000         4.98484978E-16
   40.6812515         2.45822037E-16
   40.7999992        -2.26577144E-17
   40.9187508        -3.05798693E-16
   41.0374985        -6.02237673E-16
   41.1562500        -9.10415682E-16
   41.2750015        -1.22858900E-15
   41.3937492        -1.55484989E-15
   41.5125008        -1.88714600E-15
   41.6312485        -2.22330563E-15
   41.7500000        -2.56106256E-15
   41.8687515        -2.89808787E-15
   41.9874992        -3.23201282E-15
   42.1062508        -3.56045937E-15
   42.2249985        -3.88106007E-15
   42.3437500        -4.19147901E-15
   42.4625015        -4.48943047E-15
   42.5812492        -4.77268464E-15
   42.7000008        -5.03907566E-15
   42.8187485        -5.28650076E-15
   42.9375000        -5.51291013E-15
   43.0562515        -5.71629883E-15
   43.1749992        -5.89468947E-15
   43.2937508        -6.04611525E-15
   43.4124985        -6.16859664E-15
   43.5312500        -6.26012702E-15
   43.6500015        -6.31865699E-15
   43.7687492        -6.34207999E-15
   43.8875008        -6.32822635E-15
   44.0062485        -6.27486751E-15
   44.1250000        -6.17973088E-15
   44.2437515        -6.04052187E-15
   44.3624992        -5.85495685E-15
   44.4812508        -5.62080815E-15
   44.5999985        -5.33596833E-15
   44.7187500        -4.99850871E-15
   44.8375015        -4.60675682E-15
   44.9562492        -4.15938197E-15
   45.0750008        -3.65546936E-15
   45.1937485        -3.09461603E-15
   45.3125000        -2.47700238E-15
   45.4312515        -1.80346761E-15
   45.5499992        -1.07557271E-15
   45.6687508        -2.95653356E-16
   45.7874985         5.33153507E-16
   45.9062500         1.40689494E-15
   46.0250015         2.32081247E-15
   46.1437492         3.26936464E-15
   46.2625008         4.24628628E-15
   46.3812485         5.24466792E-15
   46.5000000         6.25703365E-15
   46.6187515         7.27546753E-15
   46.7374992         8.29172326E-15
   46.8562508         9.29736228E-15
   46.9749985         1.02838956E-14
   47.0937500         1.12429072E-14
   47.2125015         1.21661832E-14
   47.3312492         1.30458354E-14
   47.4500008         1.38743785E-14
   47.5687485         1.46448287E-14
   47.6875000         1.53507358E-14
   47.8062515         1.59862188E-14
   47.9249992         1.65459585E-14
   48.0437508         1.70251759E-14
   48.1624985         1.74195697E-14
   48.2812500         1.77252503E-14
   48.4000015         1.79386552E-14
   48.5187492         1.80564588E-14
   48.6375008         1.80754629E-14
   48.7562485         1.79925146E-14
   48.8750000         1.78044293E-14
   48.9937515         1.75079271E-14
   49.1124992         1.70996081E-14
   49.2312508         1.65759587E-14
   49.3499985         1.59333708E-14
   49.4687500         1.51682222E-14
   49.5875015         1.42769843E-14
   49.7062492         1.32563418E-14
   49.8250008         1.21033927E-14
   49.9437485         1.08158137E-14
   50.0625000         9.39207496E-15
   50.1812515         7.83164207E-15
   50.2999992         6.13518923E-15
   50.4187508         4.30479169E-15
   50.5374985         2.34407728E-15
   50.6562500         2.58362281E-16
   50.7750015        -1.94525966E-15
   50.8937492        -4.25789021E-15
   51.0125008        -6.66884032E-15
   51.1312485        -9.16570541E-15
   51.2500000        -1.17344963E-14
   51.3687515        -1.43598529E-14
   51.4874992        -1.70252555E-14
   51.6062508        -1.97133078E-14
   51.7249985        -2.24060611E-14
   51.8437500        -2.50853364E-14
   51.9625015        -2.77330683E-14
   52.0812492        -3.03316332E-14
   52.2000008        -3.28641431E-14
   52.3187485        -3.53147213E-14
   52.4375000        -3.76687376E-14
   52.5562515        -3.99129243E-14
   52.6749992        -4.20354838E-14
   52.7937508        -4.40261231E-14
   52.9124985        -4.58759380E-14
   53.0312500        -4.75772782E-14
   53.1500015        -4.91235403E-14
   53.2687492        -5.05088626E-14
   53.3875008        -5.17277769E-14
   53.5062485        -5.27748621E-14
   53.6250000        -5.36443279E-14
   53.7437515        -5.43296216E-14
   53.8624992        -5.48230623E-14
   53.9812508        -5.51155428E-14
   54.0999985        -5.51962345E-14
   54.2187500        -5.50524558E-14
   54.3375015        -5.46696206E-14
   54.4562492        -5.40312796E-14
   54.5750008        -5.31193301E-14
   54.6937485        -5.19143105E-14
   54.8125000        -5.03958684E-14
   54.9312515        -4.85433328E-14
   55.0499992        -4.63363817E-14
   55.1687508        -4.37557874E-14
   55.2874985        -4.07842671E-14
   55.4062500        -3.74073466E-14
   55.5250015        -3.36141874E-14
   55.6437492        -2.93984468E-14
   55.7625008        -2.47590085E-14
   55.8812485        -1.97007056E-14
   56.0000000        -1.42348088E-14
   56.1187515        -8.37946910E-15
   56.2374992        -2.15989315E-15
   56.3562508         4.39160833E-15
   56.4749985         1.12357760E-14
   56.5937500         1.83267725E-14
   56.7125015         2.56127839E-14
   56.8312492         3.30366702E-14
   56.9500008         4.05369538E-14
   57.0687485         4.80487672E-14
   57.1875000         5.55050594E-14
   57.3062515         6.28377762E-14
   57.4249992         6.99790432E-14
   57.5437508         7.68624666E-14
   57.6624985         8.34242411E-14
   57.7812500         8.96042680E-14
   57.9000015         9.53471040E-14
   58.0187492         1.00602774E-13
   58.1375008         1.05327415E-13
   58.2562485         1.09483650E-13
   58.3750000         1.13040877E-13
   58.4937515         1.15975223E-13
   58.6124992         1.18269340E-13
   58.7312508         1.19912001E-13
   58.8499985         1.20897555E-13
   58.9687500         1.21225106E-13
   59.0875015         1.20897704E-13
   59.2062492         1.19921434E-13
   59.3250008         1.18304333E-13
   59.4437485         1.16055508E-13
   59.5625000         1.13184168E-13
   59.6812515         1.09698797E-13
   59.7999992         1.05606489E-13
   59.9187508         1.00912422E-13
   60.0374985         9.56195436E-14
   60.1562500         8.97285244E-14
   60.2750015         8.32378532E-14
   60.3937492         7.61443114E-14
   60.5125008         6.84435757E-14
   60.6312485         6.01311603E-14
   60.7500000         5.12034025E-14
   60.8687515         4.16587947E-14
   60.9874992         3.14992783E-14
   61.1062508         2.07317192E-14
   61.2249985         9.36932111E-15
   61.3437500        -2.56691408E-15
   61.4625015        -1.50469355E-14
   61.5812492        -2.80304310E-14
   61.7000008        -4.14659220E-14
   61.8187485        -5.52900587E-14
   61.9375000        -6.94272927E-14
   62.0562515        -8.37896850E-14
   62.1749992        -9.82773704E-14
   62.2937508        -1.12779110E-13
   62.4124985        -1.27173391E-13
   62.5312500        -1.41329792E-13
   62.6500015        -1.55110706E-13
   62.7687492        -1.68373358E-13
   62.8875008        -1.80972086E-13
   63.0062485        -1.92760684E-13
   63.1250000        -2.03595102E-13
   63.2437515        -2.13335968E-13
   63.3624992        -2.21851156E-13
   63.4812508        -2.29018356E-13
   63.5999985        -2.34727304E-13
   63.7187500        -2.38881777E-13
   63.8375015        -2.41401354E-13
   63.9562492        -2.42222800E-13
   64.0749969        -2.41300767E-13
   64.1937485        -2.38608449E-13
   64.3125000        -2.34137362E-13
   64.4312515        -2.27896939E-13
   64.5500031        -2.19913497E-13
   64.6687469        -2.10228590E-13
   64.7874985        -1.98897553E-13
   64.9062500        -1.85987185E-13
   65.0250015        -1.71573462E-13
   65.1437531        -1.55739042E-13
   65.2624969        -1.38570687E-13
   65.3812485        -1.20156923E-13
   65.5000000        -1.00585650E-13
   65.6187515        -7.99420615E-14
   65.7375031        -5.83070376E-14
   65.8562469        -3.57557747E-14
   65.9749985        -1.23569300E-14
   66.0937500         1.18276293E-14
   66.2125015         3.67427002E-14
   66.3312531         6.23389686E-14
   66.4499969         8.85717552E-14
   66.5687485         1.15399416E-13
   66.6875000         1.42781227E-13
   66.8062515         1.70675025E-13
   66.9250031         1.99034664E-13
   67.0437469         2.27807356E-13
   67.1624985         2.56930951E-13
   67.2812500         2.86331505E-13
   67.4000015         3.15920928E-13
   67.5187531         3.45595189E-13
   67.6374969         3.75232695E-13
   67.7562485         4.04693477E-13
   67.8750000         4.33818644E-13
   67.9937515         4.62430875E-13
   68.1125031         4.90335257E-13
   68.2312469         5.17320832E-13
   68.3499985         5.43162791E-13
   68.4687500         5.67625211E-13
   68.5875015         5.90464309E-13
   68.7062531         6.11432020E-13
   68.8249969         6.30279845E-13
   68.9437485         6.46763025E-13
   69.0625000         6.60644337E-13
   69.1812515         6.71698211E-13
   69.3000031         6.79714640E-13
   69.4187469         6.84502043E-13
   69.5374985         6.85890418E-13
   69.6562500         6.83733398E-13
   69.7750015         6.77910148E-13
   69.8937531         6.68326017E-13
   70.0124969         6.54913027E-13
   70.1312485         6.37629164E-13
   70.2500000         6.16457189E-13
   70.3687515         5.91403228E-13
   70.4875031         5.62494387E-13
   70.6062469         5.29775930E-13
   70.7249985         4.93308519E-13
   70.8437500         4.53165310E-13
   70.9625015         4.09428703E-13
   71.0812531         3.62187629E-13
   71.1999969         3.11534950E-13
   71.3187485         2.57565453E-13
   71.4375000         2.00374290E-13
   71.5562515         1.40056139E-13
   71.6750031         7.67050337E-14
   71.7937469         1.04147368E-14
   71.9124985        -5.87194952E-14
   72.0312500        -1.30598982E-13
   72.1500015        -2.05118705E-13
   72.2687531        -2.82163886E-13
   72.3874969        -3.61606090E-13
   72.5062485        -4.43298664E-13
   72.6250000        -5.27072580E-13
   72.7437515        -6.12731274E-13
   72.8625031        -7.00047062E-13
   72.9812469        -7.88756267E-13
   73.0999985        -8.78556071E-13
   73.2187500        -9.69102186E-13
   73.3375015        -1.06000603E-12
   73.4562531        -1.15083518E-12
   73.5749969        -1.24111257E-12
   73.6937485        -1.33031954E-12
   73.8125000        -1.41789759E-12
   73.9312515        -1.50325390E-12
   74.0500031        -1.58576667E-12
   74.1687469        -1.66479222E-12
   74.2874985        -1.73967286E-12
   74.4062500        -1.80974669E-12
   74.5250015        -1.87435679E-12
   74.6437531        -1.93286186E-12
   74.7624969        -1.98464704E-12
   74.8812485        -2.02913337E-12
   75.0000000        -2.06578960E-12
   75.1187515        -2.09413953E-12
   75.2375031        -2.11377183E-12
   75.3562469        -2.12434671E-12
