  -7.19999981         9.99688385E-18
  -7.01949978         9.99688468E-18
  -6.83900023         9.99688550E-18
  -6.65850019         9.99688633E-18
  -6.47800016         9.99688798E-18
  -6.29750013         9.99688881E-18
  -6.11700010         9.99688964E-18
  -5.93650007         9.99689047E-18
  -5.75600004         9.99689212E-18
  -5.57550001         9.99689543E-18
  -5.39499998         9.99689874E-18
  -5.21449995         9.99690287E-18
  -5.03399992         9.99690701E-18
  -4.85349989         9.99691032E-18
  -4.67299986         9.99691363E-18
  -4.49249983         9.99691694E-18
  -4.31199980         9.99692024E-18
  -4.13149977         9.99692521E-18
  -3.95099998         9.99693182E-18
  -3.77049994         9.99693844E-18
  -3.58999991         9.99694589E-18
  -3.40949988         9.99695168E-18
  -3.22900009         9.99695664E-18
  -3.04850006         9.99696160E-18
  -2.86800003         9.99696657E-18
  -2.68750000         9.99697070E-18
  -2.50699997         9.99697732E-18
  -2.32649994         9.99698559E-18
  -2.14599991         9.99699552E-18
  -1.96550000         9.99700462E-18
  -1.78499997         9.99701289E-18
  -1.60450006         9.99701868E-18
  -1.42400002         9.99702364E-18
  -1.24349999         9.99702860E-18
  -1.06299996         9.99703522E-18
 -0.882499993         9.99704515E-18
 -0.702000022         9.99705673E-18
 -0.521499991         9.99706996E-18
 -0.340999991         9.99708237E-18
 -0.160500005         9.99709147E-18
   1.99999996E-02     9.99709726E-18
  0.200499997         9.99710140E-18
  0.381000012         9.99710471E-18
  0.561500013         9.99711215E-18
  0.741999984         9.99712125E-18
  0.922500014         9.99713448E-18
   1.10300004         9.99714855E-18
   1.28349996         9.99716178E-18
   1.46399999         9.99717088E-18
   1.64450002         9.99717584E-18
   1.82500005         9.99717915E-18
   2.00550008         9.99718246E-18
   2.18600011         9.99718991E-18
   2.36649990         9.99720149E-18
   2.54699993         9.99721555E-18
   2.72749996         9.99723126E-18
   2.90799999         9.99724450E-18
   3.08850002         9.99725360E-18
   3.26900005         9.99725856E-18
   3.44950008         9.99726187E-18
   3.63000011         9.99726435E-18
   3.81049991         9.99727180E-18
   3.99099994         9.99728420E-18
   4.17150021         9.99730075E-18
   4.35200024         9.99731729E-18
   4.53249979         9.99733218E-18
   4.71299982         9.99734128E-18
   4.89349985         9.99734624E-18
   5.07399988         9.99734955E-18
   5.25449991         9.99735369E-18
   5.43499994         9.99736279E-18
   5.61549997         9.99737602E-18
   5.79600000         9.99739339E-18
   5.97650003         9.99740994E-18
   6.15700006         9.99742317E-18
   6.33750010         9.99743144E-18
   6.51800013         9.99743475E-18
   6.69850016         9.99743641E-18
   6.87900019         9.99744054E-18
   7.05950022         9.99744964E-18
   7.23999977         9.99746370E-18
   7.42049980         9.99748190E-18
   7.60099983         9.99749927E-18
   7.78149986         9.99751416E-18
   7.96199989         9.99752326E-18
   8.14249992         9.99752905E-18
   8.32299995         9.99753236E-18
   8.50349998         9.99753898E-18
   8.68400002         9.99754973E-18
   8.86450005         9.99756627E-18
   9.04500008         9.99758530E-18
   9.22550011         9.99760515E-18
   9.40600014         9.99762087E-18
   9.58650017         9.99763079E-18
   9.76700020         9.99763658E-18
   9.94750023         9.99764155E-18
   10.1280003         9.99764816E-18
   10.3085003         9.99765974E-18
   10.4890003         9.99767629E-18
   10.6695004         9.99769366E-18
   10.8500004         9.99770937E-18
   11.0305004         9.99771930E-18
   11.2110004         9.99772261E-18
   11.3915005         9.99772509E-18
   11.5719995         9.99773254E-18
   11.7524996         9.99774991E-18
   11.9329996         9.99778051E-18
   12.1134996         9.99782187E-18
   12.2939997         9.99786737E-18
   12.4744997         9.99790624E-18
   12.6549997         9.99792527E-18
   12.8354998         9.99791782E-18
   13.0159998         9.99787977E-18
   13.1964998         9.99781525E-18
   13.3769999         9.99773833E-18
   13.5574999         9.99766719E-18
   13.7379999         9.99762500E-18
   13.9184999         9.99763906E-18
   14.0990000         9.99773005E-18
   14.2795000         9.99791452E-18
   14.4600000         9.99819658E-18
   14.6405001         9.99856633E-18
   14.8210001         9.99899316E-18
   15.0015001         9.99942743E-18
   15.1820002         9.99979966E-18
   15.3625002         1.00000263E-17
   15.5430002         1.00000164E-17
   15.7235003         9.99968799E-18
   15.9040003         9.99898323E-18
   16.0844994         9.99788474E-18
   16.2649994         9.99641649E-18
   16.4454994         9.99463392E-18
   16.6259995         9.99260484E-18
   16.8064995         9.99037311E-18
   16.9869995         9.98793458E-18
   17.1674995         9.98520902E-18
   17.3479996         9.98201859E-18
   17.5284996         9.97808534E-18
   17.7089996         9.97302548E-18
   17.8894997         9.96637495E-18
   18.0699997         9.95764240E-18
   18.2504997         9.94640102E-18
   18.4309998         9.93240512E-18
   18.6114998         9.91570434E-18
   18.7919998         9.89672055E-18
   18.9724998         9.87627843E-18
   19.1529999         9.85558899E-18
   19.3334999         9.83623462E-18
   19.5139999         9.82015506E-18
   19.6945000         9.80963497E-18
   19.8750000         9.80727172E-18
   20.0555000         9.81586861E-18
   20.2360001         9.83827693E-18
   20.4165001         9.87723465E-18
   20.5970001         9.93530025E-18
   20.7775002         1.00149172E-17
   20.9580002         1.01186002E-17
   21.1385002         1.02491549E-17
   21.3190002         1.04098273E-17
   21.4995003         1.06043446E-17
   21.6800003         1.08368618E-17
   21.8605003         1.11118356E-17
   22.0410004         1.14338264E-17
   22.2215004         1.18070751E-17
   22.4020004         1.22347366E-17
   22.5825005         1.27176571E-17
   22.7630005         1.32527842E-17
   22.9435005         1.38314078E-17
   23.1240005         1.44374483E-17
   23.3045006         1.50458909E-17
   23.4850006         1.56213373E-17
   23.6655006         1.61166315E-17
   23.8460007         1.64716922E-17
   24.0265007         1.66129515E-17
   24.2070007         1.64539856E-17
   24.3875008         1.58978539E-17
   24.5680008         1.48413341E-17
   24.7485008         1.31809096E-17
   24.9290009         1.08201031E-17
   25.1095009         7.67776141E-18
   25.2900009         3.69707382E-18
   25.4705009        -1.14485736E-18
   25.6509991        -6.82718358E-18
   25.8314991        -1.32757534E-17
   26.0119991        -2.03546236E-17
   26.1924992        -2.78594166E-17
   26.3729992        -3.55131600E-17
   26.5534992        -4.29650878E-17
   26.7339993        -4.97930403E-17
   26.9144993        -5.55103803E-17
   27.0949993        -5.95786895E-17
   27.2754993        -6.14271470E-17
   27.4559994        -6.04787811E-17
   27.6364994        -5.61826167E-17
   27.8169994        -4.80495751E-17
   27.9974995        -3.56899748E-17
   28.1779995        -1.88504833E-17
   28.3584995         2.55081904E-18
   28.5389996         2.83925378E-17
   28.7194996         5.83225925E-17
   28.8999996         9.17373806E-17
   29.0804996         1.27769825E-16
   29.2609997         1.65288328E-16
   29.4414997         2.02908675E-16
   29.6219997         2.39020257E-16
   29.8024998         2.71828675E-16
   29.9829998         2.99416697E-16
   30.1634998         3.19824527E-16
   30.3439999         3.31148007E-16
   30.5244999         3.31649107E-16
   30.7049999         3.19870187E-16
   30.8855000         2.94741763E-16
   31.0660000         2.55676048E-16
   31.2465000         2.02641714E-16
   31.4270000         1.36219111E-16
   31.6075001         5.76361518E-17
   31.7880001        -3.12162114E-17
   31.9685001        -1.27793952E-16
   32.1489983        -2.28940697E-16
   32.3294983        -3.30964995E-16
   32.5099983        -4.29756645E-16
   32.6904984        -5.20941780E-16
   32.8709984        -6.00073398E-16
   33.0514984        -6.62851721E-16
   33.2319984        -7.05365205E-16
   33.4124985        -7.24336890E-16
   33.5929985        -7.17354056E-16
   33.7734985        -6.83056739E-16
   33.9539986        -6.21264891E-16
   34.1344986        -5.33034128E-16
   34.3149986        -4.20646488E-16
   34.4954987        -2.87550586E-16
   34.6759987        -1.38266733E-16
   34.8564987         2.17369450E-17
   35.0369987         1.86204034E-16
   35.2174988         3.48299948E-16
   35.3979988         5.00884304E-16
   35.5784988         6.36845162E-16
   35.7589989         7.49479104E-16
   35.9394989         8.32888926E-16
   36.1199989         8.82364650E-16
   36.3004990         8.94714973E-16
   36.4809990         8.68516879E-16
   36.6614990         8.04257095E-16
   36.8419991         7.04344318E-16
   37.0224991         5.72990684E-16
   37.2029991         4.15979045E-16
   37.3834991         2.40356293E-16
   37.5639992         5.41010564E-17
   37.7444992        -1.34199136E-16
   37.9249992        -3.15653286E-16
   38.1054993        -4.81378512E-16
   38.2859993        -6.22856996E-16
   38.4664993        -7.32363903E-16
   38.6469994        -8.03458873E-16
   38.8274994        -8.31491481E-16
   39.0079994        -8.14042337E-16
   39.1884995        -7.51222404E-16
   39.3689995        -6.45772519E-16
   39.5494995        -5.02944077E-16
   39.7299995        -3.30175825E-16
   39.9104996        -1.36612160E-16
   40.0909996         6.74710579E-17
   40.2714996         2.71258569E-16
   40.4519997         4.63934080E-16
   40.6324997         6.35120445E-16
   40.8129997         7.75218741E-16
   40.9934998         8.75691142E-16
   41.1739998         9.29363914E-16
   41.3544998         9.30812129E-16
   41.5349998         8.76839878E-16
   41.7154999         7.66989075E-16
   41.8959999         6.03957361E-16
   42.0764999         3.93784320E-16
   42.2570000         1.45708474E-16
   42.4375000        -1.28323043E-16
   42.6180000        -4.14427069E-16
   42.7985001        -6.97715226E-16
   42.9790001        -9.63236021E-16
   43.1595001        -1.19679794E-15
   43.3400002        -1.38558613E-15
   43.5205002        -1.51854839E-15
   43.7010002        -1.58659446E-15
   43.8815002        -1.58271526E-15
   44.0620003        -1.50215279E-15
   44.2425003        -1.34271970E-15
   44.4230003        -1.10527815E-15
   44.6035004        -7.94262106E-16
   44.7840004        -4.18045435E-16
   44.9645004         1.10586636E-17
   45.1450005         4.77286178E-16
   45.3255005         9.62372047E-16
   45.5060005         1.44679411E-15
   45.6865005         1.91107298E-15
   45.8670006         2.33690927E-15
   46.0475006         2.70802955E-15
   46.2280006         3.01069518E-15
   46.4085007         3.23392055E-15
   46.5890007         3.36947546E-15
   46.7695007         3.41180234E-15
   46.9500008         3.35798991E-15
   47.1305008         3.20794078E-15
   47.3110008         2.96478811E-15
   47.4915009         2.63546339E-15
   47.6720009         2.23116017E-15
   47.8525009         1.76735267E-15
   48.0330009         1.26312655E-15
   48.2135010         7.39804347E-16
   48.3940010         2.19142339E-16
   48.5745010        -2.78455570E-16
   48.7550011        -7.35281244E-16
   48.9355011        -1.13701436E-15
   49.1160011        -1.47282756E-15
   49.2965012        -1.73514371E-15
   49.4770012        -1.91932224E-15
   49.6575012        -2.02343931E-15
   49.8380013        -2.04822265E-15
   50.0185013        -1.99714191E-15
   50.1990013        -1.87665973E-15
   50.3795013        -1.69661610E-15
   50.5600014        -1.47061098E-15
   50.7405014        -1.21609166E-15
   50.9210014        -9.53793086E-16
   51.1015015        -7.06307899E-16
   51.2820015        -4.95923973E-16
   51.4625015        -3.42244483E-16
   51.6430016        -2.60299683E-16
   51.8235016        -2.59707210E-16
   52.0040016        -3.44996466E-16
   52.1845016        -5.16726732E-16
   52.3650017        -7.72758746E-16
   52.5455017        -1.10912241E-15
   52.7260017        -1.52022530E-15
   52.9065018        -1.99850690E-15
   53.0870018        -2.53379826E-15
   53.2675018        -3.11263877E-15
   53.4480019        -3.71773941E-15
   53.6285019        -4.32777212E-15
   53.8089981        -4.91774243E-15
   53.9894981        -5.46020731E-15
   54.1699982        -5.92739299E-15
   54.3504982        -6.29385079E-15
   54.5309982        -6.53888090E-15
   54.7114983        -6.64789065E-15
   54.8919983        -6.61217170E-15
   55.0724983        -6.42728135E-15
   55.2529984        -6.09081741E-15
   55.4334984        -5.60061234E-15
   55.6139984        -4.95409666E-15
   55.7944984        -4.14902064E-15
   55.9749985        -3.18518481E-15
   56.1554985        -2.06658336E-15
   56.3359985        -8.03386928E-16
   56.5164986         5.86729664E-16
   56.6969986         2.07828851E-15
   56.8774986         3.63906361E-15
   57.0579987         5.23260448E-15
   57.2384987         6.82180600E-15
   57.4189987         8.37256408E-15
   57.5994987         9.85623631E-15
   57.7799988         1.12499452E-14
   57.9604988         1.25346722E-14
   58.1409988         1.36921233E-14
   58.3214989         1.47019627E-14
   58.5019989         1.55407862E-14
   58.6824989         1.61833132E-14
   58.8629990         1.66052085E-14
   59.0434990         1.67864312E-14
   59.2239990         1.67139912E-14
   59.4044991         1.63835213E-14
   59.5849991         1.57993888E-14
   59.7654991         1.49733131E-14
   59.9459991         1.39214329E-14
   60.1264992         1.26601635E-14
   60.3069992         1.12018142E-14
   60.4874992         9.55157635E-15
   60.6679993         7.70755682E-15
   60.8484993         5.66442145E-15
   61.0289993         3.41958953E-15
   61.2094994         9.79369563E-16
   61.3899994        -1.63774974E-15
   61.5704994        -4.40217719E-15
   61.7509995        -7.27797813E-15
   61.9314995        -1.02290037E-14
   62.1119995        -1.32236166E-14
   62.2924995        -1.62364188E-14
   62.4729996        -1.92469772E-14
   62.6534996        -2.22367562E-14
   62.8339996        -2.51855642E-14
   63.0144997        -2.80682375E-14
   63.1949997        -3.08519384E-14
   63.3754997        -3.34946948E-14
   63.5559998        -3.59461470E-14
   63.7364998        -3.81515769E-14
   63.9169998        -4.00589155E-14
   64.0975037        -4.16265939E-14
   64.2779999        -4.28287878E-14
   64.4585037        -4.36552209E-14
   64.6389999        -4.41050293E-14
   64.8195038        -4.41774506E-14
   65.0000000        -4.38638146E-14
   65.1804962        -4.31449073E-14
   65.3610001        -4.19948635E-14
   65.5414963        -4.03896683E-14
   65.7220001        -3.83165891E-14
   65.9024963        -3.57810332E-14
   66.0830002        -3.28092757E-14
   66.2634964        -2.94472325E-14
   66.4440002        -2.57559409E-14
   66.6244965        -2.18046152E-14
   66.8050003        -1.76618059E-14
   66.9854965        -1.33861673E-14
   67.1660004        -9.01945416E-15
   67.3464966        -4.58474370E-15
   67.5270004        -9.13416441E-17
   67.7074966         4.45525397E-15
   67.8880005         9.04286615E-15
   68.0684967         1.36470865E-14
   68.2490005         1.82336903E-14
   68.4294968         2.27681779E-14
   68.6100006         2.72279554E-14
   68.7904968         3.16118456E-14
   68.9710007         3.59433044E-14
   69.1514969         4.02669400E-14
   69.3320007         4.46402931E-14
   69.5124969         4.91233505E-14
   69.6930008         5.37678253E-14
   69.8734970         5.86076868E-14
   70.0540009         6.36528251E-14
   70.2344971         6.88883493E-14
   70.4150009         7.42810490E-14
   70.5954971         7.97920147E-14
   70.7760010         8.53908890E-14
   70.9564972         9.10651288E-14
   71.1370010         9.68194370E-14
   71.3174973         1.02664825E-13
   71.4980011         1.08602295E-13
   71.6784973         1.14608450E-13
   71.8590012         1.20628984E-13
   72.0394974         1.26581471E-13
   72.2200012         1.32364741E-13
   72.4004974         1.37869927E-13
   72.5810013         1.42990315E-13
   72.7614975         1.47628532E-13
   72.9420013         1.51701554E-13
   73.1224976         1.55142175E-13
   73.3030014         1.57895263E-13
   73.4834976         1.59907352E-13
   73.6640015         1.61112036E-13
   73.8444977         1.61417429E-13
   74.0250015         1.60703062E-13
   74.2054977         1.58830523E-13
   74.3860016         1.55664503E-13
   74.5664978         1.51095485E-13
   74.7470016         1.45053376E-13
   74.9274979         1.37507003E-13
   75.1080017         1.28451164E-13
   75.2884979         1.17889070E-13
   75.4690018         1.05818437E-13
   75.6494980         9.22251506E-14
   75.8300018         7.70837997E-14
   76.0104980         6.03623190E-14
   76.1910019         4.20294157E-14
   76.3714981         2.20657656E-14
   76.5520020         4.79875028E-16
   76.7324982        -2.26740285E-14
   76.9130020        -4.72827615E-14
   77.0934982        -7.31734890E-14
   77.2740021        -1.00127866E-13
   77.4544983        -1.27905810E-13
   77.6350021        -1.56267089E-13
   77.8154984        -1.84979798E-13
   77.9960022        -2.13811485E-13
   78.1764984        -2.42509355E-13
   78.3570023        -2.70780902E-13
   78.5374985        -2.98285891E-13
   78.7180023        -3.24643470E-13
   78.8984985        -3.49451262E-13
   79.0790024        -3.72310093E-13
   79.2594986        -3.92848623E-13
   79.4400024        -4.10747011E-13
   79.6204987        -4.25757303E-13
   79.8010025        -4.37718140E-13
   79.9814987        -4.46558155E-13
   80.1620026        -4.52284260E-13
   80.3424988        -4.54957523E-13
   80.5230026        -4.54666090E-13
   80.7034988        -4.51507972E-13
   80.8840027        -4.45592944E-13
   81.0644989        -4.37061764E-13
   81.2450027        -4.26111322E-13
   81.4254990        -4.13011557E-13
   81.6060028        -3.98104211E-13
   81.7864990        -3.81782930E-13
   81.9670029        -3.64462312E-13
   82.1474991        -3.46545682E-13
   82.3280029        -3.28398414E-13
   82.5084991        -3.10330049E-13
   82.6890030        -2.92586403E-13
   82.8694992        -2.75353687E-13
