  -7.19999981       0.00000000    
  -7.01999998       0.00000000    
  -6.84000015      -5.00914151E-18
  -6.65999985      -2.48402636E-17
  -6.48000002      -7.05262264E-17
  -6.30000019      -1.44929058E-16
  -6.11999989      -2.25761280E-16
  -5.94000006      -2.40931507E-16
  -5.76000023      -3.80321962E-17
  -5.57999992       6.48869483E-16
  -5.40000010       2.23144393E-15
  -5.21999979       5.29468945E-15
  -5.03999996       1.06167804E-14
  -4.86000013       1.91792688E-14
  -4.67999983       3.21682480E-14
  -4.50000000       5.09711664E-14
  -4.32000017       7.71787419E-14
  -4.13999987       1.12605312E-13
  -3.96000004       1.59341480E-13
  -3.77999997       2.19849421E-13
  -3.59999990       2.97103894E-13
  -3.42000008       3.94772594E-13
  -3.24000001       5.17421717E-13
  -3.05999994       6.70725790E-13
  -2.88000011       8.61659160E-13
  -2.70000005       1.09864678E-12
  -2.51999998       1.39165361E-12
  -2.33999991       1.75219897E-12
  -2.16000009       2.19328635E-12
  -1.98000002       2.72924912E-12
  -1.79999995       3.37552057E-12
  -1.62000000       4.14833619E-12
  -1.44000006       5.06438424E-12
  -1.25999999       6.14041413E-12
  -1.08000004       7.39279991E-12
 -0.899999976       8.83705435E-12
 -0.720000029       1.04872794E-11
 -0.540000021       1.23555272E-11
 -0.360000014       1.44510454E-11
 -0.180000007       1.67793644E-11
   4.44089210E-16   1.93412196E-11
  0.180000007       2.21312638E-11
  0.360000014       2.51365803E-11
  0.540000021       2.83350270E-11
  0.720000029       3.16934395E-11
  0.899999976       3.51657869E-11
   1.08000004       3.86913765E-11
   1.25999999       4.21931934E-11
   1.44000006       4.55765217E-11
   1.62000000       4.87279730E-11
   1.79999995       5.15149104E-11
   1.98000002       5.37855004E-11
   2.16000009       5.53692335E-11
   2.33999991       5.60779444E-11
   2.51999998       5.57072166E-11
   2.70000005       5.40380969E-11
   2.88000011       5.08390587E-11
   3.05999994       4.58681981E-11
   3.24000001       3.88757117E-11
   3.42000008       2.96067129E-11
   3.59999990       1.78044437E-11
   3.77999997       3.21397292E-12
   3.96000004      -1.44135086E-11
   4.13999987      -3.53157018E-11
   4.32000017      -5.97134842E-11
   4.50000000      -8.78046039E-11
   4.67999983      -1.19757121E-10
   4.86000013      -1.55702992E-10
   5.03999996      -1.95732500E-10
   5.21999979      -2.39889303E-10
   5.40000010      -2.88166435E-10
   5.57999992      -3.40502182E-10
   5.76000023      -3.96776084E-10
   5.94000006      -4.56803817E-10
   6.11999989      -5.20332777E-10
   6.30000019      -5.87038140E-10
   6.48000002      -6.56522114E-10
   6.65999985      -7.28316463E-10
   6.84000015      -8.01889222E-10
   7.01999998      -8.76654638E-10
   7.19999981      -9.51984935E-10
   7.38000011      -1.02722120E-09
   7.55999994      -1.10168208E-09
   7.73999977      -1.17466747E-09
   7.92000008      -1.24545629E-09
   8.10000038      -1.31329925E-09
   8.27999973      -1.37740575E-09
   8.46000004      -1.43693135E-09
   8.64000034      -1.49096768E-09
   8.81999969      -1.53854141E-09
   9.00000000      -1.57862601E-09
   9.18000031      -1.61016800E-09
   9.35999966      -1.63212655E-09
   9.53999996      -1.64352154E-09
   9.72000027      -1.64348091E-09
   9.89999962      -1.63128155E-09
   10.0799999      -1.60637237E-09
   10.2600002      -1.56837521E-09
   10.4399996      -1.51705815E-09
   10.6199999      -1.45228130E-09
   10.8000002      -1.37391976E-09
   10.9799995      -1.28177213E-09
   11.1599998      -1.17546861E-09
   11.3400002      -1.05439690E-09
   11.5200005      -9.17660670E-10
   11.6999998      -7.64084462E-10
   11.8800001      -5.92269789E-10
   12.0600004      -4.00700001E-10
   12.2399998      -1.87881433E-10
   12.4200001       4.74973463E-11
   12.6000004       3.06414866E-10
   12.7799997       5.89400528E-10
   12.9600000       8.96479835E-10
   13.1400003       1.22720489E-09
   13.3199997       1.58078228E-09
   13.5000000       1.95629624E-09
   13.6800003       2.35301756E-09
   13.8599997       2.77076428E-09
   14.0400000       3.21028648E-09
   14.2200003       3.67363118E-09
   14.3999996       4.16446699E-09
   14.5799999       4.68833949E-09
   14.7600002       5.25285149E-09
   14.9399996       5.86777382E-09
   15.1199999       6.54509336E-09
   15.3000002       7.29903071E-09
   15.4799995       8.14603229E-09
   15.6599998       9.10477205E-09
   15.8400002       1.01961737E-08
   16.0200005       1.14434222E-08
   16.2000008       1.28719764E-08
   16.3799992       1.45095287E-08
   16.5599995       1.63858456E-08
   16.7399998       1.85325089E-08
   16.9200001       2.09824389E-08
   17.1000004       2.37692515E-08
   17.2800007       2.69264415E-08
   17.4599991       3.04863548E-08
   17.6399994       3.44791040E-08
   17.8199997       3.89313577E-08
   18.0000000       4.38651746E-08
   18.1800003       4.92969541E-08
   18.3600006       5.52365123E-08
   18.5400009       6.16863503E-08
   18.7199993       6.86413131E-08
   18.8999996       7.60884262E-08
   19.0799999       8.40070555E-08
   19.2600002       9.23693193E-08
   19.4400005       1.01140778E-07
   19.6200008       1.10281135E-07
   19.7999992       1.19745067E-07
   19.9799995       1.29483112E-07
   20.1599998       1.39442164E-07
   20.3400002       1.49565963E-07
   20.5200005       1.59794979E-07
   20.7000008       1.70066144E-07
   20.8799992       1.80311915E-07
   21.0599995       1.90458991E-07
   21.2399998       2.00426712E-07
   21.4200001       2.10125265E-07
   21.6000004       2.19453653E-07
   21.7800007       2.28297921E-07
   21.9599991       2.36529800E-07
   22.1399994       2.44005605E-07
   22.3199997       2.50566160E-07
   22.5000000       2.56037282E-07
   22.6800003       2.60231360E-07
   22.8600006       2.62949470E-07
   23.0400009       2.63984958E-07
   23.2199993       2.63127248E-07
   23.3999996       2.60166615E-07
   23.5799999       2.54899334E-07
   23.7600002       2.47133642E-07
   23.9400005       2.36695541E-07
   24.1200008       2.23435109E-07
   24.2999992       2.07232830E-07
   24.4799995       1.88005757E-07
   24.6599998       1.65713502E-07
   24.8400002       1.40363625E-07
   25.0200005       1.12016210E-07
   25.2000008       8.07874301E-08
   25.3799992       4.68516994E-08
   25.5599995       1.04422773E-08
   25.7399998      -2.81498487E-08
   25.9200001      -6.85789630E-08
   26.1000004      -1.10449292E-07
   26.2800007      -1.53321309E-07
   26.4599991      -1.96719299E-07
   26.6399994      -2.40139940E-07
   26.8199997      -2.83061127E-07
   27.0000000      -3.24951202E-07
   27.1800003      -3.65277714E-07
   27.3600006      -4.03515543E-07
   27.5400009      -4.39154519E-07
   27.7199993      -4.71705903E-07
   27.8999996      -5.00708154E-07
   28.0799999      -5.25731707E-07
   28.2600002      -5.46383092E-07
   28.4400005      -5.62308060E-07
   28.6200008      -5.73194939E-07
   28.7999992      -5.78776792E-07
   28.9799995      -5.78833578E-07
   29.1599998      -5.73194484E-07
   29.3400002      -5.61739228E-07
   29.5200005      -5.44400280E-07
   29.7000008      -5.21164111E-07
   29.8799992      -4.92073127E-07
   30.0599995      -4.57227401E-07
   30.2399998      -4.16786577E-07
   30.4200001      -3.70971804E-07
   30.6000004      -3.20068068E-07
   30.7800007      -2.64426063E-07
   30.9599991      -2.04464726E-07
   31.1399994      -1.40673009E-07
   31.3199997      -7.36117300E-08
   31.5000000      -3.91467703E-09
   31.6800003       6.77110279E-08
   31.8600006       1.40485810E-07
   32.0400009       2.13560028E-07
   32.2200012       2.86018263E-07
   32.4000015       3.56885863E-07
   32.5800018       4.25138126E-07
   32.7599983       4.89712249E-07
   32.9399986       5.49522156E-07
   33.1199989       6.03476224E-07
   33.2999992       6.50497839E-07
   33.4799995       6.89547392E-07
   33.6599998       7.19646550E-07
   33.8400002       7.39902305E-07
   34.0200005       7.49531068E-07
   34.2000008       7.47881359E-07
   34.3800011       7.34454147E-07
   34.5600014       7.08919913E-07
   34.7400017       6.71132000E-07
   34.9199982       6.21136110E-07
   35.0999985       5.59175021E-07
   35.2799988       4.85688759E-07
   35.4599991       4.01310928E-07
   35.6399994       3.06860414E-07
   35.8199997       2.03329705E-07
   36.0000000       9.18695662E-08
   36.1800003      -2.62295163E-08
   36.3600006      -1.49558858E-07
   36.5400009      -2.76615708E-07
   36.7200012      -4.05829667E-07
   36.9000015      -5.35591141E-07
   37.0800018      -6.64280776E-07
   37.2599983      -7.90300192E-07
   37.4399986      -9.12101939E-07
   37.6199989      -1.02821912E-06
   37.7999992      -1.13729277E-06
   37.9799995      -1.23809593E-06
   38.1599998      -1.32955506E-06
   38.3400002      -1.41076634E-06
   38.5200005      -1.48100764E-06
   38.7000008      -1.53974486E-06
   38.8800011      -1.58663408E-06
   39.0600014      -1.62151866E-06
   39.2400017      -1.64442156E-06
   39.4199982      -1.65553490E-06
   39.5999985      -1.65520521E-06
   39.7799988      -1.64391736E-06
   39.9599991      -1.62227570E-06
   40.1399994      -1.59098477E-06
   40.3199997      -1.55082853E-06
   40.5000000      -1.50264952E-06
   40.6800003      -1.44732826E-06
   40.8600006      -1.38576206E-06
   41.0400009      -1.31884565E-06
   41.2200012      -1.24745088E-06
   41.4000015      -1.17240882E-06
   41.5800018      -1.09449206E-06
   41.7599983      -1.01439969E-06
   41.9399986      -9.32743148E-07
   42.1199989      -8.50035747E-07
   42.2999992      -7.66683740E-07
   42.4799995      -6.82981238E-07
   42.6599998      -5.99108716E-07
   42.8400002      -5.15133820E-07
   43.0200005      -4.31016389E-07
   43.2000008      -3.46615536E-07
   43.3800011      -2.61699881E-07
   43.5600014      -1.75959144E-07
   43.7400017      -8.90170568E-08
   43.9199982      -4.45233350E-10
   44.0999985       9.02225992E-08
   44.2799988       1.83476658E-07
   44.4599991       2.79816334E-07
   44.6399994       3.79736264E-07
   44.8199997       4.83710153E-07
   45.0000000       5.92176207E-07
   45.1800003       7.05518687E-07
   45.3600006       8.24050403E-07
   45.5400009       9.47993897E-07
   45.7200012       1.07746212E-06
   45.9000015       1.21243988E-06
   46.0800018       1.35276559E-06
   46.2599983       1.49811774E-06
   46.4399986       1.64800258E-06
   46.6199989       1.80174811E-06
   46.7999992       1.95850339E-06
   46.9799995       2.11724159E-06
   47.1599998       2.27677151E-06
   47.3400002       2.43575278E-06
   47.5200005       2.59271587E-06
   47.7000008       2.74608669E-06
   47.8800011       2.89421541E-06
   48.0600014       3.03540742E-06
   48.2400017       3.16795786E-06
   48.4199982       3.29018667E-06
   48.5999985       3.40047563E-06
   48.7799988       3.49730885E-06
   48.9599991       3.57931071E-06
   49.1399994       3.64528591E-06
   49.3199997       3.69425879E-06
   49.5000000       3.72550949E-06
   49.6800003       3.73860757E-06
   49.8600006       3.73344096E-06
   50.0400009       3.71023884E-06
   50.2200012       3.66958557E-06
   50.4000015       3.61242610E-06
   50.5800018       3.54006261E-06
   50.7599983       3.45413991E-06
   50.9399986       3.35662048E-06
   51.1199989       3.24975053E-06
   51.2999992       3.13601572E-06
   51.4799995       3.01809155E-06
   51.6599998       2.89878562E-06
   51.8400002       2.78097696E-06
   52.0200005       2.66755114E-06
   52.2000008       2.56133626E-06
   52.3800011       2.46503828E-06
   52.5600014       2.38117786E-06
   52.7400017       2.31203080E-06
   52.9199982       2.25957297E-06
   53.0999985       2.22542985E-06
   53.2799988       2.21083292E-06
   53.4599991       2.21658274E-06
   53.6399994       2.24302062E-06
   53.8199997       2.29000739E-06
   54.0000000       2.35691618E-06
   54.1800003       2.44263151E-06
   54.3600006       2.54556221E-06
   54.5400009       2.66366692E-06
   54.7200012       2.79448705E-06
   54.9000015       2.93519543E-06
   55.0800018       3.08264907E-06
   55.2599983       3.23345284E-06
   55.4399986       3.38402788E-06
   55.6199989       3.53068117E-06
   55.7999992       3.66967697E-06
   55.9799995       3.79730568E-06
   56.1599998       3.90995046E-06
   56.3400002       4.00414547E-06
   56.5200005       4.07662947E-06
   56.7000008       4.12439385E-06
   56.8800011       4.14472152E-06
   57.0600014       4.13522412E-06
   57.2400017       4.09386485E-06
   57.4199982       4.01898478E-06
   57.5999985       3.90931882E-06
   57.7799988       3.76400862E-06
   57.9599991       3.58260650E-06
   58.1399994       3.36507605E-06
   58.3199997       3.11178474E-06
   58.5000000       2.82348924E-06
   58.6800003       2.50131438E-06
   58.8600006       2.14672673E-06
   59.0400009       1.76149729E-06
   59.2200012       1.34766503E-06
   59.4000015       9.07495746E-07
   59.5800018       4.43439660E-07
   59.7599983      -4.19114627E-08
   59.9399986      -5.45861326E-07
   60.1199989      -1.06564789E-06
   60.2999992      -1.59847320E-06
   60.4799995      -2.14153488E-06
   60.6599998      -2.69204929E-06
   60.8400002      -3.24727330E-06
   61.0200005      -3.80452593E-06
   61.2000008      -4.36120308E-06
   61.3800011      -4.91479659E-06
   61.5600014      -5.46290676E-06
   61.7400017      -6.00325666E-06
   61.9199982      -6.53370125E-06
   62.0999985      -7.05223601E-06
   62.2799988      -7.55700148E-06
   62.4599991      -8.04628326E-06
   62.6399994      -8.51850928E-06
   62.8199997      -8.97224527E-06
   63.0000000      -9.40618156E-06
   63.1800003      -9.81912945E-06
   63.3600006      -1.02100021E-05
   63.5400009      -1.05778126E-05
   63.7200012      -1.09216626E-05
   63.9000015      -1.12407361E-05
   64.0800018      -1.15343009E-05
   64.2600021      -1.18017051E-05
   64.4400024      -1.20423847E-05
   64.6200027      -1.22558649E-05
   64.8000031      -1.24417711E-05
   64.9800034      -1.25998295E-05
   65.1600037      -1.27298799E-05
   65.3399963      -1.28318743E-05
   65.5199966      -1.29058790E-05
   65.6999969      -1.29520813E-05
   65.8799973      -1.29707814E-05
   66.0599976      -1.29623959E-05
   66.2399979      -1.29274531E-05
   66.4199982      -1.28665924E-05
   66.5999985      -1.27805633E-05
   66.7799988      -1.26702225E-05
   66.9599991      -1.25365405E-05
   67.1399994      -1.23805930E-05
   67.3199997      -1.22035672E-05
   67.5000000      -1.20067552E-05
   67.6800003      -1.17915497E-05
   67.8600006      -1.15594330E-05
   68.0400009      -1.13119631E-05
   68.2200012      -1.10507581E-05
   68.4000015      -1.07774713E-05
   68.5800018      -1.04937726E-05
   68.7600021      -1.02013209E-05
   68.9400024      -9.90174703E-06
   69.1200027      -9.59662793E-06
   69.3000031      -9.28747431E-06
   69.4800034      -8.97571863E-06
   69.6600037      -8.66271057E-06
   69.8399963      -8.34971070E-06
   70.0199966      -8.03789317E-06
   70.1999969      -7.72835028E-06
   70.3799973      -7.42208749E-06
   70.5599976      -7.12003202E-06
   70.7399979      -6.82302607E-06
   70.9199982      -6.53182542E-06
   71.0999985      -6.24709674E-06
   71.2799988      -5.96940527E-06
   71.4599991      -5.69920849E-06
   71.6399994      -5.43685019E-06
   71.8199997      -5.18254956E-06
   72.0000000      -4.93639754E-06
   72.1800003      -4.69834777E-06
   72.3600006      -4.46821650E-06
   72.5400009      -4.24567588E-06
   72.7200012      -4.03024751E-06
   72.9000015      -3.82129701E-06
   73.0800018      -3.61802722E-06
   73.2600021      -3.41946316E-06
   73.4400024      -3.22444566E-06
   73.6200027      -3.03161414E-06
   73.8000031      -2.83940381E-06
   73.9800034      -2.64603568E-06
   74.1600037      -2.44951934E-06
   74.3399963      -2.24765927E-06
   74.5199966      -2.03807372E-06
   74.6999969      -1.81822213E-06
   74.8799973      -1.58544117E-06
   75.0599976      -1.33698677E-06
   75.2399979      -1.07009180E-06
   75.4199982      -7.82018049E-07
   75.5999985      -4.70117101E-07
   75.7799988      -1.31892676E-07
   75.9599991       2.34943329E-07
   76.1399994       6.32411229E-07
   76.3199997       1.06221137E-06
   76.5000000       1.52567281E-06
   76.6800003       2.02370779E-06
   76.8600006       2.55677037E-06
   77.0400009       3.12482098E-06
   77.2200012       3.72729301E-06
   77.4000015       4.36306391E-06
   77.5800018       5.03044294E-06
   77.7600021       5.72715589E-06
   77.9400024       6.45034743E-06
   78.1200027       7.19659147E-06
   78.3000031       7.96191762E-06
   78.4800034       8.74184570E-06
   78.6600037       9.53144354E-06
   78.8399963       1.03253851E-05
   79.0199966       1.11180325E-05
   79.1999969       1.19035130E-05
   79.3799973       1.26758168E-05
   79.5599976       1.34288839E-05
   79.7399979       1.41567025E-05
   79.9199982       1.48533964E-05
   80.0999985       1.55133075E-05
   80.2799988       1.61310818E-05
   80.4599991       1.67017297E-05
   80.6399994       1.72206946E-05
   80.8199997       1.76838985E-05
   81.0000000       1.80877869E-05
   81.1800003       1.84293713E-05
   81.3600006       1.87062396E-05
   81.5400009       1.89165858E-05
   81.7200012       1.90592127E-05
   81.9000015       1.91335293E-05
   82.0800018       1.91395320E-05
   82.2600021       1.90777937E-05
   82.4400024       1.89494094E-05
   82.6200027       1.87559726E-05
   82.8000031       1.84995024E-05
   82.9800034       1.81823943E-05
   83.1600037       1.78073460E-05
   83.3399963       1.73773078E-05
   83.5199966       1.68953993E-05
   83.6999969       1.63648692E-05
   83.8799973       1.57890372E-05
   84.0599976       1.51712575E-05
   84.2399979       1.45148842E-05
   84.4199982       1.38232544E-05
   84.5999985       1.30996714E-05
   84.7799988       1.23473983E-05
   84.9599991       1.15696503E-05
   85.1399994       1.07696033E-05
   85.3199997       9.95038408E-06
   85.5000000       9.11507414E-06
   85.6800003       8.26670475E-06
   85.8600006       7.40826135E-06
   86.0400009       6.54268433E-06
   86.2200012       5.67285952E-06
   86.4000015       4.80162998E-06
   86.5800018       3.93179971E-06
   86.7600021       3.06614015E-06
   86.9400024       2.20740003E-06
   87.1200027       1.35831112E-06
   87.3000031       5.21594359E-07
   87.4800034      -3.00030450E-07
   87.6600037      -1.10385145E-06
   87.8399963      -1.88716069E-06
   88.0199966      -2.64727259E-06
   88.1999969      -3.38153268E-06
   88.3799973      -4.08733649E-06
   88.5599976      -4.76214518E-06
   88.7399979      -5.40351130E-06
   88.9199982      -6.00909198E-06
   89.0999985      -6.57666760E-06
   89.2799988      -7.10415134E-06
   89.4599991      -7.58960141E-06
   89.6399994      -8.03122657E-06
   89.8199997      -8.42739155E-06
   90.0000000      -8.77661842E-06
   90.1800003      -9.07758658E-06
   90.3600006      -9.32913463E-06
   90.5400009      -9.53026574E-06
   90.7200012      -9.68014683E-06
   90.9000015      -9.77810305E-06
   91.0800018      -9.82363053E-06
   91.2600021      -9.81638459E-06
   91.4400024      -9.75617695E-06
   91.6200027      -9.64296851E-06
   91.8000031      -9.47686385E-06
   91.9800034      -9.25809218E-06
   92.1600037      -8.98699545E-06
   92.3399963      -8.66401206E-06
   92.5199966      -8.28965949E-06
   92.6999969      -7.86451892E-06
   92.8799973      -7.38922699E-06
   93.0599976      -6.86445628E-06
   93.2399979      -6.29091255E-06
   93.4199982      -5.66933522E-06
   93.5999985      -5.00049282E-06
   93.7799988      -4.28518615E-06
   93.9599991      -3.52425172E-06
   94.1399994      -2.71857289E-06
   94.3199997      -1.86907550E-06
   94.5000000      -9.76738761E-07
   94.6800003      -4.25993996E-08
   94.8600006       9.32249520E-07
   95.0400009       1.94666040E-06
   95.2200012       2.99942781E-06
   95.4000015       4.08930146E-06
   95.5800018       5.21497213E-06
   95.7600021       6.37509356E-06
   95.9400024       7.56827103E-06
   96.1200027       8.79307390E-06
   96.3000031       1.00480211E-05
   96.4800034       1.13315946E-05
   96.6600037       1.26422283E-05
   96.8399963       1.39783024E-05
   97.0199966       1.53381461E-05
   97.1999969       1.67200324E-05
   97.3799973       1.81221803E-05
   97.5599976       1.95427383E-05
   97.7399979       2.09798054E-05
   97.9199982       2.24314044E-05
   98.0999985       2.38955017E-05
   98.2799988       2.53699836E-05
   98.4599991       2.68526546E-05
   98.6399994       2.83412173E-05
   98.8199997       2.98332652E-05
   99.0000000       3.13262426E-05
   99.1800003       3.28174210E-05
   99.3600006       3.43038846E-05
   99.5400009       3.57824756E-05
   99.7200012       3.72497889E-05
   99.9000015       3.87021209E-05
   100.080002       4.01354700E-05
   100.260002       4.15455143E-05
   100.440002       4.29275824E-05
   100.620003       4.42766795E-05
