  -7.19999981        -3.84802932E-18
  -7.01949978        -3.84802932E-18
  -6.83900023        -3.84802932E-18
  -6.65850019        -3.84802891E-18
  -6.47800016        -3.84802767E-18
  -6.29750013        -3.84802684E-18
  -6.11700010        -3.84802518E-18
  -5.93650007        -3.84802353E-18
  -5.75600004        -3.84802229E-18
  -5.57550001        -3.84802063E-18
  -5.39499998        -3.84801857E-18
  -5.21449995        -3.84801650E-18
  -5.03399992        -3.84801484E-18
  -4.85349989        -3.84801236E-18
  -4.67299986        -3.84800947E-18
  -4.49249983        -3.84800657E-18
  -4.31199980        -3.84800368E-18
  -4.13149977        -3.84799996E-18
  -3.95099998        -3.84799623E-18
  -3.77049994        -3.84799210E-18
  -3.58999991        -3.84798796E-18
  -3.40949988        -3.84798341E-18
  -3.22900009        -3.84797969E-18
  -3.04850006        -3.84797514E-18
  -2.86800003        -3.84797059E-18
  -2.68750000        -3.84796604E-18
  -2.50699997        -3.84796149E-18
  -2.32649994        -3.84795653E-18
  -2.14599991        -3.84795157E-18
  -1.96550000        -3.84794660E-18
  -1.78499997        -3.84794123E-18
  -1.60450006        -3.84793502E-18
  -1.42400002        -3.84792799E-18
  -1.24349999        -3.84792096E-18
  -1.06299996        -3.84791352E-18
 -0.882499993        -3.84790607E-18
 -0.702000022        -3.84789863E-18
 -0.521499991        -3.84789118E-18
 -0.340999991        -3.84788415E-18
 -0.160500005        -3.84787795E-18
   1.99999996E-02    -3.84787133E-18
  0.200499997        -3.84786512E-18
  0.381000012        -3.84785851E-18
  0.561500013        -3.84785148E-18
  0.741999984        -3.84784403E-18
  0.922500014        -3.84783535E-18
   1.10300004        -3.84782625E-18
   1.28349996        -3.84781591E-18
   1.46399999        -3.84780515E-18
   1.64450002        -3.84779440E-18
   1.82500005        -3.84778406E-18
   2.00550008        -3.84777331E-18
   2.18600011        -3.84776297E-18
   2.36649990        -3.84775387E-18
   2.54699993        -3.84774436E-18
   2.72749996        -3.84773484E-18
   2.90799999        -3.84772575E-18
   3.08850002        -3.84771623E-18
   3.26900005        -3.84770631E-18
   3.44950008        -3.84769555E-18
   3.63000011        -3.84768397E-18
   3.81049991        -3.84767156E-18
   3.99099994        -3.84765792E-18
   4.17150021        -3.84764385E-18
   4.35200024        -3.84762979E-18
   4.53249979        -3.84761614E-18
   4.71299982        -3.84760250E-18
   4.89349985        -3.84758926E-18
   5.07399988        -3.84757685E-18
   5.25449991        -3.84756444E-18
   5.43499994        -3.84755204E-18
   5.61549997        -3.84754004E-18
   5.79600000        -3.84752722E-18
   5.97650003        -3.84751399E-18
   6.15700006        -3.84749951E-18
   6.33750010        -3.84748545E-18
   6.51800013        -3.84746973E-18
   6.69850016        -3.84745319E-18
   6.87900019        -3.84743665E-18
   7.05950022        -3.84742052E-18
   7.23999977        -3.84740439E-18
   7.42049980        -3.84738826E-18
   7.60099983        -3.84737213E-18
   7.78149986        -3.84735724E-18
   7.96199989        -3.84734193E-18
   8.14249992        -3.84732663E-18
   8.32299995        -3.84731091E-18
   8.50349998        -3.84729520E-18
   8.68400002        -3.84727824E-18
   8.86450005        -3.84726128E-18
   9.04500008        -3.84724226E-18
   9.22550011        -3.84722323E-18
   9.40600014        -3.84720338E-18
   9.58650017        -3.84718353E-18
   9.76700020        -3.84716368E-18
   9.94750023        -3.84714341E-18
   10.1280003        -3.84712356E-18
   10.3085003        -3.84710371E-18
   10.4890003        -3.84708468E-18
   10.6695004        -3.84706648E-18
   10.8500004        -3.84704911E-18
   11.0305004        -3.84703257E-18
   11.2110004        -3.84701644E-18
   11.3915005        -3.84700113E-18
   11.5719995        -3.84698418E-18
   11.7524996        -3.84696474E-18
   11.9329996        -3.84694199E-18
   12.1134996        -3.84691469E-18
   12.2939997        -3.84688243E-18
   12.4744997        -3.84684562E-18
   12.6549997        -3.84680757E-18
   12.8354998        -3.84677035E-18
   13.0159998        -3.84673975E-18
   13.1964998        -3.84672031E-18
   13.3769999        -3.84671534E-18
   13.5574999        -3.84672692E-18
   13.7379999        -3.84675298E-18
   13.9184999        -3.84678524E-18
   14.0990000        -3.84681295E-18
   14.2795000        -3.84682122E-18
   14.4600000        -3.84679517E-18
   14.6405001        -3.84672072E-18
   14.8210001        -3.84659251E-18
   15.0015001        -3.84641384E-18
   15.1820002        -3.84620125E-18
   15.3625002        -3.84598743E-18
   15.5430002        -3.84581909E-18
   15.7235003        -3.84574961E-18
   15.9040003        -3.84583316E-18
   16.0844994        -3.84611357E-18
   16.2649994        -3.84661608E-18
   16.4454994        -3.84733821E-18
   16.6259995        -3.84824976E-18
   16.8064995        -3.84929201E-18
   16.9869995        -3.85038844E-18
   17.1674995        -3.85145716E-18
   17.3479996        -3.85243613E-18
   17.5284996        -3.85330094E-18
   17.7089996        -3.85408925E-18
   17.8894997        -3.85490485E-18
   18.0699997        -3.85591442E-18
   18.2504997        -3.85731980E-18
   18.4309998        -3.85932530E-18
   18.6114998        -3.86208560E-18
   18.7919998        -3.86566605E-18
   18.9724998        -3.86999800E-18
   19.1529999        -3.87484982E-18
   19.3334999        -3.87980919E-18
   19.5139999        -3.88429292E-18
   19.6945000        -3.88757848E-18
   19.8750000        -3.88886764E-18
   20.0555000        -3.88736838E-18
   20.2360001        -3.88237551E-18
   20.4165001        -3.87333608E-18
   20.5970001        -3.85988240E-18
   20.7775002        -3.84182795E-18
   20.9580002        -3.81912928E-18
   21.1385002        -3.79181578E-18
   21.3190002        -3.75988371E-18
   21.4995003        -3.72316641E-18
   21.6800003        -3.68120353E-18
   21.8605003        -3.63314558E-18
   22.0410004        -3.57775385E-18
   22.2215004        -3.51353527E-18
   22.4020004        -3.43903111E-18
   22.5825005        -3.35323490E-18
   22.7630005        -3.25607695E-18
   22.9435005        -3.14893059E-18
   23.1240005        -3.03507725E-18
   23.3045006        -2.92011672E-18
   23.4850006        -2.81228504E-18
   23.6655006        -2.72264079E-18
   23.8460007        -2.66506509E-18
   24.0265007        -2.65600622E-18
   24.2070007        -2.71393885E-18
   24.3875008        -2.85851493E-18
   24.5680008        -3.10944327E-18
   24.7485008        -3.48512781E-18
   24.9290009        -4.00109827E-18
   25.1095009        -4.66828395E-18
   25.2900009        -5.49121327E-18
   25.4705009        -6.46627268E-18
   25.6509991        -7.58024095E-18
   25.8314991        -8.80928244E-18
   26.0119991        -1.01185439E-17
   26.1924992        -1.14623956E-17
   26.3729992        -1.27852667E-17
   26.5534992        -1.40229646E-17
   26.7339993        -1.51044669E-17
   26.9144993        -1.59542113E-17
   27.0949993        -1.64949889E-17
   27.2754993        -1.66515726E-17
   27.4559994        -1.63550564E-17
   27.6364994        -1.55478208E-17
   27.8169994        -1.41888739E-17
   27.9974995        -1.22591525E-17
   28.1779995        -9.76644787E-18
   28.3584995        -6.74937359E-18
   28.5389996        -3.27995021E-18
   28.7194996         5.35669912E-19
   28.8999996         4.55865191E-18
   29.0804996         8.62113112E-18
   29.2609997         1.25319228E-17
   29.4414997         1.60839596E-17
   29.6219997         1.90631233E-17
   29.8024998         2.12583829E-17
   29.9829998         2.24732631E-17
   30.1634998         2.25387030E-17
   30.3439999         2.13271713E-17
   30.5244999         1.87673169E-17
   30.7049999         1.48580647E-17
   30.8855000         9.68035822E-18
   31.0660000         3.40496264E-18
   31.2465000        -3.70534687E-18
   31.4270000        -1.13002575E-17
   31.6075001        -1.89535120E-17
   31.7880001        -2.61811862E-17
   31.9685001        -3.24657869E-17
   32.1489983        -3.72843952E-17
   32.3294983        -4.01390914E-17
   32.5099983        -4.05881082E-17
   32.6904984        -3.82763965E-17
   32.8709984        -3.29651723E-17
   33.0514984        -2.45598990E-17
   33.2319984        -1.31360376E-17
   33.4124985         1.03918990E-18
   33.5929985         1.74917780E-17
   33.7734985         3.55361853E-17
   33.9539986         5.42841446E-17
   34.1344986         7.26693785E-17
   34.3149986         8.94886802E-17
   34.4954987         1.03457775E-16
   34.6759987         1.13278798E-16
   34.8564987         1.17714366E-16
   35.0369987         1.15663222E-16
   35.2174988         1.06232060E-16
   35.3979988         8.87992681E-17
   35.5784988         6.30675520E-17
   35.7589989         2.91044723E-17
   35.9394989        -1.26289047E-17
   36.1199989        -6.12609829E-17
   36.3004990        -1.15504841E-16
   36.4809990        -1.73668052E-16
   36.6614990        -2.33681673E-16
   36.8419991        -2.93152280E-16
   37.0224991        -3.49440345E-16
   37.2029991        -3.99763049E-16
   37.3834991        -4.41317374E-16
   37.5639992        -4.71415075E-16
   37.7444992        -4.87619874E-16
   37.9249992        -4.87877849E-16
   38.1054993        -4.70634217E-16
   38.2859993        -4.34930004E-16
   38.4664993        -3.80475765E-16
   38.6469994        -3.07700679E-16
   38.8274994        -2.17776565E-16
   39.0079994        -1.12617371E-16
   39.1884995         5.14604196E-18
   39.3689995         1.32217211E-16
   39.5494995         2.64715478E-16
   39.7299995         3.98291435E-16
   39.9104996         5.28278567E-16
   40.0909996         6.49878194E-16
   40.2714996         7.58367550E-16
   40.4519997         8.49316019E-16
   40.6324997         9.18791143E-16
   40.8129997         9.63540106E-16
   40.9934998         9.81135309E-16
   41.1739998         9.70081424E-16
   41.3544998         9.29883569E-16
   41.5349998         8.61080089E-16
   41.7154999         7.65242652E-16
   41.8959999         6.44945497E-16
   42.0764999         5.03704077E-16
   42.2570000         3.45882966E-16
   42.4375000         1.76569457E-16
   42.6180000         1.41149035E-18
   42.7985001        -1.73582422E-16
   42.9790001        -3.42277385E-16
   43.1595001        -4.98668201E-16
   43.3400002        -6.37138712E-16
   43.5205002        -7.52700794E-16
   43.7010002        -8.41191067E-16
   43.8815002        -8.99412512E-16
   44.0620003        -9.25216206E-16
   44.2425003        -9.17530864E-16
   44.4230003        -8.76347858E-16
   44.6035004        -8.02672455E-16
   44.7840004        -6.98446851E-16
   44.9645004        -5.66447407E-16
   45.1450005        -4.10156435E-16
   45.3255005        -2.33608008E-16
   45.5060005        -4.12073853E-17
   45.6865005         1.62474366E-16
   45.8670006         3.72923381E-16
   46.0475006         5.85910371E-16
   46.2280006         7.97697990E-16
   46.4085007         1.00519973E-15
   46.5890007         1.20606385E-15
   46.7695007         1.39866908E-15
   46.9500008         1.58203160E-15
   47.1305008         1.75564731E-15
   47.3110008         1.91929132E-15
   47.4915009         2.07280503E-15
   47.6720009         2.21588626E-15
   47.8525009         2.34789380E-15
   48.0330009         2.46766956E-15
   48.2135010         2.57337630E-15
   48.3940010         2.66235288E-15
   48.5745010         2.73098881E-15
   48.7550011         2.77461460E-15
   48.9355011         2.78742301E-15
   49.1160011         2.76243194E-15
   49.2965012         2.69152596E-15
   49.4770012         2.56560393E-15
   49.6575012         2.37486121E-15
   49.8380013         2.10920437E-15
   50.0185013         1.75877000E-15
   50.1990013         1.31449698E-15
   50.3795013         7.68701881E-16
   50.5600014         1.15618449E-16
   50.7405014        -6.48114989E-16
   50.9210014        -1.52301924E-15
   51.1015015        -2.50638320E-15
   51.2820015        -3.59192241E-15
   51.4625015        -4.76949048E-15
   51.6430016        -6.02487251E-15
   51.8235016        -7.33966924E-15
   52.0040016        -8.69130173E-15
   52.1845016        -1.00531766E-14
   52.3650017        -1.13950292E-14
   52.5455017        -1.26835035E-14
   52.7260017        -1.38829471E-14
   52.9065018        -1.49564063E-14
   53.0870018        -1.58667160E-14
   53.2675018        -1.65776105E-14
   53.4480019        -1.70547323E-14
   53.6285019        -1.72665278E-14
   53.8089981        -1.71850212E-14
   53.9894981        -1.67864956E-14
   54.1699982        -1.60521519E-14
   54.3504982        -1.49687595E-14
   54.5309982        -1.35292939E-14
   54.7114983        -1.17335688E-14
   54.8919983        -9.58878989E-15
   55.0724983        -7.11001574E-15
   55.2529984        -4.32045926E-15
   55.4334984        -1.25156148E-15
   55.6139984         2.05720798E-15
   55.7944984         5.55886209E-15
   55.9749985         9.19966804E-15
   56.1554985         1.29201256E-14
   56.3359985         1.66560508E-14
   56.5164986         2.03397158E-14
   56.6969986         2.39010201E-14
   56.8774986         2.72687519E-14
   57.0579987         3.03719418E-14
   57.2384987         3.31413702E-14
   57.4189987         3.55111380E-14
   57.5994987         3.74202453E-14
   57.7799988         3.88140719E-14
   57.9604988         3.96456685E-14
   58.1409988         3.98768000E-14
   58.3214989         3.94787217E-14
   58.5019989         3.84326732E-14
   58.6824989         3.67301269E-14
   58.8629990         3.43728105E-14
   59.0434990         3.13726638E-14
   59.2239990         2.77517928E-14
   59.4044991         2.35425354E-14
   59.5849991         1.87875753E-14
   59.7654991         1.35400504E-14
   59.9459991         7.86345578E-15
   60.1264992         1.83122785E-15
   60.3069992        -4.47407292E-15
   60.4874992        -1.09619192E-14
   60.6679993        -1.75352507E-14
   60.8484993        -2.40920819E-14
   61.0289993        -3.05272199E-14
   61.2094994        -3.67340571E-14
   61.3899994        -4.26064450E-14
   61.5704994        -4.80405985E-14
   61.7509995        -5.29370113E-14
   61.9314995        -5.72023033E-14
   62.1119995        -6.07511207E-14
   62.2924995        -6.35079147E-14
   62.4729996        -6.54087515E-14
   62.6534996        -6.64029040E-14
   62.8339996        -6.64540986E-14
   63.0144997        -6.55412546E-14
   63.1949997        -6.36587137E-14
   63.3754997        -6.08159356E-14
   63.5559998        -5.70370370E-14
   63.7364998        -5.23602158E-14
   63.9169998        -4.68374085E-14
   64.0975037        -4.05339790E-14
   64.2779999        -3.35284914E-14
   64.4585037        -2.59122795E-14
   64.6389999        -1.77887490E-14
   64.8195038        -9.27226554E-15
   65.0000000        -4.86579612E-16
   65.1804962         8.43729773E-15
   65.3610001         1.73637502E-14
   65.5414963         2.61556608E-14
   65.7220001         3.46778033E-14
   65.9024963         4.28001750E-14
   66.0830002         5.04010252E-14
   66.2634964         5.73693857E-14
   66.4440002         6.36071531E-14
   66.6244965         6.90308135E-14
   66.8050003         7.35730040E-14
   66.9854965         7.71838648E-14
   67.1660004         7.98321099E-14
   67.3464966         8.15055963E-14
   67.5270004         8.22112018E-14
   67.7074966         8.19739377E-14
   67.8880005         8.08354645E-14
   68.0684967         7.88520182E-14
   68.2490005         7.60919986E-14
   68.4294968         7.26334140E-14
   68.6100006         6.85613472E-14
   68.7904968         6.39657394E-14
   68.9710007         5.89397509E-14
   69.1514969         5.35787574E-14
   69.3320007         4.79798865E-14
   69.5124969         4.22417601E-14
   69.6930008         3.64639281E-14
   69.8734970         3.07457036E-14
   70.0540009         2.51842529E-14
   70.2344971         1.98720519E-14
   70.4150009         1.48941138E-14
   70.5954971         1.03252266E-14
   70.7760010         6.22750651E-15
   70.9564972         2.64831352E-15
   71.1370010        -3.81218825E-16
   71.3174973        -2.84716869E-15
   71.4980011        -4.75307964E-15
   71.6784973        -6.11968641E-15
   71.8590012        -6.98423007E-15
   72.0394974        -7.39948840E-15
   72.2200012        -7.43276409E-15
   72.4004974        -7.16458922E-15
   72.5810013        -6.68708244E-15
   72.7614975        -6.10150316E-15
   72.9420013        -5.51510521E-15
   73.1224976        -5.03749340E-15
   73.3030014        -4.77699858E-15
   73.4834976        -4.83755170E-15
   73.6640015        -5.31644210E-15
   73.8444977        -6.30297291E-15
   74.0250015        -7.87782146E-15
   74.2054977        -1.01128475E-14
   74.3860016        -1.30711228E-14
   74.5664978        -1.68068260E-14
   74.7470016        -2.13648916E-14
   74.9274979        -2.67799698E-14
   75.1080017        -3.30746173E-14
   75.2884979        -4.02565351E-14
   75.4690018        -4.83152404E-14
   75.6494980        -5.72187290E-14
   75.8300018        -6.69104393E-14
   76.0104980        -7.73071115E-14
   76.1910019        -8.82972216E-14
   76.3714981        -9.97400811E-14
   76.5520020        -1.11465260E-13
   76.7324982        -1.23272649E-13
   76.9130020        -1.34933555E-13
   77.0934982        -1.46193550E-13
   77.2740021        -1.56777315E-13
   77.4544983        -1.66395882E-13
   77.6350021        -1.74755555E-13
   77.8154984        -1.81568329E-13
   77.9960022        -1.86562937E-13
   78.1764984        -1.89495555E-13
   78.3570023        -1.90159845E-13
   78.5374985        -1.88394629E-13
   78.7180023        -1.84089275E-13
   78.8984985        -1.77185794E-13
   79.0790024        -1.67678303E-13
   79.2594986        -1.55610374E-13
   79.4400024        -1.41071698E-13
   79.6204987        -1.24194464E-13
   79.8010025        -1.05150751E-13
   79.9814987        -8.41500806E-14
   80.1620026        -6.14374342E-14
   80.3424988        -3.72910355E-14
   80.5230026        -1.20198134E-14
   80.7034988         1.40393551E-14
   80.8840027         4.05250920E-14
   81.0644989         6.70551668E-14
   81.2450027         9.32309243E-14
   81.4254990         1.18642685E-13
   81.6060028         1.42875783E-13
   81.7864990         1.65518180E-13
   81.9670029         1.86168721E-13
   82.1474991         2.04447326E-13
   82.3280029         2.20006671E-13
   82.5084991         2.32545347E-13
   82.6890030         2.41821645E-13
   82.8694992         2.47666606E-13
