  -7.19999981         0.00000000    
  -7.01999998         0.00000000    
  -6.84000015         5.97214517E-18
  -6.65999985         2.47817108E-17
  -6.48000002         5.30369581E-17
  -6.30000019         6.28982910E-17
  -6.11999989        -1.08951466E-17
  -5.94000006        -2.79097674E-16
  -5.76000023        -8.99653387E-16
  -5.57999992        -2.07422487E-15
  -5.40000010        -4.04233684E-15
  -5.21999979        -7.07544790E-15
  -5.03999996        -1.14713672E-14
  -4.86000013        -1.75480104E-14
  -4.67999983        -2.56363720E-14
  -4.50000000        -3.60759498E-14
  -4.32000017        -4.92192956E-14
  -4.13999987        -6.54529057E-14
  -3.96000004        -8.52367019E-14
  -3.77999997        -1.09155401E-13
  -3.59999990        -1.37966353E-13
  -3.42000008        -1.72624922E-13
  -3.24000001        -2.14272041E-13
  -3.05999994        -2.64180252E-13
  -2.88000011        -3.23664489E-13
  -2.70000005        -3.93973509E-13
  -2.51999998        -4.76174330E-13
  -2.33999991        -5.71037033E-13
  -2.16000009        -6.78912384E-13
  -1.98000002        -7.99591459E-13
  -1.79999995        -9.32123194E-13
  -1.62000000        -1.07457944E-12
  -1.44000006        -1.22376111E-12
  -1.25999999        -1.37484956E-12
  -1.08000004        -1.52103503E-12
 -0.899999976        -1.65314908E-12
 -0.720000029        -1.75933291E-12
 -0.540000021        -1.82477579E-12
 -0.360000014        -1.83149654E-12
 -0.180000007        -1.75817238E-12
   0.00000000        -1.57994895E-12
  0.180000007        -1.26821936E-12
  0.360000014        -7.90335896E-13
  0.540000021        -1.09266945E-13
  0.720000029         8.16733671E-13
  0.899999976         2.03432670E-12
   1.08000004         3.59501990E-12
   1.25999999         5.55460582E-12
   1.44000006         7.97199633E-12
   1.62000000         1.09074720E-11
   1.79999995         1.44206713E-11
   1.98000002         1.85686362E-11
   2.16000009         2.34044450E-11
   2.33999991         2.89764549E-11
   2.51999998         3.53276158E-11
   2.70000005         4.24940985E-11
   2.88000011         5.05022794E-11
   3.05999994         5.93637084E-11
   3.24000001         6.90689936E-11
   3.42000008         7.95824309E-11
   3.59999990         9.08400924E-11
   3.77999997         1.02752980E-10
   3.96000004         1.15215185E-10
   4.13999987         1.28113728E-10
   4.32000017         1.41334930E-10
   4.50000000         1.54761259E-10
   4.67999983         1.68255035E-10
   4.86000013         1.81630613E-10
   5.03999996         1.94622859E-10
   5.21999979         2.06865497E-10
   5.40000010         2.17893967E-10
   5.57999992         2.27183078E-10
   5.76000023         2.34219422E-10
   5.94000006         2.38592923E-10
   6.11999989         2.40078596E-10
   6.30000019         2.38673054E-10
   6.48000002         2.34555181E-10
   6.65999985         2.27961178E-10
   6.84000015         2.18994003E-10
   7.01999998         2.07421066E-10
   7.19999981         1.92533517E-10
   7.38000011         1.73142001E-10
   7.55999994         1.47754350E-10
   7.73999977         1.14927713E-10
   7.92000008         7.37251996E-11
   8.10000038         2.41543487E-11
   8.27999973        -3.25586433E-11
   8.46000004        -9.39825509E-11
   8.64000034        -1.56843705E-10
   8.81999969        -2.17702897E-10
   9.00000000        -2.73818329E-10
   9.18000031        -3.23989752E-10
   9.35999966        -3.69157011E-10
   9.53999996        -4.12561096E-10
   9.72000027        -4.59360383E-10
   9.89999962        -5.15722187E-10
   10.0799999        -5.87538795E-10
   10.2600002        -6.79020118E-10
   10.4399996        -7.91468502E-10
   10.6199999        -9.22514010E-10
   10.8000002        -1.06600706E-09
   10.9799995        -1.21262222E-09
   11.1599998        -1.35106493E-09
   11.3400002        -1.46964207E-09
   11.5200005        -1.55786517E-09
   11.6999998        -1.60773661E-09
   11.8800001        -1.61442759E-09
   12.0600004        -1.57616187E-09
   12.2399998        -1.49326529E-09
   12.4200001        -1.36648426E-09
   12.6000004        -1.19479249E-09
   12.7799997        -9.72967928E-10
   12.9600000        -6.89221069E-10
   13.1400003        -3.23084531E-10
   13.3199997         1.56340080E-10
   13.5000000         7.91812671E-10
   13.6800003         1.63920677E-09
   13.8599997         2.76874923E-09
   14.0400000         4.26638769E-09
   14.2200003         6.23529761E-09
   14.3999996         8.79738504E-09
   14.5799999         1.20945334E-08
   14.7600002         1.62892704E-08
   14.9399996         2.15645457E-08
   15.1199999         2.81224413E-08
   15.3000002         3.61816888E-08
   15.4799995         4.59740903E-08
   15.6599998         5.77398112E-08
   15.8400002         7.17217290E-08
   16.0200005         8.81588917E-08
   16.2000008         1.07279007E-07
   16.3799992         1.29290171E-07
   16.5599995         1.54371705E-07
   16.7399998         1.82664280E-07
   16.9200001         2.14259387E-07
   17.1000004         2.49188645E-07
   17.2800007         2.87413172E-07
   17.4599991         3.28813570E-07
   17.6399994         3.73181905E-07
   17.8199997         4.20215457E-07
   18.0000000         4.69513992E-07
   18.1800003         5.20580670E-07
   18.3600006         5.72827275E-07
   18.5400009         6.25583425E-07
   18.7199993         6.78110723E-07
   18.8999996         7.29620012E-07
   19.0799999         7.79291611E-07
   19.2600002         8.26297992E-07
   19.4400005         8.69826806E-07
   19.6200008         9.09104017E-07
   19.7999992         9.43415330E-07
   19.9799995         9.72125576E-07
   20.1599998         9.94695142E-07
   20.3400002         1.01069224E-06
   20.5200005         1.01980277E-06
   20.7000008         1.02183424E-06
   20.8799992         1.01671731E-06
   21.0599995         1.00450302E-06
   21.2399998         9.85356223E-07
   21.4200001         9.59548174E-07
   21.6000004         9.27445399E-07
   21.7800007         8.89498438E-07
   21.9599991         8.46230421E-07
   22.1399994         7.98224505E-07
   22.3199997         7.46112335E-07
   22.5000000         6.90562615E-07
   22.6800003         6.32270428E-07
   22.8600006         5.71947339E-07
   23.0400009         5.10311850E-07
   23.2199993         4.48081153E-07
   23.3999996         3.85963432E-07
   23.5799999         3.24650557E-07
   23.7600002         2.64811803E-07
   23.9400005         2.07087879E-07
   24.1200008         1.52085889E-07
   24.2999992         1.00374692E-07
   24.4799995         5.24807398E-08
   24.6599998         8.88416540E-09
   24.8400002        -2.99851521E-08
   25.0200005        -6.37519264E-08
   25.2000008        -9.20998104E-08
   25.3799992        -1.14776363E-07
   25.5599995        -1.31597687E-07
   25.7399998        -1.42452777E-07
   25.9200001        -1.47306750E-07
   26.1000004        -1.46203192E-07
   26.2800007        -1.39265140E-07
   26.4599991        -1.26694715E-07
   26.6399994        -1.08771999E-07
   26.8199997        -8.58526192E-08
   27.0000000        -5.83642752E-08
   27.1800003        -2.68021516E-08
   27.3600006         8.27756086E-09
   27.5400009         4.62656367E-08
   27.7199993         8.65092602E-08
   27.8999996         1.28323180E-07
   28.0799999         1.71002114E-07
   28.2600002         2.13834198E-07
   28.4400005         2.56115300E-07
   28.6200008         2.97163353E-07
   28.7999992         3.36332789E-07
   28.9799995         3.73027945E-07
   29.1599998         4.06714918E-07
   29.3400002         4.36931714E-07
   29.5200005         4.63296402E-07
   29.7000008         4.85513908E-07
   29.8799992         5.03380534E-07
   30.0599995         5.16786997E-07
   30.2399998         5.25718804E-07
   30.4200001         5.30253544E-07
   30.6000004         5.30554587E-07
   30.7800007         5.26861072E-07
   30.9599991         5.19475066E-07
   31.1399994         5.08745188E-07
   31.3199997         4.95049960E-07
   31.5000000         4.78779668E-07
   31.6800003         4.60319768E-07
   31.8600006         4.40035450E-07
   32.0400009         4.18259191E-07
   32.2200012         3.95281575E-07
   32.4000015         3.71345720E-07
   32.5800018         3.46645095E-07
   32.7599983         3.21323995E-07
   32.9399986         2.95480561E-07
   33.1199989         2.69170499E-07
   33.2999992         2.42413051E-07
   33.4799995         2.15196962E-07
   33.6599998         1.87487686E-07
   33.8400002         1.59235000E-07
   34.0200005         1.30380556E-07
   34.2000008         1.00864838E-07
   34.3800011         7.06329928E-08
   34.5600014         3.96396658E-08
   34.7400017         7.85117216E-09
   34.9199982        -2.47526835E-08
   35.0999985        -5.81796691E-08
   35.2799988        -9.24270935E-08
   35.4599991        -1.27485194E-07
   35.6399994        -1.63341255E-07
   35.8199997        -1.99983518E-07
   36.0000000        -2.37403981E-07
   36.1800003        -2.75599859E-07
   36.3600006        -3.14572929E-07
   36.5400009        -3.54327938E-07
   36.7200012        -3.94869090E-07
   36.9000015        -4.36196615E-07
   37.0800018        -4.78302468E-07
   37.2599983        -5.21165930E-07
   37.4399986        -5.64748575E-07
   37.6199989        -6.08988955E-07
   37.7999992        -6.53797599E-07
   37.9799995        -6.99052009E-07
   38.1599998        -7.44591887E-07
   38.3400002        -7.90216291E-07
   38.5200005        -8.35679884E-07
   38.7000008        -8.80690493E-07
   38.8800011        -9.24907511E-07
   39.0600014        -9.67939741E-07
   39.2400017        -1.00934767E-06
   39.4199982        -1.04864512E-06
   39.5999985        -1.08530605E-06
   39.7799988        -1.11877466E-06
   39.9599991        -1.14847751E-06
   40.1399994        -1.17384161E-06
   40.3199997        -1.19431388E-06
   40.5000000        -1.20938319E-06
   40.6800003        -1.21860319E-06
   40.8600006        -1.22161407E-06
   41.0400009        -1.21816163E-06
   41.2200012        -1.20811262E-06
   41.4000015        -1.19146455E-06
   41.5800018        -1.16835167E-06
   41.7599983        -1.13904605E-06
   41.9399986        -1.10395558E-06
   42.1199989        -1.06361858E-06
   42.2999992        -1.01869625E-06
   42.4799995        -9.69964503E-07
   42.6599998        -9.18302135E-07
   42.8400002        -8.64678043E-07
   43.0200005        -8.10135305E-07
   43.2000008        -7.55772135E-07
   43.3800011        -7.02721081E-07
   43.5600014        -6.52125834E-07
   43.7400017        -6.05116099E-07
   43.9199982        -5.62781565E-07
   44.0999985        -5.26146266E-07
   44.2799988        -4.96142547E-07
   44.4599991        -4.73586937E-07
   44.6399994        -4.59156581E-07
   44.8199997        -4.53368756E-07
   45.0000000        -4.56561111E-07
   45.1800003        -4.68876948E-07
   45.3600006        -4.90251921E-07
   45.5400009        -5.20405081E-07
   45.7200012        -5.58835666E-07
   45.9000015        -6.04825345E-07
   46.0800018        -6.57446208E-07
   46.2599983        -7.15578153E-07
   46.4399986        -7.77931689E-07
   46.6199989        -8.43076634E-07
   46.7999992        -9.09474920E-07
   46.9799995        -9.75517537E-07
   47.1599998        -1.03955972E-06
   47.3400002        -1.09995722E-06
   47.5200005        -1.15509806E-06
   47.7000008        -1.20343452E-06
   47.8800011        -1.24350856E-06
   48.0600014        -1.27397448E-06
   48.2400017        -1.29361683E-06
   48.4199982        -1.30136607E-06
   48.5999985        -1.29630803E-06
   48.7799988        -1.27769226E-06
   48.9599991        -1.24493636E-06
   49.1399994        -1.19762854E-06
   49.3199997        -1.13552471E-06
   49.5000000        -1.05854508E-06
   49.6800003        -9.66766834E-07
   49.8600006        -8.60414048E-07
   50.0400009        -7.39846200E-07
   50.2200012        -6.05547825E-07
   50.4000015        -4.58116716E-07
   50.5800018        -2.98252701E-07
   50.7599983        -1.26748361E-07
   50.9399986         5.55198767E-08
   51.1199989         2.47600610E-07
   51.2999992         4.48474111E-07
   51.4799995         6.57061207E-07
   51.6599998         8.72229748E-07
   51.8400002         1.09280552E-06
   52.0200005         1.31758156E-06
   52.2000008         1.54533245E-06
   52.3800011         1.77482877E-06
   52.5600014         2.00485283E-06
   52.7400017         2.23421262E-06
   52.9199982         2.46175227E-06
   53.0999985         2.68636177E-06
   53.2799988         2.90697949E-06
   53.4599991         3.12259681E-06
   53.6399994         3.33225739E-06
   53.8199997         3.53505561E-06
   54.0000000         3.73013722E-06
   54.1800003         3.91669846E-06
   54.3600006         4.09398899E-06
   54.5400009         4.26131510E-06
   54.7200012         4.41804559E-06
   54.9000015         4.56361977E-06
   55.0800018         4.69755514E-06
   55.2599983         4.81945244E-06
   55.4399986         4.92900290E-06
   55.6199989         5.02598732E-06
   55.7999992         5.11027929E-06
   55.9799995         5.18184061E-06
   56.1599998         5.24072220E-06
   56.3400002         5.28706323E-06
   56.5200005         5.32108970E-06
   56.7000008         5.34311039E-06
   56.8800011         5.35351637E-06
   57.0600014         5.35277422E-06
   57.2400017         5.34142009E-06
   57.4199982         5.32005288E-06
   57.5999985         5.28932787E-06
   57.7799988         5.24994812E-06
   57.9599991         5.20265530E-06
   58.1399994         5.14822341E-06
   58.3199997         5.08745279E-06
   58.5000000         5.02116472E-06
   58.6800003         4.95019776E-06
   58.8600006         4.87540774E-06
   59.0400009         4.79766049E-06
   59.2200012         4.71782641E-06
   59.4000015         4.63677361E-06
   59.5800018         4.55534882E-06
   59.7599983         4.47436014E-06
   59.9399986         4.39455016E-06
   60.1199989         4.31657463E-06
   60.2999992         4.24097288E-06
   60.4799995         4.16814464E-06
   60.6599998         4.09833365E-06
   60.8400002         4.03160902E-06
   61.0200005         3.96786072E-06
   61.2000008         3.90679998E-06
   61.3800011         3.84796385E-06
   61.5600014         3.79072958E-06
   61.7400017         3.73433750E-06
   61.9199982         3.67791176E-06
   62.0999985         3.62048968E-06
   62.2799988         3.56105215E-06
   62.4599991         3.49855532E-06
   62.6399994         3.43196871E-06
   62.8199997         3.36030803E-06
   63.0000000         3.28267151E-06
   63.1800003         3.19827427E-06
   63.3600006         3.10647556E-06
   63.5400009         3.00680563E-06
   63.7200012         2.89898526E-06
   63.9000015         2.78293487E-06
   64.0800018         2.65877975E-06
   64.2600021         2.52684686E-06
   64.4400024         2.38765392E-06
   64.6200027         2.24189262E-06
   64.8000031         2.09040718E-06
   64.9800034         1.93417304E-06
   65.1600037         1.77426989E-06
   65.3399963         1.61185903E-06
   65.5199966         1.44815829E-06
   65.6999969         1.28441377E-06
   65.8799973         1.12187354E-06
   66.0599976         9.61755632E-07
   66.2399979         8.05213858E-07
   66.4199982         6.53310963E-07
   66.5999985         5.06983213E-07
   66.7799988         3.67014991E-07
   66.9599991         2.34013697E-07
   67.1399994         1.08394097E-07
   67.3199997        -9.63595870E-09
   67.5000000        -1.20077061E-07
   67.6800003        -2.23138812E-07
   67.8600006        -3.19236250E-07
   68.0400009        -4.08981322E-07
   68.2200012        -4.93175889E-07
   68.4000015        -5.72803685E-07
   68.5800018        -6.49017124E-07
   68.7600021        -7.23127755E-07
   68.9400024        -7.96593213E-07
   69.1200027        -8.70997553E-07
   69.3000031        -9.48032380E-07
   69.4800034        -1.02947001E-06
   69.6600037        -1.11713314E-06
   69.8399963        -1.21285916E-06
   70.0199966        -1.31846616E-06
   70.1999969        -1.43571731E-06
   70.3799973        -1.56628357E-06
   70.5599976        -1.71171041E-06
   70.7399979        -1.87338617E-06
   70.9199982        -2.05251263E-06
   71.0999985        -2.25007852E-06
   71.2799988        -2.46683840E-06
   71.4599991        -2.70329065E-06
   71.6399994        -2.95966652E-06
   71.8199997        -3.23591871E-06
   72.0000000        -3.53172231E-06
   72.1800003        -3.84647547E-06
   72.3600006        -4.17931096E-06
   72.5400009        -4.52911536E-06
   72.7200012        -4.89455488E-06
   72.9000015        -5.27410612E-06
   73.0800018        -5.66608787E-06
   73.2600021        -6.06869935E-06
   73.4400024        -6.48005107E-06
   73.6200027        -6.89819717E-06
   73.8000031        -7.32116359E-06
   73.9800034        -7.74697583E-06
   74.1600037        -8.17368255E-06
   74.3399963        -8.59937973E-06
   74.5199966        -9.02222928E-06
   74.6999969        -9.44047497E-06
   74.8799973        -9.85245424E-06
   75.0599976        -1.02566146E-05
   75.2399979        -1.06515126E-05
   75.4199982        -1.10358251E-05
   75.5999985        -1.14083496E-05
   75.7799988        -1.17680011E-05
   75.9599991        -1.21138100E-05
   76.1399994        -1.24449070E-05
   76.3199997        -1.27605144E-05
   76.5000000        -1.30599310E-05
   76.6800003        -1.33425210E-05
   76.8600006        -1.36077033E-05
   77.0400009        -1.38549412E-05
   77.2200012        -1.40837328E-05
   77.4000015        -1.42936124E-05
   77.5800018        -1.44841406E-05
   77.7600021        -1.46549137E-05
   77.9400024        -1.48055569E-05
   78.1200027        -1.49357293E-05
   78.3000031        -1.50451187E-05
   78.4800034        -1.51334343E-05
   78.6600037        -1.52003959E-05
   78.8399963        -1.52457242E-05
   79.0199966        -1.52691300E-05
   79.1999969        -1.52703178E-05
   79.3799973        -1.52489774E-05
   79.5599976        -1.52047951E-05
   79.7399979        -1.51374479E-05
   79.9199982        -1.50466149E-05
   80.0999985        -1.49319731E-05
   80.2799988        -1.47932142E-05
   80.4599991        -1.46300381E-05
   80.6399994        -1.44421638E-05
   80.8199997        -1.42293275E-05
   81.0000000        -1.39912845E-05
   81.1800003        -1.37278093E-05
   81.3600006        -1.34386974E-05
   81.5400009        -1.31237684E-05
   81.7200012        -1.27828871E-05
   81.9000015        -1.24159742E-05
   82.0800018        -1.20230379E-05
   82.2600021        -1.16042102E-05
   82.4400024        -1.11597847E-05
   82.6200027        -1.06902562E-05
   82.8000031        -1.01963615E-05
   82.9800034        -9.67911546E-06
   83.1600037        -9.13983331E-06
   83.3399963        -8.58015574E-06
   83.5199966        -8.00205817E-06
   83.6999969        -7.40785072E-06
   83.8799973        -6.80018002E-06
   84.0599976        -6.18201284E-06
   84.2399979        -5.55661200E-06
   84.4199982        -4.92750087E-06
   84.5999985        -4.29841612E-06
   84.7799988        -3.67324219E-06
   84.9599991        -3.05594222E-06
   85.1399994        -2.45047408E-06
   85.3199997        -1.86071190E-06
   85.5000000        -1.29036334E-06
   85.6800003        -7.42883572E-07
   85.8600006        -2.21399134E-07
   86.0400009         2.71362723E-07
   86.2200012         7.33137256E-07
   86.4000015         1.16217268E-06
   86.5800018         1.55727059E-06
   86.7600021         1.91781214E-06
   86.9400024         2.24376686E-06
   87.1200027         2.53570215E-06
   87.3000031         2.79476285E-06
   87.4800034         3.02265835E-06
   87.6600037         3.22162487E-06
   87.8399963         3.39437793E-06
   88.0199966         3.54406666E-06
   88.1999969         3.67421649E-06
   88.3799973         3.78865798E-06
   88.5599976         3.89144316E-06
   88.7399979         3.98675820E-06
   88.9199982         4.07883590E-06
   89.0999985         4.17186948E-06
   89.2799988         4.26992756E-06
   89.4599991         4.37687822E-06
   89.6399994         4.49631989E-06
   89.8199997         4.63151764E-06
   90.0000000         4.78534503E-06
   90.1800003         4.96022676E-06
   90.3600006         5.15810052E-06
   90.5400009         5.38038785E-06
   90.7200012         5.62796504E-06
   90.9000015         5.90117679E-06
   91.0800018         6.19983257E-06
   91.2600021         6.52323752E-06
   91.4400024         6.87022339E-06
   91.6200027         7.23919493E-06
   91.8000031         7.62818627E-06
   91.9800034         8.03493367E-06
   92.1600037         8.45694376E-06
   92.3399963         8.89157309E-06
   92.5199966         9.33611773E-06
   92.6999969         9.78789194E-06
   92.8799973         1.02443209E-05
   93.0599976         1.07030319E-05
   93.2399979         1.11619429E-05
   93.4199982         1.16193578E-05
   93.5999985         1.20740433E-05
   93.7799988         1.25253064E-05
   93.9599991         1.29730506E-05
   94.1399994         1.34178244E-05
   94.3199997         1.38608539E-05
   94.5000000         1.43040552E-05
   94.6800003         1.47500359E-05
   94.8600006         1.52020639E-05
   95.0400009         1.56640181E-05
   95.2200012         1.61403095E-05
   95.4000015         1.66357986E-05
   95.5800018         1.71556785E-05
   95.7600021         1.77053680E-05
   95.9400024         1.82903823E-05
   96.1200027         1.89161965E-05
   96.3000031         1.95881184E-05
   96.4800034         2.03111395E-05
   96.6600037         2.10897997E-05
   96.8399963         2.19280500E-05
   97.0199966         2.28291174E-05
   97.1999969         2.37953991E-05
   97.3799973         2.48283777E-05
   97.5599976         2.59285225E-05
   97.7399979         2.70952478E-05
   97.9199982         2.83268691E-05
   98.0999985         2.96205908E-05
   98.2799988         3.09725328E-05
   98.4599991         3.23777494E-05
   98.6399994         3.38303071E-05
   98.8199997         3.53233663E-05
   99.0000000         3.68492765E-05
   99.1800003         3.83996885E-05
   99.3600006         3.99656965E-05
   99.5400009         4.15379836E-05
   99.7200012         4.31069311E-05
   99.9000015         4.46628183E-05
   100.080002         4.61959353E-05
   100.260002         4.76967289E-05
   100.440002         4.91559331E-05
   100.620003         5.05647113E-05
