  -7.19999981        -1.40612445E-19
  -7.01949978        -1.40613208E-19
  -6.83900023        -1.40613001E-19
  -6.65850019        -1.40612536E-19
  -6.47800016        -1.40612058E-19
  -6.29750013        -1.40611631E-19
  -6.11700010        -1.40611140E-19
  -5.93650007        -1.40610558E-19
  -5.75600004        -1.40610778E-19
  -5.57550001        -1.40611075E-19
  -5.39499998        -1.40611411E-19
  -5.21449995        -1.40611256E-19
  -5.03399992        -1.40611541E-19
  -4.85349989        -1.40611295E-19
  -4.67299986        -1.40610907E-19
  -4.49249983        -1.40610326E-19
  -4.31199980        -1.40610041E-19
  -4.13149977        -1.40609550E-19
  -3.95099998        -1.40608762E-19
  -3.77049994        -1.40608723E-19
  -3.58999991        -1.40608645E-19
  -3.40949988        -1.40608296E-19
  -3.22900009        -1.40607676E-19
  -3.04850006        -1.40607327E-19
  -2.86800003        -1.40606965E-19
  -2.68750000        -1.40606823E-19
  -2.50699997        -1.40606552E-19
  -2.32649994        -1.40606913E-19
  -2.14599991        -1.40605931E-19
  -1.96550000        -1.40605518E-19
  -1.78499997        -1.40604729E-19
  -1.60450006        -1.40603760E-19
  -1.42400002        -1.40603398E-19
  -1.24349999        -1.40602635E-19
  -1.06299996        -1.40601640E-19
 -0.882499993        -1.40601408E-19
 -0.702000022        -1.40601420E-19
 -0.521499991        -1.40601265E-19
 -0.340999991        -1.40601291E-19
 -0.160500005        -1.40601627E-19
   1.99999996E-02    -1.40601343E-19
  0.200499997        -1.40601433E-19
  0.381000012        -1.40600684E-19
  0.561500013        -1.40599546E-19
  0.741999984        -1.40598435E-19
  0.922500014        -1.40597440E-19
   1.10300004        -1.40597104E-19
   1.28349996        -1.40597181E-19
   1.46399999        -1.40596548E-19
   1.64450002        -1.40595902E-19
   1.82500005        -1.40595514E-19
   2.00550008        -1.40595695E-19
   2.18600011        -1.40594868E-19
   2.36649990        -1.40594441E-19
   2.54699993        -1.40593562E-19
   2.72749996        -1.40592502E-19
   2.90799999        -1.40592205E-19
   3.08850002        -1.40591714E-19
   3.26900005        -1.40591081E-19
   3.44950008        -1.40590822E-19
   3.63000011        -1.40590512E-19
   3.81049991        -1.40590034E-19
   3.99099994        -1.40589478E-19
   4.17150021        -1.40588599E-19
   4.35200024        -1.40588418E-19
   4.53249979        -1.40587720E-19
   4.71299982        -1.40587203E-19
   4.89349985        -1.40586402E-19
   5.07399988        -1.40585433E-19
   5.25449991        -1.40584528E-19
   5.43499994        -1.40584450E-19
   5.61549997        -1.40584321E-19
   5.79600000        -1.40584580E-19
   5.97650003        -1.40585135E-19
   6.15700006        -1.40585058E-19
   6.33750010        -1.40583817E-19
   6.51800013        -1.40582835E-19
   6.69850016        -1.40581646E-19
   6.87900019        -1.40580353E-19
   7.05950022        -1.40578789E-19
   7.23999977        -1.40576825E-19
   7.42049980        -1.40575093E-19
   7.60099983        -1.40573503E-19
   7.78149986        -1.40573012E-19
   7.96199989        -1.40572934E-19
   8.14249992        -1.40572521E-19
   8.32299995        -1.40572521E-19
   8.50349998        -1.40572999E-19
   8.68400002        -1.40573930E-19
   8.86450005        -1.40574098E-19
   9.04500008        -1.40574098E-19
   9.22550011        -1.40574162E-19
   9.40600014        -1.40574007E-19
   9.58650017        -1.40572831E-19
   9.76700020        -1.40571293E-19
   9.94750023        -1.40569820E-19
   10.1280003        -1.40568101E-19
   10.3085003        -1.40567209E-19
   10.4890003        -1.40566924E-19
   10.6695004        -1.40566976E-19
   10.8500004        -1.40566899E-19
   11.0305004        -1.40567609E-19
   11.2110004        -1.40568191E-19
   11.3915005        -1.40568540E-19
   11.5719995        -1.40568475E-19
   11.7524996        -1.40567816E-19
   11.9329996        -1.40566524E-19
   12.1134996        -1.40564753E-19
   12.2939997        -1.40563086E-19
   12.4744997        -1.40561664E-19
   12.6549997        -1.40559984E-19
   12.8354998        -1.40559092E-19
   13.0159998        -1.40559170E-19
   13.1964998        -1.40560333E-19
   13.3769999        -1.40562375E-19
   13.5574999        -1.40565270E-19
   13.7379999        -1.40567739E-19
   13.9184999        -1.40570401E-19
   14.0990000        -1.40571991E-19
   14.2795000        -1.40570815E-19
   14.4600000        -1.40566588E-19
   14.6405001        -1.40560061E-19
   14.8210001        -1.40549515E-19
   15.0015001        -1.40535143E-19
   15.1820002        -1.40516880E-19
   15.3625002        -1.40494314E-19
   15.5430002        -1.40467288E-19
   15.7235003        -1.40435739E-19
   15.9040003        -1.40399756E-19
   16.0844994        -1.40357738E-19
   16.2649994        -1.40307862E-19
   16.4454994        -1.40245720E-19
   16.6259995        -1.40167383E-19
   16.8064995        -1.40068341E-19
   16.9869995        -1.39945259E-19
   17.1674995        -1.39795579E-19
   17.3479996        -1.39616391E-19
   17.5284996        -1.39403728E-19
   17.7089996        -1.39152110E-19
   17.8894997        -1.38858344E-19
   18.0699997        -1.38523659E-19
   18.2504997        -1.38155486E-19
   18.4309998        -1.37763932E-19
   18.6114998        -1.37361793E-19
   18.7919998        -1.36960288E-19
   18.9724998        -1.36569522E-19
   19.1529999        -1.36205111E-19
   19.3334999        -1.35892074E-19
   19.5139999        -1.35663553E-19
   19.6945000        -1.35558850E-19
   19.8750000        -1.35613483E-19
   20.0555000        -1.35853262E-19
   20.2360001        -1.36294485E-19
   20.4165001        -1.36952339E-19
   20.5970001        -1.37844712E-19
   20.7775002        -1.38990861E-19
   20.9580002        -1.40403750E-19
   21.1385002        -1.42078468E-19
   21.3190002        -1.43986450E-19
   21.4995003        -1.46083482E-19
   21.6800003        -1.48317361E-19
   21.8605003        -1.50636982E-19
   22.0410004        -1.52982569E-19
   22.2215004        -1.55270331E-19
   22.4020004        -1.57374524E-19
   22.5825005        -1.59128496E-19
   22.7630005        -1.60347540E-19
   22.9435005        -1.60862951E-19
   23.1240005        -1.60538451E-19
   23.3045006        -1.59260857E-19
   23.4850006        -1.56893066E-19
   23.6655006        -1.53230026E-19
   23.8460007        -1.47982883E-19
   24.0265007        -1.40814691E-19
   24.2070007        -1.31419845E-19
   24.3875008        -1.19591524E-19
   24.5680008        -1.05257970E-19
   24.7485008        -8.84567237E-20
   24.9290009        -6.92921509E-20
   25.1095009        -4.79111089E-20
   25.2900009        -2.45305774E-20
   25.4705009         5.00748809E-22
   25.6509991         2.66455119E-20
   25.8314991         5.31589592E-20
   26.0119991         7.90975240E-20
   26.1924992         1.03310858E-19
   26.3729992         1.24380809E-19
   26.5534992         1.40543208E-19
   26.7339993         1.49668121E-19
   26.9144993         1.49390744E-19
   27.0949993         1.37389943E-19
   27.2754993         1.11699562E-19
   27.4559994         7.08915111E-20
   27.6364994         1.40365199E-20
   27.8169994        -5.95001419E-20
   27.9974995        -1.50237467E-19
   28.1779995        -2.58533698E-19
   28.3584995        -3.84268356E-19
   28.5389996        -5.26391169E-19
   28.7194996        -6.82551288E-19
   28.8999996        -8.48972065E-19
   29.0804996        -1.02055187E-18
   29.2609997        -1.19107370E-18
   29.4414997        -1.35341937E-18
   29.6219997        -1.49983892E-18
   29.8024998        -1.62239328E-18
   29.9829998        -1.71360297E-18
   30.1634998        -1.76711359E-18
   30.3439999        -1.77802866E-18
   30.5244999        -1.74267392E-18
   30.7049999        -1.65793454E-18
   30.8855000        -1.52072441E-18
   31.0660000        -1.32821590E-18
   31.2465000        -1.07907458E-18
   31.4270000        -7.75250317E-19
   31.6075001        -4.23385004E-19
   31.7880001        -3.49746891E-20
   31.9685001         3.74913693E-19
   32.1489983         7.89751879E-19
   32.3294983         1.19346094E-18
   32.5099983         1.57140390E-18
   32.6904984         1.91045738E-18
   32.8709984         2.19877532E-18
   33.0514984         2.42583639E-18
   33.2319984         2.58283589E-18
   33.4124985         2.66296178E-18
   33.5929985         2.66113019E-18
   33.7734985         2.57345070E-18
   33.9539986         2.39738076E-18
   34.1344986         2.13349195E-18
   34.3149986         1.78866041E-18
   34.4954987         1.37904470E-18
   34.6759987         9.30518425E-19
   34.8564987         4.75144745E-19
   35.0369987         4.45445904E-20
   35.2174988        -3.36867107E-19
   35.3979988        -6.55358190E-19
   35.5784988        -9.06431029E-19
   35.7589989        -1.08972226E-18
   35.9394989        -1.20366515E-18
   36.1199989        -1.24314193E-18
   36.3004990        -1.20110492E-18
   36.4809990        -1.07254989E-18
   36.6614990        -8.58171916E-19
   36.8419991        -5.66142832E-19
   37.0224991        -2.12472572E-19
   37.2029991         1.78659083E-19
   37.3834991         5.74273966E-19
   37.5639992         9.33470013E-19
   37.7444992         1.21241176E-18
   37.9249992         1.37405898E-18
   38.1054993         1.39939407E-18
   38.2859993         1.29401457E-18
   38.4664993         1.08497631E-18
   38.6469994         8.07907718E-19
   38.8274994         4.90601959E-19
   39.0079994         1.42186092E-19
   39.1884995        -2.45904149E-19
   39.3689995        -6.87882777E-19
   39.5494995        -1.18779186E-18
   39.7299995        -1.72882837E-18
   39.9104996        -2.27279537E-18
   40.0909996        -2.76830095E-18
   40.2714996        -3.16246286E-18
   40.4519997        -3.41143285E-18
   40.6324997        -3.48859246E-18
   40.8129997        -3.39150193E-18
   40.9934998        -3.14723529E-18
   41.1739998        -2.81220563E-18
   41.3544998        -2.46148229E-18
   41.5349998        -2.16701365E-18
   41.7154999        -1.97236750E-18
   41.8959999        -1.87744584E-18
   42.0764999        -1.84417705E-18
   42.2570000        -1.82308105E-18
   42.4375000        -1.78739751E-18
   42.6180000        -1.75541995E-18
   42.7985001        -1.78786942E-18
   42.9790001        -1.96178228E-18
   43.1595001        -2.33567474E-18
   43.3400002        -2.92369965E-18
   43.5205002        -3.68822092E-18
   43.7010002        -4.54800982E-18
   43.8815002        -5.39299095E-18
   44.0620003        -6.09968029E-18
   44.2425003        -6.54902590E-18
   44.4230003        -6.65079434E-18
   44.6035004        -6.37136818E-18
   44.7840004        -5.75051991E-18
   44.9645004        -4.88916516E-18
   45.1450005        -3.90232132E-18
   45.3255005        -2.85462614E-18
   45.5060005        -1.71355706E-18
   45.6865005        -3.52412804E-19
   45.8670006         1.39151104E-18
   46.0475006         3.63205618E-18
   46.2280006         6.36924233E-18
   46.4085007         9.47936161E-18
   46.5890007         1.27610410E-17
   46.7695007         1.60055528E-17
   46.9500008         1.90510432E-17
   47.1305008         2.18000357E-17
   47.3110008         2.42095814E-17
   47.4915009         2.62789044E-17
   47.6720009         2.80484505E-17
   47.8525009         2.95994108E-17
   48.0330009         3.10293745E-17
   48.2135010         3.23949736E-17
   48.3940010         3.36466600E-17
   48.5745010         3.46049322E-17
   48.7550011         3.50144561E-17
   48.9355011         3.46637116E-17
   49.1160011         3.35057250E-17
   49.2965012         3.17010650E-17
   49.4770012         2.95455283E-17
   49.6575012         2.73169796E-17
   49.8380013         2.51298115E-17
   50.0185013         2.28809936E-17
   50.1990013         2.03114795E-17
   50.3795013         1.71341051E-17
   50.5600014         1.31461424E-17
   50.7405014         8.27224701E-18
   50.9210014         2.54401900E-18
   51.1015015        -3.93466904E-18
   51.2820015        -1.09967070E-17
   51.4625015        -1.84032615E-17
   51.6430016        -2.58650196E-17
   51.8235016        -3.31284611E-17
   52.0040016        -4.01026723E-17
   52.1845016        -4.69437538E-17
   52.3650017        -5.40133720E-17
   52.5455017        -6.16992894E-17
   52.7260017        -7.01835023E-17
   52.9065018        -7.92935468E-17
   53.0870018        -8.85301036E-17
   53.2675018        -9.72546488E-17
   53.4480019        -1.04920370E-16
   53.6285019        -1.11212620E-16
   53.8089981        -1.16039345E-16
   53.9894981        -1.19418980E-16
   54.1699982        -1.21369511E-16
   54.3504982        -1.21868956E-16
   54.5309982        -1.20873812E-16
   54.7114983        -1.18325248E-16
   54.8919983        -1.14097257E-16
   55.0724983        -1.07923955E-16
   55.2529984        -9.94047493E-17
   55.4334984        -8.81561716E-17
   55.6139984        -7.40662285E-17
   55.7944984        -5.74960935E-17
   55.9749985        -3.92669519E-17
   56.1554985        -2.03909682E-17
   56.3359985        -1.67811951E-18
   56.5164986         1.65544533E-17
   56.6969986         3.45051113E-17
   56.8774986         5.26545359E-17
   57.0579987         7.14508290E-17
   57.2384987         9.11121114E-17
   57.4189987         1.11620202E-16
   57.5994987         1.32812463E-16
   57.7799988         1.54412505E-16
   57.9604988         1.75931218E-16
   58.1409988         1.96535811E-16
   58.3214989         2.15070414E-16
   58.5019989         2.30325570E-16
   58.6824989         2.41444730E-16
   58.8629990         2.48197118E-16
   59.0434990         2.50890021E-16
   59.2239990         2.49930835E-16
   59.4044991         2.45317788E-16
   59.5849991         2.36418066E-16
   59.7654991         2.22205409E-16
   59.9459991         2.01800875E-16
   60.1264992         1.74937807E-16
   60.3069992         1.42031795E-16
   60.4874992         1.03838437E-16
   60.6679993         6.09898728E-17
   60.8484993         1.37738559E-17
   61.0289993        -3.77027633E-17
   61.2094994        -9.31570872E-17
   61.3899994        -1.51934457E-16
   61.5704994        -2.13178393E-16
   61.7509995        -2.76224009E-16
   61.9314995        -3.40821600E-16
   62.1119995        -4.06876617E-16
   62.2924995        -4.73767021E-16
   62.4729996        -5.39685137E-16
   62.6534996        -6.01524206E-16
   62.8339996        -6.55496669E-16
   63.0144997        -6.98161719E-16
   63.1949997        -7.27237554E-16
   63.3754997        -7.41719170E-16
   63.5559998        -7.41318683E-16
   63.7364998        -7.25709348E-16
   63.9169998        -6.94143289E-16
   64.0975037        -6.45668228E-16
   64.2779999        -5.79675838E-16
   64.4585037        -4.96279886E-16
   64.6389999        -3.96223854E-16
   64.8195038        -2.80473599E-16
   65.0000000        -1.49959864E-16
   65.1804962        -5.81587628E-18
   65.3610001         1.50008039E-16
   65.5414963         3.14293057E-16
   65.7220001         4.82798351E-16
   65.9024963         6.51260710E-16
   66.0830002         8.16602071E-16
   66.2634964         9.77548866E-16
   66.4440002         1.13420232E-15
   66.6244965         1.28678524E-15
   66.8050003         1.43432748E-15
   66.9854965         1.57404164E-15
   67.1660004         1.70160999E-15
   67.3464966         1.81199596E-15
   67.5270004         1.90015388E-15
   67.7074966         1.96131241E-15
   67.8880005         1.99101871E-15
   68.0684967         1.98538107E-15
   68.2490005         1.94171800E-15
   68.4294968         1.85928624E-15
   68.6100006         1.73946559E-15
   68.7904968         1.58501961E-15
   68.9710007         1.39872446E-15
   69.1514969         1.18224317E-15
   69.3320007         9.36082792E-16
   69.5124969         6.60779614E-16
   69.6930008         3.58587216E-16
   69.8734970         3.45503250E-17
   70.0540009        -3.03749244E-16
   70.2344971        -6.47586758E-16
   70.4150009        -9.88729701E-16
   70.5954971        -1.32040631E-15
   70.7760010        -1.63734857E-15
   70.9564972        -1.93537245E-15
   71.1370010        -2.21114182E-15
   71.3174973        -2.46228751E-15
   71.4980011        -2.68740049E-15
   71.6784973        -2.88522927E-15
   71.8590012        -3.05301040E-15
   72.0394974        -3.18476066E-15
   72.2200012        -3.27082768E-15
   72.4004974        -3.29946925E-15
   72.5810013        -3.25999116E-15
   72.7614975        -3.14587168E-15
   72.9420013        -2.95621296E-15
   73.1224976        -2.69490817E-15
   73.3030014        -2.36838162E-15
   73.4834976        -1.98354745E-15
   73.6640015        -1.54723062E-15
   73.8444977        -1.06699480E-15
   74.0250015        -5.52242241E-16
   74.2054977        -1.43600722E-17
   74.3860016         5.34360793E-16
   74.5664978         1.08217872E-15
   74.7470016         1.61854253E-15
   74.9274979         2.13350002E-15
   75.1080017         2.61665947E-15
   75.2884979         3.05704292E-15
   75.4690018         3.44452216E-15
   75.6494980         3.77209902E-15
   75.8300018         4.03725972E-15
   76.0104980         4.24094616E-15
   76.1910019         4.38426032E-15
   76.3714981         4.46472591E-15
   76.5520020         4.47449559E-15
   76.7324982         4.40175875E-15
   76.9130020         4.23461882E-15
   77.0934982         3.96521999E-15
   77.2740021         3.59200118E-15
   77.4544983         3.11941249E-15
   77.6350021         2.55609090E-15
   77.8154984         1.91312598E-15
   77.9960022         1.20330136E-15
   78.1764984         4.40923239E-16
   78.3570023        -3.58784601E-16
   78.5374985        -1.18116267E-15
   78.7180023        -2.01369018E-15
   78.8984985        -2.84620202E-15
   79.0790024        -3.66895074E-15
   79.2594986        -4.46936045E-15
   79.4400024        -5.22964748E-15
   79.6204987        -5.92734683E-15
   79.8010025        -6.53906471E-15
   79.9814987        -7.04568104E-15
   80.1620026        -7.43619711E-15
   80.3424988        -7.70828103E-15
   80.5230026        -7.86558861E-15
   80.7034988        -7.91369415E-15
   80.8840027        -7.85678624E-15
   81.0644989        -7.69618964E-15
   81.2450027        -7.43036783E-15
   81.4254990        -7.05549180E-15
   81.6060028        -6.56625828E-15
   81.7864990        -5.95747918E-15
   81.9670029        -5.22706869E-15
   82.1474991        -4.37997264E-15
   82.3280029        -3.43121760E-15
   82.5084991        -2.40592424E-15
   82.6890030        -1.33545523E-15
   82.8694992        -2.51183227E-16
