  -7.19999981        -3.85284930E-18
  -7.01949978        -3.85284847E-18
  -6.83900023        -3.85284765E-18
  -6.65850019        -3.85284599E-18
  -6.47800016        -3.85284475E-18
  -6.29750013        -3.85284310E-18
  -6.11700010        -3.85284103E-18
  -5.93650007        -3.85283855E-18
  -5.75600004        -3.85283689E-18
  -5.57550001        -3.85283441E-18
  -5.39499998        -3.85283276E-18
  -5.21449995        -3.85283110E-18
  -5.03399992        -3.85282904E-18
  -4.85349989        -3.85282738E-18
  -4.67299986        -3.85282490E-18
  -4.49249983        -3.85282200E-18
  -4.31199980        -3.85281828E-18
  -4.13149977        -3.85281332E-18
  -3.95099998        -3.85280794E-18
  -3.77049994        -3.85280215E-18
  -3.58999991        -3.85279678E-18
  -3.40949988        -3.85279181E-18
  -3.22900009        -3.85278685E-18
  -3.04850006        -3.85278230E-18
  -2.86800003        -3.85277816E-18
  -2.68750000        -3.85277486E-18
  -2.50699997        -3.85277113E-18
  -2.32649994        -3.85276700E-18
  -2.14599991        -3.85276245E-18
  -1.96550000        -3.85275748E-18
  -1.78499997        -3.85275128E-18
  -1.60450006        -3.85274466E-18
  -1.42400002        -3.85273722E-18
  -1.24349999        -3.85272853E-18
  -1.06299996        -3.85271985E-18
 -0.882499993        -3.85271116E-18
 -0.702000022        -3.85270289E-18
 -0.521499991        -3.85269503E-18
 -0.340999991        -3.85268842E-18
 -0.160500005        -3.85268221E-18
   1.99999996E-02    -3.85267601E-18
  0.200499997        -3.85267063E-18
  0.381000012        -3.85266443E-18
  0.561500013        -3.85265740E-18
  0.741999984        -3.85264995E-18
  0.922500014        -3.85264044E-18
   1.10300004        -3.85263051E-18
   1.28349996        -3.85261935E-18
   1.46399999        -3.85260777E-18
   1.64450002        -3.85259536E-18
   1.82500005        -3.85258254E-18
   2.00550008        -3.85257096E-18
   2.18600011        -3.85256020E-18
   2.36649990        -3.85255069E-18
   2.54699993        -3.85254159E-18
   2.72749996        -3.85253332E-18
   2.90799999        -3.85252629E-18
   3.08850002        -3.85251843E-18
   3.26900005        -3.85251016E-18
   3.44950008        -3.85250065E-18
   3.63000011        -3.85248989E-18
   3.81049991        -3.85247790E-18
   3.99099994        -3.85246425E-18
   4.17150021        -3.85244936E-18
   4.35200024        -3.85243323E-18
   4.53249979        -3.85241751E-18
   4.71299982        -3.85240097E-18
   4.89349985        -3.85238608E-18
   5.07399988        -3.85237285E-18
   5.25449991        -3.85236085E-18
   5.43499994        -3.85235051E-18
   5.61549997        -3.85234059E-18
   5.79600000        -3.85233066E-18
   5.97650003        -3.85231991E-18
   6.15700006        -3.85230833E-18
   6.33750010        -3.85229509E-18
   6.51800013        -3.85227937E-18
   6.69850016        -3.85226118E-18
   6.87900019        -3.85224132E-18
   7.05950022        -3.85222064E-18
   7.23999977        -3.85220038E-18
   7.42049980        -3.85218094E-18
   7.60099983        -3.85216274E-18
   7.78149986        -3.85214661E-18
   7.96199989        -3.85213214E-18
   8.14249992        -3.85211973E-18
   8.32299995        -3.85210856E-18
   8.50349998        -3.85209657E-18
   8.68400002        -3.85208416E-18
   8.86450005        -3.85207051E-18
   9.04500008        -3.85205438E-18
   9.22550011        -3.85203577E-18
   9.40600014        -3.85201550E-18
   9.58650017        -3.85199276E-18
   9.76700020        -3.85197001E-18
   9.94750023        -3.85194726E-18
   10.1280003        -3.85192451E-18
   10.3085003        -3.85190342E-18
   10.4890003        -3.85188398E-18
   10.6695004        -3.85186661E-18
   10.8500004        -3.85185007E-18
   11.0305004        -3.85183476E-18
   11.2110004        -3.85181905E-18
   11.3915005        -3.85180333E-18
   11.5719995        -3.85178555E-18
   11.7524996        -3.85176570E-18
   11.9329996        -3.85174377E-18
   12.1134996        -3.85172020E-18
   12.2939997        -3.85169332E-18
   12.4744997        -3.85166643E-18
   12.6549997        -3.85163872E-18
   12.8354998        -3.85161143E-18
   13.0159998        -3.85158537E-18
   13.1964998        -3.85156180E-18
   13.3769999        -3.85154070E-18
   13.5574999        -3.85152333E-18
   13.7379999        -3.85150927E-18
   13.9184999        -3.85149934E-18
   14.0990000        -3.85149190E-18
   14.2795000        -3.85148528E-18
   14.4600000        -3.85147949E-18
   14.6405001        -3.85147287E-18
   14.8210001        -3.85146543E-18
   15.0015001        -3.85145798E-18
   15.1820002        -3.85145095E-18
   15.3625002        -3.85144309E-18
   15.5430002        -3.85143400E-18
   15.7235003        -3.85142242E-18
   15.9040003        -3.85141083E-18
   16.0844994        -3.85139884E-18
   16.2649994        -3.85138436E-18
   16.4454994        -3.85136120E-18
   16.6259995        -3.85132067E-18
   16.8064995        -3.85124995E-18
   16.9869995        -3.85113828E-18
   17.1674995        -3.85097160E-18
   17.3479996        -3.85073544E-18
   17.5284996        -3.85040829E-18
   17.7089996        -3.84996368E-18
   17.8894997        -3.84936728E-18
   18.0699997        -3.84858436E-18
   18.2504997        -3.84757727E-18
   18.4309998        -3.84630589E-18
   18.6114998        -3.84471936E-18
   18.7919998        -3.84275853E-18
   18.9724998        -3.84035308E-18
   19.1529999        -3.83742569E-18
   19.3334999        -3.83389942E-18
   19.5139999        -3.82969983E-18
   19.6945000        -3.82475577E-18
   19.8750000        -3.81900107E-18
   20.0555000        -3.81237329E-18
   20.2360001        -3.80482733E-18
   20.4165001        -3.79634749E-18
   20.5970001        -3.78695733E-18
   20.7775002        -3.77672428E-18
   20.9580002        -3.76575670E-18
   21.1385002        -3.75419891E-18
   21.3190002        -3.74223664E-18
   21.4995003        -3.73010893E-18
   21.6800003        -3.71812598E-18
   21.8605003        -3.70667780E-18
   22.0410004        -3.69622927E-18
   22.2215004        -3.68730441E-18
   22.4020004        -3.68046858E-18
   22.5825005        -3.67631696E-18
   22.7630005        -3.67548151E-18
   22.9435005        -3.67863183E-18
   23.1240005        -3.68647102E-18
   23.3045006        -3.69971129E-18
   23.4850006        -3.71903878E-18
   23.6655006        -3.74508214E-18
   23.8460007        -3.77840305E-18
   24.0265007        -3.81948208E-18
   24.2070007        -3.86869436E-18
   24.3875008        -3.92624462E-18
   24.5680008        -3.99207703E-18
   24.7485008        -4.06580033E-18
   24.9290009        -4.14666468E-18
   25.1095009        -4.23360757E-18
   25.2900009        -4.32531998E-18
   25.4705009        -4.42027783E-18
   25.6509991        -4.51668987E-18
   25.8314991        -4.61239384E-18
   26.0119991        -4.70476758E-18
   26.1924992        -4.79074266E-18
   26.3729992        -4.86693427E-18
   26.5534992        -4.92983184E-18
   26.7339993        -4.97597239E-18
   26.9144993        -5.00203106E-18
   27.0949993        -5.00488111E-18
   27.2754993        -4.98168573E-18
   27.4559994        -4.93007007E-18
   27.6364994        -4.84832188E-18
   27.8169994        -4.73553001E-18
   27.9974995        -4.59157742E-18
   28.1779995        -4.41706093E-18
   28.3584995        -4.21328291E-18
   28.5389996        -3.98245899E-18
   28.7194996        -3.72811253E-18
   28.8999996        -3.45543224E-18
   29.0804996        -3.17131638E-18
   29.2609997        -2.88396541E-18
   29.4414997        -2.60215718E-18
   29.6219997        -2.33455143E-18
   29.8024998        -2.08931823E-18
   29.9829998        -1.87415221E-18
   30.1634998        -1.69644083E-18
   30.3439999        -1.56326393E-18
   30.5244999        -1.48107733E-18
   30.7049999        -1.45521119E-18
   30.8855000        -1.48945481E-18
   31.0660000        -1.58585919E-18
   31.2465000        -1.74463641E-18
   31.4270000        -1.96387463E-18
   31.6075001        -2.23897257E-18
   31.7880001        -2.56207263E-18
   31.9685001        -2.92205915E-18
   32.1489983        -3.30550410E-18
   32.3294983        -3.69840186E-18
   32.5099983        -4.08792162E-18
   32.6904984        -4.46329991E-18
   32.8709984        -4.81547536E-18
   33.0514984        -5.13590735E-18
   33.2319984        -5.41558290E-18
   33.4124985        -5.64506348E-18
   33.5929985        -5.81568810E-18
   33.7734985        -5.92125537E-18
   33.9539986        -5.95928252E-18
   34.1344986        -5.93136393E-18
   34.3149986        -5.84288083E-18
   34.4954987        -5.70259596E-18
   34.6759987        -5.52235165E-18
   34.8564987        -5.31644076E-18
   35.0369987        -5.10001350E-18
   35.2174988        -4.88644870E-18
   35.3979988        -4.68468156E-18
   35.5784988        -4.49809154E-18
   35.7589989        -4.32599372E-18
   35.9394989        -4.16720440E-18
   36.1199989        -4.02357524E-18
   36.3004990        -3.90106442E-18
   36.4809990        -3.80730515E-18
   36.6614990        -3.74687671E-18
   36.8419991        -3.71707133E-18
   37.0224991        -3.70666084E-18
   37.2029991        -3.69828854E-18
   37.3834991        -3.67294869E-18
   37.5639992        -3.61420356E-18
   37.7444992        -3.51073650E-18
   37.9249992        -3.35748930E-18
   38.1054993        -3.15649806E-18
   38.2859993        -2.91776815E-18
   38.4664993        -2.65900723E-18
   38.6469994        -2.40246565E-18
   38.8274994        -2.16864381E-18
   39.0079994        -1.96939772E-18
   39.1884995        -1.80475714E-18
   39.3689995        -1.66659326E-18
   39.5494995        -1.54821555E-18
   39.7299995        -1.45463350E-18
   39.9104996        -1.40692079E-18
   40.0909996        -1.43713015E-18
   40.2714996        -1.57588391E-18
   40.4519997        -1.83920404E-18
   40.6324997        -2.22123017E-18
   40.8129997        -2.69535562E-18
   40.9934998        -3.22128636E-18
   41.1739998        -3.75316659E-18
   41.3544998        -4.24568813E-18
   41.5349998        -4.65862620E-18
   41.7154999        -4.96191363E-18
   41.8959999        -5.14144946E-18
   42.0764999        -5.20211530E-18
   42.2570000        -5.16319810E-18
   42.4375000        -5.04506720E-18
   42.6180000        -4.85279072E-18
   42.7985001        -4.56703704E-18
   42.9790001        -4.15046558E-18
   43.1595001        -3.56889061E-18
   43.3400002        -2.81648009E-18
   43.5205002        -1.93051134E-18
   43.7010002        -9.86924698E-19
   43.8815002        -7.95112694E-20
   44.0620003         7.05118326E-19
   44.2425003         1.30398892E-18
   44.4230003         1.68061511E-18
   44.6035004         1.81873980E-18
   44.7840004         1.71524761E-18
   44.9645004         1.37645956E-18
   45.1450005         8.15036309E-19
   45.3255005         4.22532613E-20
   45.5060005        -9.44343819E-19
   45.6865005        -2.16943915E-18
   45.8670006        -3.67321256E-18
   46.0475006        -5.48566413E-18
   46.2280006        -7.59265362E-18
   46.4085007        -9.91448012E-18
   46.5890007        -1.23141269E-17
   46.7695007        -1.46352404E-17
   46.9500008        -1.67504736E-17
   47.1305008        -1.85933211E-17
   47.3110008        -2.01568695E-17
   47.4915009        -2.14639936E-17
   47.6720009        -2.25301318E-17
   47.8525009        -2.33403568E-17
   48.0330009        -2.38483714E-17
   48.2135010        -2.39888581E-17
   48.3940010        -2.36895660E-17
   48.5745010        -2.28782474E-17
   48.7550011        -2.14920234E-17
   48.9355011        -1.94989168E-17
   49.1160011        -1.69289097E-17
   49.2965012        -1.38948211E-17
   49.4770012        -1.05786218E-17
   49.6575012        -7.17559412E-18
   49.8380013        -3.81817637E-18
   50.0185013        -5.21844312E-19
   50.1990013         2.81111644E-18
   50.3795013         6.32657015E-18
   50.5600014         1.01259703E-17
   50.7405014         1.41955559E-17
   50.9210014         1.83899224E-17
   51.1015015         2.24667350E-17
   51.2820015         2.61419365E-17
   51.4625015         2.91346677E-17
   51.6430016         3.11942117E-17
   51.8235016         3.21240455E-17
   52.0040016         3.18185611E-17
   52.1845016         3.03048768E-17
   52.3650017         2.77582226E-17
   52.5455017         2.44606191E-17
   52.7260017         2.07057882E-17
   52.9065018         1.66952345E-17
   53.0870018         1.24867033E-17
   53.2675018         8.02792268E-18
   53.4480019         3.25218259E-18
   53.6285019        -1.83085593E-18
   53.8089981        -7.11115923E-18
   53.9894981        -1.24323683E-17
   54.1699982        -1.76755245E-17
   54.3504982        -2.28027374E-17
   54.5309982        -2.78235401E-17
   54.7114983        -3.27078001E-17
   54.8919983        -3.73086713E-17
   55.0724983        -4.13461167E-17
   55.2529984        -4.44489803E-17
   55.4334984        -4.62077781E-17
   55.6139984        -4.61929451E-17
   55.7944984        -4.39424216E-17
   55.9749985        -3.89737064E-17
   56.1554985        -3.08773850E-17
   56.3359985        -1.94897831E-17
   56.5164986        -5.06383014E-18
   56.6969986         1.16743400E-17
   56.8774986         2.96453624E-17
   57.0579987         4.76717124E-17
   57.2384987         6.47431155E-17
   57.4189987         8.01675656E-17
   57.5994987         9.35660453E-17
   57.7799988         1.04771530E-16
   57.9604988         1.13735706E-16
   58.1409988         1.20502031E-16
   58.3214989         1.25215716E-16
   58.5019989         1.28089963E-16
   58.6824989         1.29281501E-16
   58.8629990         1.28720778E-16
   59.0434990         1.26009968E-16
   59.2239990         1.20479266E-16
   59.4044991         1.11386183E-16
   59.5849991         9.81351131E-17
   59.7654991         8.03776761E-17
   59.9459991         5.79485746E-17
   60.1264992         3.07273907E-17
   60.3069992        -1.41621189E-18
   60.4874992        -3.84981041E-17
   60.6679993        -8.01673737E-17
   60.8484993        -1.25494562E-16
   61.0289993        -1.72959694E-16
   61.2094994        -2.20669553E-16
   61.3899994        -2.66683215E-16
   61.5704994        -3.09274599E-16
   61.7509995        -3.47043851E-16
   61.9314995        -3.78930300E-16
   62.1119995        -4.04250842E-16
   62.2924995        -4.22824395E-16
   62.4729996        -4.35098246E-16
   62.6534996        -4.42103076E-16
   62.8339996        -4.45126243E-16
   63.0144997        -4.45182835E-16
   63.1949997        -4.42536440E-16
   63.3754997        -4.36534073E-16
   63.5559998        -4.25842400E-16
   63.7364998        -4.08928184E-16
   63.9169998        -3.84496922E-16
   64.0975037        -3.51683342E-16
   64.2779999        -3.10004662E-16
   64.4585037        -2.59264662E-16
   64.6389999        -1.99590979E-16
   64.8195038        -1.31612509E-16
   65.0000000        -5.66022951E-17
   65.1804962         2.36097365E-17
   65.3610001         1.06975563E-16
   65.5414963         1.91615423E-16
   65.7220001         2.75972307E-16
   65.9024963         3.58617683E-16
   66.0830002         4.37878791E-16
   66.2634964         5.11638182E-16
   66.4440002         5.77563126E-16
   66.6244965         6.33707911E-16
   66.8050003         6.79129047E-16
   66.9854965         7.14105896E-16
   67.1660004         7.39812182E-16
   67.3464966         7.57650378E-16
   67.5270004         7.68659000E-16
   67.7074966         7.73290524E-16
   67.8880005         7.71536265E-16
   68.0684967         7.63126234E-16
   68.2490005         7.47553745E-16
   68.4294968         7.23940002E-16
   68.6100006         6.91010537E-16
   68.7904968         6.47451603E-16
   68.9710007         5.92618872E-16
   69.1514969         5.27215170E-16
   69.3320007         4.53457077E-16
   69.5124969         3.74528058E-16
   69.6930008         2.93599301E-16
   69.8734970         2.13010482E-16
   70.0540009         1.34095228E-16
   70.2344971         5.76726006E-17
   70.4150009        -1.52398730E-17
   70.5954971        -8.30532745E-17
   70.7760010        -1.43824699E-16
   70.9564972        -1.95841230E-16
   71.1370010        -2.38094450E-16
   71.3174973        -2.70331306E-16
   71.4980011        -2.92775191E-16
   71.6784973        -3.05898643E-16
   71.8590012        -3.10530775E-16
   72.0394974        -3.08183541E-16
   72.2200012        -3.01150732E-16
   72.4004974        -2.92000765E-16
   72.5810013        -2.82552430E-16
   72.7614975        -2.72925556E-16
   72.9420013        -2.61362577E-16
   73.1224976        -2.45071540E-16
   73.3030014        -2.21652111E-16
   73.4834976        -1.90251369E-16
   73.6640015        -1.51787775E-16
   73.8444977        -1.08238926E-16
   74.0250015        -6.16117671E-17
   74.2054977        -1.33272147E-17
   74.3860016         3.56903189E-17
   74.5664978         8.45364557E-17
   74.7470016         1.32033312E-16
   74.9274979         1.76899800E-16
   75.1080017         2.18124391E-16
   75.2884979         2.55006072E-16
   75.4690018         2.86615938E-16
   75.6494980         3.11051171E-16
   75.8300018         3.25255040E-16
   76.0104980         3.25917923E-16
   76.1910019         3.11167453E-16
   76.3714981         2.82012870E-16
   76.5520020         2.42450846E-16
   76.7324982         1.97915257E-16
   76.9130020         1.52828672E-16
   77.0934982         1.08609046E-16
   77.2740021         6.31547898E-17
   77.4544983         1.18377429E-17
   77.6350021        -5.08434835E-17
   77.8154984        -1.29946249E-16
   77.9960022        -2.29471390E-16
   78.1764984        -3.52073215E-16
   78.3570023        -4.98503612E-16
   78.5374985        -6.66740132E-16
   78.7180023        -8.51497923E-16
   78.8984985        -1.04501822E-15
   79.0790024        -1.23932959E-15
   79.2594986        -1.42904347E-15
   79.4400024        -1.61309029E-15
   79.6204987        -1.79426587E-15
   79.8010025        -1.97682434E-15
   79.9814987        -2.16364762E-15
   80.1620026        -2.35476260E-15
   80.3424988        -2.54796616E-15
   80.5230026        -2.74080444E-15
   80.7034988        -2.93228259E-15
   80.8840027        -3.12308650E-15
   81.0644989        -3.31435480E-15
   81.2450027        -3.50613131E-15
   81.4254990        -3.69664956E-15
   81.6060028        -3.88265588E-15
   81.7864990        -4.05994581E-15
   81.9670029        -4.22316101E-15
   82.1474991        -4.36482176E-15
   82.3280029        -4.47470989E-15
   82.5084991        -4.54099233E-15
   82.6890030        -4.55340179E-15
   82.8694992        -4.50710509E-15
