  -7.65000010         1.03394731E-17
  -7.53125000         1.03394731E-17
  -7.41249990         1.03394739E-17
  -7.29374981         1.03394748E-17
  -7.17500019         1.03394764E-17
  -7.05625010         1.03394772E-17
  -6.93750000         1.03394772E-17
  -6.81874990         1.03394781E-17
  -6.69999981         1.03394781E-17
  -6.58125019         1.03394781E-17
  -6.46250010         1.03394789E-17
  -6.34375000         1.03394797E-17
  -6.22499990         1.03394814E-17
  -6.10624981         1.03394839E-17
  -5.98750019         1.03394872E-17
  -5.86875010         1.03394905E-17
  -5.75000000         1.03394946E-17
  -5.63124990         1.03394971E-17
  -5.51249981         1.03394987E-17
  -5.39375019         1.03394996E-17
  -5.27500010         1.03395004E-17
  -5.15625000         1.03395004E-17
  -5.03749990         1.03395021E-17
  -4.91874981         1.03395054E-17
  -4.80000019         1.03395087E-17
  -4.68125010         1.03395145E-17
  -4.56250000         1.03395194E-17
  -4.44374990         1.03395244E-17
  -4.32499981         1.03395285E-17
  -4.20625019         1.03395318E-17
  -4.08750010         1.03395343E-17
  -3.96875000         1.03395351E-17
  -3.84999990         1.03395376E-17
  -3.73125005         1.03395393E-17
  -3.61249995         1.03395434E-17
  -3.49375010         1.03395484E-17
  -3.37500000         1.03395550E-17
  -3.25624990         1.03395624E-17
  -3.13750005         1.03395699E-17
  -3.01874995         1.03395765E-17
  -2.90000010         1.03395806E-17
  -2.78125000         1.03395823E-17
  -2.66249990         1.03395831E-17
  -2.54375005         1.03395839E-17
  -2.42499995         1.03395856E-17
  -2.30625010         1.03395889E-17
  -2.18750000         1.03395939E-17
  -2.06874990         1.03395997E-17
  -1.95000005         1.03396079E-17
  -1.83124995         1.03396162E-17
  -1.71249998         1.03396245E-17
  -1.59375000         1.03396303E-17
  -1.47500002         1.03396352E-17
  -1.35625005         1.03396377E-17
  -1.23749995         1.03396394E-17
  -1.11874998         1.03396402E-17
  -1.00000000         1.03396427E-17
 -0.881250024         1.03396476E-17
 -0.762499988         1.03396543E-17
 -0.643750012         1.03396634E-17
 -0.524999976         1.03396733E-17
 -0.406250000         1.03396832E-17
 -0.287499994         1.03396890E-17
 -0.168750003         1.03396931E-17
  -5.00000007E-02     1.03396956E-17
   6.87500015E-02     1.03396948E-17
  0.187500000         1.03396931E-17
  0.306250006         1.03396923E-17
  0.425000012         1.03396948E-17
  0.543749988         1.03397014E-17
  0.662500024         1.03397113E-17
  0.781250000         1.03397229E-17
  0.899999976         1.03397345E-17
   1.01874995         1.03397461E-17
   1.13750005         1.03397535E-17
   1.25625002         1.03397585E-17
   1.37500000         1.03397610E-17
   1.49374998         1.03397610E-17
   1.61249995         1.03397610E-17
   1.73125005         1.03397626E-17
   1.85000002         1.03397668E-17
   1.96875000         1.03397750E-17
   2.08750010         1.03397858E-17
   2.20624995         1.03397990E-17
   2.32500005         1.03398098E-17
   2.44374990         1.03398180E-17
   2.56250000         1.03398222E-17
   2.68125010         1.03398230E-17
   2.79999995         1.03398197E-17
   2.91875005         1.03398164E-17
   3.03749990         1.03398156E-17
   3.15625000         1.03398180E-17
   3.27500010         1.03398255E-17
   3.39374995         1.03398379E-17
   3.51250005         1.03398544E-17
   3.63124990         1.03398718E-17
   3.75000000         1.03398867E-17
   3.86875010         1.03398975E-17
   3.98749995         1.03399032E-17
   4.10624981         1.03399032E-17
   4.22499990         1.03399008E-17
   4.34375000         1.03398975E-17
   4.46250010         1.03398966E-17
   4.58125019         1.03399008E-17
   4.69999981         1.03399099E-17
   4.81874990         1.03399239E-17
   4.93750000         1.03399388E-17
   5.05625010         1.03399537E-17
   5.17500019         1.03399653E-17
   5.29374981         1.03399702E-17
   5.41249990         1.03399694E-17
   5.53125000         1.03399653E-17
   5.65000010         1.03399611E-17
   5.76875019         1.03399595E-17
   5.88749981         1.03399628E-17
   6.00624990         1.03399719E-17
   6.12500000         1.03399868E-17
   6.24375010         1.03400042E-17
   6.36250019         1.03400224E-17
   6.48124981         1.03400381E-17
   6.59999990         1.03400472E-17
   6.71875000         1.03400513E-17
   6.83750010         1.03400497E-17
   6.95625019         1.03400455E-17
   7.07499981         1.03400414E-17
   7.19374990         1.03400406E-17
   7.31250000         1.03400455E-17
   7.43125010         1.03400563E-17
   7.55000019         1.03400728E-17
   7.66874981         1.03400902E-17
   7.78749990         1.03401067E-17
   7.90625000         1.03401191E-17
   8.02499962         1.03401258E-17
   8.14375019         1.03401258E-17
   8.26249981         1.03401208E-17
   8.38125038         1.03401150E-17
   8.50000000         1.03401109E-17
   8.61874962         1.03401133E-17
   8.73750019         1.03401208E-17
   8.85624981         1.03401349E-17
   8.97500038         1.03401530E-17
   9.09375000         1.03401712E-17
   9.21249962         1.03401870E-17
   9.33125019         1.03401969E-17
   9.44999981         1.03402010E-17
   9.56875038         1.03402019E-17
   9.68750000         1.03402027E-17
   9.80624962         1.03402060E-17
   9.92500019         1.03402143E-17
   10.0437498         1.03402300E-17
   10.1625004         1.03402515E-17
   10.2812500         1.03402755E-17
   10.3999996         1.03402978E-17
   10.5187502         1.03403143E-17
   10.6374998         1.03403218E-17
   10.7562504         1.03403185E-17
   10.8750000         1.03403028E-17
   10.9937496         1.03402780E-17
   11.1125002         1.03402457E-17
   11.2312498         1.03402101E-17
   11.3500004         1.03401712E-17
   11.4687500         1.03401307E-17
   11.5874996         1.03400869E-17
   11.7062502         1.03400397E-17
   11.8249998         1.03399884E-17
   11.9437504         1.03399347E-17
   12.0625000         1.03398842E-17
   12.1812496         1.03398445E-17
   12.3000002         1.03398263E-17
   12.4187498         1.03398412E-17
   12.5375004         1.03399032E-17
   12.6562500         1.03400265E-17
   12.7749996         1.03402209E-17
   12.8937502         1.03404988E-17
   13.0124998         1.03408677E-17
   13.1312504         1.03413351E-17
   13.2500000         1.03419067E-17
   13.3687496         1.03425874E-17
   13.4875002         1.03433799E-17
   13.6062498         1.03442840E-17
   13.7250004         1.03452948E-17
   13.8437500         1.03463991E-17
   13.9624996         1.03475729E-17
   14.0812502         1.03487814E-17
   14.1999998         1.03499717E-17
   14.3187504         1.03510793E-17
   14.4375000         1.03520173E-17
   14.5562496         1.03526832E-17
   14.6750002         1.03529537E-17
   14.7937498         1.03526799E-17
   14.9125004         1.03516930E-17
   15.0312500         1.03497905E-17
   15.1499996         1.03467407E-17
   15.2687502         1.03422756E-17
   15.3874998         1.03360850E-17
   15.5062504         1.03278165E-17
   15.6250000         1.03170681E-17
   15.7437496         1.03033857E-17
   15.8625002         1.02862589E-17
   15.9812498         1.02651162E-17
   16.1000004         1.02393164E-17
   16.2187500         1.02081433E-17
   16.3374996         1.01707977E-17
   16.4562492         1.01263823E-17
   16.5750008         1.00738977E-17
   16.6937504         1.00122297E-17
   16.8125000         9.94013512E-18
   16.9312496         9.85623916E-18
   17.0499992         9.75902310E-18
   17.1687508         9.64681605E-18
   17.2875004         9.51779407E-18
   17.4062500         9.36997524E-18
   17.5249996         9.20122295E-18
   17.6437492         9.00924922E-18
   17.7625008         8.79162297E-18
   17.8812504         8.54578820E-18
   18.0000000         8.26908387E-18
   18.1187496         7.95877865E-18
   18.2374992         7.61210560E-18
   18.3562508         7.22631931E-18
   18.4750004         6.79875255E-18
   18.5937500         6.32689357E-18
   18.7124996         5.80847136E-18
   18.8312492         5.24155568E-18
   18.9500008         4.62466754E-18
   19.0687504         3.95690821E-18
   19.1875000         3.23809653E-18
   19.3062496         2.46892423E-18
   19.4249992         1.65112230E-18
   19.5437508         7.87642827E-19
   19.6625004        -1.17148705E-19
   19.7812500        -1.05726865E-18
   19.8999996        -2.02490071E-18
   20.0187492        -3.01017580E-18
   20.1375008        -4.00094565E-18
   20.2562504        -4.98255468E-18
   20.3750000        -5.93761328E-18
   20.4937496        -6.84577322E-18
   20.6124992        -7.68351197E-18
   20.7312508        -8.42392216E-18
   20.8500004        -9.03652385E-18
   20.9687500        -9.48708003E-18
   21.0874996        -9.73744692E-18
   21.2062492        -9.74544328E-18
   21.3250008        -9.46474698E-18
   21.4437504        -8.84483632E-18
   21.5625000        -7.83096105E-18
   21.6812496        -6.36416633E-18
   21.7999992        -4.38136601E-18
   21.9187508        -1.81547223E-18
   22.0375004         1.40441557E-18
   22.1562500         5.35275150E-18
   22.2749996         1.01072107E-17
   22.3937492         1.57482831E-17
   22.5125008         2.23587780E-17
   22.6312504         3.00232483E-17
   22.7500000         3.88273186E-17
   22.8687496         4.88569067E-17
   22.9874992         6.01973676E-17
   23.1062508         7.29325345E-17
   23.2250004         8.71436165E-17
   23.3437500         1.02908078E-16
   23.4624996         1.20298346E-16
   23.5812492         1.39380489E-16
   23.7000008         1.60212735E-16
   23.8187504         1.82844039E-16
   23.9375000         2.07312412E-16
   24.0562496         2.33643371E-16
   24.1749992         2.61848245E-16
   24.2937508         2.91922520E-16
   24.4125004         3.23844016E-16
   24.5312500         3.57571412E-16
   24.6499996         3.93042425E-16
   24.7687492         4.30172220E-16
   24.8875008         4.68852006E-16
   25.0062504         5.08947370E-16
   25.1250000         5.50297295E-16
   25.2437496         5.92712575E-16
   25.3624992         6.35975207E-16
   25.4812508         6.79837167E-16
   25.6000004         7.24020046E-16
   25.7187500         7.68214467E-16
   25.8374996         8.12079974E-16
   25.9562492         8.55245196E-16
   26.0750008         8.97308058E-16
   26.1937504         9.37836467E-16
   26.3125000         9.76369373E-16
   26.4312496         1.01241835E-15
   26.5499992         1.04546863E-15
   26.6687508         1.07498158E-15
   26.7875004         1.10039712E-15
   26.9062500         1.12113630E-15
   27.0249996         1.13660450E-15
   27.1437492         1.14619493E-15
   27.2625008         1.14929253E-15
   27.3812504         1.14527865E-15
   27.5000000         1.13353485E-15
   27.6187496         1.11344884E-15
   27.7374992         1.08441901E-15
   27.8562508         1.04586112E-15
   27.9750004         9.97213265E-16
   28.0937500         9.37942770E-16
   28.2124996         8.67552373E-16
   28.3312492         7.85587324E-16
   28.4500008         6.91641947E-16
   28.5687504         5.85366788E-16
   28.6875000         4.66475497E-16
   28.8062496         3.34752079E-16
   28.9249992         1.90058034E-16
   29.0437508         3.23388279E-17
   29.1625004        -1.38369013E-16
   29.2812500        -3.21931918E-16
   29.3999996        -5.18113113E-16
   29.5187492        -7.26567551E-16
   29.6375008        -9.46837039E-16
   29.7562504        -1.17834607E-15
   29.8750000        -1.42039908E-15
   29.9937496        -1.67217761E-15
   30.1124992        -1.93273924E-15
   30.2312508        -2.20101765E-15
   30.3500004        -2.47582309E-15
   30.4687500        -2.75584478E-15
   30.5874996        -3.03965333E-15
   30.7062492        -3.32570652E-15
   30.8250008        -3.61235412E-15
   30.9437504        -3.89784488E-15
   31.0625000        -4.18033375E-15
   31.1812496        -4.45789247E-15
   31.2999992        -4.72851738E-15
   31.4187508        -4.99014214E-15
   31.5375004        -5.24064960E-15
   31.6562500        -5.47788447E-15
   31.7749996        -5.69966564E-15
   31.8937492        -5.90380313E-15
   32.0125008        -6.08810987E-15
   32.1312485        -6.25042171E-15
   32.2500000        -6.38861133E-15
   32.3687515        -6.50060475E-15
   32.4874992        -6.58440257E-15
   32.6062508        -6.63809260E-15
   32.7249985        -6.65987320E-15
   32.8437500        -6.64807022E-15
   32.9625015        -6.60115349E-15
   33.0812492        -6.51775844E-15
   33.2000008        -6.39670219E-15
   33.3187485        -6.23700217E-15
   33.4375000        -6.03789310E-15
   33.5562515        -5.79884261E-15
   33.6749992        -5.51956738E-15
   33.7937508        -5.20004622E-15
   33.9124985        -4.84053198E-15
   34.0312500        -4.44156464E-15
   34.1500015        -4.00397726E-15
   34.2687492        -3.52890422E-15
   34.3875008        -3.01778633E-15
   34.5062485        -2.47237271E-15
   34.6250000        -1.89472016E-15
   34.7437515        -1.28719203E-15
   34.8624992        -6.52452644E-16
   34.9812508         6.54079380E-18
   35.0999985         6.86548050E-16
   35.2187500         1.38405925E-15
   35.3375015         2.09531154E-15
   35.4562492         2.81630705E-15
   35.5750008         3.54283558E-15
   35.6937485         4.27050041E-15
   35.8125000         4.99474280E-15
   35.9312515         5.71087358E-15
   36.0499992         6.41410575E-15
   36.1687508         7.09958834E-15
   36.2874985         7.76243947E-15
   36.4062500         8.39778788E-15
   36.5250015         9.00080673E-15
   36.6437492         9.56675772E-15
   36.7625008         1.00910220E-14
   36.8812485         1.05691475E-14
   37.0000000         1.09968822E-14
   37.1187515         1.13702086E-14
   37.2374992         1.16853870E-14
   37.3562508         1.19389853E-14
   37.4749985         1.21279118E-14
   37.5937500         1.22494440E-14
   37.7125015         1.23012621E-14
   37.8312492         1.22814687E-14
   37.9500008         1.21886169E-14
   38.0687485         1.20217294E-14
   38.1875000         1.17803191E-14
   38.3062515         1.14644029E-14
   38.4249992         1.10745213E-14
   38.5437508         1.06117457E-14
   38.6624985         1.00776871E-14
   38.7812500         9.47450821E-15
   38.9000015         8.80491850E-15
   39.0187492         8.07218079E-15
   39.1375008         7.28010588E-15
   39.2562485         6.43304583E-15
   39.3750000         5.53588166E-15
   39.4937515         4.59401067E-15
   39.6124992         3.61332693E-15
   39.7312508         2.60019421E-15
   39.8499985         1.56142043E-15
   39.9687500         5.04219655E-16
   40.0875015        -5.63825099E-16
   40.2062492        -1.63480916E-15
   40.3250008        -2.70055682E-15
   40.4437485        -3.75267783E-15
   40.5625000        -4.78263008E-15
   40.6812515        -5.78178506E-15
   40.7999992        -6.74149880E-15
   40.9187508        -7.65318578E-15
   41.0374985        -8.50839598E-15
   41.1562500        -9.29889117E-15
   41.2750015        -1.00167245E-14
   41.3937492        -1.06543167E-14
   41.5125008        -1.12045290E-14
   41.6312485        -1.16607409E-14
   41.7500000        -1.20169047E-14
   41.8687515        -1.22676214E-14
   41.9874992        -1.24081780E-14
   42.1062508        -1.24346038E-14
   42.2249985        -1.23436985E-14
   42.3437500        -1.21330651E-14
   42.4625015        -1.18011256E-14
   42.5812492        -1.13471278E-14
   42.7000008        -1.07711420E-14
   42.8187485        -1.00740568E-14
   42.9375000        -9.25756698E-15
   43.0562515        -8.32414344E-15
   43.1749992        -7.27701845E-15
   43.2937508        -6.12015016E-15
   43.4124985        -4.85819686E-15
   43.5312500        -3.49647853E-15
   43.6500015        -2.04095003E-15
   43.7687492        -4.98167075E-16
   43.8875008         1.12474413E-15
   44.0062485         2.82011615E-15
   44.1250000         4.57976611E-15
   44.2437515         6.39502506E-15
   44.3624992         8.25676621E-15
   44.4812508         1.01554287E-14
   44.5999985         1.20810522E-14
   44.7187500         1.40233106E-14
   44.8375015         1.59715482E-14
   44.9562492         1.79148265E-14
   45.0750008         1.98419738E-14
   45.1937485         2.17416451E-14
   45.3125000         2.36023918E-14
   45.4312515         2.54127384E-14
   45.5499992         2.71612668E-14
   45.6687508         2.88367048E-14
   45.7874985         3.04280323E-14
   45.9062500         3.19245905E-14
   46.0250015         3.33161775E-14
   46.1437492         3.45931678E-14
   46.2625008         3.57466166E-14
   46.3812485         3.67683518E-14
   46.5000000         3.76510753E-14
   46.6187515         3.83884310E-14
   46.7374992         3.89750589E-14
   46.8562508         3.94066561E-14
   46.9749985         3.96799733E-14
   47.0937500         3.97928421E-14
   47.2125015         3.97441106E-14
   47.3312492         3.95336365E-14
   47.4500008         3.91621855E-14
   47.5687485         3.86313601E-14
   47.6875000         3.79434812E-14
   47.8062515         3.71014932E-14
   47.9249992         3.61088316E-14
   48.0437508         3.49693114E-14
   48.1624985         3.36869984E-14
   48.2812500         3.22661175E-14
   48.4000015         3.07109549E-14
   48.5187492         2.90257828E-14
   48.6375008         2.72148044E-14
   48.7562485         2.52821124E-14
   48.8750000         2.32316929E-14
   48.9937515         2.10674069E-14
   49.1124992         1.87930302E-14
   49.2312508         1.64122798E-14
   49.3499985         1.39288546E-14
   49.4687500         1.13464832E-14
   49.5875015         8.66896209E-15
   49.7062492         5.90019349E-15
   49.8250008         3.04420486E-15
   49.9437485         1.05157863E-16
   50.0625000        -2.91266191E-15
   50.1812515        -6.00487067E-15
   50.2999992        -9.16702847E-15
   50.4187508        -1.23946941E-14
   50.5374985        -1.56834926E-14
   50.6562500        -1.90291898E-14
   50.7750015        -2.24277672E-14
   50.8937492        -2.58754962E-14
   51.0125008        -2.93689803E-14
   51.1312485        -3.29052412E-14
   51.2500000        -3.64817124E-14
   51.3687515        -4.00962561E-14
   51.4874992        -4.37471477E-14
   51.6062508        -4.74330387E-14
   51.7249985        -5.11528618E-14
   51.8437500        -5.49057802E-14
   51.9625015        -5.86910146E-14
   52.0812492        -6.25077450E-14
   52.2000008        -6.63549687E-14
   52.3187485        -7.02313167E-14
   52.4375000        -7.41348917E-14
   52.5562515        -7.80631595E-14
   52.6749992        -8.20127454E-14
   52.7937508        -8.59792923E-14
   52.9124985        -8.99573791E-14
   53.0312500        -9.39403584E-14
   53.1500015        -9.79203020E-14
   53.2687492        -1.01887919E-13
   53.3875008        -1.05832518E-13
   53.5062485        -1.09741948E-13
   53.6250000        -1.13602677E-13
   53.7437515        -1.17399729E-13
   53.8624992        -1.21116821E-13
   53.9812508        -1.24736403E-13
   54.0999985        -1.28239704E-13
   54.2187500        -1.31606924E-13
   54.3375015        -1.34817328E-13
   54.4562492        -1.37849394E-13
   54.5750008        -1.40680992E-13
   54.6937485        -1.43289582E-13
   54.8125000        -1.45652330E-13
   54.9312515        -1.47746439E-13
   55.0499992        -1.49549250E-13
   55.1687508        -1.51038592E-13
   55.2874985        -1.52192915E-13
   55.4062500        -1.52991606E-13
   55.5250015        -1.53415190E-13
   55.6437492        -1.53445534E-13
   55.7625008        -1.53066077E-13
   55.8812485        -1.52261979E-13
   56.0000000        -1.51020296E-13
   56.1187515        -1.49330025E-13
   56.2374992        -1.47182234E-13
   56.3562508        -1.44569889E-13
   56.4749985        -1.41487923E-13
   56.5937500        -1.37932973E-13
   56.7125015        -1.33903183E-13
   56.8312492        -1.29397889E-13
   56.9500008        -1.24417268E-13
   57.0687485        -1.18961915E-13
   57.1875000        -1.13032413E-13
   57.3062515        -1.06628919E-13
   57.4249992        -9.97507266E-14
   57.5437508        -9.23958785E-14
   57.6624985        -8.45609390E-14
   57.7812500        -7.62407986E-14
   57.9000015        -6.74286270E-14
   58.0187492        -5.81159944E-14
   58.1375008        -4.82931701E-14
   58.2562485        -3.79495799E-14
   58.3750000        -2.70744104E-14
   58.4937515        -1.56574142E-14
   58.6124992        -3.68980257E-15
   58.7312508         8.83473745E-15
   58.8499985         2.19190070E-14
   58.9687500         3.55612485E-14
   59.0875015         4.97541461E-14
   59.2062492         6.44839474E-14
   59.3250008         7.97297815E-14
   59.4437485         9.54631610E-14
   59.5625000         1.11647785E-13
   59.6812515         1.28239568E-13
   59.7999992         1.45187099E-13
   59.9187508         1.62432215E-13
   60.0374985         1.79911072E-13
   60.1562500         1.97555378E-13
   60.2750015         2.15293793E-13
   60.3937492         2.33053540E-13
   60.5125008         2.50762085E-13
   60.6312485         2.68348901E-13
   60.7500000         2.85746958E-13
   60.8687515         3.02894184E-13
   60.9874992         3.19734690E-13
   61.1062508         3.36219686E-13
   61.2249985         3.52307945E-13
   61.3437500         3.67965912E-13
   61.4625015         3.83167456E-13
   61.5812492         3.97893063E-13
   61.7000008         4.12128692E-13
   61.8187485         4.25864259E-13
   61.9375000         4.39091715E-13
   62.0562515         4.51802929E-13
   62.1749992         4.63987518E-13
   62.2937508         4.75630332E-13
   62.4124985         4.86709468E-13
   62.5312500         4.97193866E-13
   62.6500015         5.07041566E-13
   62.7687492         5.16198412E-13
   62.8875008         5.24596751E-13
   63.0062485         5.32155266E-13
   63.1250000         5.38778982E-13
   63.2437515         5.44360184E-13
   63.3624992         5.48779717E-13
   63.4812508         5.51909104E-13
   63.5999985         5.53613308E-13
   63.7187500         5.53753929E-13
   63.8375015         5.52192569E-13
   63.9562492         5.48794896E-13
   64.0749969         5.43434546E-13
   64.1937485         5.35997136E-13
   64.3125000         5.26384058E-13
   64.4312515         5.14515893E-13
   64.5500031         5.00335504E-13
   64.6687469         4.83810203E-13
   64.7874985         4.64933376E-13
   64.9062500         4.43725270E-13
   65.0250015         4.20232751E-13
   65.1437531         3.94528567E-13
   65.2624969         3.66709132E-13
   65.3812485         3.36892000E-13
   65.5000000         3.05212507E-13
   65.6187515         2.71819676E-13
   65.7375031         2.36871964E-13
   65.8562469         2.00532719E-13
   65.9749985         1.62965683E-13
   66.0937500         1.24330545E-13
   66.2125015         8.47790262E-14
   66.3312531         4.44516182E-14
   66.4499969         3.47484107E-15
   66.5687485        -3.80403987E-14
   66.6875000        -7.99997750E-14
   66.8062515        -1.22325354E-13
   66.9250031        -1.64954503E-13
   67.0437469        -2.07837924E-13
   67.1624985        -2.50936804E-13
   67.2812500        -2.94219320E-13
   67.4000015        -3.37656688E-13
   67.5187531        -3.81218711E-13
   67.6374969        -4.24869477E-13
   67.7562485        -4.68563014E-13
   67.8750000        -5.12239177E-13
   67.9937515        -5.55820364E-13
   68.1125031        -5.99209050E-13
   68.2312469        -6.42285487E-13
   68.3499985        -6.84907155E-13
   68.4687500        -7.26909201E-13
   68.5875015        -7.68105306E-13
   68.7062531        -8.08290555E-13
   68.8249969        -8.47244584E-13
   68.9437485        -8.84735753E-13
   69.0625000        -9.20526242E-13
   69.1812515        -9.54377419E-13
   69.3000031        -9.86055421E-13
   69.4187469        -1.01533701E-12
   69.5374985        -1.04201478E-12
   69.6562500        -1.06590268E-12
   69.7750015        -1.08684004E-12
   69.8937531        -1.10469511E-12
   70.0124969        -1.11936762E-12
   70.1312485        -1.13079045E-12
   70.2500000        -1.13892923E-12
   70.3687515        -1.14378244E-12
   70.4875031        -1.14537828E-12
   70.6062469        -1.14377279E-12
   70.7249985        -1.13904567E-12
   70.8437500        -1.13129623E-12
   70.9625015        -1.12063885E-12
   71.0812531        -1.10719799E-12
   71.1999969        -1.09110420E-12
   71.3187485        -1.07248910E-12
   71.4375000        -1.05148258E-12
   71.5562515        -1.02820877E-12
   71.6750031        -1.00278477E-12
   71.7937469        -9.75318350E-13
   71.9124985        -9.45907849E-13
   72.0312500        -9.14642277E-13
   72.1500015        -8.81602191E-13
   72.2687531        -8.46860830E-13
   72.3874969        -8.10486281E-13
   72.5062485        -7.72543759E-13
   72.6250000        -7.33097502E-13
   72.7437515        -6.92213051E-13
   72.8625031        -6.49959362E-13
   72.9812469        -6.06410321E-13
   73.0999985        -5.61646053E-13
   73.2187500        -5.15753943E-13
   73.3375015        -4.68828969E-13
   73.4562531        -4.20974318E-13
   73.5749969        -3.72300850E-13
   73.6937485        -3.22927151E-13
   73.8125000        -2.72978770E-13
   73.9312515        -2.22588021E-13
   74.0500031        -1.71893302E-13
   74.1687469        -1.21038677E-13
   74.2874985        -7.01733593E-14
   74.4062500        -1.94513324E-14
   74.5250015         3.09691034E-14
   74.6437531         8.09257785E-14
   74.7624969         1.30253528E-13
   74.8812485         1.78784992E-13
   75.0000000         2.26352045E-13
   75.1187515         2.72787652E-13
   75.2375031         3.17928138E-13
   75.3562469         3.61616255E-13
