  -7.19999981         1.03394731E-17
  -7.01949978         1.03394739E-17
  -6.83900023         1.03394748E-17
  -6.65850019         1.03394764E-17
  -6.47800016         1.03394781E-17
  -6.29750013         1.03394789E-17
  -6.11700010         1.03394797E-17
  -5.93650007         1.03394806E-17
  -5.75600004         1.03394830E-17
  -5.57550001         1.03394863E-17
  -5.39499998         1.03394905E-17
  -5.21449995         1.03394938E-17
  -5.03399992         1.03394987E-17
  -4.85349989         1.03395029E-17
  -4.67299986         1.03395062E-17
  -4.49249983         1.03395095E-17
  -4.31199980         1.03395136E-17
  -4.13149977         1.03395178E-17
  -3.95099998         1.03395227E-17
  -3.77049994         1.03395285E-17
  -3.58999991         1.03395351E-17
  -3.40949988         1.03395426E-17
  -3.22900009         1.03395500E-17
  -3.04850006         1.03395575E-17
  -2.86800003         1.03395624E-17
  -2.68750000         1.03395682E-17
  -2.50699997         1.03395732E-17
  -2.32649994         1.03395798E-17
  -2.14599991         1.03395873E-17
  -1.96550000         1.03395972E-17
  -1.78499997         1.03396088E-17
  -1.60450006         1.03396195E-17
  -1.42400002         1.03396286E-17
  -1.24349999         1.03396361E-17
  -1.06299996         1.03396427E-17
 -0.882499993         1.03396476E-17
 -0.702000022         1.03396551E-17
 -0.521499991         1.03396642E-17
 -0.340999991         1.03396749E-17
 -0.160500005         1.03396873E-17
   1.99999996E-02     1.03396998E-17
  0.200499997         1.03397097E-17
  0.381000012         1.03397171E-17
  0.561500013         1.03397221E-17
  0.741999984         1.03397271E-17
  0.922500014         1.03397337E-17
   1.10300004         1.03397436E-17
   1.28349996         1.03397568E-17
   1.46399999         1.03397709E-17
   1.64450002         1.03397841E-17
   1.82500005         1.03397941E-17
   2.00550008         1.03398015E-17
   2.18600011         1.03398056E-17
   2.36649990         1.03398106E-17
   2.54699993         1.03398164E-17
   2.72749996         1.03398271E-17
   2.90799999         1.03398404E-17
   3.08850002         1.03398553E-17
   3.26900005         1.03398677E-17
   3.44950008         1.03398776E-17
   3.63000011         1.03398834E-17
   3.81049991         1.03398867E-17
   3.99099994         1.03398917E-17
   4.17150021         1.03399008E-17
   4.35200024         1.03399140E-17
   4.53249979         1.03399314E-17
   4.71299982         1.03399471E-17
   4.89349985         1.03399611E-17
   5.07399988         1.03399711E-17
   5.25449991         1.03399769E-17
   5.43499994         1.03399802E-17
   5.61549997         1.03399851E-17
   5.79600000         1.03399942E-17
   5.97650003         1.03400075E-17
   6.15700006         1.03400240E-17
   6.33750010         1.03400397E-17
   6.51800013         1.03400538E-17
   6.69850016         1.03400629E-17
   6.87900019         1.03400678E-17
   7.05950022         1.03400720E-17
   7.23999977         1.03400778E-17
   7.42049980         1.03400885E-17
   7.60099983         1.03401051E-17
   7.78149986         1.03401241E-17
   7.96199989         1.03401423E-17
   8.14249992         1.03401572E-17
   8.32299995         1.03401671E-17
   8.50349998         1.03401712E-17
   8.68400002         1.03401746E-17
   8.86450005         1.03401795E-17
   9.04500008         1.03401903E-17
   9.22550011         1.03402068E-17
   9.40600014         1.03402250E-17
   9.58650017         1.03402432E-17
   9.76700020         1.03402573E-17
   9.94750023         1.03402672E-17
   10.1280003         1.03402730E-17
   10.3085003         1.03402780E-17
   10.4890003         1.03402862E-17
   10.6695004         1.03403003E-17
   10.8500004         1.03403185E-17
   11.0305004         1.03403392E-17
   11.2110004         1.03403574E-17
   11.3915005         1.03403714E-17
   11.5719995         1.03403797E-17
   11.7524996         1.03403847E-17
   11.9329996         1.03403888E-17
   12.1134996         1.03403995E-17
   12.2939997         1.03404186E-17
   12.4744997         1.03404450E-17
   12.6549997         1.03404756E-17
   12.8354998         1.03405029E-17
   13.0159998         1.03405261E-17
   13.1964998         1.03405468E-17
   13.3769999         1.03405699E-17
   13.5574999         1.03406039E-17
   13.7379999         1.03406510E-17
   13.9184999         1.03407089E-17
   14.0990000         1.03407726E-17
   14.2795000         1.03408338E-17
   14.4600000         1.03408942E-17
   14.6405001         1.03409612E-17
   14.8210001         1.03410390E-17
   15.0015001         1.03411275E-17
   15.1820002         1.03412127E-17
   15.3625002         1.03412846E-17
   15.5430002         1.03413359E-17
   15.7235003         1.03413740E-17
   15.9040003         1.03413971E-17
   16.0844994         1.03413889E-17
   16.2649994         1.03413053E-17
   16.4454994         1.03410894E-17
   16.6259995         1.03407023E-17
   16.8064995         1.03401373E-17
   16.9869995         1.03394053E-17
   17.1674995         1.03384904E-17
   17.3479996         1.03373158E-17
   17.5284996         1.03357400E-17
   17.7089996         1.03336067E-17
   17.8894997         1.03308100E-17
   18.0699997         1.03273268E-17
   18.2504997         1.03231768E-17
   18.4309998         1.03183353E-17
   18.6114998         1.03126683E-17
   18.7919998         1.03059483E-17
   18.9724998         1.02979553E-17
   19.1529999         1.02885998E-17
   19.3334999         1.02779640E-17
   19.5139999         1.02662428E-17
   19.6945000         1.02536134E-17
   19.8750000         1.02401469E-17
   20.0555000         1.02258458E-17
   20.2360001         1.02108002E-17
   20.4165001         1.01953336E-17
   20.5970001         1.01800456E-17
   20.7775002         1.01656916E-17
   20.9580002         1.01530059E-17
   21.1385002         1.01426165E-17
   21.3190002         1.01351214E-17
   21.4995003         1.01312842E-17
   21.6800003         1.01321626E-17
   21.8605003         1.01390208E-17
   22.0410004         1.01530613E-17
   22.2215004         1.01751471E-17
   22.4020004         1.02057743E-17
   22.5825005         1.02453342E-17
   22.7630005         1.02944770E-17
   22.9435005         1.03542391E-17
   23.1240005         1.04257001E-17
   23.3045006         1.05093363E-17
   23.4850006         1.06044687E-17
   23.6655006         1.07092700E-17
   23.8460007         1.08213563E-17
   24.0265007         1.09385653E-17
   24.2070007         1.10592981E-17
   24.3875008         1.11821096E-17
   24.5680008         1.13048285E-17
   24.7485008         1.14238672E-17
   24.9290009         1.15342842E-17
   25.1095009         1.16305250E-17
   25.2900009         1.17072303E-17
   25.4705009         1.17594271E-17
   25.6509991         1.17821042E-17
   25.8314991         1.17698355E-17
   26.0119991         1.17172698E-17
   26.1924992         1.16205641E-17
   26.3729992         1.14787878E-17
   26.5534992         1.12939667E-17
   26.7339993         1.10692706E-17
   26.9144993         1.08064579E-17
   27.0949993         1.05047545E-17
   27.2754993         1.01627245E-17
   27.4559994         9.78262091E-18
   27.6364994         9.37451150E-18
   27.8169994         8.95709962E-18
   27.9974995         8.55406827E-18
   28.1779995         8.18790685E-18
   28.3584995         7.87502165E-18
   28.5389996         7.62511715E-18
   28.7194996         7.44474545E-18
   28.8999996         7.34194345E-18
   29.0804996         7.32838182E-18
   29.2609997         7.41770988E-18
   29.4414997         7.62195732E-18
   29.6219997         7.94900468E-18
   29.8024998         8.40237741E-18
   29.9829998         8.98154363E-18
   30.1634998         9.67962121E-18
   30.3439999         1.04777562E-17
   30.5244999         1.13397810E-17
   30.7049999         1.22131166E-17
   30.8855000         1.30391789E-17
   31.0660000         1.37696124E-17
   31.2465000         1.43786159E-17
   31.4270000         1.48618548E-17
   31.6075001         1.52204359E-17
   31.7880001         1.54392583E-17
   31.9685001         1.54747791E-17
   32.1489983         1.52626883E-17
   32.3294983         1.47432503E-17
   32.5099983         1.38899143E-17
   32.6904984         1.27241107E-17
   32.8709984         1.13083283E-17
   33.0514984         9.72408051E-18
   33.2319984         8.05032769E-18
   33.4124985         6.35497346E-18
   33.5929985         4.69985288E-18
   33.7734985         3.14859765E-18
   33.9539986         1.76612408E-18
   34.1344986         6.08652161E-19
   34.3149986        -2.85115431E-19
   34.4954987        -8.89096632E-19
   34.6759987        -1.17005215E-18
   34.8564987        -1.06788273E-18
   35.0369987        -4.97506332E-19
   35.2174988         6.17671738E-19
   35.3979988         2.29417902E-18
   35.5784988         4.45035329E-18
   35.7589989         6.91036279E-18
   35.9394989         9.45419216E-18
   36.1199989         1.18871950E-17
   36.3004990         1.40892119E-17
   36.4809990         1.60171283E-17
   36.6614990         1.76662965E-17
   36.8419991         1.90220753E-17
   37.0224991         2.00340365E-17
   37.2029991         2.06231297E-17
   37.3834991         2.07060281E-17
   37.5639992         2.02132535E-17
   37.7444992         1.90934693E-17
   37.9249992         1.73191470E-17
   38.1054993         1.49139738E-17
   38.2859993         1.20009233E-17
   38.4664993         8.83795087E-18
   38.6469994         5.79702690E-18
   38.8274994         3.26970765E-18
   39.0079994         1.53542599E-18
   39.1884995         6.67670309E-19
   39.3689995         5.42757816E-19
   39.5494995         9.55324228E-19
   39.7299995         1.77334226E-18
   39.9104996         3.03570963E-18
   40.0909996         4.93190765E-18
   40.2714996         7.68121985E-18
   40.4519997         1.13915707E-17
   40.6324997         1.59804528E-17
   40.8129997         2.11850467E-17
   40.9934998         2.66240471E-17
   41.1739998         3.18532729E-17
   41.3544998         3.63938691E-17
   41.5349998         3.97662414E-17
   41.7154999         4.15766718E-17
   41.8959999         4.16537782E-17
   42.0764999         4.01567435E-17
   42.2570000         3.75493114E-17
   42.4375000         3.43973496E-17
   42.6180000         3.10731456E-17
   42.7985001         2.75445933E-17
   42.9790001         2.34064353E-17
   43.1595001         1.81683654E-17
   43.3400002         1.16416911E-17
   43.5205002         4.18761302E-18
   43.7010002        -3.32885127E-18
   43.8815002        -9.84638247E-18
   44.0620003        -1.44808107E-17
   44.2425003        -1.67498036E-17
   44.4230003        -1.65657741E-17
   44.6035004        -1.40876154E-17
   44.7840004        -9.59829033E-18
   44.9645004        -3.49878994E-18
   45.1450005         3.64519181E-18
   45.3255005         1.11534709E-17
   45.5060005         1.84549107E-17
   45.6865005         2.53769566E-17
   45.8670006         3.22592961E-17
   46.0475006         3.97059565E-17
   46.2280006         4.80327503E-17
   46.4085007         5.67290523E-17
   46.5890007         6.43219946E-17
   46.7695007         6.88201696E-17
   46.9500008         6.85438450E-17
   47.1305008         6.28758711E-17
   47.3110008         5.24937618E-17
   47.4915009         3.89629068E-17
   47.6720009         2.39618193E-17
   47.8525009         8.60391335E-18
   48.0330009        -6.80474382E-18
   48.2135010        -2.25578456E-17
   48.3940010        -3.91485393E-17
   48.5745010        -5.69611327E-17
   48.7550011        -7.61460186E-17
   48.9355011        -9.65573951E-17
   49.1160011        -1.17604807E-16
   49.2965012        -1.38047233E-16
   49.4770012        -1.55962125E-16
   49.6575012        -1.69126711E-16
   49.8380013        -1.75789843E-16
   50.0185013        -1.75466753E-16
   50.1990013        -1.69244912E-16
   50.3795013        -1.59310764E-16
   50.5600014        -1.47881629E-16
   50.7405014        -1.36123846E-16
   50.9210014        -1.23665553E-16
   51.1015015        -1.08939309E-16
   51.2820015        -9.00836877E-17
   51.4625015        -6.58502273E-17
   51.6430016        -3.60756130E-17
   51.8235016        -1.64985237E-18
   52.0040016         3.57796147E-17
   52.1845016         7.41083618E-17
   52.3650017         1.11041678E-16
   52.5455017         1.44482619E-16
   52.7260017         1.73128823E-16
   52.9065018         1.97068343E-16
   53.0870018         2.17923723E-16
   53.2675018         2.38203532E-16
   53.4480019         2.59998087E-16
   53.6285019         2.83676549E-16
   53.8089981         3.07378119E-16
   53.9894981         3.27661911E-16
   54.1699982         3.40954981E-16
   54.3504982         3.44931166E-16
   54.5309982         3.39056542E-16
   54.7114983         3.24166126E-16
   54.8919983         3.01601619E-16
   55.0724983         2.72624092E-16
   55.2529984         2.38397688E-16
   55.4334984         2.00216513E-16
   55.6139984         1.59388440E-16
   55.7944984         1.16561713E-16
   55.9749985         7.09771854E-17
   56.1554985         2.05032233E-17
   56.3359985        -3.70812826E-17
   56.5164986        -1.02058285E-16
   56.6969986        -1.71305743E-16
   56.8774986        -2.38623528E-16
   57.0579987        -2.97010197E-16
   57.2384987        -3.41690365E-16
   57.4189987        -3.72046940E-16
   57.5994987        -3.91228451E-16
   57.7799988        -4.03707973E-16
   57.9604988        -4.12401046E-16
   58.1409988        -4.17146415E-16
   58.3214989        -4.15290540E-16
   58.5019989        -4.03614746E-16
   58.6824989        -3.80040311E-16
   58.8629990        -3.44001547E-16
   59.0434990        -2.95647745E-16
   59.2239990        -2.35043358E-16
   59.4044991        -1.62435866E-16
   59.5849991        -7.95521697E-17
   59.7654991         9.27753367E-18
   59.9459991         9.75385570E-17
   60.1264992         1.78794070E-16
   60.3069992         2.49571005E-16
   60.4874992         3.10907678E-16
   60.6679993         3.67313270E-16
   60.8484993         4.23617588E-16
   61.0289993         4.81667562E-16
   61.2094994         5.38950124E-16
   61.3899994         5.89894497E-16
   61.5704994         6.28822966E-16
   61.7509995         6.52582082E-16
   61.9314995         6.61399642E-16
   62.1119995         6.57960000E-16
   62.2924995         6.45874904E-16
   62.4729996         6.28780562E-16
   62.6534996         6.10318896E-16
   62.8339996         5.94220029E-16
   63.0144997         5.83542650E-16
   63.1949997         5.78999006E-16
   63.3754997         5.77409231E-16
   63.5559998         5.71676036E-16
   63.7364998         5.52846705E-16
   63.9169998         5.13420286E-16
   64.0975037         4.50148354E-16
   64.2779999         3.64863465E-16
   64.4585037         2.63109953E-16
   64.6389999         1.51577168E-16
   64.8195038         3.57032196E-17
   65.0000000        -8.17597626E-17
   65.1804962        -2.01247868E-16
   65.3610001        -3.26287414E-16
   65.5414963        -4.62776504E-16
   65.7220001        -6.17229626E-16
   65.9024963        -7.93845472E-16
   66.0830002        -9.91270906E-16
   66.2634964        -1.20086804E-15
   66.4440002        -1.40811943E-15
   66.6244965        -1.59723806E-15
   66.8050003        -1.75696455E-15
   66.9854965        -1.88446895E-15
   67.1660004        -1.98517841E-15
   67.3464966        -2.06874880E-15
   67.5270004        -2.14367649E-15
   67.7074966        -2.21355586E-15
   67.8880005        -2.27647813E-15
   68.0684967        -2.32676753E-15
   68.2490005        -2.35699242E-15
   68.4294968        -2.35888533E-15
   68.6100006        -2.32365553E-15
   68.7904968        -2.24335998E-15
   68.9710007        -2.11427873E-15
   69.1514969        -1.94099103E-15
   69.3320007        -1.73804385E-15
   69.5124969        -1.52657349E-15
   69.6930008        -1.32619017E-15
   69.8734970        -1.14596093E-15
   70.0540009        -9.79770316E-16
   70.2344971        -8.09311870E-16
   70.4150009        -6.13540692E-16
   70.5954971        -3.79486960E-16
   70.7760010        -1.08551633E-16
   70.9564972         1.84742306E-16
   71.1370010         4.80085728E-16
   71.3174973         7.60248228E-16
   71.4980011         1.01698683E-15
   71.6784973         1.25222047E-15
   71.8590012         1.47568958E-15
   72.0394974         1.70150888E-15
   72.2200012         1.94500915E-15
   72.4004974         2.21953041E-15
   72.5810013         2.53229139E-15
   72.7614975         2.87975257E-15
   72.9420013         3.24484410E-15
   73.1224976         3.59902732E-15
   73.3030014         3.91029584E-15
   73.4834976         4.15475505E-15
   73.6640015         4.32656891E-15
   73.8444977         4.44098315E-15
   74.0250015         4.52814962E-15
   74.2054977         4.61999467E-15
   74.3860016         4.73586582E-15
   74.5664978         4.87333249E-15
   74.7470016         5.00812423E-15
   74.9274979         5.10321808E-15
   75.1080017         5.12332622E-15
   75.2884979         5.04904354E-15
   75.4690018         4.88517443E-15
   75.6494980         4.66001190E-15
   75.8300018         4.41575513E-15
   76.0104980         4.19366563E-15
   76.1910019         4.01962789E-15
   76.3714981         3.89558669E-15
   76.5520020         3.79983342E-15
   76.7324982         3.69544889E-15
   76.9130020         3.54318710E-15
   77.0934982         3.31412080E-15
   77.2740021         2.99848710E-15
   77.4544983         2.60918017E-15
   77.6350021         2.17968322E-15
   77.8154984         1.75658804E-15
   77.9960022         1.38711990E-15
   78.1764984         1.10360050E-15
   78.3570023         9.09496227E-16
   78.5374985         7.73743580E-16
   78.7180023         6.38741616E-16
   78.8984985         4.41802671E-16
   79.0790024         1.42244069E-16
   79.2594986        -2.58611255E-16
   79.4400024        -7.15460937E-16
   79.6204987        -1.15743664E-15
   79.8010025        -1.51850847E-15
   79.9814987        -1.76508791E-15
   80.1620026        -1.90801773E-15
   80.3424988        -1.99513423E-15
   80.5230026        -2.09063401E-15
   80.7034988        -2.25245415E-15
   80.8840027        -2.51659397E-15
   81.0644989        -2.89097237E-15
   81.2450027        -3.35639664E-15
   81.4254990        -3.87185240E-15
   81.6060028        -4.38411929E-15
   81.7864990        -4.84324842E-15
   81.9670029        -5.22256248E-15
   82.1474991        -5.53602481E-15
   82.3280029        -5.84238519E-15
   82.5084991        -6.22918024E-15
   82.6890030        -6.77997570E-15
   82.8694992        -7.53910230E-15
