  -7.19999981       0.00000000    
  -7.01999998       0.00000000    
  -6.84000015       0.00000000    
  -6.65999985       0.00000000    
  -6.48000002       0.00000000    
  -6.30000019       0.00000000    
  -6.11999989       0.00000000    
  -5.94000006       0.00000000    
  -5.76000023       0.00000000    
  -5.57999992       0.00000000    
  -5.40000010       0.00000000    
  -5.21999979       0.00000000    
  -5.03999996       0.00000000    
  -4.86000013       0.00000000    
  -4.67999983       0.00000000    
  -4.50000000       0.00000000    
  -4.32000017       2.80259693E-45
  -4.13999987      -2.94272678E-44
  -3.96000004      -2.24067624E-42
  -3.77999997      -7.60134352E-41
  -3.59999990      -1.78427333E-40
  -3.42000008      -5.55867075E-40
  -3.24000001      -1.01622445E-39
  -3.05999994      -7.10614846E-39
  -2.88000011       2.25076980E-38
  -2.70000005       3.67853627E-37
  -2.51999998       7.68347867E-37
  -2.33999991      -5.32742511E-37
  -2.16000009      -5.42316658E-36
  -1.98000002      -8.82886730E-36
  -1.79999995       4.39692105E-36
  -1.62000000       4.13287743E-35
  -1.44000006       5.93064565E-35
  -1.25999999      -3.09659162E-35
  -1.08000004      -2.29540205E-34
 -0.899999976      -2.62278550E-34
 -0.720000029       2.71818765E-34
 -0.540000021       1.15629651E-33
 -0.360000014       9.21815048E-34
 -0.180000007      -2.00348998E-33
   4.44089210E-16  -5.91354253E-33
  0.180000007      -3.89215216E-33
  0.360000014       1.03716835E-32
  0.540000021       2.89765470E-32
  0.720000029       2.32460223E-32
  0.899999976      -3.41989892E-32
   1.08000004      -1.20369328E-31
   1.25999999      -1.34818611E-31
   1.44000006       3.72423647E-32
   1.62000000       3.70878201E-31
   1.79999995       5.89260366E-31
   1.98000002       2.89577344E-31
   2.16000009      -6.52125898E-31
   2.33999991      -1.69252510E-30
   2.51999998      -1.75232222E-30
   2.70000005      -8.62601676E-32
   2.88000011       2.65342816E-30
   3.05999994       4.32010913E-30
   3.24000001       2.88907340E-30
   3.42000008      -1.11331286E-30
   3.59999990      -3.94177637E-30
   3.77999997      -1.85507622E-30
   3.96000004       3.25442288E-30
   4.13999987       1.80731485E-30
   4.32000017      -1.58612052E-29
   4.50000000      -4.41555220E-29
   4.67999983      -5.30292412E-29
   4.86000013      -2.34986455E-30
   5.03999996       1.18627173E-28
   5.21999979       2.54321240E-28
   5.40000010       2.91779663E-28
   5.57999992       1.33421541E-28
   5.76000023      -2.09650787E-28
   5.94000006      -5.91666527E-28
   6.11999989      -8.27431023E-28
   6.30000019      -8.47922340E-28
   6.48000002      -7.54329270E-28
   6.65999985      -6.51814138E-28
   6.84000015      -3.60289228E-28
   7.01999998       6.75695284E-28
   7.19999981       2.98877807E-27
   7.38000011       6.31307356E-27
   7.55999994       9.04932389E-27
   7.73999977       8.68624604E-27
   7.92000008       3.26455025E-27
   8.10000038      -7.04145025E-27
   8.27999973      -1.96175609E-26
   8.46000004      -3.09522549E-26
   8.64000034      -3.88416467E-26
   8.81999969      -4.29090875E-26
   9.00000000      -4.20891374E-26
   9.18000031      -3.07583646E-26
   9.35999966       2.14794749E-27
   9.53999996       6.74968126E-26
   9.72000027       1.65256104E-25
   9.89999962       2.76007763E-25
   10.0799999       3.62973293E-25
   10.2600002       3.86202214E-25
   10.4399996       3.20178673E-25
   10.6199999       1.61212169E-25
   10.8000002      -8.14565691E-26
   10.9799995      -4.00398654E-25
   11.1599998      -7.89114524E-25
   11.3400002      -1.21284583E-24
   11.5200005      -1.56628678E-24
   11.6999998      -1.65907980E-24
   11.8800001      -1.26560110E-24
   12.0600004      -2.32771086E-25
   12.2399998       1.41415811E-24
   12.4200001       3.44411425E-24
   12.6000004       5.49762805E-24
   12.7799997       7.20804139E-24
   12.9600000       8.25479197E-24
   13.1400003       8.28621625E-24
   13.3199997       6.77993999E-24
   13.5000000       3.01351374E-24
   13.6800003      -3.72126752E-24
   13.8599997      -1.37208944E-23
   14.0400000      -2.65569393E-23
   14.2200003      -4.11337288E-23
   14.3999996      -5.61566476E-23
   14.5799999      -7.06999736E-23
   14.7600002      -8.44190599E-23
   14.9399996      -9.72086094E-23
   15.1199999      -1.08621073E-22
   15.3000002      -1.17685021E-22
   15.4799995      -1.23525419E-22
   15.6599998      -1.26457066E-22
   15.8400002      -1.28577184E-22
   16.0200005      -1.32974496E-22
   16.2000008      -1.41619882E-22
   16.3799992      -1.53140305E-22
   16.5599995      -1.61994215E-22
   16.7399998      -1.59584491E-22
   16.9200001      -1.36193225E-22
   17.1000004      -8.16798572E-23
   17.2800007       1.63255269E-23
   17.4599991       1.75860231E-22
   17.6399994       4.23036215E-22
   17.8199997       7.91037152E-22
   18.0000000       1.31584937E-21
   18.1800003       2.03177914E-21
   18.3600006       2.97053988E-21
   18.5400009       4.16520335E-21
   18.7199993       5.65623962E-21
   18.8999996       7.49461824E-21
   19.0799999       9.73872693E-21
   19.2600002       1.24467967E-20
   19.4400005       1.56705393E-20
   19.6200008       1.94550489E-20
   19.7999992       2.38444925E-20
   19.9799995       2.88870017E-20
   20.1599998       3.46311248E-20
   20.3400002       4.11120752E-20
   20.5200005       4.83352587E-20
   20.7000008       5.62686251E-20
   20.8799992       6.48504560E-20
   21.0599995       7.40066668E-20
   21.2399998       8.36620230E-20
   21.4200001       9.37313637E-20
   21.6000004       1.04091051E-19
   21.7800007       1.14547803E-19
   21.9599991       1.24827125E-19
   22.1399994       1.34591915E-19
   22.3199997       1.43479673E-19
   22.5000000       1.51131792E-19
   22.6800003       1.57193979E-19
   22.8600006       1.61289893E-19
   23.0400009       1.62992360E-19
   23.2199993       1.61819598E-19
   23.3999996       1.57262622E-19
   23.5799999       1.48822277E-19
   23.7600002       1.36025884E-19
   23.9400005       1.18414343E-19
   24.1200008       9.55255895E-20
   24.2999992       6.69176772E-20
   24.4799995       3.22504635E-20
   24.6599998      -8.60652589E-21
   24.8400002      -5.55116127E-20
   25.0200005      -1.08091012E-19
   25.2000008      -1.65869953E-19
   25.3799992      -2.28406694E-19
   25.5599995      -2.95319867E-19
   25.7399998      -3.66161166E-19
   25.9200001      -4.40195640E-19
   26.1000004      -5.16227807E-19
   26.2800007      -5.92594052E-19
   26.4599991      -6.67331992E-19
   26.6399994      -7.38422789E-19
   26.8199997      -8.03962221E-19
   27.0000000      -8.62193720E-19
   27.1800003      -9.11451188E-19
   27.3600006      -9.50126742E-19
   27.5400009      -9.76722149E-19
   27.7199993      -9.89929639E-19
   27.8999996      -9.88618454E-19
   28.0799999      -9.71673556E-19
   28.2600002      -9.37802061E-19
   28.4400005      -8.85543892E-19
   28.6200008      -8.13654659E-19
   28.7999992      -7.21777226E-19
   28.9799995      -6.11033872E-19
   29.1599998      -4.84114536E-19
   29.3400002      -3.44683292E-19
   29.5200005      -1.96355307E-19
   29.7000008      -4.18163355E-20
   29.8799992       1.17399715E-19
   30.0599995       2.80359143E-19
   30.2399998       4.45771871E-19
   30.4200001       6.11215542E-19
   30.6000004       7.72933746E-19
   30.7800007       9.26178415E-19
   30.9599991       1.06576225E-18
   31.1399994       1.18653682E-18
   31.3199997       1.28381368E-18
   31.5000000       1.35396707E-18
   31.6800003       1.39530449E-18
   31.8600006       1.40883810E-18
   32.0400009       1.39825866E-18
   32.2200012       1.36861809E-18
   32.4000015       1.32401889E-18
   32.5800018       1.26547188E-18
   32.7599983       1.19034568E-18
   32.9399986       1.09408222E-18
   33.1199989       9.73511861E-19
   33.2999992       8.29993337E-19
   33.4799995       6.70587206E-19
   33.6599998       5.06574558E-19
   33.8400002       3.50170937E-19
   34.0200005       2.11174273E-19
   34.2000008       9.50188121E-20
   34.3800011       2.59500129E-21
   34.5600014      -6.87972190E-20
   34.7400017      -1.24144391E-19
   34.9199982      -1.69241334E-19
   35.0999985      -2.08675490E-19
   35.2799988      -2.43212633E-19
   35.4599991      -2.67605724E-19
   35.6399994      -2.70706436E-19
   35.8199997      -2.39247206E-19
   36.0000000      -1.64591907E-19
   36.1800003      -4.93187893E-20
   36.3600006       9.04201273E-20
   36.5400009       2.29115123E-19
   36.7200012       3.41411327E-19
   36.9000015       4.12341496E-19
   37.0800018       4.43000248E-19
   37.2599983       4.48864751E-19
   37.4399986       4.52008555E-19
   37.6199989       4.71418606E-19
   37.7999992       5.15728087E-19
   37.9799995       5.80394017E-19
   38.1599998       6.48773936E-19
   38.3400002       6.95653880E-19
   38.5200005       6.92671894E-19
   38.7000008       6.16021720E-19
   38.8800011       4.55947434E-19
   39.0600014       2.24856513E-19
   39.2400017      -4.12910338E-20
   39.4199982      -2.92455884E-19
   39.5999985      -4.83662689E-19
   39.7799988      -5.95959281E-19
   39.9599991      -6.48026837E-19
   40.1399994      -6.90595878E-19
   40.3199997      -7.84655567E-19
   40.5000000      -9.73573280E-19
   40.6800003      -1.26271643E-18
   40.8600006      -1.61580065E-18
   41.0400009      -1.96792740E-18
   41.2200012      -2.24737176E-18
   41.4000015      -2.39626965E-18
   41.5800018      -2.38426416E-18
   41.7599983      -2.21446383E-18
   41.9399986      -1.92312544E-18
   42.1199989      -1.57263806E-18
   42.2999992      -1.23536333E-18
   42.4799995      -9.68258231E-19
   42.6599998      -7.85388449E-19
   42.8400002      -6.42351499E-19
   43.0200005      -4.45955144E-19
   43.2000008      -9.14092803E-20
   43.3800011       4.87123406E-19
   43.5600014       1.27776016E-18
   43.7400017       2.18577493E-18
   43.9199982       3.06675620E-18
   44.0999985       3.78170019E-18
   44.2799988       4.24637510E-18
   44.4599991       4.45257675E-18
   44.6399994       4.45633546E-18
   44.8199997       4.34526620E-18
   45.0000000       4.20326989E-18
   45.1800003       4.08435648E-18
   45.3600006       3.99701117E-18
   45.5400009       3.89629159E-18
   45.7200012       3.68551769E-18
   45.9000015       3.23572273E-18
   46.0800018       2.42853921E-18
   46.2599983       1.21367858E-18
   46.4399986      -3.45311045E-19
   46.6199989      -2.06818624E-18
   46.7999992      -3.71225465E-18
   46.9799995      -5.06576781E-18
   47.1599998      -6.03542780E-18
   47.3400002      -6.68085450E-18
   47.5200005      -7.17595560E-18
   47.7000008      -7.71734696E-18
   47.8800011      -8.42764695E-18
   48.0600014      -9.29951021E-18
   48.2400017      -1.01987515E-17
   48.4199982      -1.09125397E-17
   48.5999985      -1.12131892E-17
   48.7799988      -1.09149824E-17
   48.9599991      -9.91796999E-18
   49.1399994      -8.24031122E-18
   49.3199997      -6.03259098E-18
   49.5000000      -3.55525288E-18
   49.6800003      -1.10346276E-18
   49.8600006       1.10945217E-18
   50.0400009       3.06262857E-18
   50.2200012       4.96838963E-18
   50.4000015       7.20276369E-18
   50.5800018       1.01426198E-17
   50.7599983       1.39825932E-17
   50.9399986       1.86222245E-17
   51.1199989       2.36780583E-17
   51.2999992       2.86085907E-17
   51.4799995       3.28853329E-17
   51.6599998       3.61333833E-17
   51.8400002       3.81990319E-17
   52.0200005       3.91486551E-17
   52.2000008       3.92271513E-17
   52.3800011       3.87951413E-17
   52.5600014       3.82428262E-17
   52.7400017       3.78757995E-17
   52.9199982       3.77953149E-17
   53.0999985       3.78296032E-17
   53.2799988       3.75756223E-17
   53.4599991       3.65624849E-17
   53.6399994       3.44715510E-17
   53.8199997       3.12973446E-17
   54.0000000       2.73523565E-17
   54.1800003       2.31054756E-17
   54.3600006       1.89443170E-17
   54.5400009       1.49977854E-17
   54.7200012       1.11145198E-17
   54.9000015       6.99426786E-18
   55.0800018       2.38189677E-18
   55.2599983      -2.78450170E-18
   55.4399986      -8.32674415E-18
   55.6199989      -1.38624767E-17
   55.7999992      -1.88715367E-17
   55.9799995      -2.27662223E-17
   56.1599998      -2.49872651E-17
   56.3400002      -2.51594180E-17
   56.5200005      -2.32901569E-17
   56.7000008      -1.99180509E-17
   56.8800011      -1.60867141E-17
   57.0600014      -1.30840005E-17
   57.2400017      -1.20203058E-17
   57.4199982      -1.34359245E-17
   57.5999985      -1.71366859E-17
   57.7799988      -2.23402822E-17
   57.9599991      -2.80444502E-17
   58.1399994      -3.34162174E-17
   58.3199997      -3.80205164E-17
   58.5000000      -4.18334319E-17
   58.6800003      -4.51216933E-17
   58.8600006      -4.83181739E-17
   59.0400009      -5.19639857E-17
   59.2200012      -5.66869653E-17
   59.4000015      -6.31405821E-17
   59.5800018      -7.18754175E-17
   59.7599983      -8.32096051E-17
   59.9399986      -9.72085517E-17
   60.1199989      -1.13821071E-16
   60.2999992      -1.33085856E-16
   60.4799995      -1.55230050E-16
   60.6599998      -1.80520231E-16
   60.8400002      -2.08892407E-16
   61.0200005      -2.39566937E-16
   61.2000008      -2.70911391E-16
   61.3800011      -3.00694208E-16
   61.5600014      -3.26647562E-16
   61.7400017      -3.47082444E-16
   61.9199982      -3.61285492E-16
   62.0999985      -3.69573180E-16
   62.2799988      -3.73065497E-16
   62.4599991      -3.73335224E-16
   62.6399994      -3.72050672E-16
   62.8199997      -3.70628266E-16
   63.0000000      -3.69865142E-16
   63.1800003      -3.69586892E-16
   63.3600006      -3.68454806E-16
   63.5400009      -3.64112730E-16
   63.7200012      -3.53730726E-16
   63.9000015      -3.34782917E-16
   64.0800018      -3.05725981E-16
   64.2600021      -2.66270498E-16
   64.4400024      -2.17158376E-16
   64.6200027      -1.59638791E-16
   64.8000031      -9.49787441E-17
   64.9800034      -2.42619105E-17
   65.1600037       5.15072430E-17
   65.3399963       1.31182388E-16
   65.5199966       2.13355953E-16
   65.6999969       2.96419365E-16
   65.8799973       3.78709834E-16
   66.0599976       4.58602484E-16
   66.2399979       5.34519559E-16
   66.4199982       6.04978671E-16
   66.5999985       6.68834897E-16
   66.7799988       7.25714218E-16
   66.9599991       7.76409669E-16
   67.1399994       8.22904420E-16
   67.3199997       8.67828665E-16
   67.5000000       9.13492317E-16
   67.6800003       9.60923621E-16
   67.8600006       1.00938428E-15
   68.0400009       1.05656815E-15
   68.2200012       1.09931705E-15
   68.4000015       1.13444308E-15
   68.5800018       1.15930890E-15
   68.7600021       1.17206903E-15
   68.9400024       1.17173625E-15
   69.1200027       1.15826790E-15
   69.3000031       1.13269947E-15
   69.4800034       1.09714674E-15
   69.6600037       1.05447926E-15
   69.8399963       1.00766936E-15
   70.0199966       9.59100065E-16
   70.1999969       9.10210382E-16
   70.3799973       8.61673435E-16
   70.5599976       8.13934711E-16
   70.7399979       7.67675172E-16
   70.9199982       7.23807335E-16
   71.0999985       6.82951336E-16
   71.2799988       6.44726804E-16
   71.4599991       6.07349411E-16
   71.6399994       5.67829712E-16
   71.8199997       5.22691485E-16
   72.0000000       4.68831042E-16
   72.1800003       4.04138186E-16
   72.3600006       3.27736000E-16
   72.5400009       2.39967319E-16
   72.7200012       1.42333087E-16
   72.9000015       3.74462480E-17
   73.0800018      -7.11292873E-17
   73.2600021      -1.79323929E-16
   73.4400024      -2.83281567E-16
   73.6200027      -3.80093012E-16
   73.8000031      -4.68183327E-16
   73.9800034      -5.47169996E-16
   74.1600037      -6.17344029E-16
   74.3399963      -6.79177434E-16
   74.5199966      -7.33230471E-16
   74.6999969      -7.80523126E-16
   74.8799973      -8.23104478E-16
   75.0599976      -8.64390823E-16
   75.2399979      -9.08992349E-16
   75.4199982      -9.62033975E-16
   75.5999985      -1.02820472E-15
   75.7799988      -1.11079752E-15
   75.9599991      -1.21091078E-15
   76.1399994      -1.32688939E-15
   76.3199997      -1.45413132E-15
   76.5000000      -1.58547172E-15
   76.6800003      -1.71231797E-15
   76.8600006      -1.82646667E-15
   77.0400009      -1.92214667E-15
   77.2200012      -1.99759803E-15
   77.4000015      -2.05557765E-15
   77.5800018      -2.10262355E-15
   77.7600021      -2.14741233E-15
   77.9400024      -2.19884904E-15
   78.1200027      -2.26445301E-15
   78.3000031      -2.34929776E-15
   78.4800034      -2.45547842E-15
   78.6600037      -2.58201074E-15
   78.8399963      -2.72516291E-15
   79.0199966      -2.87927060E-15
   79.1999969      -3.03794677E-15
   79.3799973      -3.19530114E-15
   79.5599976      -3.34663734E-15
   79.7399979      -3.48827819E-15
   79.9199982      -3.61666975E-15
   80.0999985      -3.72742524E-15
   80.2799988      -3.81508256E-15
   80.4599991      -3.87395431E-15
   80.6399994      -3.89978373E-15
   80.8199997      -3.89141166E-15
   81.0000000      -3.85166125E-15
   81.1800003      -3.78710633E-15
   81.3600006      -3.70693974E-15
   81.5400009      -3.62144236E-15
   81.7200012      -3.54040290E-15
   81.9000015      -3.47159842E-15
   82.0800018      -3.41931044E-15
   82.2600021      -3.38306272E-15
   82.4400024      -3.35705457E-15
   82.6200027      -3.33076479E-15
   82.8000031      -3.29079246E-15
   82.9800034      -3.22335741E-15
   83.1600037      -3.11649743E-15
   83.3399963      -2.96117446E-15
   83.5199966      -2.75117911E-15
   83.6999969      -2.48240941E-15
   83.8799973      -2.15233041E-15
   84.0599976      -1.76004976E-15
   84.2399979      -1.30684065E-15
   84.4199982      -7.96568207E-16
   84.5999985      -2.35625958E-16
   84.7799988       3.67561133E-16
   84.9599991       1.00310406E-15
   85.1399994       1.66008780E-15
   85.3199997       2.32709724E-15
   85.5000000       2.99333418E-15
   85.6800003       3.65052904E-15
   85.8600006       4.29516770E-15
   86.0400009       4.93000153E-15
   86.2200012       5.56387356E-15
   86.4000015       6.20977980E-15
   86.5800018       6.88197117E-15
   86.7600021       7.59334375E-15
   86.9400024       8.35380230E-15
   87.1200027       9.16933918E-15
   87.3000031       1.00409344E-14
   87.4800034       1.09627095E-14
   87.6600037       1.19198119E-14
   87.8399963       1.28873725E-14
   88.0199966       1.38318380E-14
   88.1999969       1.47148935E-14
   88.3799973       1.54988632E-14
   88.5599976       1.61518917E-14
   88.7399979       1.66517631E-14
   88.9199982       1.69883960E-14
   89.0999985       1.71656987E-14
   89.2799988       1.72030681E-14
   89.4599991       1.71355460E-14
   89.6399994       1.70109271E-14
   89.8199997       1.68827507E-14
   90.0000000       1.68000955E-14
   90.1800003       1.67972139E-14
   90.3600006       1.68866233E-14
   90.5400009       1.70578663E-14
   90.7200012       1.72814796E-14
   90.9000015       1.75157028E-14
   91.0800018       1.77131852E-14
   91.2600021       1.78264115E-14
   91.4400024       1.78123372E-14
   91.6200027       1.76371860E-14
   91.8000031       1.72813136E-14
   91.9800034       1.67424888E-14
   92.1600037       1.60356313E-14
   92.3399963       1.51884375E-14
   92.5199966       1.42348054E-14
   92.6999969       1.32092831E-14
   92.8799973       1.21449397E-14
   93.0599976       1.10743256E-14
   93.2399979       1.00306904E-14
   93.4199982       9.04618906E-15
   93.5999985       8.14595482E-15
   93.7799988       7.34011393E-15
   93.9599991       6.61760499E-15
   94.1399994       5.94483891E-15
   94.3199997       5.26953808E-15
   94.5000000       4.52759354E-15
   94.6800003       3.65041088E-15
   94.8600006       2.57183153E-15
   95.0400009       1.23558242E-15
   95.2200012      -3.95626326E-16
   95.4000015      -2.33027996E-15
   95.5800018      -4.54093474E-15
   95.7600021      -6.96397158E-15
   95.9400024      -9.50810238E-15
   96.1200027      -1.20696181E-14
   96.3000031      -1.45493274E-14
   96.4800034      -1.68661692E-14
   96.6600037      -1.89654099E-14
   96.8399963      -2.08226042E-14
   97.0199966      -2.24457277E-14
   97.1999969      -2.38762850E-14
   97.3799973      -2.51875191E-14
   97.5599976      -2.64768777E-14
   97.7399979      -2.78518307E-14
   97.9199982      -2.94120299E-14
   98.0999985      -3.12333133E-14
   98.2799988      -3.33582784E-14
   98.4599991      -3.57944367E-14
   98.6399994      -3.85170818E-14
   98.8199997      -4.14729896E-14
   99.0000000      -4.45833759E-14
   99.1800003      -4.77481451E-14
   99.3600006      -5.08548858E-14
   99.5400009      -5.37935785E-14
   99.7200012      -5.64738923E-14
   99.9000015      -5.88388591E-14
   100.080002      -6.08700102E-14
   100.260002      -6.25836934E-14
   100.440002      -6.40230599E-14
   100.620003      -6.52510950E-14
