  -7.65000010        -3.85284930E-18
  -7.53125000        -3.85284930E-18
  -7.41249990        -3.85284889E-18
  -7.29374981        -3.85284806E-18
  -7.17500019        -3.85284723E-18
  -7.05625010        -3.85284558E-18
  -6.93750000        -3.85284393E-18
  -6.81874990        -3.85284268E-18
  -6.69999981        -3.85284144E-18
  -6.58125019        -3.85284020E-18
  -6.46250010        -3.85283855E-18
  -6.34375000        -3.85283772E-18
  -6.22499990        -3.85283648E-18
  -6.10624981        -3.85283565E-18
  -5.98750019        -3.85283483E-18
  -5.86875010        -3.85283400E-18
  -5.75000000        -3.85283317E-18
  -5.63124990        -3.85283276E-18
  -5.51249981        -3.85283152E-18
  -5.39375019        -3.85283069E-18
  -5.27500010        -3.85282904E-18
  -5.15625000        -3.85282697E-18
  -5.03749990        -3.85282490E-18
  -4.91874981        -3.85282159E-18
  -4.80000019        -3.85281746E-18
  -4.68125010        -3.85281332E-18
  -4.56250000        -3.85280918E-18
  -4.44374990        -3.85280505E-18
  -4.32499981        -3.85280133E-18
  -4.20625019        -3.85279843E-18
  -4.08750010        -3.85279595E-18
  -3.96875000        -3.85279347E-18
  -3.84999990        -3.85279181E-18
  -3.73125005        -3.85278974E-18
  -3.61249995        -3.85278850E-18
  -3.49375010        -3.85278685E-18
  -3.37500000        -3.85278520E-18
  -3.25624990        -3.85278354E-18
  -3.13750005        -3.85278189E-18
  -3.01874995        -3.85277858E-18
  -2.90000010        -3.85277527E-18
  -2.78125000        -3.85277113E-18
  -2.66249990        -3.85276658E-18
  -2.54375005        -3.85276162E-18
  -2.42499995        -3.85275666E-18
  -2.30625010        -3.85275087E-18
  -2.18750000        -3.85274508E-18
  -2.06874990        -3.85273970E-18
  -1.95000005        -3.85273474E-18
  -1.83124995        -3.85272977E-18
  -1.71249998        -3.85272522E-18
  -1.59375000        -3.85272233E-18
  -1.47500002        -3.85271861E-18
  -1.35625005        -3.85271571E-18
  -1.23749995        -3.85271323E-18
  -1.11874998        -3.85271034E-18
  -1.00000000        -3.85270744E-18
 -0.881250024        -3.85270413E-18
 -0.762499988        -3.85270000E-18
 -0.643750012        -3.85269545E-18
 -0.524999976        -3.85269048E-18
 -0.406250000        -3.85268387E-18
 -0.287499994        -3.85267683E-18
 -0.168750003        -3.85266939E-18
  -5.00000007E-02    -3.85266195E-18
   6.87500015E-02    -3.85265450E-18
  0.187500000        -3.85264706E-18
  0.306250006        -3.85263961E-18
  0.425000012        -3.85263299E-18
  0.543749988        -3.85262679E-18
  0.662500024        -3.85262100E-18
  0.781250000        -3.85261562E-18
  0.899999976        -3.85261066E-18
   1.01874995        -3.85260570E-18
   1.13750005        -3.85260115E-18
   1.25625002        -3.85259660E-18
   1.37500000        -3.85259164E-18
   1.49374998        -3.85258584E-18
   1.61249995        -3.85257923E-18
   1.73125005        -3.85257220E-18
   1.85000002        -3.85256517E-18
   1.96875000        -3.85255689E-18
   2.08750010        -3.85254779E-18
   2.20624995        -3.85253870E-18
   2.32500005        -3.85252918E-18
   2.44374990        -3.85252008E-18
   2.56250000        -3.85251057E-18
   2.68125010        -3.85250189E-18
   2.79999995        -3.85249361E-18
   2.91875005        -3.85248493E-18
   3.03749990        -3.85247748E-18
   3.15625000        -3.85247004E-18
   3.27500010        -3.85246342E-18
   3.39374995        -3.85245722E-18
   3.51250005        -3.85245143E-18
   3.63124990        -3.85244522E-18
   3.75000000        -3.85243861E-18
   3.86875010        -3.85243240E-18
   3.98749995        -3.85242537E-18
   4.10624981        -3.85241710E-18
   4.22499990        -3.85240841E-18
   4.34375000        -3.85239849E-18
   4.46250010        -3.85238815E-18
   4.58125019        -3.85237698E-18
   4.69999981        -3.85236540E-18
   4.81874990        -3.85235341E-18
   4.93750000        -3.85234265E-18
   5.05625010        -3.85233149E-18
   5.17500019        -3.85232073E-18
   5.29374981        -3.85230998E-18
   5.41249990        -3.85230088E-18
   5.53125000        -3.85229178E-18
   5.65000010        -3.85228310E-18
   5.76875019        -3.85227482E-18
   5.88749981        -3.85226738E-18
   6.00624990        -3.85225994E-18
   6.12500000        -3.85225249E-18
   6.24375010        -3.85224463E-18
   6.36250019        -3.85223636E-18
   6.48124981        -3.85222726E-18
   6.59999990        -3.85221692E-18
   6.71875000        -3.85220576E-18
   6.83750010        -3.85219376E-18
   6.95625019        -3.85218053E-18
   7.07499981        -3.85216729E-18
   7.19374990        -3.85215364E-18
   7.31250000        -3.85213958E-18
   7.43125010        -3.85212552E-18
   7.55000019        -3.85211187E-18
   7.66874981        -3.85209946E-18
   7.78749990        -3.85208705E-18
   7.90625000        -3.85207630E-18
   8.02499962        -3.85206596E-18
   8.14375019        -3.85205645E-18
   8.26249981        -3.85204776E-18
   8.38125038        -3.85203908E-18
   8.50000000        -3.85203122E-18
   8.61874962        -3.85202253E-18
   8.73750019        -3.85201344E-18
   8.85624981        -3.85200310E-18
   8.97500038        -3.85199193E-18
   9.09375000        -3.85197952E-18
   9.21249962        -3.85196629E-18
   9.33125019        -3.85195181E-18
   9.44999981        -3.85193692E-18
   9.56875038        -3.85192121E-18
   9.68750000        -3.85190508E-18
   9.80624962        -3.85188895E-18
   9.92500019        -3.85187240E-18
   10.0437498        -3.85185669E-18
   10.1625004        -3.85184097E-18
   10.2812500        -3.85182567E-18
   10.3999996        -3.85181036E-18
   10.5187502        -3.85179547E-18
   10.6374998        -3.85178017E-18
   10.7562504        -3.85176487E-18
   10.8750000        -3.85174957E-18
   10.9937496        -3.85173302E-18
   11.1125002        -3.85171606E-18
   11.2312498        -3.85169869E-18
   11.3500004        -3.85168050E-18
   11.4687500        -3.85166230E-18
   11.5874996        -3.85164493E-18
   11.7062502        -3.85162756E-18
   11.8249998        -3.85161143E-18
   11.9437504        -3.85159736E-18
   12.0625000        -3.85158454E-18
   12.1812496        -3.85157379E-18
   12.3000002        -3.85156552E-18
   12.4187498        -3.85155849E-18
   12.5375004        -3.85155311E-18
   12.6562500        -3.85154939E-18
   12.7749996        -3.85154773E-18
   12.8937502        -3.85154897E-18
   13.0124998        -3.85155394E-18
   13.1312504        -3.85156759E-18
   13.2500000        -3.85159075E-18
   13.3687496        -3.85162962E-18
   13.4875002        -3.85168877E-18
   13.6062498        -3.85177603E-18
   13.7250004        -3.85189887E-18
   13.8437500        -3.85206596E-18
   13.9624996        -3.85228723E-18
   14.0812502        -3.85257302E-18
   14.1999998        -3.85293409E-18
   14.3187504        -3.85338118E-18
   14.4375000        -3.85392712E-18
   14.5562496        -3.85458307E-18
   14.6750002        -3.85536062E-18
   14.7937498        -3.85627259E-18
   14.9125004        -3.85733179E-18
   15.0312500        -3.85855023E-18
   15.1499996        -3.85994113E-18
   15.2687502        -3.86151609E-18
   15.3874998        -3.86328336E-18
   15.5062504        -3.86525039E-18
   15.6250000        -3.86741885E-18
   15.7437496        -3.86978334E-18
   15.8625002        -3.87233023E-18
   15.9812498        -3.87503511E-18
   16.1000004        -3.87785993E-18
   16.2187500        -3.88074928E-18
   16.3374996        -3.88363035E-18
   16.4562492        -3.88640885E-18
   16.5750008        -3.88896814E-18
   16.6937504        -3.89116679E-18
   16.8125000        -3.89283480E-18
   16.9312496        -3.89377324E-18
   17.0499992        -3.89375380E-18
   17.1687508        -3.89251220E-18
   17.2875004        -3.88974817E-18
   17.4062500        -3.88511969E-18
   17.5249996        -3.87824168E-18
   17.6437492        -3.86867575E-18
   17.7625008        -3.85592765E-18
   17.8812504        -3.83943657E-18
   18.0000000        -3.81857176E-18
   18.1187496        -3.79261815E-18
   18.2374992        -3.76077335E-18
   18.3562508        -3.72213657E-18
   18.4750004        -3.67570320E-18
   18.5937500        -3.62035654E-18
   18.7124996        -3.55486783E-18
   18.8312492        -3.47788916E-18
   18.9500008        -3.38795581E-18
   19.0687504        -3.28348993E-18
   19.1875000        -3.16280531E-18
   19.3062496        -3.02411504E-18
   19.4249992        -2.86554493E-18
   19.5437508        -2.68514821E-18
   19.6625004        -2.48092393E-18
   19.7812500        -2.25084241E-18
   19.8999996        -1.99287228E-18
   20.0187492        -1.70501673E-18
   20.1375008        -1.38535496E-18
   20.2562504        -1.03209166E-18
   20.3750000        -6.43617551E-19
   20.4937496        -2.18578419E-19
   20.6124992         2.44042398E-19
   20.7312508         7.44829664E-19
   20.8500004         1.28382856E-18
   20.9687500         1.86042329E-18
   21.0874996         2.47320138E-18
   21.2062492         3.11980557E-18
   21.3250008         3.79677431E-18
   21.4437504         4.49936953E-18
   21.5625000         5.22139522E-18
   21.6812496         5.95500930E-18
   21.7999992         6.69052838E-18
   21.9187508         7.41622840E-18
   22.0375004         8.11814575E-18
   22.1562500         8.77987369E-18
   22.2749996         9.38236145E-18
   22.3937492         9.90372180E-18
   22.5125008         1.03190326E-17
   22.6312504         1.06001591E-17
   22.7500000         1.07155715E-17
   22.8687496         1.06301816E-17
   22.9874992         1.03051923E-17
   23.1062508         9.69796973E-18
   23.2250004         8.76192553E-18
   23.3437500         7.44644283E-18
   23.4624996         5.69682183E-18
   23.5812492         3.45427935E-18
   23.7000008         6.55982246E-19
   23.8187504        -2.76485575E-18
   23.9375000        -6.87882157E-18
   24.0562496        -1.17600847E-17
   24.1749992        -1.74860936E-17
   24.2937508        -2.41372014E-17
   24.4125004        -3.17962073E-17
   24.5312500        -4.05478146E-17
   24.6499996        -5.04779789E-17
   24.7687492        -6.16732034E-17
   24.8875008        -7.42197135E-17
   25.0062504        -8.82025599E-17
   25.1250000        -1.03704633E-16
   25.2437496        -1.20805586E-16
   25.3624992        -1.39580706E-16
   25.4812508        -1.60099709E-16
   25.6000004        -1.82425420E-16
   25.7187500        -2.06612445E-16
   25.8374996        -2.32705785E-16
   25.9562492        -2.60739426E-16
   26.0750008        -2.90734768E-16
   26.1937504        -3.22699198E-16
   26.3125000        -3.56624508E-16
   26.4312496        -3.92485316E-16
   26.5499992        -4.30237574E-16
   26.6687508        -4.69817042E-16
   26.7875004        -5.11137797E-16
   26.9062500        -5.54090785E-16
   27.0249996        -5.98542491E-16
   27.1437492        -6.44333728E-16
   27.2625008        -6.91278517E-16
   27.3812504        -7.39163248E-16
   27.5000000        -7.87745670E-16
   27.6187496        -8.36754520E-16
   27.7374992        -8.85889366E-16
   27.8562508        -9.34820395E-16
   27.9750004        -9.83188729E-16
   28.0937500        -1.03060680E-15
   28.2124996        -1.07665934E-15
   28.3312492        -1.12090485E-15
   28.4500008        -1.16287629E-15
   28.5687504        -1.20208375E-15
   28.6875000        -1.23801605E-15
   28.8062496        -1.27014306E-15
   28.9249992        -1.29791907E-15
   29.0437508        -1.32078515E-15
   29.1625004        -1.33817325E-15
   29.2812500        -1.34950941E-15
   29.3999996        -1.35421806E-15
   29.5187492        -1.35172641E-15
   29.6375008        -1.34146895E-15
   29.7562504        -1.32289288E-15
   29.8750000        -1.29546320E-15
   29.9937496        -1.25866873E-15
   30.1124992        -1.21202760E-15
   30.2312508        -1.15509428E-15
   30.3500004        -1.08746505E-15
   30.4687500        -1.00878554E-15
   30.5874996        -9.18756733E-16
   30.7062492        -8.17141949E-16
   30.8250008        -7.03773153E-16
   30.9437504        -5.78557278E-16
   31.0625000        -4.41482254E-16
   31.1812496        -2.92622805E-16
   31.2999992        -1.32145001E-16
   31.4187508         3.96887478E-17
   31.5375004         2.22515952E-16
   31.6562500         4.15870704E-16
   31.7749996         6.19181561E-16
   31.8937492         8.31769519E-16
   32.0125008         1.05284660E-15
   32.1312485         1.28151649E-15
   32.2500000         1.51677396E-15
   32.3687515         1.75750771E-15
   32.4874992         2.00250087E-15
   32.6062508         2.25043546E-15
   32.7249985         2.49989471E-15
   32.8437500         2.74937048E-15
   32.9625015         2.99726674E-15
   33.0812492         3.24190786E-15
   33.2000008         3.48154766E-15
   33.3187485         3.71437839E-15
   33.4375000         3.93854142E-15
   33.5562515         4.15213984E-15
   33.6749992         4.35325214E-15
   33.7937508         4.53994625E-15
   33.9124985         4.71029601E-15
   34.0312500         4.86239645E-15
   34.1500015         4.99438281E-15
   34.2687492         5.10444585E-15
   34.3875008         5.19085126E-15
   34.5062485         5.25195706E-15
   34.6250000         5.28623225E-15
   34.7437515         5.29227160E-15
   34.8624992         5.26881471E-15
   34.9812508         5.21476215E-15
   35.0999985         5.12919065E-15
   35.2187500         5.01136752E-15
   35.3375015         4.86076675E-15
   35.4562492         4.67708046E-15
   35.5750008         4.46023367E-15
   35.6937485         4.21039410E-15
   35.8125000         3.92798400E-15
   35.9312515         3.61369158E-15
   36.0499992         3.26847695E-15
   36.1687508         2.89358123E-15
   36.2874985         2.49052949E-15
   36.4062500         2.06113567E-15
   36.5250015         1.60750103E-15
   36.6437492         1.13201337E-15
   36.7625008         6.37340518E-16
   36.8812485         1.26421798E-16
   37.0000000        -3.97542552E-16
   37.1187515        -9.31109332E-16
   37.2374992        -1.47060706E-15
   37.3562508        -2.01215959E-15
   37.4749985        -2.55170856E-15
   37.5937500        -3.08504201E-15
   37.7125015        -3.60781868E-15
   37.8312492        -4.11560095E-15
   37.9500008        -4.60388411E-15
   38.0687485        -5.06813143E-15
   38.1875000        -5.50380283E-15
   38.3062515        -5.90639293E-15
   38.4249992        -6.27146286E-15
   38.5437508        -6.59467623E-15
   38.6624985        -6.87183473E-15
   38.7812500        -7.09891156E-15
   38.9000015        -7.27209295E-15
   39.0187492        -7.38780866E-15
   39.1375008        -7.44277263E-15
   39.2562485        -7.43401685E-15
   39.3750000        -7.35892653E-15
   39.4937515        -7.21527567E-15
   39.6124992        -7.00125798E-15
   39.7312508        -6.71551607E-15
   39.8499985        -6.35717031E-15
   39.9687500        -5.92584038E-15
   40.0875015        -5.42166816E-15
   40.2062492        -4.84533000E-15
   40.3250008        -4.19805114E-15
   40.4437485        -3.48161140E-15
   40.5625000        -2.69834881E-15
   40.6812515        -1.85115980E-15
   40.7999992        -9.43492000E-16
   40.9187508         2.06617574E-17
   41.0374985         1.03677712E-15
   41.1562500         2.09981331E-15
   41.2750015         3.20423204E-15
   41.3937492         4.34402118E-15
   41.5125008         5.51271954E-15
   41.6312485         6.70344881E-15
   41.7500000         7.90894992E-15
   41.8687515         9.12161988E-15
   41.9874992         1.03335606E-14
   42.1062508         1.15366277E-14
   42.2249985         1.27224815E-14
   42.3437500         1.38826540E-14
   42.4625015         1.50086073E-14
   42.5812492         1.60917981E-14
   42.7000008         1.71237587E-14
   42.8187485         1.80961508E-14
   42.9375000         1.90008481E-14
   43.0562515         1.98300052E-14
   43.1749992         2.05761108E-14
   43.2937508         2.12320684E-14
   43.4124985         2.17912456E-14
   43.5312500         2.22475321E-14
   43.6500015         2.25953967E-14
   43.7687492         2.28299181E-14
   43.8875008         2.29468476E-14
   44.0062485         2.29426294E-14
   44.1250000         2.28144479E-14
   44.2437515         2.25602516E-14
   44.3624992         2.21787801E-14
   44.4812508         2.16695914E-14
   44.5999985         2.10330800E-14
   44.7187500         2.02704878E-14
   44.8375015         1.93839119E-14
   44.9562492         1.83763103E-14
   45.0750008         1.72514946E-14
   45.1937485         1.60141099E-14
   45.3125000         1.46696247E-14
   45.4312515         1.32242841E-14
   45.5499992         1.16850787E-14
   45.6687508         1.00596928E-14
   45.7874985         8.35644928E-15
   45.9062500         6.58424544E-15
   46.0250015         4.75248799E-15
   46.1437492         2.87102177E-15
   46.2625008         9.50056929E-16
   46.3812485        -9.99905136E-16
   46.5000000        -2.96814342E-15
   46.6187515        -4.94379292E-15
   46.7374992        -6.91592406E-15
   46.8562508        -8.87360863E-15
   46.9749985        -1.08060059E-14
   47.0937500        -1.27024339E-14
   47.2125015        -1.45524631E-14
   47.3312492        -1.63459910E-14
   47.4500008        -1.80733487E-14
   47.5687485        -1.97253797E-14
   47.6875000        -2.12935392E-14
   47.8062515        -2.27700091E-14
   47.9249992        -2.41477607E-14
   48.0437508        -2.54206751E-14
   48.1624985        -2.65835988E-14
   48.2812500        -2.76324458E-14
   48.4000015        -2.85642210E-14
   48.5187492        -2.93770914E-14
   48.6375008        -3.00703879E-14
   48.7562485        -3.06446254E-14
   48.8750000        -3.11014981E-14
   48.9937515        -3.14438315E-14
   49.1124992        -3.16755831E-14
   49.2312508        -3.18017571E-14
   49.3499985        -3.18283946E-14
   49.4687500        -3.17624853E-14
   49.5875015        -3.16119235E-14
   49.7062492        -3.13854642E-14
   49.8250008        -3.10926584E-14
   49.9437485        -3.07438130E-14
   50.0625000        -3.03499223E-14
   50.1812515        -2.99226315E-14
   50.2999992        -2.94741716E-14
   50.4187508        -2.90172786E-14
   50.5374985        -2.85651087E-14
   50.6562500        -2.81311534E-14
   50.7750015        -2.77291143E-14
   50.8937492        -2.73727591E-14
   51.0125008        -2.70757876E-14
   51.1312485        -2.68516576E-14
   51.2500000        -2.67134269E-14
   51.3687515        -2.66735673E-14
   51.4874992        -2.67438066E-14
   51.6062508        -2.69349616E-14
   51.7249985        -2.72568037E-14
   51.8437500        -2.77179318E-14
   51.9625015        -2.83256661E-14
   52.0812492        -2.90859899E-14
   52.2000008        -3.00034791E-14
   52.3187485        -3.10812811E-14
   52.4375000        -3.23210832E-14
   52.5562515        -3.37231430E-14
   52.6749992        -3.52862440E-14
   52.7937508        -3.70077165E-14
   52.9124985        -3.88834540E-14
   53.0312500        -4.09078628E-14
   53.1500015        -4.30738717E-14
   53.2687492        -4.53728784E-14
   53.3875008        -4.77947319E-14
   53.5062485        -5.03276721E-14
   53.6250000        -5.29583328E-14
   53.7437515        -5.56716979E-14
   53.8624992        -5.84511077E-14
   53.9812508        -6.12782665E-14
   54.0999985        -6.41333232E-14
   54.2187500        -6.69949122E-14
   54.3375015        -6.98403398E-14
   54.4562492        -7.26456316E-14
   54.5750008        -7.53857900E-14
   54.6937485        -7.80349635E-14
   54.8125000        -8.05666230E-14
   54.9312515        -8.29538125E-14
   55.0499992        -8.51693729E-14
   55.1687508        -8.71861448E-14
   55.2874985        -8.89771926E-14
   55.4062500        -9.05159940E-14
   55.5250015        -9.17766704E-14
   55.6437492        -9.27341428E-14
   55.7625008        -9.33643150E-14
   55.8812485        -9.36442764E-14
   56.0000000        -9.35524715E-14
   56.1187515        -9.30688767E-14
   56.2374992        -9.21751621E-14
   56.3562508        -9.08549020E-14
   56.4749985        -8.90936766E-14
   56.5937500        -8.68792817E-14
   56.7125015        -8.42018309E-14
   56.8312492        -8.10538431E-14
   56.9500008        -7.74303243E-14
   57.0687485        -7.33287874E-14
   57.1875000        -6.87492530E-14
   57.3062515        -6.36941536E-14
   57.4249992        -5.81683139E-14
   57.5437508        -5.21787474E-14
   57.6624985        -4.57346258E-14
   57.7812500        -3.88470790E-14
   57.9000015        -3.15291209E-14
   58.0187492        -2.37955424E-14
   58.1375008        -1.56628589E-14
   58.2562485        -7.14930705E-15
   58.3750000         1.72511886E-15
   58.4937515         1.09385987E-14
   58.6124992         2.04673602E-14
   58.7312508         3.02855749E-14
   58.8499985         4.03652467E-14
   58.9687500         5.06760534E-14
   59.0875015         6.11853707E-14
   59.2062492         7.18582298E-14
   59.3250008         8.26574188E-14
   59.4437485         9.35436760E-14
   59.5625000         1.04475924E-13
   59.6812515         1.15411654E-13
   59.7999992         1.26307371E-13
   59.9187508         1.37118981E-13
   60.0374985         1.47802397E-13
   60.1562500         1.58313968E-13
   60.2750015         1.68611002E-13
   60.3937492         1.78652096E-13
   60.5125008         1.88397570E-13
   60.6312485         1.97809678E-13
   60.7500000         2.06852723E-13
   60.8687515         2.15493205E-13
   60.9874992         2.23699748E-13
   61.1062508         2.31443120E-13
   61.2249985         2.38695999E-13
   61.3437500         2.45433096E-13
   61.4625015         2.51630883E-13
   61.5812492         2.57267731E-13
   61.7000008         2.62323827E-13
   61.8187485         2.66781280E-13
   61.9375000         2.70624452E-13
   62.0562515         2.73839843E-13
   62.1749992         2.76416612E-13
   62.2937508         2.78346627E-13
   62.4124985         2.79624739E-13
   62.5312500         2.80248914E-13
   62.6500015         2.80220183E-13
   62.7687492         2.79542746E-13
   62.8875008         2.78223679E-13
   63.0062485         2.76272820E-13
   63.1250000         2.73702312E-13
   63.2437515         2.70526331E-13
   63.3624992         2.66760680E-13
   63.4812508         2.62422408E-13
   63.5999985         2.57529349E-13
   63.7187500         2.52100261E-13
   63.8375015         2.46154225E-13
   63.9562492         2.39711219E-13
   64.0749969         2.32791840E-13
   64.1937485         2.25417815E-13
   64.3125000         2.17612305E-13
   64.4312515         2.09400395E-13
   64.5500031         2.00809421E-13
   64.6687469         1.91869402E-13
   64.7874985         1.82613243E-13
   64.9062500         1.73076966E-13
   65.0250015         1.63299523E-13
   65.1437531         1.53322708E-13
   65.2624969         1.43190622E-13
   65.3812485         1.32949085E-13
   65.5000000         1.22644923E-13
   65.6187515         1.12325141E-13
   65.7375031         1.02035981E-13
   65.8562469         9.18221052E-14
   65.9749985         8.17257503E-14
   66.0937500         7.17860558E-14
   66.2125015         6.20385091E-14
   66.3312531         5.25145791E-14
   66.4499969         4.32414995E-14
   66.5687485         3.42422657E-14
   66.6875000         2.55356784E-14
   66.8062515         1.71366048E-14
   66.9250031         9.05626705E-15
   67.0437469         1.30248796E-15
   67.1624985        -6.11993798E-15
   67.2812500        -1.32090273E-14
   67.4000015        -1.99653712E-14
   67.5187531        -2.63920423E-14
   67.6374969        -3.24945013E-14
   67.7562485        -3.82805394E-14
   67.8750000        -4.37602970E-14
   67.9937515        -4.89463477E-14
   68.1125031        -5.38535891E-14
   68.2312469        -5.84993208E-14
   68.3499985        -6.29031874E-14
   68.4687500        -6.70869881E-14
   68.5875015        -7.10745956E-14
   68.7062531        -7.48918275E-14
   68.8249969        -7.85663377E-14
   68.9437485        -8.21275488E-14
   69.0625000        -8.56065368E-14
   69.1812515        -8.90361461E-14
   69.3000031        -9.24511051E-14
   69.4187469        -9.58882360E-14
   69.5374985        -9.93867193E-14
   69.6562500        -1.02988378E-13
   69.7750015        -1.06737874E-13
   69.8937531        -1.10682866E-13
   70.0124969        -1.14874066E-13
   70.1312485        -1.19365130E-13
   70.2500000        -1.24212110E-13
   70.3687515        -1.29473038E-13
   70.4875031        -1.35206896E-13
   70.6062469        -1.41472703E-13
   70.7249985        -1.48328154E-13
   70.8437500        -1.55828489E-13
   70.9625015        -1.64024881E-13
   71.0812531        -1.72963328E-13
   71.1999969        -1.82683458E-13
   71.3187485        -1.93217431E-13
   71.4375000        -2.04589316E-13
   71.5562515        -2.16814441E-13
   71.6750031        -2.29899216E-13
   71.7937469        -2.43841053E-13
   71.9124985        -2.58628215E-13
   72.0312500        -2.74240157E-13
   72.1500015        -2.90647470E-13
   72.2687531        -3.07811746E-13
   72.3874969        -3.25685469E-13
   72.5062485        -3.44211422E-13
   72.6250000        -3.63322138E-13
   72.7437515        -3.82938879E-13
   72.8625031        -4.02970626E-13
   72.9812469        -4.23313104E-13
   73.0999985        -4.43847677E-13
   73.2187500        -4.64440660E-13
   73.3375015        -4.84943086E-13
   73.4562531        -5.05190507E-13
   73.5749969        -5.25004140E-13
   73.6937485        -5.44191916E-13
   73.8125000        -5.62550874E-13
   73.9312515        -5.79869594E-13
   74.0500031        -5.95931616E-13
   74.1687469        -6.10518851E-13
   74.2874985        -6.23415544E-13
   74.4062500        -6.34411794E-13
   74.5250015        -6.43307456E-13
   74.6437531        -6.49915018E-13
   74.7624969        -6.54062254E-13
   74.8812485        -6.55594177E-13
   75.0000000        -6.54374070E-13
   75.1187515        -6.50284134E-13
   75.2375031        -6.43224894E-13
   75.3562469        -6.33114817E-13
