  -7.65000010        -1.40612445E-19
  -7.53125000        -1.40612445E-19
  -7.41249990        -1.40612329E-19
  -7.29374981        -1.40612122E-19
  -7.17500019        -1.40612264E-19
  -7.05625010        -1.40612187E-19
  -6.93750000        -1.40611902E-19
  -6.81874990        -1.40611579E-19
  -6.69999981        -1.40611230E-19
  -6.58125019        -1.40610972E-19
  -6.46250010        -1.40610765E-19
  -6.34375000        -1.40610519E-19
  -6.22499990        -1.40610597E-19
  -6.10624981        -1.40610507E-19
  -5.98750019        -1.40610080E-19
  -5.86875010        -1.40609770E-19
  -5.75000000        -1.40609395E-19
  -5.63124990        -1.40609033E-19
  -5.51249981        -1.40609111E-19
  -5.39375019        -1.40609137E-19
  -5.27500010        -1.40608775E-19
  -5.15625000        -1.40608671E-19
  -5.03749990        -1.40608943E-19
  -4.91874981        -1.40609020E-19
  -4.80000019        -1.40608697E-19
  -4.68125010        -1.40608568E-19
  -4.56250000        -1.40608503E-19
  -4.44374990        -1.40608762E-19
  -4.32499981        -1.40609098E-19
  -4.20625019        -1.40609162E-19
  -4.08750010        -1.40608607E-19
  -3.96875000        -1.40608284E-19
  -3.84999990        -1.40608051E-19
  -3.73125005        -1.40607779E-19
  -3.61249995        -1.40607831E-19
  -3.49375010        -1.40607224E-19
  -3.37500000        -1.40606810E-19
  -3.25624990        -1.40607094E-19
  -3.13750005        -1.40606784E-19
  -3.01874995        -1.40606203E-19
  -2.90000010        -1.40605854E-19
  -2.78125000        -1.40605492E-19
  -2.66249990        -1.40604755E-19
  -2.54375005        -1.40604225E-19
  -2.42499995        -1.40603941E-19
  -2.30625010        -1.40604445E-19
  -2.18750000        -1.40604044E-19
  -2.06874990        -1.40604005E-19
  -1.95000005        -1.40604225E-19
  -1.83124995        -1.40604251E-19
  -1.71249998        -1.40604393E-19
  -1.59375000        -1.40604729E-19
  -1.47500002        -1.40604871E-19
  -1.35625005        -1.40605194E-19
  -1.23749995        -1.40605375E-19
  -1.11874998        -1.40605052E-19
  -1.00000000        -1.40605026E-19
 -0.881250024        -1.40604574E-19
 -0.762499988        -1.40603747E-19
 -0.643750012        -1.40603230E-19
 -0.524999976        -1.40602442E-19
 -0.406250000        -1.40601705E-19
 -0.287499994        -1.40601059E-19
 -0.168750003        -1.40600516E-19
  -5.00000007E-02    -1.40599973E-19
   6.87500015E-02    -1.40599443E-19
  0.187500000        -1.40599275E-19
  0.306250006        -1.40598965E-19
  0.425000012        -1.40598926E-19
  0.543749988        -1.40598719E-19
  0.662500024        -1.40598357E-19
  0.781250000        -1.40597853E-19
  0.899999976        -1.40597285E-19
   1.01874995        -1.40596716E-19
   1.13750005        -1.40596781E-19
   1.25625002        -1.40596380E-19
   1.37500000        -1.40595100E-19
   1.49374998        -1.40594687E-19
   1.61249995        -1.40594105E-19
   1.73125005        -1.40593821E-19
   1.85000002        -1.40592968E-19
   1.96875000        -1.40591533E-19
   2.08750010        -1.40590525E-19
   2.20624995        -1.40589388E-19
   2.32500005        -1.40588250E-19
   2.44374990        -1.40587733E-19
   2.56250000        -1.40587501E-19
   2.68125010        -1.40587604E-19
   2.79999995        -1.40587953E-19
   2.91875005        -1.40588754E-19
   3.03749990        -1.40589737E-19
   3.15625000        -1.40591145E-19
   3.27500010        -1.40591856E-19
   3.39374995        -1.40592309E-19
   3.51250005        -1.40592658E-19
   3.63124990        -1.40592851E-19
   3.75000000        -1.40592309E-19
   3.86875010        -1.40591740E-19
   3.98749995        -1.40590964E-19
   4.10624981        -1.40590422E-19
   4.22499990        -1.40589401E-19
   4.34375000        -1.40587707E-19
   4.46250010        -1.40585898E-19
   4.58125019        -1.40583326E-19
   4.69999981        -1.40581103E-19
   4.81874990        -1.40578854E-19
   4.93750000        -1.40577019E-19
   5.05625010        -1.40575804E-19
   5.17500019        -1.40575222E-19
   5.29374981        -1.40574964E-19
   5.41249990        -1.40574977E-19
   5.53125000        -1.40575713E-19
   5.65000010        -1.40576825E-19
   5.76875019        -1.40577859E-19
   5.88749981        -1.40579138E-19
   6.00624990        -1.40579991E-19
   6.12500000        -1.40580948E-19
   6.24375010        -1.40580741E-19
   6.36250019        -1.40580663E-19
   6.48124981        -1.40580560E-19
   6.59999990        -1.40579513E-19
   6.71875000        -1.40578156E-19
   6.83750010        -1.40576566E-19
   6.95625019        -1.40575455E-19
   7.07499981        -1.40574434E-19
   7.19374990        -1.40573270E-19
   7.31250000        -1.40572547E-19
   7.43125010        -1.40571965E-19
   7.55000019        -1.40571345E-19
   7.66874981        -1.40571500E-19
   7.78749990        -1.40572211E-19
   7.90625000        -1.40573413E-19
   8.02499962        -1.40574977E-19
   8.14375019        -1.40576437E-19
   8.26249981        -1.40577600E-19
   8.38125038        -1.40579048E-19
   8.50000000        -1.40580211E-19
   8.61874962        -1.40580793E-19
   8.73750019        -1.40581051E-19
   8.85624981        -1.40580573E-19
   8.97500038        -1.40579617E-19
   9.09375000        -1.40578221E-19
   9.21249962        -1.40576036E-19
   9.33125019        -1.40573464E-19
   9.44999981        -1.40571009E-19
   9.56875038        -1.40568294E-19
   9.68750000        -1.40565438E-19
   9.80624962        -1.40563254E-19
   9.92500019        -1.40561289E-19
   10.0437498        -1.40559893E-19
   10.1625004        -1.40559053E-19
   10.2812500        -1.40558058E-19
   10.3999996        -1.40557981E-19
   10.5187502        -1.40558252E-19
   10.6374998        -1.40559351E-19
   10.7562504        -1.40561108E-19
   10.8750000        -1.40563138E-19
   10.9937496        -1.40565309E-19
   11.1125002        -1.40567946E-19
   11.2312498        -1.40569962E-19
   11.3500004        -1.40572611E-19
   11.4687500        -1.40574989E-19
   11.5874996        -1.40577109E-19
   11.7062502        -1.40578725E-19
   11.8249998        -1.40579836E-19
   11.9437504        -1.40580831E-19
   12.0625000        -1.40581167E-19
   12.1812496        -1.40580896E-19
   12.3000002        -1.40579255E-19
   12.4187498        -1.40577161E-19
   12.5375004        -1.40572909E-19
   12.6562500        -1.40567054E-19
   12.7749996        -1.40559118E-19
   12.8937502        -1.40548429E-19
   13.0124998        -1.40533217E-19
   13.1312504        -1.40513416E-19
   13.2500000        -1.40487619E-19
   13.3687496        -1.40455410E-19
   13.4875002        -1.40415279E-19
   13.6062498        -1.40366553E-19
   13.7250004        -1.40308288E-19
   13.8437500        -1.40239632E-19
   13.9624996        -1.40160650E-19
   14.0812502        -1.40070900E-19
   14.1999998        -1.39972039E-19
   14.3187504        -1.39866794E-19
   14.4375000        -1.39757024E-19
   14.5562496        -1.39646932E-19
   14.6750002        -1.39542681E-19
   14.7937498        -1.39450515E-19
   14.9125004        -1.39379313E-19
   15.0312500        -1.39340642E-19
   15.1499996        -1.39344946E-19
   15.2687502        -1.39407023E-19
   15.3874998        -1.39543263E-19
   15.5062504        -1.39771965E-19
   15.6250000        -1.40114043E-19
   15.7437496        -1.40591636E-19
   15.8625002        -1.41231202E-19
   15.9812498        -1.42062389E-19
   16.1000004        -1.43118337E-19
   16.2187500        -1.44437832E-19
   16.3374996        -1.46063578E-19
   16.4562492        -1.48045077E-19
   16.5750008        -1.50438989E-19
   16.6937504        -1.53310340E-19
   16.8125000        -1.56732632E-19
   16.9312496        -1.60787742E-19
   17.0499992        -1.65568704E-19
   17.1687508        -1.71178617E-19
   17.2875004        -1.77729590E-19
   17.4062500        -1.85345197E-19
   17.5249996        -1.94158638E-19
   17.6437492        -2.04312267E-19
   17.7625008        -2.15956566E-19
   17.8812504        -2.29250134E-19
   18.0000000        -2.44357812E-19
   18.1187496        -2.61448889E-19
   18.2374992        -2.80697279E-19
   18.3562508        -3.02278007E-19
   18.4750004        -3.26366696E-19
   18.5937500        -3.53136768E-19
   18.7124996        -3.82755960E-19
   18.8312492        -4.15383194E-19
   18.9500008        -4.51163797E-19
   19.0687504        -4.90224506E-19
   19.1875000        -5.32665385E-19
   19.3062496        -5.78553178E-19
   19.4249992        -6.27911149E-19
   19.5437508        -6.80707967E-19
   19.6625004        -7.36845200E-19
   19.7812500        -7.96143762E-19
   19.8999996        -8.58329132E-19
   20.0187492        -9.23016311E-19
   20.1375008        -9.89693272E-19
   20.2562504        -1.05770510E-18
   20.3750000        -1.12623846E-18
   20.4937496        -1.19430519E-18
   20.6124992        -1.26072851E-18
   20.7312508        -1.32412922E-18
   20.8500004        -1.38291188E-18
   20.9687500        -1.43525452E-18
   21.0874996        -1.47909778E-18
   21.2062492        -1.51213703E-18
   21.3250008        -1.53181452E-18
   21.4437504        -1.53531422E-18
   21.5625000        -1.51955901E-18
   21.6812496        -1.48120906E-18
   21.7999992        -1.41666509E-18
   21.9187508        -1.32207502E-18
   22.0375004        -1.19334307E-18
   22.1562500        -1.02614691E-18
   22.2749996        -8.15960735E-19
   22.3937492        -5.58082681E-19
   22.5125008        -2.47674367E-19
   22.6312504         1.20192574E-19
   22.7500000         5.50483011E-19
   22.8687496         1.04813234E-18
   22.9874992         1.61798151E-18
   23.1062508         2.26468631E-18
   23.2250004         2.99264164E-18
   23.3437500         3.80588323E-18
   23.4624996         4.70798200E-18
   23.5812492         5.70195614E-18
   23.7000008         6.79014822E-18
   23.8187504         7.97412947E-18
   23.9375000         9.25459678E-18
   24.0562496         1.06312660E-17
   24.1749992         1.21027393E-17
   24.2937508         1.36664167E-17
   24.4125004         1.53184188E-17
   24.5312500         1.70534202E-17
   24.6499996         1.88645818E-17
   24.7687492         2.07434464E-17
   24.8875008         2.26798779E-17
   25.0062504         2.46618755E-17
   25.1250000         2.66756169E-17
   25.2437496         2.87052683E-17
   25.3624992         3.07330519E-17
   25.4812508         3.27390708E-17
   25.6000004         3.47014509E-17
   25.7187500         3.65961776E-17
   25.8374996         3.83972476E-17
   25.9562492         4.00766922E-17
   26.0750008         4.16046305E-17
   26.1937504         4.29494640E-17
   26.3125000         4.40779998E-17
   26.4312496         4.49556053E-17
   26.5499992         4.55464439E-17
   26.6687508         4.58137258E-17
   26.7875004         4.57198970E-17
   26.9062500         4.52269503E-17
   27.0249996         4.42968056E-17
   27.1437492         4.28915812E-17
   27.2625008         4.09738159E-17
   27.3812504         3.85070178E-17
   27.5000000         3.54560216E-17
   27.6187496         3.17872010E-17
   27.7374992         2.74691246E-17
   27.8562508         2.24729256E-17
   27.9750004         1.67727065E-17
   28.0937500         1.03460145E-17
   28.2124996         3.17434220E-18
   28.3312492        -4.75622193E-18
   28.4500008        -1.34547710E-17
   28.5687504        -2.29249980E-17
   28.6875000        -3.31647710E-17
   28.8062496        -4.41657405E-17
   28.9249992        -5.59129493E-17
   29.0437508        -6.83846557E-17
   29.1625004        -8.15520013E-17
   29.2812500        -9.53789539E-17
   29.3999996        -1.09822183E-16
   29.5187492        -1.24830991E-16
   29.6375008        -1.40347589E-16
   29.7562504        -1.56306947E-16
   29.8750000        -1.72637239E-16
   29.9937496        -1.89259996E-16
   30.1124992        -2.06090223E-16
   30.2312508        -2.23037116E-16
   30.3500004        -2.40004006E-16
   30.4687500        -2.56889290E-16
   30.5874996        -2.73586216E-16
   30.7062492        -2.89983874E-16
   30.8250008        -3.05967465E-16
   30.9437504        -3.21419119E-16
   31.0625000        -3.36218558E-16
   31.1812496        -3.50243280E-16
   31.2999992        -3.63370067E-16
   31.4187508        -3.75475624E-16
   31.5375004        -3.86437395E-16
   31.6562500        -3.96134095E-16
   31.7749996        -4.04447856E-16
   31.8937492        -4.11264910E-16
   32.0125008        -4.16475433E-16
   32.1312485        -4.19976670E-16
   32.2500000        -4.21672536E-16
   32.3687515        -4.21475574E-16
   32.4874992        -4.19306773E-16
   32.6062508        -4.15097972E-16
   32.7249985        -4.08792129E-16
   32.8437500        -4.00343982E-16
   32.9625015        -3.89720468E-16
   33.0812492        -3.76902345E-16
   33.2000008        -3.61884901E-16
   33.3187485        -3.44677506E-16
   33.4375000        -3.25305121E-16
   33.5562515        -3.03808245E-16
   33.6749992        -2.80243577E-16
   33.7937508        -2.54684914E-16
   33.9124985        -2.27222067E-16
   34.0312500        -1.97961910E-16
   34.1500015        -1.67027446E-16
   34.2687492        -1.34557947E-16
   34.3875008        -1.00708790E-16
   34.5062485        -6.56494739E-17
   34.6250000        -2.95627436E-17
   34.7437515         7.35597574E-18
   34.8624992         4.49007765E-17
   34.9812508         8.28570210E-17
   35.0999985         1.21003170E-16
   35.2187500         1.59112426E-16
   35.3375015         1.96955132E-16
   35.4562492         2.34300272E-16
   35.5750008         2.70917321E-16
   35.6937485         3.06577858E-16
   35.8125000         3.41057260E-16
   35.9312515         3.74135697E-16
   36.0499992         4.05599318E-16
   36.1687508         4.35241421E-16
   36.2874985         4.62863060E-16
   36.4062500         4.88275001E-16
   36.5250015         5.11297251E-16
   36.6437492         5.31761461E-16
   36.7625008         5.49510930E-16
   36.8812485         5.64403993E-16
   37.0000000         5.76314070E-16
   37.1187515         5.85132478E-16
   37.2374992         5.90772076E-16
   37.3562508         5.93166850E-16
   37.4749985         5.92277889E-16
   37.5937500         5.88093546E-16
   37.7125015         5.80632509E-16
   37.8312492         5.69947136E-16
   37.9500008         5.56125146E-16
   38.0687485         5.39292378E-16
   38.1875000         5.19611991E-16
   38.3062515         4.97286955E-16
   38.4249992         4.72560581E-16
   38.5437508         4.45715195E-16
   38.6624985         4.17073147E-16
   38.7812500         3.86993710E-16
   38.9000015         3.55872105E-16
   39.0187492         3.24137751E-16
   39.1375008         2.92250613E-16
   39.2562485         2.60700356E-16
   39.3750000         2.29999224E-16
   39.4937515         2.00682540E-16
   39.6124992         1.73301445E-16
   39.7312508         1.48420964E-16
   39.8499985         1.26614419E-16
   39.9687500         1.08459048E-16
   40.0875015         9.45314908E-17
   40.2062492         8.54030035E-17
   40.3250008         8.16340642E-17
   40.4437485         8.37695732E-17
   40.5625000         9.23344329E-17
   40.6812515         1.07827546E-16
   40.7999992         1.30717883E-16
   40.9187508         1.61439477E-16
   41.0374985         2.00386211E-16
   41.1562500         2.47908729E-16
   41.2750015         3.04310165E-16
   41.3937492         3.69839890E-16
   41.5125008         4.44693991E-16
   41.6312485         5.29006645E-16
   41.7500000         6.22849849E-16
   41.8687515         7.26229161E-16
   41.9874992         8.39080790E-16
   42.1062508         9.61264869E-16
   42.2249985         1.09256588E-15
   42.3437500         1.23268684E-15
   42.4625015         1.38124551E-15
   42.5812492         1.53777021E-15
   42.7000008         1.70170179E-15
   42.8187485         1.87238179E-15
   42.9375000         2.04905719E-15
   43.0562515         2.23087493E-15
   43.1749992         2.41687977E-15
   43.2937508         2.60601502E-15
   43.4124985         2.79712217E-15
   43.5312500         2.98894041E-15
   43.6500015         3.18011003E-15
   43.7687492         3.36917498E-15
   43.8875008         3.55458943E-15
   44.0062485         3.73472073E-15
   44.1250000         3.90786104E-15
   44.2437515         4.07223160E-15
   44.3624992         4.22599899E-15
   44.4812508         4.36728536E-15
   44.5999985         4.49418233E-15
   44.7187500         4.60476714E-15
   44.8375015         4.69712211E-15
   44.9562492         4.76935326E-15
   45.0750008         4.81960773E-15
   45.1937485         4.84609614E-15
   45.3125000         4.84711258E-15
   45.4312515         4.82105361E-15
   45.5499992         4.76644116E-15
   45.6687508         4.68193565E-15
   45.7874985         4.56635674E-15
   45.9062500         4.41869518E-15
   46.0250015         4.23812427E-15
   46.1437492         4.02401425E-15
   46.2625008         3.77593651E-15
   46.3812485         3.49366151E-15
   46.5000000         3.17717463E-15
   46.6187515         2.82666584E-15
   46.7374992         2.44253301E-15
   46.8562508         2.02538304E-15
   46.9749985         1.57603175E-15
   47.0937500         1.09549757E-15
   47.2125015         5.85010875E-16
   47.3312492         4.60153130E-17
   47.4500008        -5.19838731E-16
   47.5687485        -1.11067788E-15
   47.6875000        -1.72441064E-15
   47.8062515        -2.35871550E-15
   47.9249992        -3.01103103E-15
   48.0437508        -3.67856456E-15
   48.1624985        -4.35828098E-15
   48.2812500        -5.04689886E-15
   48.4000015        -5.74090133E-15
   48.5187492        -6.43653137E-15
   48.6375008        -7.12981090E-15
   48.7562485        -7.81654540E-15
   48.8750000        -8.49234640E-15
   48.9937515        -9.15264585E-15
   49.1124992        -9.79272663E-15
   49.2312508        -1.04077437E-14
   49.3499985        -1.09927648E-14
   49.4687500        -1.15427924E-14
   49.5875015        -1.20528062E-14
   49.7062492        -1.25178002E-14
   49.8250008        -1.29328243E-14
   49.9437485        -1.32930335E-14
   50.0625000        -1.35937277E-14
   50.1812515        -1.38304099E-14
   50.2999992        -1.39988322E-14
   50.4187508        -1.40950560E-14
   50.5374985        -1.41155051E-14
   50.6562500        -1.40570251E-14
   50.7750015        -1.39169461E-14
   50.8937492        -1.36931194E-14
   51.0125008        -1.33839896E-14
   51.1312485        -1.29886201E-14
   51.2500000        -1.25067396E-14
   51.3687515        -1.19387600E-14
   51.4874992        -1.12857797E-14
   51.6062508        -1.05496065E-14
   51.7249985        -9.73272705E-15
   51.8437500        -8.83828313E-15
   51.9625015        -7.87003892E-15
   52.0812492        -6.83233547E-15
   52.2000008        -5.73002839E-15
   52.3187485        -4.56843239E-15
   52.4375000        -3.35328231E-15
   52.5562515        -2.09065286E-15
   52.6749992        -7.86928972E-16
   52.7937508         5.51212778E-16
   52.9124985         1.91686478E-15
   53.0312500         3.30286014E-15
   53.1500015         4.70177952E-15
   53.2687492         6.10592255E-15
   53.3875008         7.50730637E-15
   53.5062485         8.89758983E-15
   53.6250000         1.02680747E-14
   53.7437515         1.16096275E-14
   53.8624992         1.29126971E-14
   53.9812508         1.41672766E-14
   54.0999985         1.53629246E-14
   54.2187500         1.64887821E-14
   54.3375015         1.75336599E-14
   54.4562492         1.84861027E-14
   54.5750008         1.93344977E-14
   54.6937485         2.00672507E-14
   54.8125000         2.06728996E-14
   54.9312515         2.11403228E-14
   55.0499992         2.14589360E-14
   55.1687508         2.16188626E-14
   55.2874985         2.16111376E-14
   55.4062500         2.14278804E-14
   55.5250015         2.10624602E-14
   55.6437492         2.05096153E-14
   55.7625008         1.97655409E-14
   55.8812485         1.88279856E-14
   56.0000000         1.76962649E-14
   56.1187515         1.63712343E-14
   56.2374992         1.48552909E-14
   56.3562508         1.31522490E-14
   56.4749985         1.12672712E-14
   56.5937500         9.20675686E-15
   56.7125015         6.97817972E-15
   56.8312492         4.58999488E-15
   56.9500008         2.05147949E-15
   57.0687485        -6.27370411E-16
   57.1875000        -3.43594405E-15
   57.3062515        -6.36306524E-15
   57.4249992        -9.39707330E-15
   57.5437508        -1.25258241E-14
   57.6624985        -1.57366897E-14
   57.7812500        -1.90165199E-14
   57.9000015        -2.23516088E-14
   58.0187492        -2.57276178E-14
   58.1375008        -2.91295139E-14
   58.2562485        -3.25415049E-14
   58.3750000        -3.59469873E-14
   58.4937515        -3.93285021E-14
   58.6124992        -4.26677499E-14
   58.7312508        -4.59455811E-14
   58.8499985        -4.91420564E-14
   58.9687500        -5.22365490E-14
   59.0875015        -5.52078355E-14
   59.2062492        -5.80342523E-14
   59.3250008        -6.06938612E-14
   59.4437485        -6.31646157E-14
   59.5625000        -6.54245741E-14
   59.6812515        -6.74520322E-14
   59.7999992        -6.92257734E-14
   59.9187508        -7.07251640E-14
   60.0374985        -7.19303293E-14
   60.1562500        -7.28222888E-14
   60.2750015        -7.33830585E-14
   60.3937492        -7.35957722E-14
   60.5125008        -7.34447564E-14
   60.6312485        -7.29156251E-14
   60.7500000        -7.19954356E-14
   60.8687515        -7.06727767E-14
   60.9874992        -6.89378974E-14
   61.1062508        -6.67829439E-14
   61.2249985        -6.42021497E-14
   61.3437500        -6.11919708E-14
   61.4625015        -5.77514179E-14
   61.5812492        -5.38822832E-14
   61.7000008        -4.95893135E-14
   61.8187485        -4.48804371E-14
   61.9375000        -3.97668518E-14
   62.0562515        -3.42631027E-14
   62.1749992        -2.83870099E-14
   62.2937508        -2.21595762E-14
   62.4124985        -1.56046966E-14
   62.5312500        -8.74885932E-15
   62.6500015        -1.62062411E-15
   62.7687492         5.74993197E-15
   62.8875008         1.33317438E-14
   63.0062485         2.10934057E-14
   63.1250000         2.90038244E-14
   63.2437515         3.70327853E-14
   63.3624992         4.51514436E-14
   63.4812508         5.33326536E-14
   63.5999985         6.15512551E-14
   63.7187500         6.97840697E-14
   63.8375015         7.80097829E-14
   63.9562492         8.62086214E-14
   64.0749969         9.43619098E-14
   64.1937485         1.02451393E-13
   64.3125000         1.10458639E-13
   64.4312515         1.18364072E-13
   64.5500031         1.26146286E-13
   64.6687469         1.33781414E-13
   64.7874985         1.41242243E-13
   64.9062500         1.48497927E-13
   65.0250015         1.55513650E-13
   65.1437531         1.62250489E-13
   65.2624969         1.68665741E-13
   65.3812485         1.74713285E-13
   65.5000000         1.80344373E-13
   65.6187515         1.85508388E-13
   65.7375031         1.90154045E-13
   65.8562469         1.94230631E-13
   65.9749985         1.97689304E-13
   66.0937500         2.00484391E-13
   66.2125015         2.02574611E-13
   66.3312531         2.03924266E-13
   66.4499969         2.04504274E-13
   66.5687485         2.04292773E-13
   66.6875000         2.03275737E-13
   66.8062515         2.01447095E-13
   66.9250031         1.98808675E-13
   67.0437469         1.95369816E-13
   67.1624985         1.91146767E-13
   67.2812500         1.86161809E-13
   67.4000015         1.80442141E-13
   67.5187531         1.74018745E-13
   67.6374969         1.66925135E-13
   67.7562485         1.59196129E-13
   67.8750000         1.50866556E-13
   67.9937515         1.41970352E-13
   68.1125031         1.32539487E-13
   68.2312469         1.22603506E-13
   68.3499985         1.12188951E-13
   68.4687500         1.01319337E-13
   68.5875015         9.00153229E-14
   68.7062531         7.82951110E-14
   68.8249969         6.61750860E-14
   68.9437485         5.36708875E-14
   69.0625000         4.07984498E-14
   69.1812515         2.75749560E-14
   69.3000031         1.40204451E-14
   69.4187469         1.58645830E-16
   69.5374985        -1.39818085E-14
   69.6562500        -2.83662508E-14
   69.7750015        -4.29537489E-14
   69.8937531        -5.76963201E-14
   70.0124969        -7.25390275E-14
   70.1312485        -8.74200682E-14
   70.2500000        -1.02271558E-13
   70.3687515        -1.17020217E-13
   70.4875031        -1.31588710E-13
   70.6062469        -1.45897021E-13
   70.7249985        -1.59864011E-13
   70.8437500        -1.73409098E-13
   70.9625015        -1.86454381E-13
   71.0812531        -1.98925769E-13
   71.1999969        -2.10755052E-13
   71.3187485        -2.21881378E-13
   71.4375000        -2.32252260E-13
   71.5562515        -2.41824627E-13
   71.6750031        -2.50565709E-13
   71.7937469        -2.58453063E-13
   71.9124985        -2.65474925E-13
   72.0312500        -2.71629887E-13
   72.1500015        -2.76926350E-13
   72.2687531        -2.81381879E-13
   72.3874969        -2.85022033E-13
   72.5062485        -2.87879556E-13
   72.6250000        -2.89992992E-13
   72.7437515        -2.91405382E-13
   72.8625031        -2.92162833E-13
   72.9812469        -2.92313239E-13
   73.0999985        -2.91905063E-13
   73.2187500        -2.90986040E-13
   73.3375015        -2.89601784E-13
   73.4562531        -2.87794989E-13
   73.5749969        -2.85604277E-13
   73.6937485        -2.83063585E-13
   73.8125000        -2.80201074E-13
   73.9312515        -2.77039107E-13
   74.0500031        -2.73593594E-13
   74.1687469        -2.69874021E-13
   74.2874985        -2.65883534E-13
   74.4062500        -2.61619258E-13
   74.5250015        -2.57072792E-13
   74.6437531        -2.52231070E-13
   74.7624969        -2.47077397E-13
   74.8812485        -2.41592418E-13
   75.0000000        -2.35755832E-13
   75.1187515        -2.29547718E-13
   75.2375031        -2.22950144E-13
   75.3562469        -2.15948881E-13
