  -7.19999981         0.00000000    
  -7.01999998         0.00000000    
  -6.84000015         0.00000000    
  -6.65999985         0.00000000    
  -6.48000002         0.00000000    
  -6.30000019         0.00000000    
  -6.11999989         0.00000000    
  -5.94000006         0.00000000    
  -5.76000023         0.00000000    
  -5.57999992         0.00000000    
  -5.40000010         0.00000000    
  -5.21999979         0.00000000    
  -5.03999996         0.00000000    
  -4.86000013         0.00000000    
  -4.67999983         0.00000000    
  -4.50000000         0.00000000    
  -4.32000017         0.00000000    
  -4.13999987         0.00000000    
  -3.96000004         0.00000000    
  -3.77999997         0.00000000    
  -3.59999990         0.00000000    
  -3.42000008         0.00000000    
  -3.24000001         0.00000000    
  -3.05999994         0.00000000    
  -2.88000011         0.00000000    
  -2.70000005         0.00000000    
  -2.51999998         0.00000000    
  -2.33999991         0.00000000    
  -2.16000009         0.00000000    
  -1.98000002         0.00000000    
  -1.79999995         0.00000000    
  -1.62000000         0.00000000    
  -1.44000006         0.00000000    
  -1.25999999         1.87857946E-38
  -1.08000004         1.24771380E-37
 -0.899999976         1.66801971E-37
 -0.720000029        -2.03539409E-37
 -0.540000021         1.21364640E-35
 -0.360000014         2.52170171E-35
 -0.180000007        -9.71248764E-35
   0.00000000        -4.26544013E-34
  0.180000007        -4.88282767E-34
  0.360000014         2.84508204E-34
  0.540000021         1.75843504E-33
  0.720000029         1.93876487E-33
  0.899999976         6.64760853E-36
   1.08000004        -3.05473568E-33
   1.25999999         1.72903610E-35
   1.44000006         1.45637990E-32
   1.62000000         2.63130002E-32
   1.79999995         2.67584644E-30
   1.98000002         6.16357993E-30
   2.16000009         8.01833924E-30
   2.33999991         2.44601755E-30
   2.51999998        -1.18276827E-29
   2.70000005        -2.23835671E-29
   2.88000011        -1.36932310E-29
   3.05999994         1.72539625E-29
   3.24000001         4.76557191E-29
   3.42000008         3.94692740E-29
   3.59999990        -2.23965505E-29
   3.77999997        -9.45804936E-29
   3.96000004        -9.02589416E-29
   4.13999987         4.08139523E-29
   4.32000017         2.17694386E-28
   4.50000000         2.32765823E-28
   4.67999983        -7.42223970E-29
   4.86000013        -5.75219230E-28
   5.03999996        -7.92652532E-28
   5.21999979        -2.27958942E-28
   5.40000010         1.06338681E-27
   5.57999992         2.18044871E-27
   5.76000023         1.89196097E-27
   5.94000006        -1.91896386E-28
   6.11999989        -2.80482557E-27
   6.30000019        -3.70413490E-27
   6.48000002        -1.78733155E-27
   6.65999985         1.16827469E-27
   6.84000015         1.42969050E-27
   7.01999998        -2.84201354E-27
   7.19999981        -7.94364366E-27
   7.38000011        -5.69029869E-27
   7.55999994         9.51007489E-27
   7.73999977         3.25068532E-26
   7.92000008         4.66832137E-26
   8.10000038         3.48428121E-26
   8.27999973        -4.83219790E-27
   8.46000004        -5.22830507E-26
   8.64000034        -7.86542825E-26
   8.81999969        -7.23485475E-26
   9.00000000        -5.55869666E-26
   9.18000031        -7.07396657E-26
   9.35999966        -1.39183808E-25
   9.53999996        -2.24282622E-25
   9.72000027        -2.37642104E-25
   9.89999962        -1.00279776E-25
   10.0799999         1.76979416E-25
   10.2600002         4.59084901E-25
   10.4399996         5.43567121E-25
   10.6199999         2.87633822E-25
   10.8000002        -2.83351294E-25
   10.9799995        -9.85000914E-25
   11.1599998        -1.62238386E-24
   11.3400002        -2.17225985E-24
   11.5200005        -2.81516807E-24
   11.6999998        -3.70313200E-24
   11.8800001        -4.57001006E-24
   12.0600004        -4.51643103E-24
   12.2399998        -2.29700006E-24
   12.4200001         2.91603065E-24
   12.6000004         1.08341092E-23
   12.7799997         2.01739359E-23
   12.9600000         2.98795046E-23
   13.1400003         4.07175289E-23
   13.3199997         5.57880981E-23
   13.5000000         7.89421943E-23
   13.6800003         1.11793341E-22
   13.8599997         1.51721025E-22
   14.0400000         1.93212508E-22
   14.2200003         2.32418567E-22
   14.3999996         2.71520951E-22
   14.5799999         3.18486195E-22
   14.7600002         3.80861338E-22
   14.9399996         4.57710426E-22
   15.1199999         5.36848800E-22
   15.3000002         6.01335617E-22
   15.4799995         6.41034733E-22
   15.6599998         6.58688607E-22
   15.8400002         6.62334482E-22
   16.0200005         6.47195875E-22
   16.2000008         5.81638278E-22
   16.3799992         4.11982469E-22
   16.5599995         8.65509660E-23
   16.7399998        -4.19531224E-22
   16.9200001        -1.10332151E-21
   17.1000004        -1.96536357E-21
   17.2800007        -3.05347968E-21
   17.4599991        -4.48226879E-21
   17.6399994        -6.40462563E-21
   17.8199997        -8.94937691E-21
   18.0000000        -1.21724207E-20
   18.1800003        -1.60663904E-20
   18.3600006        -2.06309798E-20
   18.5400009        -2.59531488E-20
   18.7199993        -3.22280973E-20
   18.8999996        -3.96898900E-20
   19.0799999        -4.84910013E-20
   19.2600002        -5.86172946E-20
   19.4400005        -6.99063131E-20
   19.6200008        -8.21589259E-20
   19.7999992        -9.52561613E-20
   19.9799995        -1.09179272E-19
   20.1599998        -1.23900502E-19
   20.3400002        -1.39215673E-19
   20.5200005        -1.54644853E-19
   20.7000008        -1.69482755E-19
   20.8799992        -1.82963963E-19
   21.0599995        -1.94410010E-19
   21.2399998        -2.03230728E-19
   21.4200001        -2.08769698E-19
   21.6000004        -2.10124594E-19
   21.7800007        -2.06118377E-19
   21.9599991        -1.95492325E-19
   22.1399994        -1.77204033E-19
   22.3199997        -1.50595998E-19
   22.5000000        -1.15271780E-19
   22.6800003        -7.07501601E-20
   22.8600006        -1.61900491E-20
   23.0400009         4.95096386E-20
   23.2199993         1.27185365E-19
   23.3999996         2.16761697E-19
   23.5799999         3.16949167E-19
   23.7600002         4.25557387E-19
   23.9400005         5.40238844E-19
   24.1200008         6.59109299E-19
   24.2999992         7.80732715E-19
   24.4799995         9.03426916E-19
   24.6599998         1.02439608E-18
   24.8400002         1.13936695E-18
   25.0200005         1.24301671E-18
   25.2000008         1.32983180E-18
   25.3799992         1.39468131E-18
   25.5599995         1.43269068E-18
   25.7399998         1.43873850E-18
   25.9200001         1.40740190E-18
   26.1000004         1.33390287E-18
   26.2800007         1.21565389E-18
   26.4599991         1.05317101E-18
   26.6399994         8.49277295E-19
   26.8199997         6.06793641E-19
   27.0000000         3.26395776E-19
   27.1800003         6.72035497E-21
   27.3600006        -3.52528066E-19
   27.5400009        -7.46010930E-19
   27.7199993        -1.15980917E-18
   27.8999996        -1.57255234E-18
   28.0799999        -1.96046706E-18
   28.2600002        -2.30340456E-18
   28.4400005        -2.58810111E-18
   28.6200008        -2.80686122E-18
   28.7999992        -2.95313467E-18
   28.9799995        -3.01758093E-18
   29.1599998        -2.98749203E-18
   29.3400002        -2.84955263E-18
   29.5200005        -2.59333675E-18
   29.7000008        -2.21293541E-18
   29.8799992        -1.70666965E-18
   30.0599995        -1.07748298E-18
   30.2399998        -3.36525947E-19
   30.4200001         4.90921457E-19
   30.6000004         1.36200106E-18
   30.7800007         2.22070449E-18
   30.9599991         3.01103917E-18
   31.1399994         3.69271706E-18
   31.3199997         4.24906509E-18
   31.5000000         4.68008285E-18
   31.6800003         4.98315439E-18
   31.8600006         5.13351721E-18
   32.0400009         5.07876571E-18
   32.2200012         4.75368869E-18
   32.4000015         4.10840427E-18
   32.5800018         3.13338125E-18
   32.7599983         1.86664017E-18
   32.9399986         3.80263406E-19
   33.1199989        -1.24317812E-18
   33.2999992        -2.92856430E-18
   33.4799995        -4.61157824E-18
   33.6599998        -6.23130831E-18
   33.8400002        -7.72409014E-18
   34.0200005        -9.02732146E-18
   34.2000008        -1.00902808E-17
   34.3800011        -1.08795972E-17
   34.5600014        -1.13693816E-17
   34.7400017        -1.15199359E-17
   34.9199982        -1.12631394E-17
   35.0999985        -1.05138535E-17
   35.2799988        -9.21062800E-18
   35.4599991        -7.36575053E-18
   35.6399994        -5.09215198E-18
   35.8199997        -2.58471070E-18
   36.0000000        -6.14689610E-20
   36.1800003         2.30295437E-18
   36.3600006         4.41383740E-18
   36.5400009         6.24513959E-18
   36.7200012         7.79475618E-18
   36.9000015         9.04010306E-18
   37.0800018         9.92171298E-18
   37.2599983         1.03573617E-17
   37.4399986         1.02668682E-17
   37.6199989         9.58669491E-18
   37.7999992         8.27294929E-18
   37.9799995         6.31105637E-18
   38.1599998         3.74875979E-18
   38.3400002         7.43332209E-19
   38.5200005        -2.41472012E-18
   38.7000008        -5.34121482E-18
   38.8800011        -7.66545213E-18
   39.0600014        -9.15735757E-18
   39.2400017        -9.79870957E-18
   39.4199982        -9.74625557E-18
   39.5999985        -9.20056204E-18
   39.7799988        -8.25848934E-18
   39.9599991        -6.84141480E-18
   40.1399994        -4.74262598E-18
   40.3199997        -1.75940468E-18
   40.5000000         2.17516427E-18
   40.6800003         6.93340432E-18
   40.8600006         1.22190880E-17
   41.0400009         1.76325509E-17
   41.2200012         2.27214388E-17
   41.4000015         2.70073014E-17
   41.5800018         3.00271691E-17
   41.7599983         3.14304678E-17
   41.9399986         3.11137932E-17
   42.1199989         2.93068602E-17
   42.2999992         2.65117127E-17
   42.4799995         2.32755853E-17
   42.6599998         1.99017869E-17
   42.8400002         1.62786828E-17
   43.0200005         1.19619523E-17
   43.2000008         6.49227262E-18
   43.3800011        -2.30290469E-19
   43.5600014        -7.74501615E-18
   43.7400017        -1.51283095E-17
   43.9199982        -2.13259503E-17
   44.0999985        -2.55132445E-17
   44.2799988        -2.72839139E-17
   44.4599991        -2.66126684E-17
   44.6399994        -2.36997503E-17
   44.8199997        -1.88594268E-17
   45.0000000        -1.25222886E-17
   45.1800003        -5.27244716E-18
   45.3600006         2.22444232E-18
   45.5400009         9.45534690E-18
   45.7200012         1.63285403E-17
   45.9000015         2.32384482E-17
   46.0800018         3.07710460E-17
   46.2599983         3.91433910E-17
   46.4399986         4.77106792E-17
   46.6199989         5.49068759E-17
   46.7999992         5.87494839E-17
   46.9799995         5.76760682E-17
   47.1599998         5.12416320E-17
   47.3400002         4.02706628E-17
   47.5200005         2.63907723E-17
   47.7000008         1.12492717E-17
   47.8800011        -4.12800183E-18
   48.0600014        -1.95268375E-17
   48.2400017        -3.53014778E-17
   48.4199982        -5.19658882E-17
   48.5999985        -6.98928641E-17
   48.7799988        -8.91955604E-17
   48.9599991        -1.09666414E-16
   49.1399994        -1.30635496E-16
   49.3199997        -1.50788991E-16
   49.5000000        -1.68176949E-16
   49.6800003        -1.80624998E-16
   49.8600006        -1.86502904E-16
   50.0400009        -1.85474646E-16
   50.2200012        -1.78739198E-16
   50.4000015        -1.68508801E-16
   50.5800018        -1.56937073E-16
   50.7599983        -1.45078334E-16
   50.9399986        -1.32459290E-16
   51.1199989        -1.17464875E-16
   51.2999992        -9.82490986E-17
   51.4799995        -7.36230781E-17
   51.6599998        -4.34990627E-17
   51.8400002        -8.83667370E-18
   52.0200005         2.86664702E-17
   52.2000008         6.68859236E-17
   52.3800011         1.03547045E-16
   52.5600014         1.36614860E-16
   52.7400017         1.64875440E-16
   52.9199982         1.88499149E-16
   53.0999985         2.09150487E-16
   53.2799988         2.29323450E-16
   53.4599991         2.51049501E-16
   53.6399994         2.74626716E-16
   53.8199997         2.98141648E-16
   54.0000000         3.18133531E-16
   54.1800003         3.31039137E-16
   54.3600006         3.34563932E-16
   54.5400009         3.28223758E-16
   54.7200012         3.12918005E-16
   54.9000015         2.90052801E-16
   55.0800018         2.60924423E-16
   55.2599983         2.26676552E-16
   55.4399986         1.88528888E-16
   55.6199989         1.47702813E-16
   55.7999992         1.04808330E-16
   55.9799995         5.91308539E-17
   56.1599998         8.64030268E-18
   56.3400002        -4.88018727E-17
   56.5200005        -1.13486335E-16
   56.7000008        -1.82399453E-16
   56.8800011        -2.49478493E-16
   57.0600014        -3.07787050E-16
   57.2400017        -3.52491120E-16
   57.4199982        -3.82836446E-16
   57.5999985        -4.01869276E-16
   57.7799988        -4.14087382E-16
   57.9599991        -4.22550591E-16
   58.1399994        -4.27253265E-16
   58.3199997        -4.25584663E-16
   58.5000000        -4.14221531E-16
   58.6800003        -3.90924260E-16
   58.8600006        -3.55056200E-16
   59.0400009        -3.06861455E-16
   59.2200012        -2.46591884E-16
   59.4000015        -1.74597459E-16
   59.5800018        -9.24836960E-17
   59.7599983        -4.26461940E-18
   59.9399986         8.38539457E-17
   60.1199989         1.65501198E-16
   60.2999992         2.36942670E-16
   60.4799995         2.98777611E-16
   60.6599998         3.55191249E-16
   60.8400002         4.11032399E-16
   61.0200005         4.68504617E-16
   61.2000008         5.25552339E-16
   61.3800011         5.76867765E-16
   61.5600014         6.16697637E-16
   61.7400017         6.41569595E-16
   61.9199982         6.51385806E-16
   62.0999985         6.48681283E-16
   62.2799988         6.37093131E-16
   62.4599991         6.20308697E-16
   62.6399994         6.01916806E-16
   62.8199997         5.85519413E-16
   63.0000000         5.74153131E-16
   63.1800003         5.68783948E-16
   63.3600006         5.66745298E-16
   63.5400009         5.61474794E-16
   63.7200012         5.44262503E-16
   63.9000015         5.07389464E-16
   64.0800018         4.47023067E-16
   64.2600021         3.64336082E-16
   64.4400024         2.64424972E-16
   64.6200027         1.53868127E-16
   64.8000031         3.82803339E-17
   64.9800034        -7.92308465E-17
   65.1600037        -1.98635195E-16
   65.3399963        -3.22923741E-16
   65.5199966        -4.57518388E-16
   65.6999969        -6.08783437E-16
   65.8799973        -7.81378629E-16
   66.0599976        -9.75070977E-16
   66.2399979        -1.18263301E-15
   66.4199982        -1.39056298E-15
   66.5999985        -1.58308076E-15
   66.7799988        -1.74781162E-15
   66.9599991        -1.88022447E-15
   67.1399994        -1.98434112E-15
   67.3199997        -2.06939043E-15
   67.5000000        -2.14447651E-15
   67.6800003        -2.21430739E-15
   67.8600006        -2.27792295E-15
   68.0400009        -2.33011776E-15
   68.2200012        -2.36363782E-15
   68.4000015        -2.37046215E-15
   68.5800018        -2.34214817E-15
   68.7600021        -2.27073122E-15
   68.9400024        -2.15146729E-15
   69.1200027        -1.98678841E-15
   69.3000031        -1.78876481E-15
   69.4800034        -1.57715343E-15
   69.6600037        -1.37243954E-15
   69.8399963        -1.18679184E-15
   70.0199966        -1.01799723E-15
   70.1999969        -8.50363163E-16
   70.3799973        -6.62685173E-16
   70.5599976        -4.39120779E-16
   70.7399979        -1.77058447E-16
   70.9199982         1.12027386E-16
   71.0999985         4.08535240E-16
   71.2799988         6.93626651E-16
   71.4599991         9.56292680E-16
   71.6399994         1.19589045E-15
   71.8199997         1.42056160E-15
   72.0000000         1.64377543E-15
   72.1800003         1.88087816E-15
   72.3600006         2.14588153E-15
   72.5400009         2.44771028E-15
   72.7200012         2.78580899E-15
   72.9000015         3.14683709E-15
   73.0800018         3.50525633E-15
   73.2600021         3.82957233E-15
   73.4400024         4.09295934E-15
   73.6200027         4.28390132E-15
   73.8000031         4.41148100E-15
   73.9800034         4.50202331E-15
   74.1600037         4.58792008E-15
   74.3399963         4.69334519E-15
   74.5199966         4.82313732E-15
   74.6999969         4.95968877E-15
   74.8799973         5.06916523E-15
   75.0599976         5.11451072E-15
   75.2399979         5.07009358E-15
   75.4199982         4.93232537E-15
   75.5999985         4.72215786E-15
   75.7799988         4.47837754E-15
   75.9599991         4.24413693E-15
   76.1399994         4.05179100E-15
   76.3199997         3.91183617E-15
   76.5000000         3.81001052E-15
   76.6800003         3.71321499E-15
   76.8600006         3.58143064E-15
   77.0400009         3.38099554E-15
   77.2200012         3.09502641E-15
   77.4000015         2.72870436E-15
   77.5800018         2.30892097E-15
   77.7600021         1.87855708E-15
   77.9400024         1.48578060E-15
   78.1200027         1.16958796E-15
   78.3000031         9.45003743E-16
   78.4800034         7.93828584E-16
   78.6600037         6.67073915E-16
   78.8399963         5.01411582E-16
   79.0199966         2.44939058E-16
   79.1999969        -1.18829551E-16
   79.3799973        -5.61027455E-16
   79.5599976        -1.01789125E-15
   79.7399979        -1.41760196E-15
   79.9199982        -1.71072047E-15
   80.0999985        -1.88972796E-15
   80.2799988        -1.98955482E-15
   80.4599991        -2.07124501E-15
   80.6399994        -2.19858561E-15
   80.8199997        -2.41840104E-15
   81.0000000        -2.75019634E-15
   81.1800003        -3.18466304E-15
   81.3600006        -3.68787219E-15
   81.5400009        -4.20953945E-15
   81.7200012        -4.69623696E-15
   81.9000015        -5.10974319E-15
   82.0800018        -5.44608261E-15
   82.2600021        -5.74596108E-15
   82.4400024        -6.08755845E-15
   82.6200027        -6.56017658E-15
   82.8000031        -7.22842755E-15
   82.9800034        -8.10401483E-15
   83.1600037        -9.13992850E-15
   83.3399963        -1.02504548E-14
   83.5199966        -1.13467602E-14
   83.6999969        -1.23703783E-14
   83.8799973        -1.33098615E-14
   84.0599976        -1.41961163E-14
   84.2399979        -1.50822992E-14
   84.4199982        -1.60185026E-14
   84.5999985        -1.70294111E-14
   84.7799988        -1.80989087E-14
   84.9599991        -1.91637884E-14
   85.1399994        -2.01195397E-14
   85.3199997        -2.08411610E-14
   85.5000000        -2.12171250E-14
   85.6800003        -2.11861287E-14
   85.8600006        -2.07600457E-14
   86.0400009        -2.00192408E-14
   86.2200012        -1.90790173E-14
   86.4000015        -1.80418407E-14
   86.5800018        -1.69584416E-14
   86.7600021        -1.58159296E-14
   86.9400024        -1.45554972E-14
   87.1200027        -1.31066456E-14
   87.3000031        -1.14194610E-14
   87.4800034        -9.48301157E-15
   87.6600037        -7.32957853E-15
   87.8399963        -5.03097972E-15
   88.0199966        -2.69053621E-15
   88.1999969        -4.27467776E-16
   88.3799973         1.65093254E-15
   88.5599976         3.48537456E-15
   88.7399979         5.09208171E-15
   88.9199982         6.56026679E-15
   89.0999985         8.01012207E-15
   89.2799988         9.52607642E-15
   89.4599991         1.11003329E-14
   89.6399994         1.26214160E-14
   89.8199997         1.39184818E-14
   90.0000000         1.48388077E-14
   90.1800003         1.53156025E-14
   90.3600006         1.53907174E-14
   90.5400009         1.51863673E-14
   90.7200012         1.48505577E-14
   90.9000015         1.45111042E-14
   91.0800018         1.42578041E-14
   91.2600021         1.41461812E-14
   91.4400024         1.42017076E-14
   91.6200027         1.44115287E-14
   91.8000031         1.47130944E-14
   91.9800034         1.50033625E-14
   92.1600037         1.51825912E-14
   92.3399963         1.52179091E-14
   92.5199966         1.51868671E-14
   92.6999969         1.52635320E-14
   92.8799973         1.56428571E-14
   93.0599976         1.64417650E-14
   93.2399979         1.76358070E-14
   93.4199982         1.90711382E-14
   93.5999985         2.05444758E-14
   93.7799988         2.19013413E-14
   93.9599991         2.30951394E-14
   94.1399994         2.41805782E-14
   94.3199997         2.52601996E-14
   94.5000000         2.64284952E-14
   94.6800003         2.77474458E-14
   94.8600006         2.92528893E-14
   95.0400009         3.09637468E-14
   95.2200012         3.28689441E-14
   95.4000015         3.48962734E-14
   95.5800018         3.68956202E-14
   95.7600021         3.86689785E-14
   95.9400024         4.00467284E-14
   96.1200027         4.09691473E-14
   96.3000031         4.15178790E-14
   96.4800034         4.18694146E-14
   96.6600037         4.21945499E-14
   96.8399963         4.25654622E-14
   97.0199966         4.29275620E-14
   97.1999969         4.31484546E-14
   97.3799973         4.31052187E-14
   97.5599976         4.27507422E-14
   97.7399979         4.21232805E-14
   97.9199982         4.13088753E-14
   98.0999985         4.03970240E-14
   98.2799988         3.94634141E-14
   98.4599991         3.85792133E-14
   98.6399994         3.78174021E-14
   98.8199997         3.72297103E-14
   99.0000000         3.68008677E-14
   99.1800003         3.64193064E-14
   99.3600006         3.59036463E-14
   99.5400009         3.50859546E-14
   99.7200012         3.39051466E-14
   99.9000015         3.24462171E-14
   100.080002         3.08921827E-14
   100.260002         2.94154112E-14
   100.440002         2.80782731E-14
   100.620003         2.68059941E-14
