  -7.19999981       0.00000000    
  -7.01999998       0.00000000    
  -6.84000015       0.00000000    
  -6.65999985       0.00000000    
  -6.48000002       0.00000000    
  -6.30000019       0.00000000    
  -6.11999989       0.00000000    
  -5.94000006       0.00000000    
  -5.76000023       0.00000000    
  -5.57999992       0.00000000    
  -5.40000010       0.00000000    
  -5.21999979       0.00000000    
  -5.03999996       0.00000000    
  -4.86000013       0.00000000    
  -4.67999983       0.00000000    
  -4.50000000      -0.00000000    
  -4.32000017      -0.00000000    
  -4.13999987       3.08285662E-44
  -3.96000004       1.55544130E-43
  -3.77999997       1.84256735E-41
  -3.59999990       4.77072062E-41
  -3.42000008       2.15477665E-41
  -3.24000001      -1.63083115E-41
  -3.05999994       1.34091932E-39
  -2.88000011      -3.44910475E-38
  -2.70000005      -2.72678287E-37
  -2.51999998      -4.84800347E-37
  -2.33999991      -1.85214943E-37
  -2.16000009       7.93392321E-37
  -1.98000002       3.98526126E-36
  -1.79999995       1.86456377E-35
  -1.62000000       5.15272094E-35
  -1.44000006       4.36109638E-35
  -1.25999999      -1.91332059E-34
  -1.08000004      -7.55780052E-34
 -0.899999976      -9.85020001E-34
 -0.720000029       9.60676983E-34
 -0.540000021       6.19473621E-33
 -0.360000014       1.01221268E-32
 -0.180000007      -1.20475325E-34
   4.44089210E-16  -3.41654436E-32
  0.180000007      -7.01577817E-32
  0.360000014      -3.87388424E-32
  0.540000021       1.25917344E-31
  0.720000029       3.55381024E-31
  0.899999976       3.54954766E-31
   1.08000004      -2.28929523E-31
   1.25999999      -1.30883688E-30
   1.44000006      -1.90976248E-30
   1.62000000      -5.42495533E-31
   1.79999995       3.22722777E-30
   1.98000002       7.01132690E-30
   2.16000009       5.92179485E-30
   2.33999991      -3.45748135E-30
   2.51999998      -1.74167728E-29
   2.70000005      -2.36449534E-29
   2.88000011      -9.16407346E-30
   3.05999994       2.49540967E-29
   3.24000001       5.51642188E-29
   3.42000008       4.80259400E-29
   3.59999990      -7.19042635E-30
   3.77999997      -7.26050251E-29
   3.96000004      -7.97826350E-29
   4.13999987       4.45303168E-31
   4.32000017       9.02012118E-29
   4.50000000       3.15260859E-29
   4.67999983      -2.50915979E-28
   4.86000013      -5.56242512E-28
   5.03999996      -4.13078366E-28
   5.21999979       5.55755974E-28
   5.40000010       2.07444707E-27
   5.57999992       2.98615110E-27
   5.76000023       1.85959129E-27
   5.94000006      -1.70060365E-27
   6.11999989      -6.05896906E-27
   6.30000019      -8.13479220E-27
   6.48000002      -5.75823818E-27
   6.65999985      -8.10263524E-29
   6.84000015       4.64477526E-27
   7.01999998       4.96584820E-27
   7.19999981       3.06396542E-27
   7.38000011       7.11996579E-27
   7.55999994       2.40156947E-26
   7.73999977       4.84220326E-26
   7.92000008       5.89388304E-26
   8.10000038       3.00022661E-26
   8.27999973      -4.45776762E-26
   8.46000004      -1.35524578E-25
   8.64000034      -1.89947032E-25
   8.81999969      -1.71325428E-25
   9.00000000      -9.76594886E-26
   9.18000031      -3.61438780E-26
   9.35999966      -4.09791701E-26
   9.53999996      -7.69417456E-26
   9.72000027      -7.45610451E-27
   9.89999962       3.05629786E-25
   10.0799999       8.39451443E-25
   10.2600002       1.32157010E-24
   10.4399996       1.33704498E-24
   10.6199999       6.07049223E-25
   10.8000002      -7.64169164E-25
   10.9799995      -2.31898916E-24
   11.1599998      -3.60549153E-24
   11.3400002      -4.59903107E-24
   11.5200005      -5.75331759E-24
   11.6999998      -7.46820693E-24
   11.8800001      -9.29325557E-24
   12.0600004      -9.60320770E-24
   12.2399998      -6.30706048E-24
   12.4200001       1.67098607E-24
   12.6000004       1.32877498E-23
   12.7799997       2.58786025E-23
   12.9600000       3.73557603E-23
   13.1400003       4.85607911E-23
   13.3199997       6.35111221E-23
   13.5000000       8.65489970E-23
   13.6800003       1.18099470E-22
   13.8599997       1.52706381E-22
   14.0400000       1.82059201E-22
   14.2200003       2.01805438E-22
   14.3999996       2.16913651E-22
   14.5799999       2.40081448E-22
   14.7600002       2.82597820E-22
   14.9399996       3.43996467E-22
   15.1199999       4.09699897E-22
   15.3000002       4.60724354E-22
   15.4799995       4.89040447E-22
   15.6599998       5.04928232E-22
   15.8400002       5.26497532E-22
   16.0200005       5.55880063E-22
   16.2000008       5.60624033E-22
   16.3799992       4.79069094E-22
   16.5599995       2.50959474E-22
   16.7399998      -1.48932446E-22
   16.9200001      -7.05318541E-22
   17.1000004      -1.39832944E-21
   17.2800007      -2.25916960E-21
   17.4599991      -3.39966789E-21
   17.6399994      -4.98152964E-21
   17.8199997      -7.13668330E-21
   18.0000000      -9.89653587E-21
   18.1800003      -1.31936859E-20
   18.3600006      -1.69503395E-20
   18.5400009      -2.11948715E-20
   18.7199993      -2.61107170E-20
   18.8999996      -3.19599066E-20
   19.0799999      -3.89187994E-20
   19.2600002      -4.69445839E-20
   19.4400005      -5.57857003E-20
   19.6200008      -6.51472781E-20
   19.7999992      -7.48953043E-20
   19.9799995      -8.51348374E-20
   20.1599998      -9.60812287E-20
   20.3400002      -1.07806333E-19
   20.5200005      -1.20055430E-19
   20.7000008      -1.32290724E-19
   20.8799992      -1.43938202E-19
   21.0599995      -1.54635031E-19
   21.2399998      -1.64253060E-19
   21.4200001      -1.72653325E-19
   21.6000004      -1.79374180E-19
   21.7800007      -1.83556716E-19
   21.9599991      -1.84244956E-19
   22.1399994      -1.80865639E-19
   22.3199997      -1.73466754E-19
   22.5000000      -1.62406961E-19
   22.6800003      -1.47615253E-19
   22.8600006      -1.27968899E-19
   23.0400009      -1.01388717E-19
   23.2199993      -6.57935776E-20
   23.3999996      -2.03753116E-20
   23.5799999       3.37219208E-20
   23.7600002       9.39398584E-20
   23.9400005       1.57846521E-19
   24.1200008       2.24676239E-19
   24.2999992       2.95760987E-19
   24.4799995       3.73473313E-19
   24.6599998       4.59362966E-19
   24.8400002       5.52751450E-19
   25.0200005       6.50679295E-19
   25.2000008       7.49056661E-19
   25.3799992       8.44006035E-19
   25.5599995       9.32426731E-19
   25.7399998       1.01171499E-18
   25.9200001       1.07949851E-18
   26.1000004       1.13425177E-18
   26.2800007       1.17660941E-18
   26.4599991       1.20997168E-18
   26.6399994       1.23891204E-18
   26.8199997       1.26542028E-18
   27.0000000       1.28521037E-18
   27.1800003       1.28730510E-18
   27.3600006       1.25859046E-18
   27.5400009       1.19159141E-18
   27.7199993       1.09073649E-18
   27.8999996       9.72361253E-19
   28.0799999       8.57254418E-19
   28.2600002       7.59534558E-19
   28.4400005       6.78524831E-19
   28.6200008       5.98744967E-19
   28.7999992       4.98015565E-19
   28.9799995       3.58557541E-19
   29.1599998       1.74552855E-19
   29.3400002      -4.72232533E-20
   29.5200005      -2.92072770E-19
   29.7000008      -5.42920926E-19
   29.8799992      -7.83764901E-19
   30.0599995      -1.00192769E-18
   30.2399998      -1.19212805E-18
   30.4200001      -1.36299968E-18
   30.6000004      -1.54148995E-18
   30.7800007      -1.76774949E-18
   30.9599991      -2.07707885E-18
   31.1399994      -2.47524865E-18
   31.3199997      -2.92220246E-18
   31.5000000      -3.33871581E-18
   31.6800003      -3.63854004E-18
   31.8600006      -3.77138731E-18
   32.0400009      -3.75181291E-18
   32.2200012      -3.65440040E-18
   32.4000015      -3.57504152E-18
   32.5800018      -3.57927751E-18
   32.7599983      -3.66707570E-18
   32.9399986      -3.77299163E-18
   33.1199989      -3.79859783E-18
   33.2999992      -3.65598197E-18
   33.4799995      -3.29907153E-18
   33.6599998      -2.73298531E-18
   33.8400002      -2.00799334E-18
   34.0200005      -1.21021476E-18
   34.2000008      -4.52605779E-19
   34.3800011       1.42493376E-19
   34.5600014       4.79023705E-19
   34.7400017       5.35211861E-19
   34.9199982       3.96860811E-19
   35.0999985       2.42638595E-19
   35.2799988       2.69293405E-19
   35.4599991       5.84639987E-19
   35.6399994       1.12753744E-18
   35.8199997       1.67030492E-18
   36.0000000       1.91589175E-18
   36.1800003       1.64453566E-18
   36.3600006       8.31113753E-19
   36.5400009      -3.30818659E-19
   36.7200012      -1.50797373E-18
   36.9000015      -2.36162319E-18
   37.0800018      -2.66688654E-18
   37.2599983      -2.36927957E-18
   37.4399986      -1.57584483E-18
   37.6199989      -5.09092857E-19
   37.7999992       5.50843868E-19
   37.9799995       1.33389832E-18
   38.1599998       1.66723360E-18
   38.3400002       1.57087202E-18
   38.5200005       1.31237943E-18
   38.7000008       1.35597939E-18
   38.8800011       2.18131891E-18
   39.0600014       4.03087139E-18
   39.2400017       6.71711065E-18
   39.4199982       9.61932636E-18
   39.5999985       1.19079746E-17
   39.7799988       1.29011233E-17
   39.9599991       1.23701858E-17
   40.1399994       1.06336938E-17
   40.3199997       8.39800824E-18
   40.5000000       6.44318938E-18
   40.6800003       5.31972177E-18
   40.8600006       5.18220837E-18
   41.0400009       5.78399260E-18
   41.2200012       6.57670212E-18
   41.4000015       6.85422742E-18
   41.5800018       5.93009917E-18
   41.7599983       3.36687904E-18
   41.9399986      -7.67825647E-19
   42.1199989      -5.73666629E-18
   42.2999992      -1.02237307E-17
   42.4799995      -1.27627856E-17
   42.6599998      -1.23826175E-17
   42.8400002      -9.15595053E-18
   43.0200005      -4.30951669E-18
   43.2000008       2.46964595E-19
   43.3800011       2.78397706E-18
   43.5600014       2.56720983E-18
   43.7400017       1.89700445E-19
   43.9199982      -2.74094506E-18
   44.0999985      -4.35812389E-18
   44.2799988      -3.31538001E-18
   44.4599991       7.71556232E-19
   44.6399994       7.31963190E-18
   44.8199997       1.50580951E-17
   45.0000000       2.23758196E-17
   45.1800003       2.76450097E-17
   45.3600006       2.95816231E-17
   45.5400009       2.76991652E-17
   45.7200012       2.27281290E-17
   45.9000015       1.66808928E-17
   46.0800018       1.22744016E-17
   46.2599983       1.17598754E-17
   46.4399986       1.56652143E-17
   46.6199989       2.21872538E-17
   46.7999992       2.77343469E-17
   46.9799995       2.84897447E-17
   47.1599998       2.22273721E-17
   47.3400002       9.40190690E-18
   47.5200005      -7.07451761E-18
   47.7000008      -2.32056935E-17
   47.8800011      -3.56501080E-17
   48.0600014      -4.29397066E-17
   48.2400017      -4.57261770E-17
   48.4199982      -4.62111728E-17
   48.5999985      -4.72634789E-17
   48.7799988      -5.16302018E-17
   48.9599991      -6.13088469E-17
   49.1399994      -7.69422098E-17
   49.3199997      -9.72422874E-17
   49.5000000      -1.18789131E-16
   49.6800003      -1.36688552E-16
   49.8600006      -1.46227890E-16
   50.0400009      -1.44973011E-16
   50.2200012      -1.34204774E-16
   50.4000015      -1.18702059E-16
   50.5800018      -1.04713211E-16
   50.7599983      -9.70367032E-17
   50.9399986      -9.67313611E-17
   51.1199989      -1.00654884E-16
   51.2999992      -1.02981498E-16
   51.4799995      -9.77710014E-17
   51.6599998      -8.12478040E-17
   51.8400002      -5.28808922E-17
   52.0200005      -1.52042480E-17
   52.2000008       2.70883039E-17
   52.3800011       6.82560589E-17
   52.5600014       1.02725509E-16
   52.7400017       1.26547172E-16
   52.9199982       1.38965297E-16
   53.0999985       1.43388358E-16
   53.2799988       1.46789751E-16
   53.4599991       1.57129138E-16
   53.6399994       1.79603238E-16
   53.8199997       2.13590779E-16
   54.0000000       2.52158214E-16
   54.1800003       2.84717367E-16
   54.3600006       3.01597119E-16
   54.5400009       2.98128334E-16
   54.7200012       2.76166172E-16
   54.9000015       2.42570172E-16
   55.0800018       2.05905967E-16
   55.2599983       1.73340978E-16
   55.4399986       1.49024092E-16
   55.6199989       1.33887877E-16
   55.7999992       1.25964136E-16
   55.9799995       1.20593404E-16
   56.1599998       1.10900495E-16
   56.3400002       8.94804613E-17
   56.5200005       5.15956951E-17
   56.7000008      -1.34823926E-18
   56.8800011      -6.04021842E-17
   57.0600014      -1.11571855E-16
   57.2400017      -1.41808112E-16
   57.4199982      -1.45550555E-16
   57.5999985      -1.27961797E-16
   57.7799988      -1.02617664E-16
   57.9599991      -8.47178994E-17
   58.1399994      -8.36570436E-17
   58.3199997      -9.91042908E-17
   58.5000000      -1.22366721E-16
   58.6800003      -1.41461067E-16
   58.8600006      -1.46365123E-16
   59.0400009      -1.31608737E-16
   59.2200012      -9.58968616E-17
   59.4000015      -4.06784363E-17
   59.5800018       3.02755218E-17
   59.7599983       1.10077993E-16
   59.9399986       1.88556324E-16
   60.1199989       2.54754106E-16
   60.2999992       3.02047079E-16
   60.4799995       3.33008436E-16
   60.6599998       3.60126222E-16
   60.8400002       4.00507724E-16
   61.0200005       4.66692919E-16
   61.2000008       5.58791976E-16
   61.3800011       6.62906143E-16
   61.5600014       7.57085248E-16
   61.7400017       8.21387860E-16
   61.9199982       8.46197190E-16
   62.0999985       8.34439844E-16
   62.2799988       7.97522124E-16
   62.4599991       7.48550226E-16
   62.6399994       6.97161161E-16
   62.8199997       6.47924512E-16
   63.0000000       6.01071732E-16
   63.1800003       5.52982124E-16
   63.3600006       4.95327768E-16
   63.5400009       4.14448271E-16
   63.7200012       2.93688690E-16
   63.9000015       1.19663561E-16
   64.0800018      -1.10104893E-16
   64.2600021      -3.83041534E-16
   64.4400024      -6.74562957E-16
   64.6200027      -9.57727660E-16
   64.8000031      -1.21446811E-15
   64.9800034      -1.44209604E-15
   65.1600037      -1.65169424E-15
   65.3399963      -1.86008287E-15
   65.5199966      -2.08061933E-15
   65.6999969      -2.31779173E-15
   65.8799973      -2.56704854E-15
   66.0599976      -2.81763731E-15
   66.2399979      -3.05525398E-15
   66.4199982      -3.26338628E-15
   66.5999985      -3.42498132E-15
   66.7799988      -3.52659224E-15
   66.9599991      -3.56462296E-15
   67.1399994      -3.54988141E-15
   67.3199997      -3.50575523E-15
   67.5000000      -3.45857571E-15
   67.6800003      -3.42423403E-15
   67.8600006      -3.39875803E-15
   68.0400009      -3.35903854E-15
   68.2200012      -3.27380055E-15
   68.4000015      -3.11836471E-15
   68.5800018      -2.88453873E-15
   68.7600021      -2.58072813E-15
   68.9400024      -2.22425050E-15
   69.1200027      -1.83259834E-15
   69.3000031      -1.41958423E-15
   69.4800034      -9.96952379E-16
   69.6600037      -5.76833037E-16
   69.8399963      -1.69922208E-16
   70.0199966       2.21049143E-16
   70.1999969       6.07147340E-16
   70.3799973       1.01137237E-15
   70.5599976       1.45690937E-15
   70.7399979       1.95131022E-15
   70.9199982       2.47725903E-15
   71.0999985       2.99775971E-15
   71.2799988       3.47431930E-15
   71.4599991       3.88745009E-15
   71.6399994       4.24651794E-15
   71.8199997       4.58270066E-15
   72.0000000       4.92999264E-15
   72.1800003       5.30674188E-15
   72.3600006       5.70883181E-15
   72.5400009       6.11658288E-15
   72.7200012       6.50783333E-15
   72.9000015       6.86663225E-15
   73.0800018       7.18243621E-15
   73.2600021       7.44374756E-15
   73.4400024       7.63514567E-15
   73.6200027       7.74341088E-15
   73.8000031       7.76953592E-15
   73.9800034       7.73641354E-15
   74.1600037       7.68309959E-15
   74.3399963       7.64580981E-15
   74.5199966       7.63642215E-15
   74.6999969       7.63293745E-15
   74.8799973       7.58964221E-15
   75.0599976       7.46192743E-15
   75.2399979       7.23090936E-15
   75.4199982       6.91308439E-15
   75.5999985       6.55017736E-15
   75.7799988       6.18683622E-15
   75.9599991       5.85027149E-15
   76.1399994       5.54245421E-15
   76.3199997       5.24568859E-15
   76.5000000       4.93399614E-15
   76.6800003       4.58162451E-15
   76.8600006       4.16573768E-15
   77.0400009       3.66714910E-15
   77.2200012       3.07467878E-15
   77.4000015       2.39401813E-15
   77.5800018       1.65519195E-15
   77.7600021       9.10271051E-16
   77.9400024       2.17843427E-16
   78.1200027      -3.80127979E-16
   78.3000031      -8.76887153E-16
   78.4800034      -1.30401929E-15
   78.6600037      -1.71687416E-15
   78.8399963      -2.17015622E-15
   79.0199966      -2.69637967E-15
   79.1999969      -3.29669564E-15
   79.3799973      -3.94548667E-15
   79.5599976      -4.60313152E-15
   79.7399979      -5.22973558E-15
   79.9199982      -5.79585852E-15
   80.0999985      -6.29012215E-15
   80.2799988      -6.72434215E-15
   80.4599991      -7.13446619E-15
   80.6399994      -7.57361127E-15
   80.8199997      -8.09558854E-15
   81.0000000      -8.73323325E-15
   81.1800003      -9.48159279E-15
   81.3600006      -1.02961090E-14
   81.5400009      -1.11089413E-14
   81.7200012      -1.18563073E-14
   81.9000015      -1.25031296E-14
   82.0800018      -1.30531284E-14
   82.2600021      -1.35415649E-14
   82.4400024      -1.40177261E-14
   82.6200027      -1.45280719E-14
   82.8000031      -1.51068580E-14
   82.9800034      -1.57732900E-14
   83.1600037      -1.65296108E-14
   83.3399963      -1.73569807E-14
   83.5199966      -1.82125772E-14
   83.6999969      -1.90355798E-14
   83.8799973      -1.97660339E-14
   84.0599976      -2.03704952E-14
   84.2399979      -2.08595416E-14
   84.4199982      -2.12829174E-14
   84.5999985      -2.16999626E-14
   84.7799988      -2.21395151E-14
   84.9599991      -2.25726810E-14
   85.1399994      -2.29163697E-14
   85.3199997      -2.30675650E-14
   85.5000000      -2.29493091E-14
   85.6800003      -2.25423623E-14
   85.8600006      -2.18861523E-14
   86.0400009      -2.10522670E-14
   86.2200012      -2.01098361E-14
   86.4000015      -1.91037117E-14
   86.5800018      -1.80536348E-14
   86.7600021      -1.69659056E-14
   86.9400024      -1.58415016E-14
   87.1200027      -1.46713747E-14
   87.3000031      -1.34246591E-14
   87.4800034      -1.20457470E-14
   87.6600037      -1.04719700E-14
   87.8399963      -8.66731037E-15
   88.0199966      -6.65132156E-15
   88.1999969      -4.50037075E-15
   88.3799973      -2.31401312E-15
   88.5599976      -1.63381022E-16
   88.7399979       1.94655117E-15
   88.9199982       4.07486926E-15
   89.0999985       6.30126190E-15
   89.2799988       8.66666409E-15
   89.4599991       1.11343472E-14
   89.6399994       1.35949762E-14
   89.8199997       1.59113106E-14
   90.0000000       1.79744491E-14
   90.1800003       1.97396217E-14
   90.3600006       2.12266812E-14
   90.5400009       2.24950182E-14
   90.7200012       2.36163255E-14
   90.9000015       2.46629347E-14
   91.0800018       2.57106975E-14
   91.2600021       2.68401431E-14
   91.4400024       2.81208992E-14
   91.6200027       2.95812399E-14
   91.8000031       3.11829962E-14
   91.9800034       3.28256472E-14
   92.1600037       3.43871490E-14
   92.3399963       3.57833067E-14
   92.5199966       3.70115824E-14
   92.6999969       3.81517870E-14
   92.8799973       3.93219630E-14
   93.0599976       4.06153823E-14
   93.2399979       4.20551282E-14
   93.4199982       4.35895386E-14
   93.5999985       4.51253652E-14
   93.7799988       4.65745877E-14
   93.9599991       4.78886069E-14
   94.1399994       4.90685983E-14
   94.3199997       5.01586247E-14
   94.5000000       5.12348851E-14
   94.6800003       5.23970685E-14
   94.8600006       5.37557127E-14
   95.0400009       5.54062411E-14
   95.2200012       5.73907648E-14
   95.4000015       5.96643503E-14
   95.5800018       6.20886128E-14
   95.7600021       6.44642556E-14
   95.9400024       6.65911147E-14
   96.1200027       6.83265971E-14
   96.3000031       6.96139042E-14
   96.4800034       7.04713658E-14
   96.6600037       7.09576170E-14
   96.8399963       7.11380485E-14
   97.0199966       7.10689103E-14
   97.1999969       7.07962199E-14
   97.3799973       7.03547396E-14
   97.5599976       6.97576423E-14
   97.7399979       6.89836101E-14
   97.9199982       6.79788664E-14
   98.0999985       6.66839969E-14
   98.2799988       6.50735772E-14
   98.4599991       6.31790423E-14
   98.6399994       6.10703504E-14
   98.8199997       5.87999362E-14
   99.0000000       5.63440150E-14
   99.1800003       5.35850525E-14
   99.3600006       5.03545874E-14
   99.5400009       4.65129915E-14
   99.7200012       4.20141013E-14
   99.9000015       3.69115783E-14
   100.080002       3.13057279E-14
   100.260002       2.52735760E-14
   100.440002       1.88365304E-14
   100.620003       1.19887332E-14
