  -7.19999981         1.07981530E-17
  -7.01949978         1.07981530E-17
  -6.83900023         1.07981539E-17
  -6.65850019         1.07981555E-17
  -6.47800016         1.07981563E-17
  -6.29750013         1.07981580E-17
  -6.11700010         1.07981588E-17
  -5.93650007         1.07981596E-17
  -5.75600004         1.07981613E-17
  -5.57550001         1.07981654E-17
  -5.39499998         1.07981687E-17
  -5.21449995         1.07981729E-17
  -5.03399992         1.07981770E-17
  -4.85349989         1.07981820E-17
  -4.67299986         1.07981853E-17
  -4.49249983         1.07981894E-17
  -4.31199980         1.07981927E-17
  -4.13149977         1.07981969E-17
  -3.95099998         1.07982027E-17
  -3.77049994         1.07982084E-17
  -3.58999991         1.07982159E-17
  -3.40949988         1.07982225E-17
  -3.22900009         1.07982300E-17
  -3.04850006         1.07982366E-17
  -2.86800003         1.07982424E-17
  -2.68750000         1.07982490E-17
  -2.50699997         1.07982556E-17
  -2.32649994         1.07982639E-17
  -2.14599991         1.07982730E-17
  -1.96550000         1.07982829E-17
  -1.78499997         1.07982920E-17
  -1.60450006         1.07983003E-17
  -1.42400002         1.07983077E-17
  -1.24349999         1.07983160E-17
  -1.06299996         1.07983234E-17
 -0.882499993         1.07983317E-17
 -0.702000022         1.07983408E-17
 -0.521499991         1.07983516E-17
 -0.340999991         1.07983631E-17
 -0.160500005         1.07983739E-17
   1.99999996E-02     1.07983846E-17
  0.200499997         1.07983937E-17
  0.381000012         1.07984020E-17
  0.561500013         1.07984095E-17
  0.741999984         1.07984169E-17
  0.922500014         1.07984252E-17
   1.10300004         1.07984351E-17
   1.28349996         1.07984459E-17
   1.46399999         1.07984566E-17
   1.64450002         1.07984674E-17
   1.82500005         1.07984765E-17
   2.00550008         1.07984856E-17
   2.18600011         1.07984930E-17
   2.36649990         1.07985013E-17
   2.54699993         1.07985095E-17
   2.72749996         1.07985211E-17
   2.90799999         1.07985335E-17
   3.08850002         1.07985468E-17
   3.26900005         1.07985600E-17
   3.44950008         1.07985699E-17
   3.63000011         1.07985790E-17
   3.81049991         1.07985856E-17
   3.99099994         1.07985923E-17
   4.17150021         1.07986014E-17
   4.35200024         1.07986129E-17
   4.53249979         1.07986270E-17
   4.71299982         1.07986394E-17
   4.89349985         1.07986502E-17
   5.07399988         1.07986576E-17
   5.25449991         1.07986642E-17
   5.43499994         1.07986725E-17
   5.61549997         1.07986857E-17
   5.79600000         1.07987048E-17
   5.97650003         1.07987254E-17
   6.15700006         1.07987428E-17
   6.33750010         1.07987519E-17
   6.51800013         1.07987486E-17
   6.69850016         1.07987354E-17
   6.87900019         1.07987163E-17
   7.05950022         1.07987031E-17
   7.23999977         1.07987139E-17
   7.42049980         1.07987643E-17
   7.60099983         1.07988611E-17
   7.78149986         1.07989877E-17
   7.96199989         1.07991010E-17
   8.14249992         1.07991374E-17
   8.32299995         1.07990389E-17
   8.50349998         1.07987941E-17
   8.68400002         1.07984649E-17
   8.86450005         1.07981878E-17
   9.04500008         1.07981373E-17
   9.22550011         1.07984425E-17
   9.40600014         1.07991084E-17
   9.58650017         1.07999621E-17
   9.76700020         1.08006759E-17
   9.94750023         1.08008612E-17
   10.1280003         1.08002259E-17
   10.3085003         1.07987395E-17
   10.4890003         1.07967220E-17
   10.6695004         1.07948054E-17
   10.8500004         1.07937425E-17
   11.0305004         1.07941222E-17
   11.2110004         1.07960925E-17
   11.3915005         1.07992408E-17
   11.5719995         1.08027124E-17
   11.7524996         1.08055993E-17
   11.9329996         1.08074439E-17
   12.1134996         1.08086375E-17
   12.2939997         1.08104317E-17
   12.4744997         1.08143592E-17
   12.6549997         1.08211098E-17
   12.8354998         1.08291797E-17
   13.0159998         1.08339890E-17
   13.1964998         1.08282723E-17
   13.3769999         1.08044239E-17
   13.5574999         1.07588760E-17
   13.7379999         1.06977267E-17
   13.9184999         1.06419739E-17
   14.0990000         1.06302569E-17
   14.2795000         1.07173358E-17
   14.4600000         1.09675621E-17
   14.6405001         1.14440818E-17
   14.8210001         1.21957690E-17
   15.0015001         1.32443685E-17
   15.1820002         1.45738570E-17
   15.3625002         1.61227014E-17
   15.5430002         1.77783117E-17
   15.7235003         1.93723813E-17
   15.9040003         2.06763224E-17
   16.0844994         2.13978770E-17
   16.2649994         2.11819911E-17
   16.4454994         1.96200690E-17
   16.6259995         1.62704292E-17
   16.8064995         1.06889338E-17
   16.9869995         2.46351323E-18
   17.1674995        -8.75846130E-18
   17.3479996        -2.32624182E-17
   17.5284996        -4.12882968E-17
   17.7089996        -6.30847838E-17
   17.8894997        -8.89906182E-17
   18.0699997        -1.19529676E-16
   18.2504997        -1.55501538E-16
   18.4309998        -1.98048095E-16
   18.6114998        -2.48679132E-16
   18.7919998        -3.09244556E-16
   18.9724998        -3.81847191E-16
   19.1529999        -4.68696470E-16
   19.3334999        -5.71907487E-16
   19.5139999        -6.93250728E-16
   19.6945000        -8.33855656E-16
   19.8750000        -9.93864626E-16
   20.0555000        -1.17203229E-15
   20.2360001        -1.36527004E-15
   20.4165001        -1.56814566E-15
   20.5970001        -1.77237430E-15
   20.7775002        -1.96635353E-15
   20.9580002        -2.13481271E-15
   21.1385002        -2.25864469E-15
   21.3190002        -2.31497217E-15
   21.4995003        -2.27747657E-15
   21.6800003        -2.11699559E-15
   21.8605003        -1.80237642E-15
   22.0410004        -1.30157359E-15
   22.2215004        -5.82980908E-16
   22.4020004         3.83007494E-16
   22.5825005         1.62221114E-15
   22.7630005         3.15467384E-15
   22.9435005         4.99252231E-15
   23.1240005         7.13775183E-15
   23.3045006         9.58006545E-15
   23.4850006         1.22949052E-14
   23.6655006         1.52418395E-14
   23.8460007         1.83634846E-14
   24.0265007         2.15850727E-14
   24.2070007         2.48147992E-14
   24.3875008         2.79450298E-14
   24.5680008         3.08543813E-14
   24.7485008         3.34107199E-14
   24.9290009         3.54750138E-14
   25.1095009         3.69060522E-14
   25.2900009         3.75659519E-14
   25.4705009         3.73263296E-14
   25.6509991         3.60749537E-14
   25.8314991         3.37226313E-14
   26.0119991         3.02099959E-14
   26.1924992         2.55137606E-14
   26.3729992         1.96519741E-14
   26.5534992         1.26878175E-14
   26.7339993         4.73153705E-15
   26.9144993        -4.05978953E-15
   27.0949993        -1.34848492E-14
   27.2754993        -2.33030114E-14
   27.4559994        -3.32414048E-14
   27.6364994        -4.30038763E-14
   27.8169994        -5.22815162E-14
   27.9974995        -6.07643683E-14
   28.1779995        -6.81539582E-14
   28.3584995        -7.41762608E-14
   28.5389996        -7.85946557E-14
   28.7194996        -8.12222265E-14
   28.8999996        -8.19327787E-14
   29.0804996        -8.06699678E-14
   29.2609997        -7.74536346E-14
   29.4414997        -7.23829972E-14
   29.6219997        -6.56361020E-14
   29.8024998        -5.74653037E-14
   29.9829998        -4.81888055E-14
   30.1634998        -3.81785905E-14
   30.3439999        -2.78452476E-14
   30.5244999        -1.76206841E-14
   30.7049999        -7.93944141E-15
   30.8855000         7.80299139E-16
   31.0660000         8.15540855E-15
   31.2465000         1.38556879E-14
   31.4270000         1.76203504E-14
   31.6075001         1.92727981E-14
   31.7880001         1.87329315E-14
   31.9685001         1.60261446E-14
   32.1489983         1.12882251E-14
   32.3294983         4.76531969E-15
   32.5099983        -3.19146027E-15
   32.6904984        -1.21368607E-14
   32.8709984        -2.15474594E-14
   33.0514984        -3.08420790E-14
   33.2319984        -3.94058328E-14
   33.4124985        -4.66165938E-14
   33.5929985        -5.18725891E-14
   33.7734985        -5.46196795E-14
   33.9539986        -5.43770961E-14
   34.1344986        -5.07605941E-14
   34.3149986        -4.35024026E-14
   34.4954987        -3.24675284E-14
   34.6759987        -1.76660681E-14
   34.8564987         7.39079816E-16
   35.0369987         2.24299085E-14
   35.2174988         4.69372771E-14
   35.3979988         7.36518526E-14
   35.5784988         1.01841963E-13
   35.7589989         1.30677953E-13
   35.9394989         1.59261371E-13
   36.1199989         1.86657805E-13
   36.3004990         2.11930964E-13
   36.4809990         2.34176746E-13
   36.6614990         2.52555572E-13
   36.8419991         2.66321606E-13
   37.0224991         2.74848314E-13
   37.2029991         2.77649485E-13
   37.3834991         2.74395876E-13
   37.5639992         2.64926834E-13
   37.7444992         2.49257321E-13
   37.9249992         2.27579023E-13
   38.1054993         2.00254581E-13
   38.2859993         1.67804491E-13
   38.4664993         1.30885672E-13
   38.6469994         9.02626633E-14
   38.8274994         4.67730374E-14
   39.0079994         1.28946388E-15
   39.1884995        -4.53187767E-14
   39.3689995        -9.22222707E-14
   39.5494995        -1.38663495E-13
   39.7299995        -1.83983349E-13
   39.9104996        -2.27640850E-13
   40.0909996        -2.69225939E-13
   40.2714996        -3.08465764E-13
   40.4519997        -3.45224365E-13
   40.6324997        -3.79496564E-13
   40.8129997        -4.11395364E-13
   40.9934998        -4.41132347E-13
   41.1739998        -4.68991003E-13
   41.3544998        -4.95293205E-13
   41.5349998        -5.20360935E-13
   41.7154999        -5.44476790E-13
   41.8959999        -5.67845955E-13
   42.0764999        -5.90564110E-13
   42.2570000        -6.12590978E-13
   42.4375000        -6.33730969E-13
   42.6180000        -6.53618652E-13
   42.7985001        -6.71709758E-13
   42.9790001        -6.87277492E-13
   43.1595001        -6.99413997E-13
   43.3400002        -7.07040437E-13
   43.5205002        -7.08924835E-13
   43.7010002        -7.03710094E-13
   43.8815002        -6.89953140E-13
   44.0620003        -6.66175773E-13
   44.2425003        -6.30928036E-13
   44.4230003        -5.82859661E-13
   44.6035004        -5.20796297E-13
   44.7840004        -4.43811031E-13
   44.9645004        -3.51284729E-13
   45.1450005        -2.42950029E-13
   45.3255005        -1.18918073E-13
   45.5060005         2.03077369E-14
   45.6865005         1.73827302E-13
   45.8670006         3.40344072E-13
   46.0475006         5.18168841E-13
   46.2280006         7.05229982E-13
   46.4085007         8.99090589E-13
   46.5890007         1.09697776E-12
   46.7695007         1.29582239E-12
   46.9500008         1.49231387E-12
   47.1305008         1.68296800E-12
   47.3110008         1.86421083E-12
   47.4915009         2.03247488E-12
   47.6720009         2.18430330E-12
   47.8525009         2.31645085E-12
   48.0330009         2.42597435E-12
   48.2135010         2.51030381E-12
   48.3940010         2.56729664E-12
   48.5745010         2.59527534E-12
   48.7550011         2.59305923E-12
   48.9355011         2.55999085E-12
   49.1160011         2.49595613E-12
   49.2965012         2.40139549E-12
   49.4770012         2.27729250E-12
   49.6575012         2.12514771E-12
   49.8380013         1.94692569E-12
   50.0185013         1.74498729E-12
   50.1990013         1.52200951E-12
   50.3795013         1.28089314E-12
   50.5600014         1.02466798E-12
   50.7405014         7.56401615E-13
   50.9210014         4.79121408E-13
   51.1015015         1.95756226E-13
   51.2820015        -9.08983514E-14
   51.4625015        -3.78195820E-13
   51.6430016        -6.63649474E-13
   51.8235016        -9.44943451E-13
   52.0040016        -1.21995122E-12
   52.1845016        -1.48675842E-12
   52.3650017        -1.74367823E-12
   52.5455017        -1.98924969E-12
   52.7260017        -2.22221438E-12
   52.9065018        -2.44147411E-12
   53.0870018        -2.64603595E-12
   53.2675018        -2.83494864E-12
   53.4480019        -3.00724463E-12
   53.6285019        -3.16188352E-12
   53.8089981        -3.29771106E-12
   53.9894981        -3.41343360E-12
   54.1699982        -3.50761586E-12
   54.3504982        -3.57870526E-12
   54.5309982        -3.62506834E-12
   54.7114983        -3.64503653E-12
   54.8919983        -3.63695315E-12
   55.0724983        -3.59921966E-12
   55.2529984        -3.53035331E-12
   55.4334984        -3.42906693E-12
   55.6139984        -3.29437150E-12
   55.7944984        -3.12569957E-12
   55.9749985        -2.92302315E-12
   56.1554985        -2.68695461E-12
   56.3359985        -2.41881233E-12
   56.5164986        -2.12064567E-12
   56.6969986        -1.79523063E-12
   56.8774986        -1.44603784E-12
   57.0579987        -1.07718413E-12
   57.2384987        -6.93363823E-13
   57.4189987        -2.99775856E-13
   57.5994987         9.79603361E-14
   57.7799988         4.93879677E-13
   57.9604988         8.81751486E-13
   58.1409988         1.25516709E-12
   58.3214989         1.60766159E-12
   58.5019989         1.93288723E-12
   58.6824989         2.22483447E-12
   58.8629990         2.47808631E-12
   59.0434990         2.68806657E-12
   59.2239990         2.85124528E-12
   59.4044991         2.96527928E-12
   59.5849991         3.02908458E-12
   59.7654991         3.04285872E-12
   59.9459991         3.00805951E-12
   60.1264992         2.92736777E-12
   60.3069992         2.80461895E-12
   60.4874992         2.64471669E-12
   60.6679993         2.45352892E-12
   60.8484993         2.23776097E-12
   61.0289993         2.00481255E-12
   61.2094994         1.76260428E-12
   61.3899994         1.51935788E-12
   61.5704994         1.28332284E-12
   61.7509995         1.06245687E-12
   61.9314995         8.64100729E-13
   62.1119995         6.94687580E-13
   62.2924995         5.59529853E-13
   62.4729996         4.62700950E-13
   62.6534996         4.06993829E-13
   62.8339996         3.93927539E-13
   63.0144997         4.23765623E-13
   63.1949997         4.95533410E-13
   63.3754997         6.07041977E-13
   63.5559998         7.54930677E-13
   63.7364998         9.34739482E-13
   63.9169998         1.14101643E-12
   64.0975037         1.36745660E-12
   64.2779999         1.60708339E-12
   64.4585037         1.85246957E-12
   64.6389999         2.09600870E-12
   64.8195038         2.33021111E-12
   65.0000000         2.54800001E-12
   65.1804962         2.74295278E-12
   65.3610001         2.90946022E-12
   65.5414963         3.04280733E-12
   65.7220001         3.13920201E-12
   65.9024963         3.19580191E-12
   66.0830002         3.21076347E-12
   66.2634964         3.18331863E-12
   66.4440002         3.11384902E-12
   66.6244965         3.00391699E-12
   66.8050003         2.85623261E-12
   66.9854965         2.67455372E-12
   67.1660004         2.46353133E-12
   67.3464966         2.22850904E-12
   67.5270004         1.97528907E-12
   67.7074966         1.70986055E-12
   67.8880005         1.43810875E-12
   68.0684967         1.16554867E-12
   68.2490005         8.97101946E-13
   68.4294968         6.36960103E-13
   68.6100006         3.88504116E-13
   68.7904968         1.54260326E-13
   68.9710007        -6.41565726E-14
   69.1514969        -2.66123712E-13
   69.3320007        -4.52101057E-13
   69.5124969        -6.23674615E-13
   69.6930008        -7.83508729E-13
   69.8734970        -9.35196365E-13
   70.0540009        -1.08303785E-12
   70.2344971        -1.23178095E-12
   70.4150009        -1.38638059E-12
   70.5954971        -1.55177986E-12
   70.7760010        -1.73271217E-12
   70.9564972        -1.93352712E-12
   71.1370010        -2.15803677E-12
   71.3174973        -2.40942075E-12
   71.4980011        -2.69018228E-12
   71.6784973        -3.00215213E-12
   71.8590012        -3.34650515E-12
   72.0394974        -3.72372619E-12
   72.2200012        -4.13353596E-12
   72.4004974        -4.57481449E-12
   72.5810013        -5.04553257E-12
   72.7614975        -5.54278455E-12
   72.9420013        -6.06289801E-12
   73.1224976        -6.60157779E-12
   73.3030014        -7.15402130E-12
   73.4834976        -7.71497709E-12
   73.6640015        -8.27871799E-12
   73.8444977        -8.83901459E-12
   74.0250015        -9.38910321E-12
   74.2054977        -9.92171883E-12
   74.3860016        -1.04291766E-11
   74.5664978        -1.09035177E-11
   74.7470016        -1.13367111E-11
   74.9274979        -1.17209228E-11
   75.1080017        -1.20488550E-11
   75.2884979        -1.23140942E-11
   75.4690018        -1.25114138E-11
   75.6494980        -1.26369219E-11
   75.8300018        -1.26880320E-11
   76.0104980        -1.26632637E-11
   76.1910019        -1.25619576E-11
   76.3714981        -1.23840087E-11
   76.5520020        -1.21297096E-11
   76.7324982        -1.17996984E-11
   76.9130020        -1.13950125E-11
   77.0934982        -1.09171908E-11
   77.2740021        -1.03684058E-11
   77.4544983        -9.75158496E-12
   77.6350021        -9.07057068E-12
   77.8154984        -8.33020979E-12
   77.9960022        -7.53639252E-12
   78.1764984        -6.69598578E-12
   78.3570023        -5.81669218E-12
   78.5374985        -4.90686745E-12
   78.7180023        -3.97535694E-12
   78.8984985        -3.03135902E-12
   79.0790024        -2.08429107E-12
   79.2594986        -1.14359217E-12
   79.4400024        -2.18389787E-13
   79.6204987         6.82933094E-13
   79.8010025         1.55322532E-12
   79.9814987         2.38702027E-12
   80.1620026         3.18083494E-12
   80.3424988         3.93333066E-12
   80.5230026         4.64530497E-12
   80.7034988         5.31957031E-12
   80.8840027         5.96067596E-12
   81.0644989         6.57452868E-12
   81.2450027         7.16787393E-12
   81.4254990         7.74772954E-12
   81.6060028         8.32086396E-12
   81.7864990         8.89340337E-12
   81.9670029         9.47058491E-12
   82.1474991         1.00566040E-11
   82.3280029         1.06544929E-11
   82.5084991         1.12659075E-11
   82.6890030         1.18908789E-11
   82.8694992         1.25275415E-11
