  -7.19999981       0.00000000    
  -7.01999998       0.00000000    
  -6.84000015       0.00000000    
  -6.65999985       0.00000000    
  -6.48000002       0.00000000    
  -6.30000019       0.00000000    
  -6.11999989       0.00000000    
  -5.94000006       0.00000000    
  -5.76000023       0.00000000    
  -5.57999992       0.00000000    
  -5.40000010       4.20389539E-45
  -5.21999979      -2.04729706E-42
  -5.03999996       1.84032527E-41
  -4.86000013       1.64009374E-40
  -4.67999983       2.74974976E-38
  -4.50000000      -7.24340985E-38
  -4.32000017      -5.83740359E-37
  -4.13999987      -2.88582608E-36
  -3.96000004      -2.24108500E-35
  -3.77999997      -8.57397085E-35
  -3.59999990      -9.35773515E-35
  -3.42000008       3.69142465E-34
  -3.24000001       1.63996578E-33
  -3.05999994       2.71007027E-33
  -2.88000011       5.65595857E-34
  -2.70000005      -8.15281739E-33
  -2.51999998      -2.45092835E-32
  -2.33999991      -4.41966950E-32
  -2.16000009      -4.41478709E-32
  -1.98000002       4.81229814E-32
  -1.79999995       3.47675094E-31
  -1.62000000       8.23711774E-31
  -1.44000006       8.87483753E-31
  -1.25999999      -7.63174238E-31
  -1.08000004      -4.98729226E-30
 -0.899999976      -9.34637025E-30
 -0.720000029      -6.05405470E-30
 -0.540000021       1.37226481E-29
 -0.360000014       4.62363148E-29
 -0.180000007       6.12250421E-29
   4.44089210E-16   1.01468687E-29
  0.180000007      -1.26805057E-28
  0.360000014      -2.77177310E-28
  0.540000021      -2.66692884E-28
  0.720000029       7.05258152E-29
  0.899999976       6.94689335E-28
   1.08000004       1.23936779E-27
   1.25999999       1.13619082E-27
   1.44000006      -4.80197108E-29
   1.62000000      -2.32505196E-27
   1.79999995      -5.21128910E-27
   1.98000002      -7.54328519E-27
   2.16000009      -6.69236543E-27
   2.33999991       2.18189624E-27
   2.51999998       2.40725866E-26
   2.70000005       5.61743105E-26
   2.88000011       7.61282883E-26
   3.05999994       3.87295853E-26
   3.24000001      -1.00523670E-25
   3.42000008      -3.28724379E-25
   3.59999990      -5.14498435E-25
   3.77999997      -4.09532110E-25
   3.96000004       2.22043440E-25
   4.13999987       1.35646486E-24
   4.32000017       2.48372481E-24
   4.50000000       2.62959565E-24
   4.67999983       7.92368181E-25
   4.86000013      -3.28715361E-24
   5.03999996      -8.41798521E-24
   5.21999979      -1.18593672E-23
   5.40000010      -1.01820517E-23
   5.57999992      -9.50790186E-25
   5.76000023       1.54220240E-23
   5.94000006       3.45068649E-23
   6.11999989       4.80308217E-23
   6.30000019       4.56643873E-23
   6.48000002       1.83884881E-23
   6.65999985      -3.68193223E-23
   6.84000015      -1.11777665E-22
   7.01999998      -1.83334076E-22
   7.19999981      -2.14357515E-22
   7.38000011      -1.62974271E-22
   7.55999994      -9.55202877E-25
   7.73999977       2.63307710E-22
   7.92000008       5.67804863E-22
   8.10000038       7.98772532E-22
   8.27999973       8.19355213E-22
   8.46000004       5.21020035E-22
   8.64000034      -1.20124773E-22
   8.81999969      -1.00749215E-21
   9.00000000      -1.92914089E-21
   9.18000031      -2.60736417E-21
   9.35999966      -2.77516248E-21
   9.53999996      -2.24868363E-21
   9.72000027      -9.68089800E-22
   9.89999962       1.00057249E-21
   10.0799999       3.48329997E-21
   10.2600002       6.19973727E-21
   10.4399996       8.71886251E-21
   10.6199999       1.03724733E-20
   10.8000002       1.01793686E-20
   10.9799995       6.87539762E-21
   11.1599998      -8.46466633E-22
   11.3400002      -1.38257294E-20
   11.5200005      -3.16933767E-20
   11.6999998      -5.20776467E-20
   11.8800001      -7.00682919E-20
   12.0600004      -7.83240520E-20
   12.2399998      -6.81572397E-20
   12.4200001      -3.17112516E-20
   12.6000004       3.50345757E-20
   12.7799997       1.29163800E-19
   12.9600000       2.38750226E-19
   13.1400003       3.43065921E-19
   13.3199997       4.16031058E-19
   13.5000000       4.33138988E-19
   13.6800003       3.81089553E-19
   13.8599997       2.68418377E-19
   14.0400000       1.34868413E-19
   14.2200003       5.73318947E-20
   14.3999996       1.50863022E-19
   14.5799999       5.64233544E-19
   14.7600002       1.47035376E-18
   14.9399996       3.05229046E-18
   15.1199999       5.48552144E-18
   15.3000002       8.91674892E-18
   15.4799995       1.34395583E-17
   15.6599998       1.90678962E-17
   15.8400002       2.57099365E-17
   16.0200005       3.31468444E-17
   16.2000008       4.10225170E-17
   16.3799992       4.88502032E-17
   16.5599995       5.60393292E-17
   16.7399998       6.19408328E-17
   16.9200001       6.59032132E-17
   17.1000004       6.73257256E-17
   17.2800007       6.56928777E-17
   17.4599991       6.05754487E-17
   17.6399994       5.15892530E-17
   17.8199997       3.83102679E-17
   18.0000000       2.01530132E-17
   18.1800003      -3.77516670E-18
   18.3600006      -3.48287176E-17
   18.5400009      -7.49722030E-17
   18.7199993      -1.26908683E-16
   18.8999996      -1.94175739E-16
   19.0799999      -2.81195960E-16
   19.2600002      -3.93265857E-16
   19.4400005      -5.36462070E-16
   19.6200008      -7.17439818E-16
   19.7999992      -9.43095271E-16
   19.9799995      -1.22006965E-15
   20.1599998      -1.55408121E-15
   20.3400002      -1.94909417E-15
   20.5200005      -2.40635157E-15
   20.7000008      -2.92332733E-15
   20.8799992      -3.49266010E-15
   21.0599995      -4.10114761E-15
   21.2399998      -4.72887060E-15
   21.4200001      -5.34850908E-15
   21.6000004      -5.92491373E-15
   21.7800007      -6.41498624E-15
   21.9599991      -6.76793343E-15
   22.1399994      -6.92596988E-15
   22.3199997      -6.82553125E-15
   22.5000000      -6.39907049E-15
   22.6800003      -5.57746547E-15
   22.8600006      -4.29304419E-15
   23.0400009      -2.48316624E-15
   23.2199993      -9.42733377E-17
   23.3999996       2.91375438E-15
   23.5799999       6.56310943E-15
   23.7600002       1.08536481E-14
   23.9400005       1.57587888E-14
   24.1200008       2.12219463E-14
   24.2999992       2.71537621E-14
   24.4799995       3.34303745E-14
   24.6599998       3.98929852E-14
   24.8400002       4.63490228E-14
   25.0200005       5.25750741E-14
   25.2000008       5.83218166E-14
   25.3799992       6.33209576E-14
   25.5599995       6.72942333E-14
   25.7399998       6.99640541E-14
   25.9200001       7.10657187E-14
   26.1000004       7.03604316E-14
   26.2800007       6.76486116E-14
   26.4599991       6.27829020E-14
   26.6399994       5.56799818E-14
   26.8199997       4.63306456E-14
   27.0000000       3.48074027E-14
   27.1800003       2.12691498E-14
   27.3600006       5.96237079E-15
   27.5400009      -1.07813513E-14
   27.7199993      -2.85518103E-14
   27.8999996      -4.68706495E-14
   28.0799999      -6.52058296E-14
   28.2600002      -8.29897403E-14
   28.4400005      -9.96404836E-14
   28.6200008      -1.14585506E-13
   28.7999992      -1.27286623E-13
   28.9799995      -1.37265131E-13
   29.1599998      -1.44125692E-13
   29.3400002      -1.47577805E-13
   29.5200005      -1.47453379E-13
   29.7000008      -1.43719536E-13
   29.8799992      -1.36485699E-13
   30.0599995      -1.26004431E-13
   30.2399998      -1.12665763E-13
   30.4200001      -9.69849946E-14
   30.6000004      -7.95845255E-14
   30.7800007      -6.11700293E-14
   30.9599991      -4.25019415E-14
   31.1399994      -2.43632171E-14
   31.3199997      -7.52435799E-15
   31.5000000       7.29271566E-15
   31.6800003       1.94504972E-14
   31.8600006       2.84295801E-14
   32.0400009       3.38583802E-14
   32.2200012       3.55371386E-14
   32.4000015       3.34547114E-14
   32.5800018       2.77969769E-14
   32.7599983       1.89461738E-14
   32.9399986       7.47089666E-15
   33.1199989      -5.89301489E-15
   33.2999992      -2.02700676E-14
   33.4799995      -3.46801140E-14
   33.6599998      -4.80793451E-14
   33.8400002      -5.94055173E-14
   34.0200005      -6.76255858E-14
   34.2000008      -7.17838129E-14
   34.3800011      -7.10484392E-14
   34.5600014      -6.47549980E-14
   34.7400017      -5.24443329E-14
   34.9199982      -3.38934203E-14
   35.0999985      -9.13716717E-15
   35.2799988       2.15203425E-14
   35.4599991       5.75062052E-14
   35.6399994       9.79910123E-14
   35.8199997       1.41912808E-13
   36.0000000       1.88011580E-13
   36.1800003       2.34872722E-13
   36.3600006       2.80977607E-13
   36.5400009       3.24759046E-13
   36.7200012       3.64659502E-13
   36.9000015       3.99189714E-13
   37.0800018       4.26985677E-13
   37.2599983       4.46861948E-13
   37.4399986       4.57859011E-13
   37.6199989       4.59282569E-13
   37.7999992       4.50733255E-13
   37.9799995       4.32124632E-13
   38.1599998       4.03687365E-13
   38.3400002       3.65959053E-13
   38.5200005       3.19759437E-13
   38.7000008       2.66151196E-13
   38.8800011       2.06388834E-13
   39.0600014       1.41857974E-13
   39.2400017       7.40088194E-14
   39.4199982       4.28709506E-15
   39.5999985      -6.59335935E-14
   39.7799988      -1.35414818E-13
   39.9599991      -2.03108729E-13
   40.1399994      -2.68203184E-13
   40.3199997      -3.30154496E-13
   40.5000000      -3.88706103E-13
   40.6800003      -4.43891885E-13
   40.8600006      -4.96023253E-13
   41.0400009      -5.45660359E-13
   41.2200012      -5.93567838E-13
   41.4000015      -6.40657015E-13
   41.5800018      -6.87917930E-13
   41.7599983      -7.36343929E-13
   41.9399986      -7.86852029E-13
   42.1199989      -8.40204154E-13
   42.2999992      -8.96929666E-13
   42.4799995      -9.57252832E-13
   42.6599998      -1.02102756E-12
   42.8400002      -1.08768159E-12
   43.0200005      -1.15617357E-12
   43.2000008      -1.22496707E-12
   43.3800011      -1.29202410E-12
   43.5600014      -1.35482402E-12
   43.7400017      -1.41040727E-12
   43.9199982      -1.45544677E-12
   44.0999985      -1.48634566E-12
   44.2799988      -1.49935717E-12
   44.4599991      -1.49072269E-12
   44.6399994      -1.45681817E-12
   44.8199997      -1.39430383E-12
   45.0000000      -1.30026805E-12
   45.1800003      -1.17236017E-12
   45.3600006      -1.00890823E-12
   45.5400009      -8.09020548E-13
   45.7200012      -5.72669082E-13
   45.9000015      -3.00754322E-13
   46.0800018       4.85208043E-15
   46.2599983       3.41288548E-13
   46.4399986       7.04713089E-13
   46.6199989       1.09034353E-12
   46.7999992       1.49253136E-12
   46.9799995       1.90486797E-12
   47.1599998       2.32032275E-12
   47.3400002       2.73140885E-12
   47.5200005       3.13037075E-12
   47.7000008       3.50938679E-12
   47.8800011       3.86077368E-12
   48.0600014       4.17718941E-12
   48.2400017       4.45182476E-12
   48.4199982       4.67857784E-12
   48.5999985       4.85220674E-12
   48.7799988       4.96846618E-12
   48.9599991       5.02420761E-12
   49.1399994       5.01746127E-12
   49.3199997       4.94747559E-12
   49.5000000       4.81472067E-12
   49.6800003       4.62084841E-12
   49.8600006       4.36861571E-12
   50.0400009       4.06176308E-12
   50.2200012       3.70487321E-12
   50.4000015       3.30319648E-12
   50.5800018       2.86247740E-12
   50.7599983       2.38877212E-12
   50.9399986       1.88828272E-12
   51.1199989       1.36720496E-12
   51.2999992       8.31599004E-13
   51.4799995       2.87285956E-13
   51.6599998      -2.60237144E-13
   51.8400002      -8.05859990E-13
   52.0200005      -1.34490260E-12
   52.2000008      -1.87314162E-12
   52.3800011      -2.38681058E-12
   52.5600014      -2.88257612E-12
   52.7400017      -3.35749159E-12
   52.9199982      -3.80892583E-12
   53.0999985      -4.23447388E-12
   53.2799988      -4.63185826E-12
   53.4599991      -4.99882904E-12
   53.6399994      -5.33307166E-12
   53.8199997      -5.63213365E-12
   54.0000000      -5.89337520E-12
   54.1800003      -6.11395049E-12
   54.3600006      -6.29082333E-12
   54.5400009      -6.42081180E-12
   54.7200012      -6.50067326E-12
   54.9000015      -6.52721106E-12
   55.0800018      -6.49741805E-12
   55.2599983      -6.40863491E-12
   55.4399986      -6.25873398E-12
   55.6199989      -6.04631102E-12
   55.7999992      -5.77087076E-12
   55.9799995      -5.43300084E-12
   56.1599998      -5.03451144E-12
   56.3400002      -4.57852983E-12
   56.5200005      -4.06955676E-12
   56.7000008      -3.51345754E-12
   56.8800011      -2.91741045E-12
   57.0600014      -2.28980571E-12
   57.2400017      -1.64010277E-12
   57.4199982      -9.78654874E-13
   57.5999985      -3.16502168E-13
   57.7799988       3.34865463E-13
   57.9599991       9.63767694E-13
   58.1399994       1.55863159E-12
   58.3199997       2.10831266E-12
   58.5000000       2.60244170E-12
   58.6800003       3.03177904E-12
   58.8600006       3.38855550E-12
   59.0400009       3.66677652E-12
   59.2200012       3.86246460E-12
   59.4000015       3.97383081E-12
   59.5800018       4.00135350E-12
   59.7599983       3.94778177E-12
   59.9399986       3.81804527E-12
   60.1199989       3.61910133E-12
   60.2999992       3.35971550E-12
   60.4799995       3.05020766E-12
   60.6599998       2.70215144E-12
   60.8400002       2.32805572E-12
   61.0200005       1.94101766E-12
   61.2000008       1.55434942E-12
   61.3800011       1.18118189E-12
   61.5600014       8.34058842E-13
   61.7400017       5.24531970E-13
   61.9199982       2.62795916E-13
   62.0999985       5.73836090E-14
   62.2799988      -8.50614609E-14
   62.4599991      -1.59917991E-13
   62.6399994      -1.64635151E-13
   62.8199997      -9.87026216E-14
   63.0000000       3.64441923E-14
   63.1800003       2.37568374E-13
   63.3600006       4.99816388E-13
   63.5400009       8.16927797E-13
   63.7200012       1.18146378E-12
   63.9000015       1.58505175E-12
   64.0800018       2.01864176E-12
   64.2600021       2.47278153E-12
   64.4400024       2.93790903E-12
   64.6200027       3.40465264E-12
   64.8000031       3.86411042E-12
   64.9800034       4.30809121E-12
   65.1600037       4.72929508E-12
   65.3399963       5.12140113E-12
   65.5199966       5.47910025E-12
   65.6999969       5.79806429E-12
   65.8799973       6.07488322E-12
   66.0599976       6.30699833E-12
   66.2399979       6.49262632E-12
   66.4199982       6.63068168E-12
   66.5999985       6.72070255E-12
   66.7799988       6.76277480E-12
   66.9599991       6.75746265E-12
   67.1399994       6.70573232E-12
   67.3199997       6.60887881E-12
   67.5000000       6.46844687E-12
   67.6800003       6.28612874E-12
   67.8600006       6.06368818E-12
   68.0400009       5.80287554E-12
   68.2200012       5.50540993E-12
   68.4000015       5.17299007E-12
   68.5800018       4.80734463E-12
   68.7600021       4.41028507E-12
   68.9400024       3.98373739E-12
   69.1200027       3.52974833E-12
   69.3000031       3.05045637E-12
   69.4800034       2.54805183E-12
   69.6600037       2.02473043E-12
   69.8399963       1.48267607E-12
   70.0199966       9.24034937E-13
   70.1999969       3.50896016E-13
   70.3799973      -2.34716895E-13
   70.5599976      -8.30861747E-13
   70.7399979      -1.43568393E-12
   70.9199982      -2.04742061E-12
   71.0999985      -2.66441773E-12
   71.2799988      -3.28516316E-12
   71.4599991      -3.90835888E-12
   71.6399994      -4.53299724E-12
   71.8199997      -5.15841926E-12
   72.0000000      -5.78435043E-12
   72.1800003      -6.41086186E-12
   72.3600006      -7.03830310E-12
   72.5400009      -7.66721842E-12
   72.7200012      -8.29823189E-12
   72.9000015      -8.93194286E-12
   73.0800018      -9.56880668E-12
   73.2600021      -1.02089457E-11
   73.4400024      -1.08519704E-11
   73.6200027      -1.14967359E-11
   73.8000031      -1.21411162E-11
   73.9800034      -1.27818155E-11
   74.1600037      -1.34142142E-11
   74.3399963      -1.40323048E-11
   74.5199966      -1.46287201E-11
   74.6999969      -1.51948853E-11
   74.8799973      -1.57213114E-11
   75.0599976      -1.61980152E-11
   75.2399979      -1.66150357E-11
   75.4199982      -1.69629848E-11
   75.5999985      -1.72335392E-11
   75.7799988      -1.74198399E-11
   75.9599991      -1.75167693E-11
   76.1399994      -1.75211182E-11
   76.3199997      -1.74317106E-11
   76.5000000      -1.72494536E-11
   76.6800003      -1.69773744E-11
   76.8600006      -1.66206146E-11
   77.0400009      -1.61863786E-11
   77.2200012      -1.56838483E-11
   77.4000015      -1.51240322E-11
   77.5800018      -1.45195574E-11
   77.7600021      -1.38843667E-11
   77.9400024      -1.32332522E-11
   78.1200027      -1.25812841E-11
   78.3000031      -1.19431270E-11
   78.4800034      -1.13323335E-11
   78.6600037      -1.07607239E-11
   78.8399963      -1.02378314E-11
   79.0199966      -9.77051946E-12
   79.1999969      -9.36264868E-12
   79.3799973      -9.01478631E-12
   79.5599976      -8.72399635E-12
   79.7399979      -8.48365649E-12
   79.9199982      -8.28345465E-12
   80.0999985      -8.10948184E-12
   80.2799988      -7.94451744E-12
   80.4599991      -7.76844214E-12
   80.6399994      -7.55877132E-12
   80.8199997      -7.29136022E-12
   81.0000000      -6.94124532E-12
   81.1800003      -6.48370420E-12
   81.3600006      -5.89537143E-12
   81.5400009      -5.15539477E-12
   81.7200012      -4.24646863E-12
   81.9000015      -3.15565694E-12
   82.0800018      -1.87507605E-12
   82.2600021      -4.02402422E-13
   82.4400024       1.25871004E-12
   82.6200027       3.09827424E-12
   82.8000031       5.09981207E-12
   82.9800034       7.24037063E-12
   83.1600037       9.49089678E-12
   83.3399963       1.18168314E-11
   83.5199966       1.41789965E-11
   83.6999969       1.65346729E-11
   83.8799973       1.88388714E-11
   84.0599976       2.10458057E-11
   84.2399979       2.31104753E-11
   84.4199982       2.49903362E-11
   84.5999985       2.66468531E-11
   84.7799988       2.80468097E-11
   84.9599991       2.91632551E-11
   85.1399994       2.99761223E-11
   85.3199997       3.04725793E-11
   85.5000000       3.06472070E-11
   85.6800003       3.05020627E-11
   85.8600006       3.00466145E-11
   86.0400009       2.92974915E-11
   86.2200012       2.82780587E-11
   86.4000015       2.70177648E-11
   86.5800018       2.55514689E-11
   86.7600021       2.39186570E-11
   86.9400024       2.21626519E-11
   87.1200027       2.03297448E-11
   87.3000031       1.84682512E-11
   87.4800034       1.66275067E-11
   87.6600037       1.48569039E-11
   87.8399963       1.32050881E-11
   88.0199966       1.17193252E-11
   88.1999969       1.04450597E-11
   88.3799973       9.42555756E-12
   88.5599976       8.70158546E-12
   88.7399979       8.31112523E-12
   88.9199982       8.28911852E-12
   89.0999985       8.66739319E-12
   89.2799988       9.47463809E-12
   89.4599991       1.07364517E-11
   89.6399994       1.24752899E-11
   89.8199997       1.47102695E-11
   90.0000000       1.74568277E-11
   90.1800003       2.07262055E-11
   90.3600006       2.45249099E-11
   90.5400009       2.88540372E-11
   90.7200012       3.37084458E-11
   90.9000015       3.90757184E-11
   91.0800018       4.49349169E-11
   91.2600021       5.12553125E-11
   91.4400024       5.79952024E-11
   91.6200027       6.51009316E-11
   91.8000031       7.25062024E-11
   91.9800034       8.01315889E-11
   92.1600037       8.78841791E-11
   92.3399963       9.56576207E-11
   92.5199966       1.03332468E-10
   92.6999969       1.10777290E-10
   92.8799973       1.17850354E-10
   93.0599976       1.24402058E-10
   93.2399979       1.30277678E-10
   93.4199982       1.35320644E-10
   93.5999985       1.39375927E-10
   93.7799988       1.42293649E-10
   93.9599991       1.43933004E-10
   94.1399994       1.44166221E-10
   94.3199997       1.42882386E-10
   94.5000000       1.39990769E-10
   94.6800003       1.35423839E-10
   94.8600006       1.29139463E-10
   95.0400009       1.21123167E-10
   95.2200012       1.11389828E-10
   95.4000015       9.99852631E-11
   95.5800018       8.69871744E-11
   95.7600021       7.25053420E-11
   95.9400024       5.66807816E-11
   96.1200027       3.96839159E-11
   96.3000031       2.17120384E-11
   96.4800034       2.98604978E-12
   96.6600037      -1.62533459E-11
   96.8399963      -3.57500973E-11
   97.0199966      -5.52379323E-11
   97.1999969      -7.44459841E-11
   97.3799973      -9.31046421E-11
   97.5599976      -1.10951276E-10
   97.7399979      -1.27735572E-10
   97.9199982      -1.43224405E-10
   98.0999985      -1.57206539E-10
   98.2799988      -1.69497028E-10
   98.4599991      -1.79941340E-10
   98.6399994      -1.88419072E-10
   98.8199997      -1.94846597E-10
   99.0000000      -1.99178576E-10
   99.1800003      -2.01408404E-10
   99.3600006      -2.01567651E-10
   99.5400009      -1.99724737E-10
   99.7200012      -1.95982855E-10
   99.9000015      -1.90477106E-10
   100.080002      -1.83370721E-10
   100.260002      -1.74850745E-10
   100.440002      -1.65123068E-10
   100.620003      -1.54407737E-10
