  -7.19999981         0.00000000    
  -7.01999998         0.00000000    
  -6.84000015         0.00000000    
  -6.65999985         0.00000000    
  -6.48000002         0.00000000    
  -6.30000019         0.00000000    
  -6.11999989         0.00000000    
  -5.94000006         0.00000000    
  -5.76000023         0.00000000    
  -5.57999992         0.00000000    
  -5.40000010         0.00000000    
  -5.21999979         0.00000000    
  -5.03999996         0.00000000    
  -4.86000013         0.00000000    
  -4.67999983         0.00000000    
  -4.50000000         0.00000000    
  -4.32000017         0.00000000    
  -4.13999987         0.00000000    
  -3.96000004        -7.90392758E-38
  -3.77999997        -1.39717322E-36
  -3.59999990         1.36692221E-36
  -3.42000008         1.40270886E-35
  -3.24000001         2.26420236E-36
  -3.05999994        -1.14081141E-34
  -2.88000011        -2.01017271E-34
  -2.70000005        -5.74169573E-34
  -2.51999998        -1.21923955E-33
  -2.33999991         3.02406619E-32
  -2.16000009         1.23527235E-31
  -1.98000002         1.72652531E-31
  -1.79999995        -8.34537336E-32
  -1.62000000        -5.30052690E-31
  -1.44000006         2.17632247E-31
  -1.25999999         4.26481162E-30
  -1.08000004         8.04205526E-30
 -0.899999976         1.32339778E-30
 -0.720000029        -2.38612443E-29
 -0.540000021        -4.82195050E-29
 -0.360000014        -2.00743455E-29
 -0.180000007         9.75568679E-29
   0.00000000         2.33094001E-28
  0.180000007         1.74384807E-28
  0.360000014        -2.68173732E-28
  0.540000021        -9.24163069E-28
  0.720000029        -1.07977310E-27
  0.899999976         1.02352837E-28
   1.08000004         2.53670338E-27
   1.25999999         4.39067230E-27
   1.44000006         2.78977539E-27
   1.62000000        -3.57288162E-27
   1.79999995        -1.16889318E-26
   1.98000002        -1.44979369E-26
   2.16000009        -5.64342849E-27
   2.33999991         1.41863830E-26
   2.51999998         3.52389929E-26
   2.70000005         4.39763269E-26
   2.88000011         3.09655608E-26
   3.05999994        -7.10033594E-27
   3.24000001        -7.17983109E-26
   3.42000008        -1.60127399E-25
   3.59999990        -2.40402649E-25
   3.77999997        -2.21142019E-25
   3.96000004         3.38902934E-26
   4.13999987         5.93134457E-25
   4.32000017         1.27685499E-24
   4.50000000         1.56149297E-24
   4.67999983         7.64845958E-25
   4.86000013        -1.44048171E-24
   5.03999996        -4.44400847E-24
   5.21999979        -6.53782596E-24
   5.40000010        -5.56126822E-24
   5.57999992        -2.18935673E-25
   5.76000023         8.65100683E-24
   5.94000006         1.77502996E-23
   6.11999989         2.23266506E-23
   6.30000019         1.80585549E-23
   6.48000002         2.88488839E-24
   6.65999985        -2.18341458E-23
   6.84000015        -5.06935775E-23
   7.01999998        -7.38323005E-23
   7.19999981        -7.73398222E-23
   7.38000011        -4.63936671E-23
   7.55999994         2.71278947E-23
   7.73999977         1.33779324E-22
   7.92000008         2.38374454E-22
   8.10000038         2.83325188E-22
   8.27999973         2.09407823E-22
   8.46000004        -9.56314303E-24
   8.64000034        -3.33358204E-22
   8.81999969        -6.44776231E-22
   9.00000000        -7.78228221E-22
   9.18000031        -5.86905849E-22
   9.35999966        -2.64112019E-23
   9.53999996         7.82770243E-22
   9.72000027         1.55188150E-21
   9.89999962         1.89962250E-21
   10.0799999         1.49537634E-21
   10.2600002         2.23727844E-22
   10.4399996        -1.69899404E-21
   10.6199999        -3.72313873E-21
   10.8000002        -5.11135822E-21
   10.9799995        -5.20254802E-21
   11.1599998        -3.69964526E-21
   11.3400002        -8.48533626E-22
   11.5200005         2.60791872E-21
   11.6999998         5.73708683E-21
   11.8800001         7.89931232E-21
   12.0600004         9.19977918E-21
   12.2399998         1.06392730E-20
   12.4200001         1.37356523E-20
   12.6000004         1.95616550E-20
   12.7799997         2.74346664E-20
   12.9600000         3.38220678E-20
   13.1400003         3.22506606E-20
   13.3199997         1.49606551E-20
   13.5000000        -2.33895739E-20
   13.6800003        -8.04438316E-20
   13.8599997        -1.40657488E-19
   14.0400000        -1.71565195E-19
   14.2200003        -1.23744048E-19
   14.3999996         6.43975940E-20
   14.5799999         4.57224756E-19
   14.7600002         1.10946603E-18
   14.9399996         2.05317953E-18
   15.1199999         3.28632364E-18
   15.3000002         4.76411241E-18
   15.4799995         6.39292988E-18
   15.6599998         8.02559003E-18
   15.8400002         9.45685320E-18
   16.0200005         1.04194962E-17
   16.2000008         1.05832598E-17
   16.3799992         9.56054277E-18
   16.5599995         6.92233747E-18
   16.7399998         2.22508255E-18
   16.9200001        -4.95578629E-18
   17.1000004        -1.49948274E-17
   17.2800007        -2.82002580E-17
   17.4599991        -4.48234946E-17
   17.6399994        -6.51004377E-17
   17.8199997        -8.93224632E-17
   18.0000000        -1.17926786E-16
   18.1800003        -1.51589847E-16
   18.3600006        -1.91304390E-16
   18.5400009        -2.38422543E-16
   18.7199993        -2.94650337E-16
   18.8999996        -3.61985539E-16
   19.0799999        -4.42596155E-16
   19.2600002        -5.38643286E-16
   19.4400005        -6.52053374E-16
   19.6200008        -7.84243824E-16
   19.7999992        -9.35802318E-16
   19.9799995        -1.10611439E-15
   20.1599998        -1.29293703E-15
   20.3400002        -1.49192095E-15
   20.5200005        -1.69610820E-15
   20.7000008        -1.89544713E-15
   20.8799992        -2.07639094E-15
   21.0599995        -2.22164524E-15
   21.2399998        -2.31012799E-15
   21.4200001        -2.31717912E-15
   21.6000004        -2.21503372E-15
   21.7800007        -1.97355564E-15
   21.9599991        -1.56121492E-15
   22.1399994        -9.46299915E-16
   22.3199997        -9.83557321E-17
   22.5000000         1.01015222E-15
   22.6800003         2.40196500E-15
   22.8600006         4.09297882E-15
   23.0400009         6.09008303E-15
   23.2199993         8.38898975E-15
   23.3999996         1.09721853E-14
   23.5799999         1.38071546E-14
   23.7600002         1.68450509E-14
   23.9400005         2.00199473E-14
   24.1200008         2.32488081E-14
   24.2999992         2.64322594E-14
   24.4799995         2.94562314E-14
   24.6599998         3.21944687E-14
   24.8400002         3.45119238E-14
   25.0200005         3.62690055E-14
   25.2000008         3.73266447E-14
   25.3799992         3.75520571E-14
   25.5599995         3.68250759E-14
   25.7399998         3.50449006E-14
   25.9200001         3.21368603E-14
   26.1000004         2.80589049E-14
   26.2800007         2.28073497E-14
   26.4599991         1.64214125E-14
   26.6399994         8.98613019E-15
   26.8199997         6.33243367E-16
   27.0000000        -8.46012696E-15
   27.1800003        -1.80751410E-14
   27.3600006        -2.79571203E-14
   27.5400009        -3.78234499E-14
   27.7199993        -4.73731873E-14
   27.8999996        -5.62980143E-14
   28.0799999        -6.42942188E-14
   28.2600002        -7.10753139E-14
   28.4400005        -7.63848349E-14
   28.6200008        -8.00089433E-14
   28.7999992        -8.17880445E-14
   28.9799995        -8.16269049E-14
   29.1599998        -7.95024989E-14
   29.3400002        -7.54689957E-14
   29.5200005        -6.96592645E-14
   29.7000008        -6.22826782E-14
   29.8799992        -5.36189203E-14
   30.0599995        -4.40080914E-14
   30.2399998        -3.38373840E-14
   30.4200001        -2.35251627E-14
   30.6000004        -1.35031477E-14
   30.7800007        -4.19781609E-15
   30.9599991         3.98833764E-15
   31.1399994         1.06949412E-14
   31.3199997         1.56208817E-14
   31.5000000         1.85399266E-14
   31.6800003         1.93143519E-14
   31.8600006         1.79058733E-14
   32.0400009         1.43830023E-14
   32.2200012         8.92397914E-15
   32.4000015         1.81473548E-15
   32.5800018        -6.55857442E-15
   32.7599983        -1.57222512E-14
   32.9399986        -2.51325789E-14
   33.1199989        -3.41974543E-14
   33.2999992        -4.23011778E-14
   33.4799995        -4.88311106E-14
   33.6599998        -5.32049719E-14
   33.8400002        -5.48973098E-14
   34.0200005        -5.34640793E-14
   34.2000008        -4.85643596E-14
   34.3800011        -3.99787523E-14
   34.5600014        -2.76240738E-14
   34.7400017        -1.15638852E-14
   34.9199982         7.98570889E-15
   35.0999985         3.06558876E-14
   35.2799988         5.59313677E-14
   35.4599991         8.31635853E-14
   35.6399994         1.11590587E-13
   35.8199997         1.40362846E-13
   36.0000000         1.68573529E-13
   36.1800003         1.95291401E-13
   36.3600006         2.19594782E-13
   36.5400009         2.40604682E-13
   36.7200012         2.57515770E-13
   36.9000015         2.69624167E-13
   37.0800018         2.76351180E-13
   37.2599983         2.77262723E-13
   37.4399986         2.72084032E-13
   37.6199989         2.60709911E-13
   37.7999992         2.43209668E-13
   37.9799995         2.19826341E-13
   38.1599998         1.90968931E-13
   38.3400002         1.57196914E-13
   38.5200005         1.19196862E-13
   38.7000008         7.77521968E-14
   38.8800011         3.37078015E-14
   39.0600014        -1.20678436E-14
   39.2400017        -5.87202880E-14
   39.4199982        -1.05444055E-13
   39.5999985        -1.51512890E-13
   39.7799988        -1.96304033E-13
   39.9599991        -2.39315837E-13
   40.1399994        -2.80178523E-13
   40.3199997        -3.18658430E-13
   40.5000000        -3.54656300E-13
   40.6800003        -3.88199347E-13
   40.8600006        -4.19427134E-13
   41.0400009        -4.48570597E-13
   41.2200012        -4.75923879E-13
   41.4000015        -5.01809748E-13
   41.5800018        -5.26541592E-13
   41.7599983        -5.50384066E-13
   41.9399986        -5.73516874E-13
   42.1199989        -5.96004257E-13
   42.2999992        -6.17770700E-13
   42.4799995        -6.38582937E-13
   42.6599998        -6.58037372E-13
   42.8400002        -6.75552225E-13
   43.0200005        -6.90364974E-13
   43.2000008        -7.01535997E-13
   43.3800011        -7.07959895E-13
   43.5600014        -7.08385119E-13
   43.7400017        -7.01444328E-13
   43.9199982        -6.85694719E-13
   44.0999985        -6.59671428E-13
   44.2799988        -6.21951221E-13
   44.4599991        -5.71225033E-13
   44.6399994        -5.06372559E-13
   44.8199997        -4.26531559E-13
   45.0000000        -3.31154022E-13
   45.1800003        -2.20047030E-13
   45.3600006        -9.33960212E-14
   45.5400009         4.82242081E-14
   45.7200012         2.03846055E-13
   45.9000015         3.72110031E-13
   46.0800018         5.51270347E-13
   46.2599983         7.39205355E-13
   46.4399986         9.33437030E-13
   46.6199989         1.13116092E-12
   46.7999992         1.32928878E-12
   46.9799995         1.52450329E-12
   47.1599998         1.71332859E-12
   47.3400002         1.89221512E-12
   47.5200005         2.05763553E-12
   47.7000008         2.20618749E-12
   47.8800011         2.33469342E-12
   48.0600014         2.44028604E-12
   48.2400017         2.52047667E-12
   48.4199982         2.57320640E-12
   48.5999985         2.59688169E-12
   48.7799988         2.59040402E-12
   48.9599991         2.55319529E-12
   49.1399994         2.48521711E-12
   49.3199997         2.38697755E-12
   49.5000000         2.25952026E-12
   49.6800003         2.10439522E-12
   49.8600006         1.92360299E-12
   50.0400009         1.71952968E-12
   50.2200012         1.49486196E-12
   50.4000015         1.25249680E-12
   50.5800018         9.95449057E-13
   50.7599983         7.26761370E-13
   50.9399986         4.49429421E-13
   51.1199989         1.66346266E-13
   51.2999992        -1.19728988E-13
   51.4799995        -4.06187860E-13
   51.6599998        -6.90580839E-13
   51.8400002        -9.70628417E-13
   52.0200005        -1.24424050E-12
   52.2000008        -1.50953772E-12
   52.3800011        -1.76486506E-12
   52.5600014        -2.00878962E-12
   52.7400017        -2.24007683E-12
   52.9199982        -2.45764737E-12
   53.0999985        -2.66052024E-12
   53.2799988        -2.84775437E-12
   53.4599991        -3.01838697E-12
   53.6399994        -3.17138221E-12
   53.8199997        -3.30558736E-12
   54.0000000        -3.41971243E-12
   54.1800003        -3.51232802E-12
   54.3600006        -3.58188739E-12
   54.5400009        -3.62676794E-12
   54.7200012        -3.64531495E-12
   54.9000015        -3.63588825E-12
   55.0800018        -3.59690923E-12
   55.2599983        -3.52691769E-12
   55.4399986        -3.42464880E-12
   55.6199989        -3.28913654E-12
   55.7999992        -3.11983230E-12
   55.9799995        -2.91672502E-12
   56.1599998        -2.68043834E-12
   56.3400002        -2.41229627E-12
   56.5200005        -2.11434668E-12
   56.7000008        -1.78935772E-12
   56.8800011        -1.44078499E-12
   57.0600014        -1.07272210E-12
   57.2400017        -6.89833553E-13
   57.4199982        -2.97280836E-13
   57.5999985         9.93594109E-14
   57.7799988         4.94172357E-13
   57.9599991         8.80981486E-13
   58.1399994         1.25343681E-12
   58.3199997         1.60513172E-12
   58.5000000         1.92977296E-12
   58.6800003         2.22139603E-12
   58.8600006         2.47461556E-12
   59.0400009         2.68487337E-12
   59.2200012         2.84864211E-12
   59.4000015         2.96356906E-12
   59.5800018         3.02854877E-12
   59.7599983         3.04374451E-12
   59.9399986         3.01056771E-12
   60.1199989         2.93164104E-12
   60.2999992         2.81073038E-12
   60.4799995         2.65266043E-12
   60.6599998         2.46321409E-12
   60.8400002         2.24900870E-12
   61.0200005         2.01735005E-12
   61.2000008         1.77606779E-12
   61.3800011         1.53330116E-12
   61.5600014         1.29723597E-12
   61.7400017         1.07579451E-12
   61.9199982         8.76308791E-13
   62.0999985         7.05231555E-13
   62.2799988         5.67914585E-13
   62.4599991         4.68487174E-13
   62.6399994         4.09808878E-13
   62.8199997         3.93473909E-13
   63.0000000         4.19834659E-13
   63.1800003         4.88020702E-13
   63.3600006         5.95963166E-13
   63.5400009         7.40431804E-13
   63.7200012         9.17100814E-13
   63.9000015         1.12065153E-12
   64.0800018         1.34490585E-12
   64.2600021         1.58299947E-12
   64.4400024         1.82759645E-12
   64.6200027         2.07115271E-12
   64.8000031         2.30620926E-12
   64.9800034         2.52568344E-12
   65.1600037         2.72311665E-12
   65.3399963         2.89284503E-12
   65.5199966         3.03008703E-12
   65.6999969         3.13097421E-12
   65.8799973         3.19257381E-12
   66.0599976         3.21293036E-12
   66.2399979         3.19113833E-12
   66.4199982         3.12741673E-12
   66.5999985         3.02315031E-12
   66.7799988         2.88086980E-12
   66.9599991         2.70416090E-12
   67.1399994         2.49751955E-12
   67.3199997         2.26615948E-12
   67.5000000         2.01578272E-12
   67.6800003         1.75231964E-12
   67.8600006         1.48164510E-12
   68.0400009         1.20930772E-12
   68.2200012         9.40300138E-13
   68.4000015         6.78902843E-13
   68.5800018         4.28601057E-13
   68.7600021         1.92037778E-13
   68.9400024        -2.90282867E-14
   69.1200027        -2.33801124E-13
   69.3000031        -4.22530283E-13
   69.4800034        -5.96569723E-13
   69.6600037        -7.58355835E-13
   69.8399963        -9.11287322E-13
   70.0199966        -1.05951174E-12
   70.1999969        -1.20767751E-12
   70.3799973        -1.36068359E-12
   70.5599976        -1.52345367E-12
   70.7399979        -1.70073558E-12
   70.9199982        -1.89692858E-12
   71.0999985        -2.11592571E-12
   71.2799988        -2.36100527E-12
   71.4599991        -2.63477998E-12
   71.6399994        -2.93919836E-12
   71.8199997        -3.27556276E-12
   72.0000000        -3.64450917E-12
   72.1800003        -4.04594977E-12
   72.3600006        -4.47897665E-12
   72.5400009        -4.94179220E-12
   72.7200012        -5.43171497E-12
   72.9000015        -5.94525774E-12
   73.0800018        -6.47827842E-12
   73.2600021        -7.02610886E-12
   73.4400024        -7.58363251E-12
   73.6200027        -8.14530127E-12
   73.8000031        -8.70507139E-12
   73.9800034        -9.25638038E-12
   74.1600037        -9.79215840E-12
   74.3399963        -1.03048889E-11
   74.5199966        -1.07867404E-11
   74.6999969        -1.12297498E-11
   74.8799973        -1.16260768E-11
   75.0599976        -1.19683100E-11
   75.2399979        -1.22498183E-11
   75.4199982        -1.24650620E-11
   75.5999985        -1.26097986E-11
   75.7799988        -1.26811096E-11
   75.9599991        -1.26772464E-11
   76.1399994        -1.25973693E-11
   76.3199997        -1.24412572E-11
   76.5000000        -1.22091183E-11
   76.6800003        -1.19014945E-11
   76.8600006        -1.15192942E-11
   77.0400009        -1.10638764E-11
   77.2200012        -1.05371874E-11
   77.4000015        -9.94188846E-12
   77.5800018        -9.28150265E-12
   77.7600021        -8.56052468E-12
   77.9400024        -7.78448399E-12
   78.1200027        -6.95990661E-12
   78.3000031        -6.09420544E-12
   78.4800034        -5.19549117E-12
   78.6600037        -4.27239667E-12
   78.8399963        -3.33393643E-12
   79.0199966        -2.38937342E-12
   79.1999969        -1.44806844E-12
   79.3799973        -5.19206802E-13
   79.5599976         3.88594322E-13
   79.7399979         1.26776280E-12
   79.9199982         2.11224202E-12
   80.0999985         2.91786192E-12
   80.2799988         3.68254732E-12
   80.4599991         4.40636460E-12
   80.6399994         5.09143032E-12
   80.8199997         5.74169705E-12
   81.0000000         6.36259535E-12
   81.1800003         6.96057535E-12
   81.3600006         7.54256119E-12
   81.5400009         8.11541979E-12
   81.7200012         8.68549850E-12
   81.9000015         9.25833629E-12
   82.0800018         9.83848506E-12
   82.2600021         1.04293995E-11
   82.4400024         1.10332602E-11
   82.6200027         1.16507455E-11
   82.8000031         1.22807667E-11
   82.9800034         1.29202387E-11
   83.1600037         1.35639729E-11
   83.3399963         1.42046990E-11
   83.5199966         1.48331764E-11
   83.6999969         1.54383867E-11
   83.8799973         1.60077489E-11
   84.0599976         1.65274201E-11
   84.2399979         1.69826757E-11
   84.4199982         1.73584185E-11
   84.5999985         1.76396692E-11
   84.7799988         1.78120105E-11
   84.9599991         1.78619237E-11
   85.1399994         1.77770472E-11
   85.3199997         1.75464209E-11
   85.5000000         1.71608717E-11
   85.6800003         1.66135179E-11
   85.8600006         1.59003297E-11
   86.0400009         1.50207156E-11
   86.2200012         1.39779603E-11
   86.4000015         1.27795795E-11
   86.5800018         1.14375098E-11
   86.7600021         9.96828921E-12
   86.9400024         8.39310999E-12
   87.1200027         6.73767032E-12
   87.3000031         5.03181611E-12
   87.4800034         3.30895381E-12
   87.6600037         1.60529413E-12
   87.8399963        -4.09786205E-14
   88.0199966        -1.59050073E-12
   88.1999969        -3.00349155E-12
   88.3799973        -4.24057187E-12
   88.5599976        -5.26354698E-12
   88.7399979        -6.03620062E-12
   88.9199982        -6.52492730E-12
   89.0999985        -6.69918288E-12
   89.2799988        -6.53162333E-12
   89.4599991        -5.99815336E-12
   89.6399994        -5.07799011E-12
   89.8199997        -3.75375989E-12
   90.0000000        -2.01182604E-12
   90.1800003         1.57358488E-13
   90.3600006         2.75880989E-12
   90.5400009         5.79256261E-12
   90.7200012         9.25302890E-12
   90.9000015         1.31282181E-11
   91.0800018         1.73988723E-11
   91.2600021         2.20375367E-11
   91.4400024         2.70079150E-11
   91.6200027         3.22644272E-11
   91.8000031         3.77521139E-11
   91.9800034         4.34066880E-11
   92.1600037         4.91547428E-11
   92.3399963         5.49140976E-11
   92.5199966         6.05945016E-11
   92.6999969         6.60988694E-11
   92.8799973         7.13249598E-11
   93.0599976         7.61676069E-11
   93.2399979         8.05211453E-11
   93.4199982         8.42817829E-11
   93.5999985         8.73498981E-11
   93.7799988         8.96322461E-11
   93.9599991         9.10440542E-11
   94.1399994         9.15110487E-11
   94.3199997         9.09711542E-11
   94.5000000         8.93757360E-11
   94.6800003         8.66904118E-11
   94.8600006         8.28955515E-11
   95.0400009         7.79868531E-11
   95.2200012         7.19760848E-11
   95.4000015         6.48920570E-11
   95.5800018         5.67817286E-11
   95.7600021         4.77108075E-11
   95.9400024         3.77639170E-11
   96.1200027         2.70441742E-11
   96.3000031         1.56722985E-11
   96.4800034         3.78540515E-12
   96.6600037        -8.46461356E-12
   96.8399963        -2.09132919E-11
   97.0199966        -3.33864464E-11
   97.1999969        -4.57037914E-11
   97.3799973        -5.76828967E-11
   97.5599976        -6.91433855E-11
   97.7399979        -7.99109043E-11
   97.9199982        -8.98210603E-11
   98.0999985        -9.87231408E-11
   98.2799988        -1.06484120E-10
   98.4599991        -1.12992365E-10
   98.6399994        -1.18161023E-10
   98.8199997        -1.21930299E-10
   99.0000000        -1.24268762E-10
   99.1800003        -1.25173316E-10
   99.3600006        -1.24668276E-10
   99.5400009        -1.22804031E-10
   99.7200012        -1.19654980E-10
   99.9000015        -1.15317068E-10
   100.080002        -1.09904773E-10
   100.260002        -1.03547386E-10
   100.440002        -9.63853650E-11
   100.620003        -8.85668830E-11
