  -7.65000010        -7.91288793E-20
  -7.53125000        -7.91289117E-20
  -7.41249990        -7.91289310E-20
  -7.29374981        -7.91287630E-20
  -7.17500019        -7.91284851E-20
  -7.05625010        -7.91278066E-20
  -6.93750000        -7.91272185E-20
  -6.81874990        -7.91266240E-20
  -6.69999981        -7.91260230E-20
  -6.58125019        -7.91255318E-20
  -6.46250010        -7.91250989E-20
  -6.34375000        -7.91251118E-20
  -6.22499990        -7.91246917E-20
  -6.10624981        -7.91246788E-20
  -5.98750019        -7.91248856E-20
  -5.86875010        -7.91254737E-20
  -5.75000000        -7.91256611E-20
  -5.63124990        -7.91254801E-20
  -5.51249981        -7.91251118E-20
  -5.39375019        -7.91249373E-20
  -5.27500010        -7.91244526E-20
  -5.15625000        -7.91236901E-20
  -5.03749990        -7.91232959E-20
  -4.91874981        -7.91225333E-20
  -4.80000019        -7.91220486E-20
  -4.68125010        -7.91216092E-20
  -4.56250000        -7.91209371E-20
  -4.44374990        -7.91203232E-20
  -4.32499981        -7.91195025E-20
  -4.20625019        -7.91191987E-20
  -4.08750010        -7.91188562E-20
  -3.96875000        -7.91192569E-20
  -3.84999990        -7.91195606E-20
  -3.73125005        -7.91207045E-20
  -3.61249995        -7.91211051E-20
  -3.49375010        -7.91211439E-20
  -3.37500000        -7.91212861E-20
  -3.25624990        -7.91210599E-20
  -3.13750005        -7.91209888E-20
  -3.01874995        -7.91207239E-20
  -2.90000010        -7.91198579E-20
  -2.78125000        -7.91186430E-20
  -2.66249990        -7.91174474E-20
  -2.54375005        -7.91162131E-20
  -2.42499995        -7.91151533E-20
  -2.30625010        -7.91147850E-20
  -2.18750000        -7.91144489E-20
  -2.06874990        -7.91146105E-20
  -1.95000005        -7.91149594E-20
  -1.83124995        -7.91152050E-20
  -1.71249998        -7.91154377E-20
  -1.59375000        -7.91156897E-20
  -1.47500002        -7.91157672E-20
  -1.35625005        -7.91160063E-20
  -1.23749995        -7.91161938E-20
  -1.11874998        -7.91161873E-20
  -1.00000000        -7.91151792E-20
 -0.881250024        -7.91145135E-20
 -0.762499988        -7.91134473E-20
 -0.643750012        -7.91118446E-20
 -0.524999976        -7.91106232E-20
 -0.406250000        -7.91095181E-20
 -0.287499994        -7.91084002E-20
 -0.168750003        -7.91077345E-20
  -5.00000007E-02    -7.91072886E-20
   6.87500015E-02    -7.91073339E-20
  0.187500000        -7.91076311E-20
  0.306250006        -7.91081287E-20
  0.425000012        -7.91091304E-20
  0.543749988        -7.91104423E-20
  0.662500024        -7.91119480E-20
  0.781250000        -7.91124779E-20
  0.899999976        -7.91131177E-20
   1.01874995        -7.91125619E-20
   1.13750005        -7.91119997E-20
   1.25625002        -7.91113018E-20
   1.37500000        -7.91097379E-20
   1.49374998        -7.91077862E-20
   1.61249995        -7.91063774E-20
   1.73125005        -7.91054792E-20
   1.85000002        -7.91050527E-20
   1.96875000        -7.91063451E-20
   2.08750010        -7.91091046E-20
   2.20624995        -7.91138996E-20
   2.32500005        -7.91187528E-20
   2.44374990        -7.91234768E-20
   2.56250000        -7.91259971E-20
   2.68125010        -7.91246465E-20
   2.79999995        -7.91174216E-20
   2.91875005        -7.91029912E-20
   3.03749990        -7.90798430E-20
   3.15625000        -7.90488173E-20
   3.27500010        -7.90112969E-20
   3.39374995        -7.89710817E-20
   3.51250005        -7.89341429E-20
   3.63124990        -7.89090302E-20
   3.75000000        -7.89058702E-20
   3.86875010        -7.89355129E-20
   3.98749995        -7.90076392E-20
   4.10624981        -7.91300232E-20
   4.22499990        -7.93052498E-20
   4.34375000        -7.95284916E-20
   4.46250010        -7.97847625E-20
   4.58125019        -8.00469917E-20
   4.69999981        -8.02771547E-20
   4.81874990        -8.04266352E-20
   4.93750000        -8.04380865E-20
   5.05625010        -8.02519967E-20
   5.17500019        -7.98129383E-20
   5.29374981        -7.90793390E-20
   5.41249990        -7.80357537E-20
   5.53125000        -7.67003869E-20
   5.65000010        -7.51396781E-20
   5.76875019        -7.34729996E-20
   5.88749981        -7.18763148E-20
   6.00624990        -7.05816738E-20
   6.12500000        -6.98635194E-20
   6.24375010        -7.00205674E-20
   6.36250019        -7.13482117E-20
   6.48124981        -7.41016052E-20
   6.59999990        -7.84524007E-20
   6.71875000        -8.44426811E-20
   6.83750010        -9.19417584E-20
   6.95625019        -1.00606411E-19
   7.07499981        -1.09854936E-19
   7.19374990        -1.18858939E-19
   7.31250000        -1.26562783E-19
   7.43125010        -1.31727117E-19
   7.55000019        -1.33006326E-19
   7.66874981        -1.29058283E-19
   7.78749990        -1.18678743E-19
   7.90625000        -1.00961943E-19
   8.02499962        -7.54703758E-20
   8.14375019        -4.24023477E-20
   8.26249981        -2.73955736E-21
   8.38125038         4.16366143E-20
   8.50000000         8.78918304E-20
   8.61874962         1.32253901E-19
   8.73750019         1.70118223E-19
   8.85624981         1.96253150E-19
   8.97500038         2.05105120E-19
   9.09375000         1.91205758E-19
   9.21249962         1.49665187E-19
   9.33125019         7.67283947E-20
   9.44999981        -2.96350799E-20
   9.56875038        -1.69152012E-19
   9.68750000        -3.38725110E-19
   9.80624962        -5.32018272E-19
   9.92500019        -7.39213573E-19
   10.0437498        -9.46985006E-19
   10.1625004        -1.13874088E-18
   10.2812500        -1.29517376E-18
   10.3999996        -1.39513564E-18
   10.5187502        -1.41684769E-18
   10.6374998        -1.33941903E-18
   10.7562504        -1.14463371E-18
   10.8750000        -8.18928866E-19
   10.9937496        -3.55461559E-19
   11.1125002         2.43861685E-19
   11.2312498         9.66542865E-19
   11.3500004         1.78801583E-18
   11.4687500         2.67069530E-18
   11.5874996         3.56374141E-18
   11.7062502         4.40369079E-18
   11.8249998         5.11608355E-18
   11.9437504         5.61818094E-18
   12.0625000         5.82279275E-18
   12.1812496         5.64318206E-18
   12.3000002         4.99890928E-18
   12.4187498         3.82242353E-18
   12.5375004         2.06608314E-18
   12.6562500        -2.90776035E-19
   12.7749996        -3.23517679E-18
   12.8937502        -6.71474492E-18
   13.0124998        -1.06334051E-17
   13.1312504        -1.48490352E-17
   13.2500000        -1.91735536E-17
   13.3687496        -2.33758296E-17
   13.4875002        -2.71876251E-17
   13.6062498        -3.03126986E-17
   13.7250004        -3.24388870E-17
   13.8437500        -3.32528492E-17
   13.9624996        -3.24568732E-17
   14.0812502        -2.97869691E-17
   14.1999998        -2.50312430E-17
   14.3187504        -1.80473869E-17
   14.4375000        -8.77815895E-18
   14.5562496         2.73645305E-18
   14.6750002         1.63515326E-17
   14.7937498         3.18149281E-17
   14.9125004         4.87710354E-17
   15.0312500         6.67712631E-17
   15.1499996         8.52908709E-17
   15.2687502         1.03752060E-16
   15.3874998         1.21552351E-16
   15.5062504         1.38096903E-16
   15.6250000         1.52833516E-16
   15.7437496         1.65287931E-16
   15.8625002         1.75097976E-16
   15.9812498         1.82043964E-16
   16.1000004         1.86073789E-16
   16.2187500         1.87320608E-16
   16.3374996         1.86111998E-16
   16.4562492         1.82969307E-16
   16.5750008         1.78596712E-16
   16.6937504         1.73860077E-16
   16.8125000         1.69755871E-16
   16.9312496         1.67370891E-16
   17.0499992         1.67834046E-16
   17.1687508         1.72261514E-16
   17.2875004         1.81696561E-16
   17.4062500         1.97045486E-16
   17.5249996         2.19010877E-16
   17.6437492         2.48023238E-16
   17.7625008         2.84171481E-16
   17.8812504         3.27133600E-16
   18.0000000         3.76107378E-16
   18.1187496         4.29742351E-16
   18.2374992         4.86072927E-16
   18.3562508         5.42455622E-16
   18.4750004         5.95510749E-16
   18.5937500         6.41072704E-16
   18.7124996         6.74152146E-16
   18.8312492         6.88914925E-16
   18.9500008         6.78683137E-16
   19.0687504         6.35967372E-16
   19.1875000         5.52534150E-16
   19.3062496         4.19517658E-16
   19.4249992         2.27581739E-16
   19.5437508        -3.28603719E-17
   19.6625004        -3.71366905E-16
   19.7812500        -7.97127195E-16
   19.8999996        -1.31855681E-15
   20.0187492        -1.94284265E-15
   20.1375008        -2.67543530E-15
   20.2562504        -3.51951210E-15
   20.3750000        -4.47541547E-15
   20.4937496        -5.54009734E-15
   20.6124992        -6.70658834E-15
   20.7312508        -7.96351070E-15
   20.8500004        -9.29466617E-15
   20.9687500        -1.06787282E-14
   21.0874996        -1.20890457E-14
   21.2062492        -1.34935931E-14
   21.3250008        -1.48550860E-14
   21.4437504        -1.61312478E-14
   21.5625000        -1.72752742E-14
   21.6812496        -1.82364381E-14
   21.7999992        -1.89609071E-14
   21.9187508        -1.93926618E-14
   22.0375004        -1.94745919E-14
   22.1562500        -1.91496819E-14
   22.2749996        -1.83622852E-14
   22.3937492        -1.70594502E-14
   22.5125008        -1.51923457E-14
   22.6312504        -1.27175873E-14
   22.7500000        -9.59863580E-15
   22.8687496        -5.80711643E-15
   22.9874992        -1.32413241E-15
   23.1062508         3.85854551E-15
   23.2250004         9.73729933E-15
   23.3437500         1.62955925E-14
   23.4624996         2.35029383E-14
   23.5812492         3.13139780E-14
   23.7000008         3.96676575E-14
   23.8187504         4.84864597E-14
   23.9375000         5.76757338E-14
   24.0562496         6.71232140E-14
   24.1749992         7.66986369E-14
   24.2937508         8.62534938E-14
   24.4125004         9.56211022E-14
   24.5312500         1.04616938E-13
   24.6499996         1.13039156E-13
   24.7687492         1.20669669E-13
   24.8875008         1.27275428E-13
   25.0062504         1.32610475E-13
   25.1250000         1.36418071E-13
   25.2437496         1.38433888E-13
   25.3624992         1.38389259E-13
   25.4812508         1.36015223E-13
   25.6000004         1.31047015E-13
   25.7187500         1.23229172E-13
   25.8374996         1.12320743E-13
   25.9562492         9.81012892E-14
   26.0750008         8.03766437E-14
   26.1937504         5.89848062E-14
   26.3125000         3.38025574E-14
   26.4312496         4.75045003E-15
   26.5499992        -2.82009862E-14
   26.6687508        -6.50268684E-14
   26.7875004        -1.05643738E-13
   26.9062500        -1.49904706E-13
   27.0249996        -1.97599505E-13
   27.1437492        -2.48450674E-13
   27.2625008        -3.02115131E-13
   27.3812504        -3.58184131E-13
   27.5000000        -4.16186698E-13
   27.6187496        -4.75592981E-13
   27.7374992        -5.35819978E-13
   27.8562508        -5.96238499E-13
   27.9750004        -6.56181110E-13
   28.0937500        -7.14952023E-13
   28.2124996        -7.71837997E-13
   28.3312492        -8.26120530E-13
   28.4500008        -8.77089091E-13
   28.5687504        -9.24054995E-13
   28.6875000        -9.66366635E-13
   28.8062496        -1.00342467E-12
   28.9249992        -1.03469859E-12
   29.0437508        -1.05974170E-12
   29.1625004        -1.07820859E-12
   29.2812500        -1.08986984E-12
   29.3999996        -1.09462797E-12
   29.5187492        -1.09253275E-12
   29.6375008        -1.08379484E-12
   29.7562504        -1.06879859E-12
   29.8750000        -1.04811364E-12
   29.9937496        -1.02250521E-12
   30.1124992        -9.92943249E-13
   30.2312508        -9.60608221E-13
   30.3500004        -9.26896472E-13
   30.4687500        -8.93421188E-13
   30.5874996        -8.62015049E-13
   30.7062492        -8.34725138E-13
   30.8250008        -8.13809469E-13
   30.9437504        -8.01727662E-13
   31.0625000        -8.01130484E-13
   31.1812496        -8.14845533E-13
   31.2999992        -8.45858919E-13
   31.4187508        -8.97295530E-13
   31.5375004        -9.72393281E-13
   31.6562500        -1.07447471E-12
   31.7749996        -1.20691694E-12
   31.8937492        -1.37311538E-12
   32.0125008        -1.57644709E-12
   32.1312485        -1.82022670E-12
   32.2500000        -2.10766148E-12
   32.3687515        -2.44180457E-12
   32.4874992        -2.82551109E-12
   32.6062508        -3.26137403E-12
   32.7249985        -3.75168126E-12
   32.8437500        -4.29836028E-12
   32.9625015        -4.90291878E-12
   33.0812492        -5.56640498E-12
   33.2000008        -6.28934231E-12
   33.3187485        -7.07169046E-12
   33.4375000        -7.91279976E-12
   33.5562515        -8.81137611E-12
   33.6749992        -9.76543325E-12
   33.7937508        -1.07722702E-11
   33.9124985        -1.18284748E-11
   34.0312500        -1.29298681E-11
   34.1500015        -1.40715365E-11
   34.2687492        -1.52478152E-11
   34.3875008        -1.64523169E-11
   34.5062485        -1.76779442E-11
   34.6250000        -1.89169496E-11
   34.7437515        -2.01609614E-11
   34.8624992        -2.14010268E-11
   34.9812508        -2.26277035E-11
   35.0999985        -2.38311211E-11
   35.2187500        -2.50010707E-11
   35.3375015        -2.61270831E-11
   35.4562492        -2.71985455E-11
   35.5750008        -2.82048013E-11
   35.6937485        -2.91352498E-11
   35.8125000        -2.99794703E-11
   35.9312515        -3.07273408E-11
   36.0499992        -3.13691434E-11
   36.1687508        -3.18957048E-11
   36.2874985        -3.22985007E-11
   36.4062500        -3.25697871E-11
   36.5250015        -3.27027051E-11
   36.6437492        -3.26913913E-11
   36.7625008        -3.25310855E-11
   36.8812485        -3.22182350E-11
   37.0000000        -3.17505987E-11
   37.1187515        -3.11272952E-11
   37.2374992        -3.03489282E-11
   37.3562508        -2.94176211E-11
   37.4749985        -2.83370740E-11
   37.5937500        -2.71126281E-11
   37.7125015        -2.57512900E-11
   37.8312492        -2.42617523E-11
   37.9500008        -2.26543940E-11
   38.0687485        -2.09412956E-11
   38.1875000        -1.91361788E-11
   38.3062515        -1.72544062E-11
   38.4249992        -1.53129228E-11
   38.5437508        -1.33301521E-11
   38.6624985        -1.13259601E-11
   38.7812500        -9.32149583E-12
   38.9000015        -7.33910675E-12
   39.0187492        -5.40216006E-12
   39.1375008        -3.53492821E-12
   39.2562485        -1.76235025E-12
   39.3750000        -1.09884527E-13
   39.4937515         1.39672854E-12
   39.6124992         2.73170614E-12
   39.7312508         3.86943776E-12
   39.8499985         4.78477978E-12
   39.9687500         5.45331315E-12
   40.0875015         5.85161086E-12
   40.2062492         5.95754696E-12
   40.3250008         5.75057450E-12
   40.4437485         5.21204607E-12
   40.5625000         4.32549699E-12
   40.6812515         3.07694690E-12
   40.7999992         1.45521529E-12
   40.9187508        -5.47832558E-13
   41.0374985        -2.93696122E-12
   41.1562500        -5.71331177E-12
   41.2750015        -8.87417050E-12
   41.3937492        -1.24126855E-11
   41.5125008        -1.63176504E-11
   41.6312485        -2.05733746E-11
   41.7500000        -2.51593885E-11
   41.8687515        -3.00503719E-11
   41.9874992        -3.52160419E-11
   42.1062508        -4.06209684E-11
   42.2249985        -4.62245624E-11
   42.3437500        -5.19810965E-11
   42.4625015        -5.78396116E-11
   42.5812492        -6.37439823E-11
   42.7000008        -6.96330077E-11
   42.8187485        -7.54404456E-11
   42.9375000        -8.10953735E-11
   43.0562515        -8.65221644E-11
   43.1749992        -9.16407783E-11
   43.2937508        -9.63671781E-11
   43.4124985        -1.00613552E-10
   43.5312500        -1.04288682E-10
   43.6500015        -1.07298441E-10
   43.7687492        -1.09546178E-10
   43.8875008        -1.10933436E-10
   44.0062485        -1.11360303E-10
   44.1250000        -1.10726102E-10
   44.2437515        -1.08930122E-10
   44.3624992        -1.05872214E-10
   44.4812508        -1.01453630E-10
   44.5999985        -9.55777402E-11
   44.7187500        -8.81508685E-11
   44.8375015        -7.90830734E-11
   44.9562492        -6.82890341E-11
   45.0750008        -5.56890055E-11
   45.1937485        -4.12095948E-11
   45.3125000        -2.47846483E-11
   45.4312515        -6.35619639E-12
   45.5499992         1.41247968E-11
   45.6687508         3.66974645E-11
   45.7874985         6.13902471E-11
   45.9062500         8.82202922E-11
   46.0250015         1.17192436E-10
   46.1437492         1.48298762E-10
   46.2625008         1.81517759E-10
   46.3812485         2.16814344E-10
   46.5000000         2.54138904E-10
   46.6187515         2.93426977E-10
   46.7374992         3.34599182E-10
   46.8562508         3.77560899E-10
   46.9749985         4.22202717E-10
   47.0937500         4.68399819E-10
   47.2125015         5.16012399E-10
   47.3312492         5.64886471E-10
   47.4500008         6.14853890E-10
   47.5687485         6.65733024E-10
   47.6875000         7.17329196E-10
   47.8062515         7.69436181E-10
   47.9249992         8.21836432E-10
   48.0437508         8.74302575E-10
   48.1624985         9.26598465E-10
   48.2812500         9.78480852E-10
   48.4000015         1.02969977E-09
   48.5187492         1.08000109E-09
   48.6375008         1.12912757E-09
   48.7562485         1.17682031E-09
   48.8750000         1.22282018E-09
   48.9937515         1.26687039E-09
   49.1124992         1.30871725E-09
   49.2312508         1.34811218E-09
   49.3499985         1.38481326E-09
   49.4687500         1.41858747E-09
   49.5875015         1.44921120E-09
   49.7062492         1.47647272E-09
   49.8250008         1.50017299E-09
   49.9437485         1.52012680E-09
   50.0625000         1.53616508E-09
   50.1812515         1.54813440E-09
   50.2999992         1.55589897E-09
   50.4187508         1.55934121E-09
   50.5374985         1.55836211E-09
   50.6562500         1.55288182E-09
   50.7750015         1.54283963E-09
   50.8937492         1.52819402E-09
   51.0125008         1.50892310E-09
   51.1312485         1.48502366E-09
   51.2500000         1.45651025E-09
   51.3687515         1.42341550E-09
   51.4874992         1.38578815E-09
   51.6062508         1.34369282E-09
   51.7249985         1.29720801E-09
   51.8437500         1.24642519E-09
   51.9625015         1.19144672E-09
   52.0812492         1.13238519E-09
   52.2000008         1.06936038E-09
   52.3187485         1.00249831E-09
   52.4375000         9.31929534E-10
   52.5562515         8.57786842E-10
   52.6749992         7.80203846E-10
   52.7937508         6.99312996E-10
   52.9124985         6.15244633E-10
   53.0312500         5.28123767E-10
   53.1500015         4.38071163E-10
   53.2687492         3.45200118E-10
   53.3875008         2.49617105E-10
   53.5062485         1.51419460E-10
   53.6250000         5.06966552E-11
   53.7437515        -5.24717353E-11
   53.8624992        -1.58014213E-10
   53.9812508        -2.65867911E-10
   54.0999985        -3.75977915E-10
   54.2187500        -4.88296070E-10
   54.3375015        -6.02779993E-10
   54.4562492        -7.19390603E-10
   54.5750008        -8.38092373E-10
   54.6937485        -9.58848556E-10
   54.8125000        -1.08162090E-09
   54.9312515        -1.20636678E-09
   55.0499992        -1.33303779E-09
   55.1687508        -1.46157464E-09
   55.2874985        -1.59190694E-09
   55.4062500        -1.72394965E-09
   55.5250015        -1.85760041E-09
   55.6437492        -1.99273731E-09
   55.7625008        -2.12921680E-09
   55.8812485        -2.26687202E-09
   56.0000000        -2.40551024E-09
   56.1187515        -2.54491295E-09
   56.2374992        -2.68483324E-09
   56.3562508        -2.82499646E-09
   56.4749985        -2.96509883E-09
   56.5937500        -3.10480841E-09
   56.7125015        -3.24376637E-09
   56.8312492        -3.38158679E-09
   56.9500008        -3.51785912E-09
   57.0687485        -3.65215014E-09
   57.1875000        -3.78400689E-09
   57.3062515        -3.91295885E-09
   57.4249992        -4.03852152E-09
   57.5437508        -4.16019930E-09
   57.6624985        -4.27749214E-09
   57.7812500        -4.38989733E-09
   57.9000015        -4.49691351E-09
   58.0187492        -4.59804816E-09
   58.1375008        -4.69281858E-09
   58.2562485        -4.78075979E-09
   58.3750000        -4.86142726E-09
   58.4937515        -4.93440266E-09
   58.6124992        -4.99929653E-09
   58.7312508        -5.05575448E-09
   58.8499985        -5.10345854E-09
   58.9687500        -5.14213339E-09
   59.0875015        -5.17154675E-09
   59.2062492        -5.19151300E-09
   59.3250008        -5.20189580E-09
   59.4437485        -5.20260901E-09
   59.5625000        -5.19361709E-09
   59.6812515        -5.17493559E-09
   59.7999992        -5.14663157E-09
   59.9187508        -5.10882137E-09
   60.0374985        -5.06167019E-09
   60.1562500        -5.00538899E-09
   60.2750015        -4.94023134E-09
   60.3937492        -4.86649121E-09
   60.5125008        -4.78449769E-09
   60.6312485        -4.69461048E-09
   60.7500000        -4.59721683E-09
   60.8687515        -4.49272219E-09
   60.9874992        -4.38154801E-09
   61.1062508        -4.26412328E-09
   61.2249985        -4.14087920E-09
   61.3437500        -4.01224254E-09
   61.4625015        -3.87862809E-09
   61.5812492        -3.74043596E-09
   61.7000008        -3.59803964E-09
   61.8187485        -3.45178375E-09
   61.9375000        -3.30197780E-09
   62.0562515        -3.14889048E-09
   62.1749992        -2.99274450E-09
   62.2937508        -2.83371393E-09
   62.4124985        -2.67191846E-09
   62.5312500        -2.50742294E-09
   62.6500015        -2.34023423E-09
   62.7687492        -2.17030038E-09
   62.8875008        -1.99751127E-09
   63.0062485        -1.82169846E-09
   63.1250000        -1.64263803E-09
   63.2437515        -1.46005241E-09
   63.3624992        -1.27361466E-09
   63.4812508        -1.08295306E-09
   63.5999985        -8.87656004E-10
   63.7187500        -6.87279789E-10
   63.8375015        -4.81353180E-10
   63.9562492        -2.69387429E-10
   64.0749969        -5.08835023E-11
   64.1937485         1.74660286E-10
   64.3125000         4.07737982E-10
   64.4312515         6.48826604E-10
   64.5500031         8.98379426E-10
   64.6687469         1.15681453E-09
   64.7874985         1.42450707E-09
   64.9062500         1.70178138E-09
   65.0250015         1.98890171E-09
   65.1437531         2.28606578E-09
   65.2624969         2.59339950E-09
   65.3812485         2.91094882E-09
   65.5000000         3.23867644E-09
   65.6187515         3.57645802E-09
   65.7375031         3.92407928E-09
   65.8562469         4.28123403E-09
   65.9749985         4.64752326E-09
   66.0937500         5.02245934E-09
   66.2125015         5.40546008E-09
   66.3312531         5.79585935E-09
   66.4499969         6.19290619E-09
   66.5687485         6.59577193E-09
   66.6875000         7.00355374E-09
   66.8062515         7.41528217E-09
   66.9250031         7.82992871E-09
   67.0437469         8.24641155E-09
   67.1624985         8.66360406E-09
   67.2812500         9.08034536E-09
   67.4000015         9.49544621E-09
   67.5187531         9.90769777E-09
   67.6374969         1.03158797E-08
   67.7562485         1.07187699E-08
   67.8750000         1.11151479E-08
   67.9937515         1.15038086E-08
   68.1125031         1.18835617E-08
   68.2312469         1.22532438E-08
   68.3499985         1.26117179E-08
   68.4687500         1.29578801E-08
   68.5875015         1.32906655E-08
   68.7062531         1.36090446E-08
   68.8249969         1.39120306E-08
   68.9437485         1.41986769E-08
   69.0625000         1.44680801E-08
   69.1812515         1.47193715E-08
   69.3000031         1.49517252E-08
   69.4187469         1.51643462E-08
   69.5374985         1.53564716E-08
   69.6562500         1.55273732E-08
   69.7750015         1.56763367E-08
   69.8937531         1.58026729E-08
   70.0124969         1.59057088E-08
   70.1312485         1.59847779E-08
   70.2500000         1.60392233E-08
   70.3687515         1.60683822E-08
   70.4875031         1.60715956E-08
   70.6062469         1.60481939E-08
   70.7249985         1.59974984E-08
   70.8437500         1.59188183E-08
   70.9625015         1.58114446E-08
   71.0812531         1.56746616E-08
   71.1999969         1.55077284E-08
   71.3187485         1.53098991E-08
   71.4375000         1.50804098E-08
   71.5562515         1.48184904E-08
   71.6750031         1.45233647E-08
   71.7937469         1.41942582E-08
   71.9124985         1.38304008E-08
   72.0312500         1.34310376E-08
   72.1500015         1.29954350E-08
   72.2687531         1.25228867E-08
   72.3874969         1.20127277E-08
   72.5062485         1.14643441E-08
   72.6250000         1.08771800E-08
   72.7437515         1.02507505E-08
   72.8625031         9.58465396E-09
   72.9812469         8.87858054E-09
   73.0999985         8.13232504E-09
   73.2187500         7.34579553E-09
   73.3375015         6.51902621E-09
   73.4562531         5.65218672E-09
   73.5749969         4.74558703E-09
   73.6937485         3.79969078E-09
   73.8125000         2.81511636E-09
   73.9312515         1.79264714E-09
   74.0500031         7.33233751E-10
   74.1687469        -3.62005648E-10
   74.2874985        -1.49178181E-09
   74.4062500        -2.65463651E-09
   74.5250015        -3.84894250E-09
   74.6437531        -5.07291231E-09
   74.7624969        -6.32460040E-09
   74.8812485        -7.60191110E-09
   75.0000000        -8.90260843E-09
   75.1187515        -1.02243281E-08
   75.2375031        -1.15645875E-08
   75.3562469        -1.29208004E-08
