  -7.19999981        -7.91288793E-20
  -7.01949978        -7.91286984E-20
  -6.83900023        -7.91284205E-20
  -6.65850019        -7.91278195E-20
  -6.47800016        -7.91271474E-20
  -6.29750013        -7.91265529E-20
  -6.11700010        -7.91259584E-20
  -5.93650007        -7.91253509E-20
  -5.75600004        -7.91252927E-20
  -5.57550001        -7.91252669E-20
  -5.39499998        -7.91251829E-20
  -5.21449995        -7.91252281E-20
  -5.03399992        -7.91257193E-20
  -4.85349989        -7.91257257E-20
  -4.67299986        -7.91253057E-20
  -4.49249983        -7.91248016E-20
  -4.31199980        -7.91241166E-20
  -4.13149977        -7.91232442E-20
  -3.95099998        -7.91214541E-20
  -3.77049994        -7.91203426E-20
  -3.58999991        -7.91195219E-20
  -3.40949988        -7.91185977E-20
  -3.22900009        -7.91176930E-20
  -3.04850006        -7.91181195E-20
  -2.86800003        -7.91186947E-20
  -2.68750000        -7.91190501E-20
  -2.50699997        -7.91192440E-20
  -2.32649994        -7.91199484E-20
  -2.14599991        -7.91201875E-20
  -1.96550000        -7.91198967E-20
  -1.78499997        -7.91195865E-20
  -1.60450006        -7.91185396E-20
  -1.42400002        -7.91173893E-20
  -1.24349999        -7.91159223E-20
  -1.06299996        -7.91143455E-20
 -0.882499993        -7.91137768E-20
 -0.702000022        -7.91131952E-20
 -0.521499991        -7.91126265E-20
 -0.340999991        -7.91127622E-20
 -0.160500005        -7.91130660E-20
   1.99999996E-02    -7.91134796E-20
  0.200499997        -7.91134860E-20
  0.381000012        -7.91136347E-20
  0.561500013        -7.91129238E-20
  0.741999984        -7.91125942E-20
  0.922500014        -7.91111984E-20
   1.10300004        -7.91095246E-20
   1.28349996        -7.91077992E-20
   1.46399999        -7.91060931E-20
   1.64450002        -7.91044194E-20
   1.82500005        -7.91030364E-20
   2.00550008        -7.91025194E-20
   2.18600011        -7.91026099E-20
   2.36649990        -7.91032949E-20
   2.54699993        -7.91039734E-20
   2.72749996        -7.91049363E-20
   2.90799999        -7.91060091E-20
   3.08850002        -7.91062870E-20
   3.26900005        -7.91066295E-20
   3.44950008        -7.91062223E-20
   3.63000011        -7.91059251E-20
   3.81049991        -7.91052853E-20
   3.99099994        -7.91045744E-20
   4.17150021        -7.91037731E-20
   4.35200024        -7.91028102E-20
   4.53249979        -7.91017633E-20
   4.71299982        -7.91012334E-20
   4.89349985        -7.91010783E-20
   5.07399988        -7.91018861E-20
   5.25449991        -7.91021381E-20
   5.43499994        -7.91022222E-20
   5.61549997        -7.91026874E-20
   5.79600000        -7.91016858E-20
   5.97650003        -7.91002059E-20
   6.15700006        -7.90974788E-20
   6.33750010        -7.90940990E-20
   6.51800013        -7.90922184E-20
   6.69850016        -7.90938922E-20
   6.87900019        -7.91002576E-20
   7.05950022        -7.91100933E-20
   7.23999977        -7.91206786E-20
   7.42049980        -7.91270957E-20
   7.60099983        -7.91231537E-20
   7.78149986        -7.91055115E-20
   7.96199989        -7.90747572E-20
   8.14249992        -7.90368749E-20
   8.32299995        -7.90037489E-20
   8.50349998        -7.89877223E-20
   8.68400002        -7.90000072E-20
   8.86450005        -7.90434342E-20
   9.04500008        -7.91122065E-20
   9.22550011        -7.91889921E-20
   9.40600014        -7.92513021E-20
   9.58650017        -7.92797752E-20
   9.76700020        -7.92681688E-20
   9.94750023        -7.92326647E-20
   10.1280003        -7.92081659E-20
   10.3085003        -7.92401998E-20
   10.4890003        -7.93652010E-20
   10.6695004        -7.95923331E-20
   10.8500004        -7.98958373E-20
   11.0305004        -8.02218693E-20
   11.2110004        -8.05151823E-20
   11.3915005        -8.07506962E-20
   11.5719995        -8.09559985E-20
   11.7524996        -8.12085083E-20
   11.9329996        -8.15865687E-20
   12.1134996        -8.20922022E-20
   12.2939997        -8.25568644E-20
   12.4744997        -8.25942620E-20
   12.6549997        -8.16360702E-20
   12.8354998        -7.90872424E-20
   13.0159998        -7.45862037E-20
   13.1964998        -6.82927487E-20
   13.3769999        -6.10866291E-20
   13.5574999        -5.45559800E-20
   13.7379999        -5.06600304E-20
   13.9184999        -5.10398937E-20
   14.0990000        -5.60113203E-20
   14.2795000        -6.33790244E-20
   14.4600000        -6.72682984E-20
   14.6405001        -5.72302549E-20
   14.8210001        -1.78947003E-20
   15.0015001         7.05725425E-20
   15.1820002         2.30980777E-19
   15.3625002         4.86457319E-19
   15.5430002         8.56582696E-19
   15.7235003         1.35242365E-18
   15.9040003         1.97079400E-18
   16.0844994         2.68830597E-18
   16.2649994         3.45605428E-18
   16.4454994         4.19591957E-18
   16.6259995         4.79951905E-18
   16.8064995         5.13059602E-18
   16.9869995         5.03114906E-18
   17.1674995         4.33090800E-18
   17.3479996         2.85893658E-18
   17.5284996         4.55235593E-19
   17.7089996        -3.02038156E-18
   17.8894997        -7.68518287E-18
   18.0699997        -1.36388128E-17
   18.2504997        -2.09785924E-17
   18.4309998        -2.98246058E-17
   18.6114998        -4.03524412E-17
   18.7919998        -5.28295276E-17
   18.9724998        -6.76495635E-17
   19.1529999        -8.53585872E-17
   19.3334999        -1.06666217E-16
   19.5139999        -1.32436116E-16
   19.6945000        -1.63650352E-16
   19.8750000        -2.01343530E-16
   20.0555000        -2.46506175E-16
   20.2360001        -2.99957237E-16
   20.4165001        -3.62189515E-16
   20.5970001        -4.33193825E-16
   20.7775002        -5.12270756E-16
   20.9580002        -5.97838660E-16
   21.1385002        -6.87251564E-16
   21.3190002        -7.76638686E-16
   21.4995003        -8.60781774E-16
   21.6800003        -9.33041202E-16
   21.8605003        -9.85343581E-16
   22.0410004        -1.00824079E-15
   22.2215004        -9.91046442E-16
   22.4020004        -9.22053279E-16
   22.5825005        -7.88835272E-16
   22.7630005        -5.78633194E-16
   22.9435005        -2.78821938E-16
   23.1240005         1.22546556E-16
   23.3045006         6.36134555E-16
   23.4850006         1.27065826E-15
   23.6655006         2.03219213E-15
   23.8460007         2.92346645E-15
   24.0265007         3.94317766E-15
   24.2070007         5.08535839E-15
   24.3875008         6.33883205E-15
   24.5680008         7.68680621E-15
   24.7485008         9.10662062E-15
   24.9290009         1.05697184E-14
   25.1095009         1.20418439E-14
   25.2900009         1.34834982E-14
   25.4705009         1.48506915E-14
   25.6509991         1.60959536E-14
   25.8314991         1.71696526E-14
   26.0119991         1.80215475E-14
   26.1924992         1.86025816E-14
   26.3729992         1.88667797E-14
   26.5534992         1.87732232E-14
   26.7339993         1.82879716E-14
   26.9144993         1.73858103E-14
   27.0949993         1.60517317E-14
   27.2754993         1.42820089E-14
   27.4559994         1.20848198E-14
   27.6364994         9.48031631E-15
   27.8169994         6.50017065E-15
   27.9974995         3.18656611E-15
   28.1779995        -4.09280550E-16
   28.3584995        -4.22896022E-15
   28.5389996        -8.20903082E-15
   28.7194996        -1.22832991E-14
   28.8999996        -1.63851459E-14
   29.0804996        -2.04498284E-14
   29.2609997        -2.44165091E-14
   29.4414997        -2.82300801E-14
   29.6219997        -3.18425299E-14
   29.8024998        -3.52138905E-14
   29.9829998        -3.83126487E-14
   30.1634998        -4.11156332E-14
   30.3439999        -4.36073195E-14
   30.5244999        -4.57787190E-14
   30.7049999        -4.76257353E-14
   30.8855000        -4.91472301E-14
   31.0660000        -5.03428611E-14
   31.2465000        -5.12108802E-14
   31.4270000        -5.17459678E-14
   31.6075001        -5.19373973E-14
   31.7880001        -5.17675129E-14
   31.9685001        -5.12107209E-14
   32.1489983        -5.02330619E-14
   32.3294983        -4.87924351E-14
   32.5099983        -4.68394990E-14
   32.6904984        -4.43193185E-14
   32.8709984        -4.11737193E-14
   33.0514984        -3.73444019E-14
   33.2319984        -3.27766548E-14
   33.4124985        -2.74237047E-14
   33.5929985        -2.12514586E-14
   33.7734985        -1.42435688E-14
   33.9539986        -6.40655868E-15
   34.1344986         2.22525190E-15
   34.3149986         1.15852982E-14
   34.4954987         2.15711340E-14
   34.6759987         3.20419384E-14
   34.8564987         4.28174613E-14
   35.0369987         5.36785853E-14
   35.2174988         6.43698284E-14
   35.3979988         7.46037346E-14
   35.5784988         8.40672950E-14
   35.7589989         9.24302952E-14
   35.9394989         9.93552571E-14
   36.1199989         1.04508965E-13
   36.3004990         1.07574777E-13
   36.4809990         1.08265563E-13
   36.6614990         1.06336604E-13
   36.8419991         1.01597970E-13
   37.0224991         9.39257217E-14
   37.2029991         8.32715719E-14
   37.3834991         6.96704250E-14
   37.5639992         5.32454838E-14
   37.7444992         3.42105020E-14
   37.9249992         1.28692545E-14
   38.1054993        -1.03880409E-14
   38.2859993        -3.50911655E-14
   38.4664993        -6.06991399E-14
   38.6469994        -8.66120462E-14
   38.8274994        -1.12185279E-13
   39.0079994        -1.36745758E-13
   39.1884995        -1.59610010E-13
   39.3689995        -1.80103328E-13
   39.5494995        -1.97579583E-13
   39.7299995        -2.11441270E-13
   39.9104996        -2.21158974E-13
   40.0909996        -2.26289406E-13
   40.2714996        -2.26491460E-13
   40.4519997        -2.21539204E-13
   40.6324997        -2.11330939E-13
   40.8129997        -1.95894177E-13
   40.9934998        -1.75385300E-13
   41.1739998        -1.50084670E-13
   41.3544998        -1.20386801E-13
   41.5349998        -8.67865350E-14
   41.7154999        -4.98614618E-14
   41.8959999        -1.02521988E-14
   42.0764999         3.13591316E-14
   42.2570000         7.42703493E-14
   42.4375000         1.17780040E-13
   42.6180000         1.61206768E-13
   42.7985001         2.03905550E-13
   42.9790001         2.45282229E-13
   43.1595001         2.84804596E-13
   43.3400002         3.22010349E-13
   43.5205002         3.56512237E-13
   43.7010002         3.87999149E-13
   43.8815002         4.16233996E-13
   44.0620003         4.41047833E-13
   44.2425003         4.62329556E-13
   44.4230003         4.80012623E-13
   44.6035004         4.94058191E-13
   44.7840004         5.04435632E-13
   44.9645004         5.11101415E-13
   45.1450005         5.13977532E-13
   45.3255005         5.12931711E-13
   45.5060005         5.07760880E-13
   45.6865005         4.98179948E-13
   45.8670006         4.83816654E-13
   46.0475006         4.64213683E-13
   46.2280006         4.38838907E-13
   46.4085007         4.07101707E-13
   46.5890007         3.68377258E-13
   46.7695007         3.22034500E-13
   46.9500008         2.67469207E-13
   47.1305008         2.04139806E-13
   47.3110008         1.31603834E-13
   47.4915009         4.95556185E-14
   47.6720009        -4.21364298E-14
   47.8525009        -1.43393367E-13
   48.0330009        -2.53890387E-13
   48.2135010        -3.73022034E-13
   48.3940010        -4.99873092E-13
   48.5745010        -6.33192988E-13
   48.7550011        -7.71378024E-13
   48.9355011        -9.12464874E-13
   49.1160011        -1.05413356E-12
   49.2965012        -1.19372741E-12
   49.4770012        -1.32828698E-12
   49.6575012        -1.45460022E-12
   49.8380013        -1.56926739E-12
   50.0185013        -1.66878078E-12
   50.1990013        -1.74961380E-12
   50.3795013        -1.80831869E-12
   50.5600014        -1.84162538E-12
   50.7405014        -1.84654223E-12
   50.9210014        -1.82045112E-12
   51.1015015        -1.76119752E-12
   51.2820015        -1.66716836E-12
   51.4625015        -1.53735932E-12
   51.6430016        -1.37142782E-12
   51.8235016        -1.16972827E-12
   52.0040016        -9.33334356E-13
   52.1845016        -6.64044015E-13
   52.3650017        -3.64370101E-13
   52.5455017        -3.75172339E-14
   52.7260017         3.12654633E-13
   52.9065018         6.81677750E-13
   53.0870018         1.06453648E-12
   53.2675018         1.45573549E-12
   53.4480019         1.84938067E-12
   53.6285019         2.23926520E-12
   53.8089981         2.61897080E-12
   53.9894981         2.98197339E-12
   54.1699982         3.32176040E-12
   54.3504982         3.63195476E-12
   54.5309982         3.90643854E-12
   54.7114983         4.13947435E-12
   54.8919983         4.32582355E-12
   55.0724983         4.46084445E-12
   55.2529984         4.54058189E-12
   55.4334984         4.56183702E-12
   55.6139984         4.52221377E-12
   55.7944984         4.42015435E-12
   55.9749985         4.25495056E-12
   56.1554985         4.02674942E-12
   56.3359985         3.73654796E-12
   56.5164986         3.38618500E-12
   56.6969986         2.97833242E-12
   56.8774986         2.51648745E-12
   57.0579987         2.00496585E-12
   57.2384987         1.44888994E-12
   57.4189987         8.54175346E-13
   57.5994987         2.27506192E-13
   57.7799988        -4.23698376E-13
   57.9604988        -1.09133330E-12
   58.1409988        -1.76667166E-12
   58.3214989        -2.44044607E-12
   58.5019989        -3.10294607E-12
   58.6824989        -3.74412827E-12
   58.8629990        -4.35374002E-12
   59.0434990        -4.92144823E-12
   59.2239990        -5.43697943E-12
   59.4044991        -5.89026787E-12
   59.5849991        -6.27160737E-12
   59.7654991        -6.57182381E-12
   59.9459991        -6.78245437E-12
   60.1264992        -6.89594519E-12
   60.3069992        -6.90586043E-12
   60.4874992        -6.80710566E-12
   60.6679993        -6.59615591E-12
   60.8484993        -6.27128210E-12
   61.0289993        -5.83276526E-12
   61.2094994        -5.28307910E-12
   61.3899994        -4.62703747E-12
   61.5704994        -3.87189066E-12
   61.7509995        -3.02735810E-12
   61.9314995        -2.10560692E-12
   62.1119995        -1.12116154E-12
   62.2924995        -9.07473966E-14
   62.4729996         9.66918602E-13
   62.6534996         2.03140022E-12
   62.8339996         3.08086109E-12
   63.0144997         4.09243559E-12
   63.1949997         5.04264122E-12
   63.3754997         5.90783325E-12
   63.5559998         6.66469527E-12
   63.7364998         7.29076088E-12
   63.9169998         7.76496402E-12
   64.0975037         8.06819542E-12
   64.2779999         8.18386157E-12
   64.4585037         8.09842905E-12
   64.6389999         7.80193445E-12
   64.8195038         7.28844242E-12
   65.0000000         6.55644376E-12
   65.1804962         5.60916504E-12
   65.3610001         4.45478290E-12
   65.5414963         3.10652307E-12
   65.7220001         1.58263658E-12
   65.9024963        -9.37570673E-14
   66.0830002        -1.89496314E-12
   66.2634964        -3.78914088E-12
   66.4440002        -5.74085701E-12
   66.6244965        -7.71176352E-12
   66.8050003        -9.66136719E-12
   66.9854965        -1.15478807E-11
   67.1660004        -1.33291243E-11
   67.3464966        -1.49634610E-11
   67.5270004        -1.64107183E-11
   67.7074966        -1.76331085E-11
   67.8880005        -1.85960951E-11
   68.0684967        -1.92692078E-11
   68.2490005        -1.96267950E-11
   68.4294968        -1.96486941E-11
   68.6100006        -1.93207984E-11
   68.7904968        -1.86355376E-11
   68.9710007        -1.75922228E-11
   69.1514969        -1.61972744E-11
   69.3320007        -1.44643013E-11
   69.5124969        -1.24140351E-11
   69.6930008        -1.00740952E-11
   69.8734970        -7.47861321E-12
   70.0540009        -4.66767814E-12
   70.2344971        -1.68665190E-12
   70.4150009         1.41466103E-12
   70.5954971         4.58295034E-12
   70.7760010         7.76243132E-12
   70.9564972         1.08959335E-11
   71.1370010         1.39260348E-11
   71.3174973         1.67962051E-11
   71.4980011         1.94519331E-11
   71.6784973         2.18418131E-11
   71.8590012         2.39185737E-11
   72.0394974         2.56400127E-11
   72.2200012         2.69698448E-11
   72.4004974         2.78784183E-11
   72.5810013         2.83433155E-11
   72.7614975         2.83498138E-11
   72.9420013         2.78911963E-11
   73.1224976         2.69689236E-11
   73.3030014         2.55926235E-11
   73.4834976         2.37799693E-11
   73.6640015         2.15563782E-11
   73.8444977         1.89545966E-11
   74.0250015         1.60141518E-11
   74.2054977         1.27807270E-11
   74.3860016         9.30540627E-12
   74.5664978         5.64387512E-12
   74.7470016         1.85554285E-12
   74.9274979        -1.99737275E-12
   75.1080017        -5.85081202E-12
   75.2884979        -9.63985749E-12
   75.4690018        -1.32997485E-11
   75.6494980        -1.67669038E-11
   75.8300018        -1.99799569E-11
   76.0104980        -2.28807581E-11
   76.1910019        -2.54153486E-11
   76.3714981        -2.75348581E-11
   76.5520020        -2.91963467E-11
   76.7324982        -3.03635346E-11
   76.9130020        -3.10074362E-11
   77.0934982        -3.11068914E-11
   77.2740021        -3.06489764E-11
   77.4544983        -2.96292678E-11
   77.6350021        -2.80520104E-11
   77.8154984        -2.59301417E-11
   77.9960022        -2.32851759E-11
   78.1764984        -2.01469431E-11
   78.3570023        -1.65531894E-11
   78.5374985        -1.25490070E-11
   78.7180023        -8.18611238E-12
   78.8984985        -3.52198349E-12
   79.0790024         1.38113533E-12
   79.2594986         6.45730778E-12
   79.4400024         1.16380456E-11
   79.6204987         1.68534683E-11
   79.8010025         2.20334653E-11
   79.9814987         2.71088239E-11
   80.1620026         3.20123025E-11
   80.3424988         3.66796420E-11
   80.5230026         4.10504894E-11
   80.7034988         4.50692469E-11
   80.8840027         4.86858262E-11
   81.0644989         5.18563456E-11
   81.2450027         5.45437306E-11
   81.4254990         5.67182343E-11
   81.6060028         5.83578533E-11
   81.7864990         5.94485849E-11
   81.9670029         5.99845729E-11
   82.1474991         5.99680999E-11
   82.3280029         5.94093663E-11
   82.5084991         5.83261564E-11
   82.6890030         5.67432698E-11
   82.8694992         5.46917928E-11
