  -7.19999981         1.90504120E-18
  -7.01949978         1.90504141E-18
  -6.83900023         1.90504162E-18
  -6.65850019         1.90504183E-18
  -6.47800016         1.90504245E-18
  -6.29750013         1.90504286E-18
  -6.11700010         1.90504369E-18
  -5.93650007         1.90504389E-18
  -5.75600004         1.90504369E-18
  -5.57550001         1.90504307E-18
  -5.39499998         1.90504183E-18
  -5.21449995         1.90504058E-18
  -5.03399992         1.90503893E-18
  -4.85349989         1.90503686E-18
  -4.67299986         1.90503479E-18
  -4.49249983         1.90503273E-18
  -4.31199980         1.90502983E-18
  -4.13149977         1.90502673E-18
  -3.95099998         1.90502177E-18
  -3.77049994         1.90501411E-18
  -3.58999991         1.90500233E-18
  -3.40949988         1.90498351E-18
  -3.22900009         1.90494587E-18
  -3.04850006         1.90486832E-18
  -2.86800003         1.90472274E-18
  -2.68750000         1.90447872E-18
  -2.50699997         1.90410422E-18
  -2.32649994         1.90354587E-18
  -2.14599991         1.90268705E-18
  -1.96550000         1.90130752E-18
  -1.78499997         1.89907475E-18
  -1.60450006         1.89557412E-18
  -1.42400002         1.89037385E-18
  -1.24349999         1.88307687E-18
  -1.06299996         1.87331924E-18
 -0.882499993         1.86063091E-18
 -0.702000022         1.84405649E-18
 -0.521499991         1.82150465E-18
 -0.340999991         1.78914679E-18
 -0.160500005         1.74162299E-18
   1.99999996E-02     1.67387648E-18
  0.200499997         1.58438474E-18
  0.381000012         1.47746276E-18
  0.561500013         1.36081313E-18
  0.741999984         1.23607688E-18
  0.922500014         1.08581094E-18
   1.10300004         8.67087269E-19
   1.28349996         5.23051892E-19
   1.46399999         1.40489373E-20
   1.64450002        -6.47846460E-19
   1.82500005        -1.38978740E-18
   2.00550008        -2.11599025E-18
   2.18600011        -2.78292716E-18
   2.36649990        -3.46626065E-18
   2.54699993        -4.36379504E-18
   2.72749996        -5.71410577E-18
   2.90799999        -7.67589777E-18
   3.08850002        -1.02593665E-17
   3.26900005        -1.33790343E-17
   3.44950008        -1.70046050E-17
   3.63000011        -2.12835160E-17
   3.81049991        -2.64871951E-17
   3.99099994        -3.27414531E-17
   4.17150021        -3.96894129E-17
   4.35200024        -4.63668648E-17
   4.53249979        -5.15140259E-17
   4.71299982        -5.42928366E-17
   4.89349985        -5.50737381E-17
   5.07399988        -5.58277827E-17
   5.25449991        -5.98436784E-17
   5.43499994        -7.08936865E-17
   5.61549997        -9.23035030E-17
   5.79600000        -1.26352884E-16
   5.97650003        -1.74017532E-16
   6.15700006        -2.34585589E-16
   6.33750010        -3.04619676E-16
   6.51800013        -3.76325780E-16
   6.69850016        -4.36332479E-16
   6.87900019        -4.66436215E-16
   7.05950022        -4.47370192E-16
   7.23999977        -3.65104790E-16
   7.42049980        -2.17444726E-16
   7.60099983        -1.79644836E-17
   7.78149986         2.04679027E-16
   7.96199989         4.11767941E-16
   8.14249992         5.61532446E-16
   8.32299995         6.15371077E-16
   8.50349998         5.42091504E-16
   8.68400002         3.21482461E-16
   8.86450005        -4.98240695E-17
   9.04500008        -5.47704368E-16
   9.22550011        -1.10520679E-15
   9.40600014        -1.59601770E-15
   9.58650017        -1.82301883E-15
   9.76700020        -1.51966012E-15
   9.94750023        -3.71399383E-16
   10.1280003         1.93809842E-15
   10.3085003         5.65680112E-15
   10.4890003         1.08794165E-14
   10.6695004         1.74666952E-14
   10.8500004         2.49939636E-14
   11.0305004         3.27520773E-14
   11.2110004         3.98107518E-14
   11.3915005         4.51317111E-14
   11.5719995         4.76971673E-14
   11.7524996         4.66043491E-14
   11.9329996         4.10786415E-14
   12.1134996         3.03749572E-14
   12.2939997         1.35657222E-14
   12.4744997        -1.07554973E-14
   12.6549997        -4.47939856E-14
   12.8354998        -9.18189271E-14
   13.0159998        -1.56284111E-13
   13.1964998        -2.43744722E-13
   13.3769999        -3.60541566E-13
   13.5574999        -5.13314489E-13
   13.7379999        -7.08475759E-13
   13.9184999        -9.51819895E-13
   14.0990000        -1.24843061E-12
   14.2795000        -1.60296982E-12
   14.4600000        -2.02027674E-12
   14.6405001        -2.50606567E-12
   14.8210001        -3.06741438E-12
   15.0015001        -3.71265952E-12
   15.1820002        -4.45038277E-12
   15.3625002        -5.28733741E-12
   15.5430002        -6.22517359E-12
   15.7235003        -7.25616615E-12
   15.9040003        -8.35821082E-12
   16.0844994        -9.48954196E-12
   16.2649994        -1.05837830E-11
   16.4454994        -1.15457297E-11
   16.6259995        -1.22483178E-11
   16.8064995        -1.25307412E-11
   16.9869995        -1.21974705E-11
   17.1674995        -1.10176946E-11
   17.3479996        -8.72462085E-12
   17.5284996        -5.01435005E-12
   17.7089996         4.55848792E-13
   17.8894997         8.06945483E-12
   18.0699997         1.82525071E-11
   18.2504997         3.14737333E-11
   18.4309998         4.82430519E-11
   18.6114998         6.91058322E-11
   18.7919998         9.46331069E-11
   18.9724998         1.25406602E-10
   19.1529999         1.61998748E-10
   19.3334999         2.04948364E-10
   19.5139999         2.54734178E-10
   19.6945000         3.11746656E-10
   19.8750000         3.76262160E-10
   20.0555000         4.48420440E-10
   20.2360001         5.28205535E-10
   20.4165001         6.15432927E-10
   20.5970001         7.09742098E-10
   20.7775002         8.10594591E-10
   20.9580002         9.17274312E-10
   21.1385002         1.02889275E-09
   21.3190002         1.14439347E-09
   21.4995003         1.26255828E-09
   21.6800003         1.38201484E-09
   21.8605003         1.50124402E-09
   22.0410004         1.61859248E-09
   22.2215004         1.73228976E-09
   22.4020004         1.84047311E-09
   22.5825005         1.94122118E-09
   22.7630005         2.03259742E-09
   22.9435005         2.11270201E-09
   23.1240005         2.17973106E-09
   23.3045006         2.23204077E-09
   23.4850006         2.26821095E-09
   23.6655006         2.28710384E-09
   23.8460007         2.28791497E-09
   24.0265007         2.27021024E-09
   24.2070007         2.23394792E-09
   24.3875008         2.17948282E-09
   24.5680008         2.10755924E-09
   24.7485008         2.01928430E-09
   24.9290009         1.91609284E-09
   25.1095009         1.79970350E-09
   25.2900009         1.67207015E-09
   25.4705009         1.53532997E-09
   25.6509991         1.39175493E-09
   25.8314991         1.24370569E-09
   26.0119991         1.09358655E-09
   26.1924992         9.43807477E-10
   26.3729992         7.96741007E-10
   26.5534992         6.54682142E-10
   26.7339993         5.19802479E-10
   26.9144993         3.94101057E-10
   27.0949993         2.79347517E-10
   27.2754993         1.77016637E-10
   27.4559994         8.82163925E-11
   27.6364994         1.36081459E-11
   27.8169994        -4.66719025E-11
   27.9974995        -9.30898622E-11
   28.1779995        -1.26776631E-10
   28.3584995        -1.49571133E-10
   28.5389996        -1.64039352E-10
   28.7194996        -1.73458997E-10
   28.8999996        -1.81773471E-10
   29.0804996        -1.93512803E-10
   29.2609997        -2.13686888E-10
   29.4414997        -2.47656118E-10
   29.6219997        -3.00995673E-10
   29.8024998        -3.79360071E-10
   29.9829998        -4.88364738E-10
   30.1634998        -6.33484543E-10
   30.3439999        -8.19984303E-10
   30.5244999        -1.05286779E-09
   30.7049999        -1.33684019E-09
   30.8855000        -1.67627690E-09
   31.0660000        -2.07518203E-09
   31.2465000        -2.53711918E-09
   31.4270000        -3.06511017E-09
   31.6075001        -3.66148689E-09
   31.7880001        -4.32770353E-09
   31.9685001        -5.06411046E-09
   32.1489983        -5.86971138E-09
   32.3294983        -6.74191858E-09
   32.5099983        -7.67634134E-09
   32.6904984        -8.66662120E-09
   32.8709984        -9.70434400E-09
   33.0514984        -1.07790346E-08
   33.2319984        -1.18782433E-08
   33.4124985        -1.29877264E-08
   33.5929985        -1.40916949E-08
   33.7734985        -1.51731321E-08
   33.9539986        -1.62141305E-08
   34.1344986        -1.71962498E-08
   34.3149986        -1.81008488E-08
   34.4954987        -1.89094056E-08
   34.6759987        -1.96037888E-08
   34.8564987        -2.01665156E-08
   35.0369987        -2.05809823E-08
   35.2174988        -2.08316813E-08
   35.3979988        -2.09044497E-08
   35.5784988        -2.07867199E-08
   35.7589989        -2.04678301E-08
   35.9394989        -1.99393586E-08
   36.1199989        -1.91954914E-08
   36.3004990        -1.82334112E-08
   36.4809990        -1.70536669E-08
   36.6614990        -1.56604969E-08
   36.8419991        -1.40620822E-08
   37.0224991        -1.22706929E-08
   37.2029991        -1.03027187E-08
   37.3834991        -8.17855561E-09
   37.5639992        -5.92235505E-09
   37.7444992        -3.56165786E-09
   37.9249992        -1.12690501E-09
   38.1054993         1.34913047E-09
   38.2859993         3.83195609E-09
   38.4664993         6.28600771E-09
   38.6469994         8.67528449E-09
   38.8274994         1.09639746E-08
   39.0079994         1.31170728E-08
   39.1884995         1.51009480E-08
   39.3689995         1.68839147E-08
   39.5494995         1.84367650E-08
   39.7299995         1.97333048E-08
   39.9104996         2.07508588E-08
   40.0909996         2.14707736E-08
   40.2714996         2.18788596E-08
   40.4519997         2.19658087E-08
   40.6324997         2.17274909E-08
   40.8129997         2.11651709E-08
   40.9934998         2.02855652E-08
   41.1739998         1.91007814E-08
   41.3544998         1.76280892E-08
   41.5349998         1.58895812E-08
   41.7154999         1.39117020E-08
   41.8959999         1.17247119E-08
   42.0764999         9.36209688E-09
   42.2570000         6.85994594E-09
   42.4375000         4.25635038E-09
   42.6180000         1.59081337E-09
   42.7985001        -1.09630982E-09
   42.9790001        -3.76434794E-09
   43.1595001        -6.37286357E-09
   43.3400002        -8.88221408E-09
   43.5205002        -1.12541425E-08
   43.7010002        -1.34524187E-08
   43.8815002        -1.54434989E-08
   44.0620003        -1.71972072E-08
   44.2425003        -1.86873965E-08
   44.4230003        -1.98925409E-08
   44.6035004        -2.07962429E-08
   44.7840004        -2.13875371E-08
   44.9645004        -2.16610374E-08
   45.1450005        -2.16168310E-08
   45.3255005        -2.12601616E-08
   45.5060005        -2.06008952E-08
   45.6865005        -1.96528429E-08
   45.8670006        -1.84329494E-08
   46.0475006        -1.69604526E-08
   46.2280006        -1.52560986E-08
   46.4085007        -1.33414284E-08
   46.5890007        -1.12382548E-08
   46.7695007        -8.96829544E-09
   46.9500008        -6.55305099E-09
   47.1305008        -4.01386036E-09
   47.3110008        -1.37211831E-09
   47.4915009         1.35039602E-09
   47.6720009         4.13113899E-09
   47.8525009         6.94646429E-09
   48.0330009         9.77133663E-09
   48.2135010         1.25791573E-08
   48.3940010         1.53417865E-08
   48.5745010         1.80296809E-08
   48.7550011         2.06122177E-08
   48.9355011         2.30581207E-08
   49.1160011         2.53359769E-08
   49.2965012         2.74147691E-08
   49.4770012         2.92644202E-08
   49.6575012         3.08562704E-08
   49.8380013         3.21634843E-08
   50.0185013         3.31614380E-08
   50.1990013         3.38279911E-08
   50.3795013         3.41437882E-08
   50.5600014         3.40925546E-08
   50.7405014         3.36614399E-08
   50.9210014         3.28415020E-08
   51.1015015         3.16282396E-08
   51.2820015         3.00223100E-08
   51.4625015         2.80302910E-08
   51.6430016         2.56654840E-08
   51.8235016         2.29486847E-08
   52.0040016         1.99088479E-08
   52.1845016         1.65835772E-08
   52.3650017         1.30193216E-08
   52.5455017         9.27128951E-09
   52.7260017         5.40299094E-09
   52.9065018         1.48542079E-09
   53.0870018        -2.40408382E-09
   53.2675018        -6.18329121E-09
   53.4480019        -9.76673586E-09
   53.6285019        -1.30675213E-08
   53.8089981        -1.59992268E-08
   53.9894981        -1.84777882E-08
   54.1699982        -2.04233501E-08
   54.3504982        -2.17619949E-08
   54.5309982        -2.24273240E-08
   54.7114983        -2.23618368E-08
   54.8919983        -2.15181153E-08
   55.0724983        -1.98597547E-08
   55.2529984        -1.73620549E-08
   55.4334984        -1.40124428E-08
   55.6139984        -9.81059411E-09
   55.7944984        -4.76830220E-09
   55.9749985         1.09099541E-09
   56.1554985         7.73289077E-09
   56.3359985         1.51129544E-08
   56.5164986         2.31778170E-08
   56.6969986         3.18663282E-08
   56.8774986         4.11107912E-08
   57.0579987         5.08380431E-08
   57.2384987         6.09704500E-08
   57.4189987         7.14267046E-08
   57.5994987         8.21223622E-08
   57.7799988         9.29700974E-08
   57.9604988         1.03879891E-07
   58.1409988         1.14758834E-07
   58.3214989         1.25511050E-07
   58.5019989         1.36037485E-07
   58.6824989         1.46235735E-07
   58.8629990         1.56000169E-07
   59.0434990         1.65222019E-07
   59.2239990         1.73789786E-07
   59.4044991         1.81589840E-07
   59.5849991         1.88507173E-07
   59.7654991         1.94426306E-07
   59.9459991         1.99232261E-07
   60.1264992         2.02811677E-07
   60.3069992         2.05053951E-07
   60.4874992         2.05852459E-07
   60.6679993         2.05105877E-07
   60.8484993         2.02719747E-07
   61.0289993         1.98608149E-07
   61.2094994         1.92695751E-07
   61.3899994         1.84920154E-07
   61.5704994         1.75234575E-07
   61.7509995         1.63610807E-07
   61.9314995         1.50042439E-07
   62.1119995         1.34548060E-07
   62.2924995         1.17174444E-07
   62.4729996         9.79993331E-08
   62.6534996         7.71337554E-08
   62.8339996         5.47235395E-08
   63.0144997         3.09499342E-08
   63.1949997         6.02921002E-09
   63.3754997        -1.97889474E-08
   63.5559998        -4.62240770E-08
   63.7364998        -7.29687741E-08
   63.9169998        -9.96934588E-08
   64.0975037        -1.26051930E-07
   64.2779999        -1.51687658E-07
   64.4585037        -1.76240590E-07
   64.6389999        -1.99354048E-07
   64.8195038        -2.20681983E-07
   65.0000000        -2.39895911E-07
   65.1804962        -2.56691834E-07
   65.3610001        -2.70796647E-07
   65.5414963        -2.81973911E-07
   65.7220001        -2.90029277E-07
   65.9024963        -2.94814811E-07
   66.0830002        -2.96232571E-07
   66.2634964        -2.94237310E-07
   66.4440002        -2.88837896E-07
   66.6244965        -2.80097794E-07
   66.8050003        -2.68134357E-07
   66.9854965        -2.53117008E-07
   67.1660004        -2.35264437E-07
   67.3464966        -2.14840568E-07
   67.5270004        -1.92149827E-07
   67.7074966        -1.67531539E-07
   67.8880005        -1.41353595E-07
   68.0684967        -1.14005530E-07
   68.2490005        -8.58913296E-08
   68.4294968        -5.74217793E-08
   68.6100006        -2.90067970E-08
   68.7904968        -1.04777831E-09
   68.9710007         2.60698858E-08
   69.1514969         5.19839212E-08
   69.3320007         7.63617436E-08
   69.5124969         9.89063338E-08
   69.6930008         1.19361275E-07
   69.8734970         1.37514647E-07
   70.0540009         1.53201924E-07
   70.2344971         1.66307586E-07
   70.4150009         1.76765553E-07
   70.5954971         1.84558260E-07
   70.7760010         1.89714768E-07
   70.9564972         1.92307681E-07
   71.1370010         1.92449292E-07
   71.3174973         1.90286968E-07
   71.4980011         1.85998047E-07
   71.6784973         1.79784479E-07
   71.8590012         1.71867413E-07
   72.0394974         1.62481854E-07
   72.2200012         1.51871433E-07
   72.4004974         1.40283746E-07
   72.5810013         1.27965876E-07
   72.7614975         1.15160461E-07
   72.9420013         1.02102184E-07
   73.1224976         8.90146765E-08
   73.3030014         7.61076606E-08
   73.4834976         6.35745181E-08
   73.6640015         5.15900602E-08
   73.8444977         4.03085387E-08
   74.0250015         2.98619227E-08
   74.2054977         2.03583799E-08
   74.3860016         1.18811361E-08
   74.5664978         4.48771065E-09
   74.7470016        -1.79041970E-09
   74.9274979        -6.94760782E-09
   75.1080017        -1.10032596E-08
   75.2884979        -1.40004595E-08
   75.4690018        -1.60041349E-08
   75.6494980        -1.70986958E-08
   75.8300018        -1.73853874E-08
   76.0104980        -1.69794365E-08
   76.1910019        -1.60071991E-08
   76.3714981        -1.46034029E-08
   76.5520020        -1.29086768E-08
   76.7324982        -1.10673870E-08
   76.9130020        -9.22590093E-09
   77.0934982        -7.53118723E-09
   77.2740021        -6.12972961E-09
   77.4544983        -5.16663912E-09
   77.6350021        -4.78490447E-09
   77.8154984        -5.12458520E-09
   77.9960022        -6.32194830E-09
   78.1764984        -8.50837267E-09
   78.3570023        -1.18092336E-08
   78.5374985        -1.63424172E-08
   78.7180023        -2.22168772E-08
   78.8984985        -2.95309199E-08
   79.0790024        -3.83706684E-08
   79.2594986        -4.88084915E-08
   79.4400024        -6.09015132E-08
   79.6204987        -7.46902984E-08
   79.8010025        -9.01976662E-08
   79.9814987        -1.07427425E-07
   80.1620026        -1.26363432E-07
   80.3424988        -1.46968603E-07
   80.5230026        -1.69184020E-07
   80.7034988        -1.92928198E-07
   80.8840027        -2.18096488E-07
   81.0644989        -2.44560681E-07
   81.2450027        -2.72169046E-07
   81.4254990        -3.00746848E-07
   81.6060028        -3.30097095E-07
   81.7864990        -3.60002446E-07
   81.9670029        -3.90227086E-07
   82.1474991        -4.20519882E-07
   82.3280029        -4.50617705E-07
   82.5084991        -4.80249582E-07
   82.6890030        -5.09140648E-07
   82.8694992        -5.37017058E-07
