  -7.19999981        -7.19472598E-19
  -7.01949978        -7.19472598E-19
  -6.83900023        -7.19472391E-19
  -6.65850019        -7.19472753E-19
  -6.47800016        -7.19472856E-19
  -6.29750013        -7.19473218E-19
  -6.11700010        -7.19473683E-19
  -5.93650007        -7.19473942E-19
  -5.75600004        -7.19473787E-19
  -5.57550001        -7.19473218E-19
  -5.39499998        -7.19472753E-19
  -5.21449995        -7.19472236E-19
  -5.03399992        -7.19471977E-19
  -4.85349989        -7.19471512E-19
  -4.67299986        -7.19471357E-19
  -4.49249983        -7.19471357E-19
  -4.31199980        -7.19471150E-19
  -4.13149977        -7.19472184E-19
  -3.95099998        -7.19474511E-19
  -3.77049994        -7.19477457E-19
  -3.58999991        -7.19478026E-19
  -3.40949988        -7.19475028E-19
  -3.22900009        -7.19473011E-19
  -3.04850006        -7.19485781E-19
  -2.86800003        -7.19524038E-19
  -2.68750000        -7.19575427E-19
  -2.50699997        -7.19594400E-19
  -2.32649994        -7.19519592E-19
  -2.14599991        -7.19322465E-19
  -1.96550000        -7.19068520E-19
  -1.78499997        -7.18951112E-19
  -1.60450006        -7.19265286E-19
  -1.42400002        -7.20242961E-19
  -1.24349999        -7.21690269E-19
  -1.06299996        -7.22525825E-19
 -0.882499993        -7.20708199E-19
 -0.702000022        -7.14352453E-19
 -0.521499991        -7.04365385E-19
 -0.340999991        -6.97209704E-19
 -0.160500005        -7.04311515E-19
   1.99999996E-02    -7.34636421E-19
  0.200499997        -7.81550797E-19
  0.381000012        -8.13244222E-19
  0.561500013        -7.81130382E-19
  0.741999984        -6.53922515E-19
  0.922500014        -4.63971551E-19
   1.10300004        -3.28898075E-19
   1.28349996        -4.08875248E-19
   1.46399999        -7.95205274E-19
   1.64450002        -1.38768471E-18
   1.82500005        -1.86198439E-18
   2.00550008        -1.80256242E-18
   2.18600011        -9.70861471E-19
   2.36649990         4.48073243E-19
   2.54699993         1.82114648E-18
   2.72749996         2.35631228E-18
   2.90799999         1.57474509E-18
   3.08850002        -3.46105293E-19
   3.26900005        -2.64556969E-18
   3.44950008        -4.48606599E-18
   3.63000011        -5.55637690E-18
   3.81049991        -6.27499502E-18
   3.99099994        -7.31374072E-18
   4.17150021        -8.67073631E-18
   4.35200024        -8.97328672E-18
   4.53249979        -5.70513334E-18
   4.71299982         3.47495225E-18
   4.89349985         1.89123465E-17
   5.07399988         3.76615267E-17
   5.25449991         5.34989715E-17
   5.43499994         5.82425016E-17
   5.61549997         4.36645782E-17
   5.79600000         3.25638942E-18
   5.97650003        -6.62067951E-17
   6.15700006        -1.62610606E-16
   6.33750010        -2.75406648E-16
   6.51800013        -3.82258346E-16
   6.69850016        -4.47915469E-16
   6.87900019        -4.28340247E-16
   7.05950022        -2.81360363E-16
   7.23999977         1.84095233E-17
   7.42049980         4.65836410E-16
   7.60099983         1.01866808E-15
   7.78149986         1.60106602E-15
   7.96199989         2.11575341E-15
   8.14249992         2.46045305E-15
   8.32299995         2.54531092E-15
   8.50349998         2.31183498E-15
   8.68400002         1.75674210E-15
   8.86450005         9.62386235E-16
   9.04500008         1.29029985E-16
   9.22550011        -4.02778831E-16
   9.40600014        -1.53591664E-16
   9.58650017         1.46132443E-15
   9.76700020         5.06746439E-15
   9.94750023         1.12451095E-14
   10.1280003         2.04331215E-14
   10.3085003         3.28306718E-14
   10.4890003         4.83030567E-14
   10.6695004         6.63017208E-14
   10.8500004         8.58168517E-14
   11.0305004         1.05383035E-13
   11.2110004         1.23146339E-13
   11.3915005         1.36972302E-13
   11.5719995         1.44542066E-13
   11.7524996         1.43364839E-13
   11.9329996         1.30643556E-13
   12.1134996         1.02958000E-13
   12.2939997         5.57654102E-14
   12.4744997        -1.72580761E-14
   12.6549997        -1.25006152E-13
   12.8354998        -2.79830412E-13
   13.0159998        -4.98492415E-13
   13.1964998        -8.03120211E-13
   13.3769999        -1.22211410E-12
   13.5574999        -1.79095909E-12
   13.7379999        -2.55297151E-12
   13.9184999        -3.56006045E-12
   14.0990000        -4.87362711E-12
   14.2795000        -6.56570328E-12
   14.4600000        -8.72028665E-12
   14.6405001        -1.14347464E-11
   14.8210001        -1.48210819E-11
   15.0015001        -1.90067875E-11
   15.1820002        -2.41352060E-11
   15.3625002        -3.03652034E-11
   15.5430002        -3.78701306E-11
   15.7235003        -4.68359795E-11
   15.9040003        -5.74588675E-11
   16.0844994        -6.99417121E-11
   16.2649994        -8.44904285E-11
   16.4454994        -1.01309836E-10
   16.6259995        -1.20599281E-10
   16.8064995        -1.42548043E-10
   16.9869995        -1.67329955E-10
   17.1674995        -1.95096841E-10
   17.3479996        -2.25970243E-10
   17.5284996        -2.60031136E-10
   17.7089996        -2.97308594E-10
   17.8894997        -3.37766815E-10
   18.0699997        -3.81292831E-10
   18.2504997        -4.27685248E-10
   18.4309998        -4.76645445E-10
   18.6114998        -5.27772381E-10
   18.7919998        -5.80562154E-10
   18.9724998        -6.34412356E-10
   19.1529999        -6.88631374E-10
   19.3334999        -7.42450990E-10
   19.5139999        -7.95041422E-10
   19.6945000        -8.45525316E-10
   19.8750000        -8.92990792E-10
   20.0555000        -9.36502209E-10
   20.2360001        -9.75108105E-10
   20.4165001        -1.00784947E-09
   20.5970001        -1.03376863E-09
   20.7775002        -1.05192188E-09
   20.9580002        -1.06139542E-09
   21.1385002        -1.06132914E-09
   21.3190002        -1.05094444E-09
   21.4995003        -1.02957798E-09
   21.6800003        -9.96716376E-10
   21.8605003        -9.52028900E-10
   22.0410004        -8.95392316E-10
   22.2215004        -8.26903934E-10
   22.4020004        -7.46880890E-10
   22.5825005        -6.55845322E-10
   22.7630005        -5.54494783E-10
   22.9435005        -4.43665660E-10
   23.1240005        -3.24289845E-10
   23.3045006        -1.97351635E-10
   23.4850006        -6.38489470E-11
   23.6655006         7.52371221E-11
   23.8460007         2.18963986E-10
   24.0265007         3.66438296E-10
   24.2070007         5.16821252E-10
   24.3875008         6.69329925E-10
   24.5680008         8.23239532E-10
   24.7485008         9.77890213E-10
   24.9290009         1.13270082E-09
   25.1095009         1.28718403E-09
   25.2900009         1.44096557E-09
   25.4705009         1.59380142E-09
   25.6509991         1.74558890E-09
   25.8314991         1.89637039E-09
   26.0119991         2.04632133E-09
   26.1924992         2.19572871E-09
   26.3729992         2.34495334E-09
   26.5534992         2.49438270E-09
   26.7339993         2.64437960E-09
   26.9144993         2.79523094E-09
   27.0949993         2.94710234E-09
   27.2754993         3.10000137E-09
   27.4559994         3.25375549E-09
   27.6364994         3.40799455E-09
   27.8169994         3.56214969E-09
   27.9974995         3.71545661E-09
   28.1779995         3.86696763E-09
   28.3584995         4.01557143E-09
   28.5389996         4.16000789E-09
   28.7194996         4.29889280E-09
   28.8999996         4.43073844E-09
   29.0804996         4.55397986E-09
   29.2609997         4.66700323E-09
   29.4414997         4.76818229E-09
   29.6219997         4.85592100E-09
   29.8024998         4.92869701E-09
   29.9829998         4.98510966E-09
   30.1634998         5.02392128E-09
   30.3439999         5.04409670E-09
   30.5244999         5.04483433E-09
   30.7049999         5.02558883E-09
   30.8855000         4.98608088E-09
   31.0660000         4.92629626E-09
   31.2465000         4.84647167E-09
   31.4270000         4.74707074E-09
   31.6075001         4.62874983E-09
   31.7880001         4.49232562E-09
   31.9685001         4.33874092E-09
   32.1489983         4.16902912E-09
   32.3294983         3.98428357E-09
   32.5099983         3.78563136E-09
   32.6904984         3.57420160E-09
   32.8709984         3.35111028E-09
   33.0514984         3.11743587E-09
   33.2319984         2.87420487E-09
   33.4124985         2.62237299E-09
   33.5929985         2.36280173E-09
   33.7734985         2.09622786E-09
   33.9539986         1.82322391E-09
   34.1344986         1.54415281E-09
   34.3149986         1.25912791E-09
   34.4954987         9.67963487E-10
   34.6759987         6.70135558E-10
   34.8564987         3.64758695E-10
   35.0369987         5.05750442E-11
   35.2174988        -2.74034545E-10
   35.3979988        -6.10999751E-10
   35.5784988        -9.62482205E-10
   35.7589989        -1.33078470E-09
   35.9394989        -1.71823233E-09
   36.1199989        -2.12706230E-09
   36.3004990        -2.55932631E-09
   36.4809990        -3.01680569E-09
   36.6614990        -3.50096552E-09
   36.8419991        -4.01293931E-09
   37.0224991        -4.55353444E-09
   37.2029991        -5.12327913E-09
   37.3834991        -5.72244652E-09
   37.5639992        -6.35110053E-09
   37.7444992        -7.00908265E-09
   37.9249992        -7.69596475E-09
   38.1054993        -8.41095105E-09
   38.2859993        -9.15273279E-09
   38.4664993        -9.91931071E-09
   38.6469994        -1.07078053E-08
   38.8274994        -1.15142784E-08
   39.0079994        -1.23335751E-08
   39.1884995        -1.31592426E-08
   39.3689995        -1.39834988E-08
   39.5494995        -1.47972941E-08
   39.7299995        -1.55904285E-08
   39.9104996        -1.63517502E-08
   40.0909996        -1.70693646E-08
   40.2714996        -1.77308763E-08
   40.4519997        -1.83236004E-08
   40.6324997        -1.88347595E-08
   40.8129997        -1.92516580E-08
   40.9934998        -1.95618313E-08
   41.1739998        -1.97531609E-08
   41.3544998        -1.98140224E-08
   41.5349998        -1.97334220E-08
   41.7154999        -1.95012024E-08
   41.8959999        -1.91082510E-08
   42.0764999        -1.85468245E-08
   42.2570000        -1.78108639E-08
   42.4375000        -1.68963670E-08
   42.6180000        -1.58017350E-08
   42.7985001        -1.45280961E-08
   42.9790001        -1.30795632E-08
   43.1595001        -1.14633965E-08
   43.3400002        -9.69009140E-09
   43.5205002        -7.77333309E-09
   43.7010002        -5.72986458E-09
   43.8815002        -3.57925756E-09
   44.0620003        -1.34357991E-09
   44.2425003         9.52938617E-10
   44.4230003         3.28431171E-09
   44.6035004         5.62316371E-09
   44.7840004         7.94113220E-09
   44.9645004         1.02092637E-08
   45.1450005         1.23983890E-08
   45.3255005         1.44795429E-08
   45.5060005         1.64243765E-08
   45.6865005         1.82056024E-08
   45.8670006         1.97974703E-08
   46.0475006         2.11762750E-08
   46.2280006         2.23208616E-08
   46.4085007         2.32131825E-08
   46.5890007         2.38387550E-08
   46.7695007         2.41871145E-08
   46.9500008         2.42521221E-08
   47.1305008         2.40321842E-08
   47.3110008         2.35303101E-08
   47.4915009         2.27540102E-08
   47.6720009         2.17150831E-08
   47.8525009         2.04292725E-08
   48.0330009         1.89157969E-08
   48.2135010         1.71968288E-08
   48.3940010         1.52969815E-08
   48.5745010         1.32427775E-08
   48.7550011         1.10621929E-08
   48.9355011         8.78426043E-09
   49.1160011         6.43873932E-09
   49.2965012         4.05582012E-09
   49.4770012         1.66586089E-09
   49.6575012        -7.00876523E-10
   49.8380013        -3.01454861E-09
   50.0185013        -5.24608135E-09
   50.1990013        -7.36763228E-09
   50.3795013        -9.35310940E-09
   50.5600014        -1.11787548E-08
   50.7405014        -1.28237572E-08
   50.9210014        -1.42708387E-08
   51.1015015        -1.55067461E-08
   51.2820015        -1.65226250E-08
   51.4625015        -1.73142229E-08
   51.6430016        -1.78819235E-08
   51.8235016        -1.82306046E-08
   52.0040016        -1.83693345E-08
   52.1845016        -1.83109545E-08
   52.3650017        -1.80715780E-08
   52.5455017        -1.76701054E-08
   52.7260017        -1.71277179E-08
   52.9065018        -1.64674923E-08
   53.0870018        -1.57140772E-08
   53.2675018        -1.48934189E-08
   53.4480019        -1.40325955E-08
   53.6285019        -1.31595996E-08
   53.8089981        -1.23031141E-08
   53.9894981        -1.14922285E-08
   54.1699982        -1.07560636E-08
   54.3504982        -1.01232409E-08
   54.5309982        -9.62127533E-09
   54.7114983        -9.27585653E-09
   54.8919983        -9.11006470E-09
   55.0724983        -9.14360054E-09
   55.2529984        -9.39204359E-09
   55.4334984        -9.86623672E-09
   55.6139984        -1.05717834E-08
   55.7944984        -1.15087309E-08
   55.9749985        -1.26713795E-08
   56.1554985        -1.40483003E-08
   56.3359985        -1.56224580E-08
   56.5164986        -1.73714696E-08
   56.6969986        -1.92679597E-08
   56.8774986        -2.12799591E-08
   57.0579987        -2.33713493E-08
   57.2384987        -2.55023327E-08
   57.4189987        -2.76299374E-08
   57.5994987        -2.97085503E-08
   57.7799988        -3.16905684E-08
   57.9604988        -3.35270514E-08
   58.1409988        -3.51684690E-08
   58.3214989        -3.65655843E-08
   58.5019989        -3.76703468E-08
   58.6824989        -3.84368022E-08
   58.8629990        -3.88220869E-08
   59.0434990        -3.87873591E-08
   59.2239990        -3.82986514E-08
   59.4044991        -3.73275952E-08
   59.5849991        -3.58520289E-08
   59.7654991        -3.38563488E-08
   59.9459991        -3.13318189E-08
   60.1264992        -2.82766504E-08
   60.3069992        -2.46959093E-08
   60.4874992        -2.06014583E-08
   60.6679993        -1.60116986E-08
   60.8484993        -1.09514655E-08
   61.0289993        -5.45176304E-09
   61.2094994         4.50346177E-10
   61.3899994         6.71190570E-09
   61.5704994         1.32841658E-08
   61.7509995         2.01127879E-08
   61.9314995         2.71380891E-08
   62.1119995         3.42954571E-08
   62.2924995         4.15158539E-08
   62.4729996         4.87265268E-08
   62.6534996         5.58519062E-08
   62.8339996         6.28145358E-08
   63.0144997         6.95361635E-08
   63.1949997         7.59388570E-08
   63.3754997         8.19459984E-08
   63.5559998         8.74832935E-08
   63.7364998         9.24794890E-08
   63.9169998         9.68670619E-08
   64.0975037         1.00582675E-07
   64.2779999         1.03567579E-07
   64.4585037         1.05767839E-07
   64.6389999         1.07134731E-07
   64.8195038         1.07625070E-07
   65.0000000         1.07201664E-07
   65.1804962         1.05833990E-07
   65.3610001         1.03498920E-07
   65.5414963         1.00181623E-07
   65.7220001         9.58765582E-08
   65.9024963         9.05884718E-08
   66.0830002         8.43332160E-08
   66.2634964         7.71386013E-08
   66.4440002         6.90448942E-08
   66.6244965         6.01051227E-08
   66.8050003         5.03851894E-08
   66.9854965         3.99635987E-08
   67.1660004         2.89310638E-08
   67.3464966         1.73898389E-08
   67.5270004         5.45292611E-09
   67.7074966        -6.75679512E-09
   67.8880005        -1.91076506E-08
   68.0684967        -3.14601998E-08
   68.2490005        -4.36684395E-08
   68.4294968        -5.55811255E-08
   68.6100006        -6.70431888E-08
   68.7904968        -7.78973686E-08
   68.9710007        -8.79859385E-08
   69.1514969        -9.71528209E-08
   69.3320007        -1.05245647E-07
   69.5124969        -1.12118187E-07
   69.6930008        -1.17632787E-07
   69.8734970        -1.21662879E-07
   70.0540009        -1.24095479E-07
   70.2344971        -1.24833591E-07
   70.4150009        -1.23798429E-07
   70.5954971        -1.20931404E-07
   70.7760010        -1.16195821E-07
   70.9564972        -1.09578266E-07
   71.1370010        -1.01089690E-07
   71.3174973        -9.07660578E-08
   71.4980011        -7.86687693E-08
   71.6784973        -6.48846523E-08
   71.8590012        -4.95255748E-08
   72.0394974        -3.27277867E-08
   72.2200012        -1.46508414E-08
   72.4004974         4.52394433E-09
   72.5810013         2.45953586E-08
   72.7614975         4.53447093E-08
   72.9420013         6.65386466E-08
   73.1224976         8.79324418E-08
   73.3030014         1.09273678E-07
   73.4834976         1.30306276E-07
   73.6640015         1.50774724E-07
   73.8444977         1.70428478E-07
   74.0250015         1.89026281E-07
   74.2054977         2.06340431E-07
   74.3860016         2.22160722E-07
   74.5664978         2.36297950E-07
   74.7470016         2.48587156E-07
   74.9274979         2.58890140E-07
   75.1080017         2.67097590E-07
   75.2884979         2.73130809E-07
   75.4690018         2.76942671E-07
   75.6494980         2.78518428E-07
   75.8300018         2.77875927E-07
   76.0104980         2.75065446E-07
   76.1910019         2.70168925E-07
   76.3714981         2.63299114E-07
   76.5520020         2.54597779E-07
   76.7324982         2.44233604E-07
   76.9130020         2.32399557E-07
   77.0934982         2.19309499E-07
   77.2740021         2.05194397E-07
   77.4544983         1.90298067E-07
   77.6350021         1.74872483E-07
   77.8154984         1.59172941E-07
   77.9960022         1.43453065E-07
   78.1764984         1.27960064E-07
   78.3570023         1.12930003E-07
   78.5374985         9.85835626E-08
   78.7180023         8.51221955E-08
   78.8984985         7.27247453E-08
   79.0790024         6.15444620E-08
   79.2594986         5.17067065E-08
   79.4400024         4.33067981E-08
   79.6204987         3.64085579E-08
   79.8010025         3.10430615E-08
   79.9814987         2.72078662E-08
   80.1620026         2.48667646E-08
   80.3424988         2.39499744E-08
   80.5230026         2.43549856E-08
   80.7034988         2.59480117E-08
   80.8840027         2.85661521E-08
   81.0644989         3.20203100E-08
   81.2450027         3.60988359E-08
   81.4254990         4.05717877E-08
   81.6060028         4.51957725E-08
   81.7864990         4.97191053E-08
   81.9670029         5.38873515E-08
   82.1474991         5.74486769E-08
   82.3280029         6.01593868E-08
   82.5084991         6.17890308E-08
   82.6890030         6.21250749E-08
   82.8694992         6.09771220E-08
