  -7.19999981         0.00000000    
  -7.01999998         0.00000000    
  -6.84000015         0.00000000    
  -6.65999985         0.00000000    
  -6.48000002         0.00000000    
  -6.30000019         0.00000000    
  -6.11999989         0.00000000    
  -5.94000006        -8.19577502E-29
  -5.76000023        -1.09978641E-27
  -5.57999992        -7.85641829E-27
  -5.40000010        -3.96658276E-26
  -5.21999979        -1.58525802E-25
  -5.03999996        -5.30860594E-25
  -4.86000013        -1.54953561E-24
  -4.67999983        -4.03620288E-24
  -4.50000000        -9.45354027E-24
  -4.32000017        -2.01124963E-23
  -4.13999987        -4.00030482E-23
  -3.96000004        -7.70667312E-23
  -3.77999997        -1.45097622E-22
  -3.59999990        -2.59961980E-22
  -3.42000008        -4.28874417E-22
  -3.24000001        -6.45698731E-22
  -3.05999994        -9.13181850E-22
  -2.88000011        -1.29083978E-21
  -2.70000005        -1.91965255E-21
  -2.51999998        -2.95404594E-21
  -2.33999991        -4.39484816E-21
  -2.16000009        -5.94366833E-21
  -1.98000002        -7.07226903E-21
  -1.79999995        -7.40965775E-21
  -1.62000000        -7.32062274E-21
  -1.44000006        -8.33184861E-21
  -1.25999999        -1.29655528E-20
  -1.08000004        -2.35567936E-20
 -0.899999976        -3.98413287E-20
 -0.720000029        -5.59127565E-20
 -0.540000021        -5.88908588E-20
 -0.360000014        -3.34053401E-20
 -0.180000007         2.50476913E-20
   0.00000000         9.16125340E-20
  0.180000007         1.03289662E-19
  0.360000014        -1.90131438E-20
  0.540000021        -3.08093113E-19
  0.720000029        -6.72183251E-19
  0.899999976        -8.64269375E-19
   1.08000004        -5.69337352E-19
   1.25999999         3.77096338E-19
   1.44000006         1.73621860E-18
   1.62000000         2.77092539E-18
   1.79999995         2.48530075E-18
   1.98000002         2.03116435E-19
   2.16000009        -3.77243701E-18
   2.33999991        -7.85664666E-18
   2.51999998        -9.60376792E-18
   2.70000005        -6.85111722E-18
   2.88000011         8.92912313E-19
   3.05999994         1.15889948E-17
   3.24000001         2.09724448E-17
   3.42000008         2.41099607E-17
   3.59999990         1.76109614E-17
   3.77999997         1.47485476E-18
   3.96000004        -2.03597935E-17
   4.13999987        -4.11506539E-17
   4.32000017        -5.38203841E-17
   4.50000000        -5.37883789E-17
   4.67999983        -4.08967359E-17
   4.86000013        -1.92978573E-17
   5.03999996         5.14541951E-18
   5.21999979         2.91160760E-17
   5.40000010         5.53565479E-17
   5.57999992         9.21115772E-17
   5.76000023         1.46173442E-16
   5.94000006         2.10801169E-16
   6.11999989         2.54819327E-16
   6.30000019         2.22403800E-16
   6.48000002         5.06732795E-17
   6.65999985        -2.96946114E-16
   6.84000015        -7.95649970E-16
   7.01999998        -1.34332850E-15
   7.19999981        -1.77876453E-15
   7.38000011        -1.93035018E-15
   7.55999994        -1.67077926E-15
   7.73999977        -9.46034264E-16
   7.92000008         2.35943780E-16
   8.10000038         1.83659020E-15
   8.27999973         3.78895329E-15
   8.46000004         5.92700675E-15
   8.64000034         7.84743415E-15
   8.81999969         8.77980905E-15
   9.00000000         7.58472942E-15
   9.18000031         2.97230299E-15
   9.35999966        -6.06916047E-15
   9.53999996        -1.97734387E-14
   9.72000027        -3.72407217E-14
   9.89999962        -5.64047405E-14
   10.0799999        -7.43595181E-14
   10.2600002        -8.79141324E-14
   10.4399996        -9.41520421E-14
   10.6199999        -9.08157759E-14
   10.8000002        -7.64858690E-14
   10.9799995        -5.06702868E-14
   11.1599998        -1.39637041E-14
   11.3400002         3.16474074E-14
   11.5200005         8.23927176E-14
   11.6999998         1.32364524E-13
   11.8800001         1.73256808E-13
   12.0600004         1.94109052E-13
   12.2399998         1.80879847E-13
   12.4200001         1.15775594E-13
   12.6000004        -2.34849761E-14
   12.7799997        -2.64063077E-13
   12.9600000        -6.37661039E-13
   13.1400003        -1.17946603E-12
   13.3199997        -1.92698982E-12
   13.5000000        -2.91992580E-12
   13.6800003        -4.20221410E-12
   13.8599997        -5.82698473E-12
   14.0400000        -7.86419454E-12
   14.2200003        -1.04099776E-11
   14.3999996        -1.35962118E-11
   14.5799999        -1.75989449E-11
   14.7600002        -2.26445581E-11
   14.9399996        -2.90130333E-11
   15.1199999        -3.70377375E-11
   15.3000002        -4.71014165E-11
   15.4799995        -5.96281358E-11
   15.6599998        -7.50715531E-11
   15.8400002        -9.39004430E-11
   16.0200005        -1.16582910E-10
   16.2000008        -1.43570517E-10
   16.3799992        -1.75282816E-10
   16.5599995        -2.12091511E-10
   16.7399998        -2.54302496E-10
   16.9200001        -3.02133762E-10
   17.1000004        -3.55688007E-10
   17.2800007        -4.14918599E-10
   17.4599991        -4.79591256E-10
   17.6399994        -5.49242374E-10
   17.8199997        -6.23137708E-10
   18.0000000        -7.00233982E-10
   18.1800003        -7.79147635E-10
   18.3600006        -8.58133953E-10
   18.5400009        -9.35080680E-10
   18.7199993        -1.00751996E-09
   18.8999996        -1.07265874E-09
   19.0799999        -1.12743181E-09
   19.2600002        -1.16857279E-09
   19.4400005        -1.19270305E-09
   19.6200008        -1.19643184E-09
   19.7999992        -1.17646559E-09
   19.9799995        -1.12971954E-09
   20.1599998        -1.05343001E-09
   20.3400002        -9.45265421E-10
   20.5200005        -8.03432876E-10
   20.7000008        -6.26780960E-10
   20.8799992        -4.14896756E-10
   21.0599995        -1.68193917E-10
   21.2399998         1.12008618E-10
   21.4200001         4.23425045E-10
   21.6000004         7.62757135E-10
   21.7800007         1.12567322E-09
   21.9599991         1.50681545E-09
   22.1399994         1.89984517E-09
   22.3199997         2.29753105E-09
   22.5000000         2.69188738E-09
   22.6800003         3.07436254E-09
   22.8600006         3.43607165E-09
   23.0400009         3.76806897E-09
   23.2199993         4.06164258E-09
   23.3999996         4.30862412E-09
   23.5799999         4.50169857E-09
   23.7600002         4.63470418E-09
   23.9400005         4.70291051E-09
   24.1200008         4.70326178E-09
   24.2999992         4.63456873E-09
   24.4799995         4.49763693E-09
   24.6599998         4.29532987E-09
   24.8400002         4.03256095E-09
   25.0200005         3.71621844E-09
   25.2000008         3.35502470E-09
   25.3799992         2.95934433E-09
   25.5599995         2.54093036E-09
   25.7399998         2.11263051E-09
   25.9200001         1.68804948E-09
   26.1000004         1.28119337E-09
   26.2800007         9.06096642E-10
   26.4599991         5.76447168E-10
   26.6399994         3.05205861E-10
   26.8199997         1.04218051E-10
   27.0000000        -1.61868487E-11
   27.1800003        -4.76037196E-11
   27.3600006         1.60437982E-11
   27.5400009         1.78122711E-10
   27.7199993         4.38960507E-10
   27.8999996         7.95596256E-10
   28.0799999         1.24163579E-09
   28.2600002         1.76724546E-09
   28.4400005         2.35929765E-09
   28.6200008         3.00169467E-09
   28.7999992         3.67585984E-09
   28.9799995         4.36139391E-09
   29.1599998         5.03684250E-09
   29.3400002         5.68053515E-09
   29.5200005         6.27143404E-09
   29.7000008         6.78992285E-09
   29.8799992         7.21849380E-09
   30.0599995         7.54229124E-09
   30.2399998         7.74947750E-09
   30.4200001         7.83142440E-09
   30.6000004         7.78271136E-09
   30.7800007         7.60096253E-09
   30.9599991         7.28655225E-09
   31.1399994         6.84221080E-09
   31.3199997         6.27259489E-09
   31.5000000         5.58384583E-09
   31.6800003         4.78319295E-09
   31.8600006         3.87860810E-09
   32.0400009         2.87854407E-09
   32.2200012         1.79174087E-09
   32.4000015         6.27103092E-10
   32.5800018        -6.06376893E-10
   32.7599983        -1.89968108E-09
   32.9399986        -3.24383587E-09
   33.1199989        -4.63001237E-09
   33.2999992        -6.04967543E-09
   33.4799995        -7.49476303E-09
   33.6599998        -8.95789665E-09
   33.8400002        -1.04325775E-08
   34.0200005        -1.19133361E-08
   34.2000008        -1.33957760E-08
   34.3800011        -1.48765018E-08
   34.5600014        -1.63528675E-08
   34.7400017        -1.78225505E-08
   34.9199982        -1.92829681E-08
   35.0999985        -2.07305799E-08
   35.2799988        -2.21601280E-08
   35.4599991        -2.35639099E-08
   35.6399994        -2.49311434E-08
   35.8199997        -2.62475197E-08
   36.0000000        -2.74950054E-08
   36.1800003        -2.86519430E-08
   36.3600006        -2.96935134E-08
   36.5400009        -3.05925205E-08
   36.7200012        -3.13204858E-08
   36.9000015        -3.18489768E-08
   37.0800018        -3.21510711E-08
   37.2599983        -3.22028981E-08
   37.4399986        -3.19850813E-08
   37.6199989        -3.14840953E-08
   37.7999992        -3.06933394E-08
   37.9799995        -2.96139486E-08
   38.1599998        -2.82551635E-08
   38.3400002        -2.66343498E-08
   38.5200005        -2.47765346E-08
   38.7000008        -2.27135555E-08
   38.8800011        -2.04828421E-08
   39.0600014        -1.81258919E-08
   39.2400017        -1.56865259E-08
   39.4199982        -1.32089912E-08
   39.5999985        -1.07360165E-08
   39.7799988        -8.30690361E-09
   39.9599991        -5.95581540E-09
   40.1399994        -3.71031561E-09
   40.3199997        -1.59024882E-09
   40.5000000         3.92987587E-10
   40.6800003         2.23682139E-09
   40.8600006         3.94751121E-09
   41.0400009         5.53987922E-09
   41.2200012         7.03674896E-09
   41.4000015         8.46817105E-09
   41.5800018         9.87047244E-09
   41.7599983         1.12851586E-08
   41.9399986         1.27576802E-08
   42.1199989         1.43360932E-08
   42.2999992         1.60695546E-08
   42.4799995         1.80066380E-08
   42.6599998         2.01934647E-08
   42.8400002         2.26716015E-08
   43.0200005         2.54758170E-08
   43.2000008         2.86317636E-08
   43.3800011         3.21536788E-08
   43.5600014         3.60422838E-08
   43.7400017         4.02829556E-08
   43.9199982         4.48443416E-08
   44.0999985         4.96775066E-08
   44.2799988         5.47157626E-08
   44.4599991         5.98752337E-08
   44.6399994         6.50562342E-08
   44.8199997         7.01454539E-08
   45.0000000         7.50189173E-08
   45.1800003         7.95455861E-08
   45.3600006         8.35915515E-08
   45.5400009         8.70245813E-08
   45.7200012         8.97188670E-08
   45.9000015         9.15597909E-08
   46.0800018         9.24484382E-08
   46.2599983         9.23056689E-08
   46.4399986         9.10754707E-08
   46.6199989         8.87274894E-08
   46.7999992         8.52584847E-08
   46.9799995         8.06927503E-08
   47.1599998         7.50813669E-08
   47.3400002         6.85004125E-08
   47.5200005         6.10482758E-08
   47.7000008         5.28421715E-08
   47.8800011         4.40141186E-08
   48.0600014         3.47066091E-08
   48.2400017         2.50681609E-08
   48.4199982         1.52489843E-08
   48.5999985         5.39691936E-09
   48.7799988        -4.34620562E-09
   48.9599991        -1.38477096E-08
   49.1399994        -2.29866863E-08
   49.3199997        -3.16561497E-08
   49.5000000        -3.97647568E-08
   49.6800003        -4.72381636E-08
   49.8600006        -5.40200809E-08
   50.0400009        -6.00730345E-08
   50.2200012        -6.53788277E-08
   50.4000015        -6.99386433E-08
   50.5800018        -7.37728456E-08
   50.7599983        -7.69203155E-08
   50.9399986        -7.94373705E-08
   51.1199989        -8.13961449E-08
   51.2999992        -8.28823303E-08
   51.4799995        -8.39923118E-08
   51.6599998        -8.48296509E-08
   51.8400002        -8.55010569E-08
   52.0200005        -8.61119531E-08
   52.2000008        -8.67619789E-08
   52.3800011        -8.75405135E-08
   52.5600014        -8.85225475E-08
   52.7400017        -8.97652015E-08
   52.9199982        -9.13049689E-08
   53.0999985        -9.31560962E-08
   53.2799988        -9.53101491E-08
   53.4599991        -9.77369012E-08
   53.6399994        -1.00386572E-07
   53.8199997        -1.03193081E-07
   54.0000000        -1.06078318E-07
   54.1800003        -1.08956876E-07
   54.3600006        -1.11740952E-07
   54.5400009        -1.14345141E-07
   54.7200012        -1.16690750E-07
   54.9000015        -1.18709217E-07
   55.0800018        -1.20344666E-07
   55.2599983        -1.21555175E-07
   55.4399986        -1.22312940E-07
   55.6199989        -1.22603225E-07
   55.7999992        -1.22422520E-07
   55.9799995        -1.21776011E-07
   56.1599998        -1.20674656E-07
   56.3400002        -1.19132267E-07
   56.5200005        -1.17162607E-07
   56.7000008        -1.14777102E-07
   56.8800011        -1.11982878E-07
   57.0600014        -1.08781599E-07
   57.2400017        -1.05169015E-07
   57.4199982        -1.01135129E-07
   57.5999985        -9.66650120E-08
   57.7799988        -9.17399490E-08
   57.9599991        -8.63388365E-08
   58.1399994        -8.04396194E-08
   58.3199997        -7.40206829E-08
   58.5000000        -6.70619684E-08
   58.6800003        -5.95459966E-08
   58.8600006        -5.14586027E-08
   59.0400009        -4.27896190E-08
   59.2200012        -3.35334853E-08
   59.4000015        -2.36899211E-08
   59.5800018        -1.32648301E-08
   59.7599983        -2.27154051E-09
   59.9399986         9.26752630E-09
   60.1199989         2.13187636E-08
   60.2999992         3.38349118E-08
   60.4799995         4.67524721E-08
   60.6599998         5.99892047E-08
   60.8400002         7.34420098E-08
   61.0200005         8.69856223E-08
   61.2000008         1.00472327E-07
   61.3800011         1.13732916E-07
   61.5600014         1.26579167E-07
   61.7400017         1.38807863E-07
   61.9199982         1.50206304E-07
   62.0999985         1.60559267E-07
   62.2799988         1.69656857E-07
   62.4599991         1.77303150E-07
   62.6399994         1.83325014E-07
   62.8199997         1.87580440E-07
   63.0000000         1.89966272E-07
   63.1800003         1.90424558E-07
   63.3600006         1.88947354E-07
   63.5400009         1.85579793E-07
   63.7200012         1.80421026E-07
   63.9000015         1.73622965E-07
   64.0800018         1.65387107E-07
   64.2600021         1.55959228E-07
   64.4400024         1.45622465E-07
   64.6200027         1.34688989E-07
   64.8000031         1.23490892E-07
   64.9800034         1.12370273E-07
   65.1600037         1.01669421E-07
   65.3399963         9.17210201E-08
   65.5199966         8.28390441E-08
   65.6999969         7.53103393E-08
   65.8799973         6.93873972E-08
   66.0599976         6.52822081E-08
   66.2399979         6.31612807E-08
   66.4199982         6.31417549E-08
   66.5999985         6.52884466E-08
   66.7799988         6.96117652E-08
   66.9599991         7.60663781E-08
   67.1399994         8.45508197E-08
   67.3199997         9.49080032E-08
   67.5000000         1.06926727E-07
   67.6800003         1.20344495E-07
   67.8600006         1.34851703E-07
   68.0400009         1.50097350E-07
   68.2200012         1.65696562E-07
   68.4000015         1.81239898E-07
   68.5800018         1.96304441E-07
   68.7600021         2.10466382E-07
   68.9400024         2.23314871E-07
   69.1200027         2.34466242E-07
   69.3000031         2.43578313E-07
   69.4800034         2.50363627E-07
   69.6600037         2.54601247E-07
   69.8399963         2.56146365E-07
   70.0199966         2.54937021E-07
   70.1999969         2.50997743E-07
   70.3799973         2.44439605E-07
   70.5599976         2.35456667E-07
   70.7399979         2.24319294E-07
   70.9199982         2.11364025E-07
   71.0999985         1.96981190E-07
   71.2799988         1.81600512E-07
   71.4599991         1.65675672E-07
   71.6399994         1.49668224E-07
   71.8199997         1.34032078E-07
   72.0000000         1.19198546E-07
   72.1800003         1.05563188E-07
   72.3600006         9.34744193E-08
   72.5400009         8.32245277E-08
   72.7200012         7.50431539E-08
   72.9000015         6.90931259E-08
   73.0800018         6.54688037E-08
   73.2600021         6.41964064E-08
   73.4400024         6.52362147E-08
   73.6200027         6.84863153E-08
   73.8000031         7.37876462E-08
   73.9800034         8.09301000E-08
   74.1600037         8.96594941E-08
   74.3399963         9.96852805E-08
   74.5199966         1.10688759E-07
   74.6999969         1.22331826E-07
   74.8799973         1.34266145E-07
   75.0599976         1.46142611E-07
   75.2399979         1.57621145E-07
   75.4199982         1.68380396E-07
   75.5999985         1.78127223E-07
   75.7799988         1.86605376E-07
   75.9599991         1.93603171E-07
   76.1399994         1.98959384E-07
   76.3199997         2.02567477E-07
   76.5000000         2.04377557E-07
   76.6800003         2.04396031E-07
   76.8600006         2.02683012E-07
   77.0400009         1.99347227E-07
   77.2200012         1.94538899E-07
   77.4000015         1.88440850E-07
   77.5800018         1.81258258E-07
   77.7600021         1.73207781E-07
   77.9400024         1.64506787E-07
   78.1200027         1.55363139E-07
   78.3000031         1.45966354E-07
   78.4800034         1.36480125E-07
   78.6600037         1.27036941E-07
   78.8399963         1.17734842E-07
   79.0199966         1.08636485E-07
   79.1999969         9.97703111E-08
   79.3799973         9.11339484E-08
   79.5599976         8.26990032E-08
   79.7399979         7.44172368E-08
   79.9199982         6.62271873E-08
   80.0999985         5.80608877E-08
   80.2799988         4.98502821E-08
   80.4599991         4.15327612E-08
   80.6399994         3.30560539E-08
   80.8199997         2.43816025E-08
   81.0000000         1.54865116E-08
   81.1800003         6.36410835E-09
   81.3600006        -2.97692271E-09
   81.5400009        -1.25146924E-08
   81.7200012        -2.22173551E-08
   81.9000015        -3.20469482E-08
   82.0800018        -4.19636770E-08
   82.2600021        -5.19308934E-08
   82.4400024        -6.19199625E-08
   82.6200027        -7.19150535E-08
   82.8000031        -8.19179391E-08
   82.9800034        -9.19519749E-08
   83.1600037        -1.02065464E-07
   83.3399963        -1.12334028E-07
   83.5199966        -1.22861593E-07
   83.6999969        -1.33780560E-07
   83.8799973        -1.45250453E-07
   84.0599976        -1.57455290E-07
   84.2399979        -1.70599492E-07
   84.4199982        -1.84902206E-07
   84.5999985        -2.00590407E-07
   84.7799988        -2.17890559E-07
   84.9599991        -2.37019421E-07
   85.1399994        -2.58174197E-07
   85.3199997        -2.81522347E-07
   85.5000000        -3.07191527E-07
   85.6800003        -3.35259898E-07
   85.8600006        -3.65747240E-07
   86.0400009        -3.98607227E-07
   86.2200012        -4.33721794E-07
   86.4000015        -4.70896964E-07
   86.5800018        -5.09862275E-07
   86.7600021        -5.50271750E-07
   86.9400024        -5.91708726E-07
   87.1200027        -6.33692650E-07
   87.3000031        -6.75688568E-07
   87.4800034        -7.17119178E-07
   87.6600037        -7.57377848E-07
   87.8399963        -7.95844130E-07
   88.0199966        -8.31899513E-07
   88.1999969        -8.64943672E-07
   88.3799973        -8.94410732E-07
   88.5599976        -9.19784668E-07
   88.7399979        -9.40613347E-07
   88.9199982        -9.56521490E-07
   89.0999985        -9.67221808E-07
   89.2799988        -9.72524504E-07
   89.4599991        -9.72343855E-07
   89.6399994        -9.66704192E-07
   89.8199997        -9.55741825E-07
   90.0000000        -9.39705274E-07
   90.1800003        -9.18952821E-07
   90.3600006        -8.93947742E-07
   90.5400009        -8.65251138E-07
   90.7200012        -8.33512615E-07
   90.9000015        -7.99458746E-07
   91.0800018        -7.63879541E-07
   91.2600021        -7.27613156E-07
   91.4400024        -6.91529124E-07
   91.6200027        -6.56509826E-07
   91.8000031        -6.23432129E-07
   91.9800034        -5.93147206E-07
   92.1600037        -5.66461381E-07
   92.3399963        -5.44116062E-07
   92.5199966        -5.26768986E-07
   92.6999969        -5.14976250E-07
   92.8799973        -5.09176004E-07
   93.0599976        -5.09674862E-07
   93.2399979        -5.16637385E-07
   93.4199982        -5.30078410E-07
   93.5999985        -5.49860260E-07
   93.7799988        -5.75692695E-07
   93.9599991        -6.07137451E-07
   94.1399994        -6.43616488E-07
   94.3199997        -6.84423981E-07
   94.5000000        -7.28741384E-07
   94.6800003        -7.75656133E-07
   94.8600006        -8.24181484E-07
   95.0400009        -8.73278907E-07
   95.2200012        -9.21881281E-07
   95.4000015        -9.68916424E-07
   95.5800018        -1.01333114E-06
   95.7600021        -1.05411482E-06
   95.9400024        -1.09032271E-06
   96.1200027        -1.12109706E-06
   96.3000031        -1.14568695E-06
   96.4800034        -1.16346575E-06
   96.6600037        -1.17394518E-06
   96.8399963        -1.17678599E-06
   97.0199966        -1.17180480E-06
   97.1999969        -1.15897706E-06
   97.3799973        -1.13843555E-06
   97.5599976        -1.11046427E-06
   97.7399979        -1.07548794E-06
   97.9199982        -1.03405807E-06
   98.0999985        -9.86834721E-07
   98.2799988        -9.34566003E-07
   98.4599991        -8.78065748E-07
   98.6399994        -8.18188767E-07
   98.8199997        -7.55806525E-07
   99.0000000        -6.91782645E-07
   99.1800003        -6.26949316E-07
   99.3600006        -5.62085688E-07
   99.5400009        -4.97898782E-07
   99.7200012        -4.35007820E-07
   99.9000015        -3.73931954E-07
   100.080002        -3.15081991E-07
   100.260002        -2.58756387E-07
   100.440002        -2.05140609E-07
   100.620003        -1.54310541E-07
