  -7.19999981         1.08453726E-17
  -7.01949978         1.08453726E-17
  -6.83900023         1.08453726E-17
  -6.65850019         1.08453743E-17
  -6.47800016         1.08453751E-17
  -6.29750013         1.08453759E-17
  -6.11700010         1.08453768E-17
  -5.93650007         1.08453784E-17
  -5.75600004         1.08453809E-17
  -5.57550001         1.08453842E-17
  -5.39499998         1.08453875E-17
  -5.21449995         1.08453917E-17
  -5.03399992         1.08453958E-17
  -4.85349989         1.08453983E-17
  -4.67299986         1.08453991E-17
  -4.49249983         1.08453958E-17
  -4.31199980         1.08453875E-17
  -4.13149977         1.08453702E-17
  -3.95099998         1.08453379E-17
  -3.77049994         1.08452759E-17
  -3.58999991         1.08451667E-17
  -3.40949988         1.08450029E-17
  -3.22900009         1.08447895E-17
  -3.04850006         1.08445231E-17
  -2.86800003         1.08441377E-17
  -2.68750000         1.08434883E-17
  -2.50699997         1.08424237E-17
  -2.32649994         1.08409621E-17
  -2.14599991         1.08394302E-17
  -1.96550000         1.08383689E-17
  -1.78499997         1.08381133E-17
  -1.60450006         1.08382051E-17
  -1.42400002         1.08369949E-17
  -1.24349999         1.08318805E-17
  -1.06299996         1.08206193E-17
 -0.882499993         1.08038837E-17
 -0.702000022         1.07883427E-17
 -0.521499991         1.07876470E-17
 -0.340999991         1.08170343E-17
 -0.160500005         1.08788081E-17
   1.99999996E-02     1.09435929E-17
  0.200499997         1.09437856E-17
  0.381000012         1.08006867E-17
  0.561500013         1.04921136E-17
  0.741999984         1.01304098E-17
  0.922500014         9.98230893E-18
   1.10300004         1.03619377E-17
   1.28349996         1.13955511E-17
   1.46399999         1.27730294E-17
   1.64450002         1.36890831E-17
   1.82500005         1.31402438E-17
   2.00550008         1.05471691E-17
   2.18600011         6.40219886E-18
   2.36649990         2.48519508E-18
   2.54699993         1.31312420E-18
   2.72749996         4.89640465E-18
   2.90799999         1.33590662E-17
   3.08850002         2.42218121E-17
   3.26900005         3.29318403E-17
   3.44950008         3.46112221E-17
   3.63000011         2.63151944E-17
   3.81049991         8.73740045E-18
   3.99099994        -1.35218710E-17
   4.17150021        -3.33919645E-17
   4.35200024        -4.39880654E-17
   4.53249979        -4.14171318E-17
   4.71299982        -2.64281344E-17
   4.89349985        -3.82918160E-18
   5.07399988         2.05927325E-17
   5.25449991         4.45012350E-17
   5.43499994         7.20568744E-17
   5.61549997         1.12169582E-16
   5.79600000         1.70091151E-16
   5.97650003         2.34652849E-16
   6.15700006         2.68577101E-16
   6.33750010         2.11678205E-16
   6.51800013         2.79445909E-18
   6.69850016        -3.84274417E-16
   6.87900019        -9.07535664E-16
   7.05950022        -1.44757782E-15
   7.23999977        -1.83431592E-15
   7.42049980        -1.90073135E-15
   7.60099983        -1.53491402E-15
   7.78149986        -6.99736829E-16
   7.96199989         5.87250113E-16
   8.14249992         2.28396569E-15
   8.32299995         4.31083315E-15
   8.50349998         6.45824082E-15
   8.68400002         8.23751569E-15
   8.86450005         8.76916863E-15
   9.04500008         6.83176584E-15
   9.22550011         1.14536007E-15
   9.40600014        -9.15569348E-15
   9.58650017        -2.40317088E-14
   9.76700020        -4.22507488E-14
   9.94750023        -6.14575665E-14
   10.1280003        -7.85870867E-14
   10.3085003        -9.04504743E-14
   10.4890003        -9.42641012E-14
   10.6695004        -8.79750848E-14
   10.8500004        -7.03994629E-14
   11.0305004        -4.13192226E-14
   11.2110004        -1.68689248E-15
   11.3915005         4.60265269E-14
   11.5719995         9.74340305E-14
   11.7524996         1.45904962E-13
   11.9329996         1.82321714E-13
   12.1134996         1.94786448E-13
   12.2939997         1.68106008E-13
   12.4744997         8.30530780E-14
   12.6549997        -8.43261008E-14
   12.8354998        -3.62906157E-13
   13.0159998        -7.85872290E-13
   13.1964998        -1.38950635E-12
   13.3769999        -2.21219007E-12
   13.5574999        -3.29486070E-12
   13.7379999        -4.68400796E-12
   13.9184999        -6.43765380E-12
   14.0990000        -8.63380981E-12
   14.2795000        -1.13801963E-11
   14.4600000        -1.48236944E-11
   14.6405001        -1.91582271E-11
   14.8210001        -2.46300844E-11
   15.0015001        -3.15401004E-11
   15.1820002        -4.02421707E-11
   15.3625002        -5.11377364E-11
   15.5430002        -6.46662932E-11
   15.7235003        -8.12923687E-11
   15.9040003        -1.01490212E-10
   16.0844994        -1.25727678E-10
   16.2649994        -1.54450341E-10
   16.4454994        -1.88065827E-10
   16.6259995        -2.26927269E-10
   16.8064995        -2.71313805E-10
   16.9869995        -3.21406263E-10
   17.1674995        -3.77256670E-10
   17.3479996        -4.38752312E-10
   17.5284996        -5.05574860E-10
   17.7089996        -5.77158155E-10
   17.8894997        -6.52646936E-10
   18.0699997        -7.30859928E-10
   18.2504997        -8.10262302E-10
   18.4309998        -8.88949470E-10
   18.6114998        -9.64647140E-10
   18.7919998        -1.03473130E-09
   18.9724998        -1.09626819E-09
   19.1529999        -1.14607546E-09
   19.3334999        -1.18080190E-09
   19.5139999        -1.19702270E-09
   19.6945000        -1.19134558E-09
   19.8750000        -1.16052223E-09
   20.0555000        -1.10156329E-09
   20.2360001        -1.01185038E-09
   20.4165001        -8.89248342E-10
   20.5970001        -7.32210736E-10
   20.7775002        -5.39882694E-10
   20.9580002        -3.12195436E-10
   21.1385002        -4.99518690E-11
   21.3190002         2.45100717E-10
   21.4995003         5.70214376E-10
   21.6800003         9.21605070E-10
   21.8605003         1.29444266E-09
   22.0410004         1.68287395E-09
   22.2215004         2.08008810E-09
   22.4020004         2.47842746E-09
   22.5825005         2.86955193E-09
   22.7630005         3.24465099E-09
   22.9435005         3.59470143E-09
   23.1240005         3.91075305E-09
   23.3045006         4.18423696E-09
   23.4850006         4.40728076E-09
   23.6655006         4.57301974E-09
   23.8460007         4.67589301E-09
   24.0265007         4.71190909E-09
   24.2070007         4.67887018E-09
   24.3875008         4.57653515E-09
   24.5680008         4.40672210E-09
   24.7485008         4.17333279E-09
   24.9290009         3.88231181E-09
   25.1095009         3.54153928E-09
   25.2900009         3.16066151E-09
   25.4705009         2.75086354E-09
   25.6509991         2.32459096E-09
   25.8314991         1.89522775E-09
   26.0119991         1.47674373E-09
   26.1924992         1.08332432E-09
   26.3729992         7.28989813E-10
   26.5534992         4.27213931E-10
   26.7339993         1.90533964E-10
   26.9144993         3.01507708E-11
   27.0949993        -4.44823310E-11
   27.2754993        -2.60753381E-11
   27.4559994         9.00970201E-11
   27.6364994         3.05834275E-10
   27.8169994         6.19714224E-10
   27.9974995         1.02689435E-09
   28.1779995         1.51903956E-09
   28.3584995         2.08439266E-09
   28.5389996         2.70802292E-09
   28.7194996         3.37224870E-09
   28.8999996         4.05722922E-09
   29.0804996         4.74170081E-09
   29.2609997         5.40380363E-09
   29.4414997         6.02194472E-09
   29.6219997         6.57562893E-09
   29.8024998         7.04620984E-09
   29.9829998         7.41750439E-09
   30.1634998         7.67624542E-09
   30.3439999         7.81234899E-09
   30.5244999         7.81899612E-09
   30.7049999         7.69253194E-09
   30.8855000         7.43221973E-09
   31.0660000         7.03987668E-09
   31.2465000         6.51944987E-09
   31.4270000         5.87656501E-09
   31.6075001         5.11810683E-09
   31.7880001         4.25184465E-09
   31.9685001         3.28613026E-09
   32.1489983         2.22967755E-09
   32.3294983         1.09141152E-09
   32.5099983        -1.19625879E-10
   32.6904984        -1.39434353E-09
   32.8709984        -2.72366107E-09
   33.0514984        -4.09860323E-09
   33.2319984        -5.51042367E-09
   33.4124985        -6.95078795E-09
   33.5929985        -8.41197156E-09
   33.7734985        -9.88707249E-09
   33.9539986        -1.13701795E-08
   34.1344986        -1.28564750E-08
   34.3149986        -1.43421968E-08
   34.4954987        -1.58244511E-08
   34.6759987        -1.73008505E-08
   34.8564987        -1.87689686E-08
   35.0369987        -2.02256683E-08
   35.2174988        -2.16663434E-08
   35.3979988        -2.30841639E-08
   35.5784988        -2.44693883E-08
   35.7589989        -2.58088324E-08
   35.9394989        -2.70855818E-08
   36.1199989        -2.82789845E-08
   36.3004990        -2.93649958E-08
   36.4809990        -3.03168655E-08
   36.6614990        -3.11061505E-08
   36.8419991        -3.17040154E-08
   37.0224991        -3.20826494E-08
   37.2029991        -3.22168390E-08
   37.3834991        -3.20854632E-08
   37.5639992        -3.16729007E-08
   37.7444992        -3.09702308E-08
   37.9249992        -2.99761282E-08
   38.1054993        -2.86974071E-08
   38.2859993        -2.71491327E-08
   38.4664993        -2.53543018E-08
   38.6469994        -2.33430892E-08
   38.8274994        -2.11517222E-08
   39.0079994        -1.88210141E-08
   39.1884995        -1.63946581E-08
   39.3689995        -1.39173348E-08
   39.5494995        -1.14327472E-08
   39.7299995        -8.98167052E-09
   39.9104996        -6.60014088E-09
   40.0909996        -4.31789315E-09
   40.2714996        -2.15713736E-09
   40.4519997        -1.31696626E-10
   40.6324997         1.75345038E-09
   40.8129997         3.50228579E-09
   40.9934998         5.12754506E-09
   41.1739998         6.65021460E-09
   41.3544998         8.09880696E-09
   41.5349998         9.50845447E-09
   41.7154999         1.09198117E-08
   41.8959999         1.23778543E-08
   42.0764999         1.39305332E-08
   42.2570000         1.56273039E-08
   42.4375000         1.75174684E-08
   42.6180000         1.96483185E-08
   42.7985001         2.20630554E-08
   42.9790001         2.47985259E-08
   43.1595001         2.78829031E-08
   43.3400002         3.13333182E-08
   43.5205002         3.51536933E-08
   43.7010002         3.93327930E-08
   43.8815002         4.38427463E-08
   44.0620003         4.86380110E-08
   44.2425003         5.36550857E-08
   44.4230003         5.88128870E-08
   44.6035004         6.40140030E-08
   44.7840004         6.91467363E-08
   44.9645004         7.40879287E-08
   45.1450005         7.87065346E-08
   45.3255005         8.28677216E-08
   45.5060005         8.64374528E-08
   45.6865005         8.92872762E-08
   45.8670006         9.12991567E-08
   46.0475006         9.23701364E-08
   46.2280006         9.24165349E-08
   46.4085007         9.13775295E-08
   46.5890007         8.92178633E-08
   46.7695007         8.59295213E-08
   46.9500008         8.15323205E-08
   47.1305008         7.60733840E-08
   47.3110008         6.96254716E-08
   47.4915009         6.22843928E-08
   47.6720009         5.41655822E-08
   47.8525009         4.54001139E-08
   48.0330009         3.61303236E-08
   48.2135010         2.65053313E-08
   48.3940010         1.66765801E-08
   48.5745010         6.79372114E-09
   48.7550011        -2.99917780E-09
   48.9355011        -1.25668809E-08
   49.1160011        -2.17857252E-08
   49.2965012        -3.05458414E-08
   49.4770012        -3.87529866E-08
   49.6575012        -4.63299124E-08
   49.8380013        -5.32175122E-08
   50.0185013        -5.93756226E-08
   50.1990013        -6.47835279E-08
   50.3795013        -6.94401336E-08
   50.5600014        -7.33637791E-08
   50.7405014        -7.65916468E-08
   50.9210014        -7.91787187E-08
   51.1015015        -8.11961272E-08
   51.2820015        -8.27290378E-08
   51.4625015        -8.38737080E-08
   51.6430016        -8.47340473E-08
   51.8235016        -8.54175255E-08
   52.0040016        -8.60307736E-08
   52.1845016        -8.66749730E-08
   52.3650017        -8.74412933E-08
   52.5455017        -8.84067433E-08
   52.7260017        -8.96304329E-08
   52.9065018        -9.11508451E-08
   53.0870018        -9.29839956E-08
   53.2675018        -9.51229708E-08
   53.4480019        -9.75387309E-08
   53.6285019        -1.00182255E-07
   53.8089981        -1.02987883E-07
   53.9894981        -1.05877469E-07
   54.1699982        -1.08765235E-07
   54.3504982        -1.11562670E-07
   54.5309982        -1.14183486E-07
   54.7114983        -1.16547916E-07
   54.8919983        -1.18586343E-07
   55.0724983        -1.20241864E-07
   55.2529984        -1.21471672E-07
   55.4334984        -1.22247215E-07
   55.6139984        -1.22553260E-07
   55.7944984        -1.22385927E-07
   55.9749985        -1.21750219E-07
   56.1554985        -1.20657020E-07
   56.3359985        -1.19120159E-07
   56.5164986        -1.17153526E-07
   56.6969986        -1.14768646E-07
   56.8774986        -1.11972746E-07
   57.0579987        -1.08767594E-07
   57.2384987        -1.05148928E-07
   57.4189987        -1.01106721E-07
   57.5994987        -9.66259321E-08
   57.7799988        -9.16876886E-08
   57.9604988        -8.62707310E-08
   58.1409988        -8.03528479E-08
   58.3214989        -7.39122825E-08
   58.5019989        -6.69288838E-08
   58.6824989        -5.93851013E-08
   58.8629990        -5.12667704E-08
   59.0434990        -4.25637410E-08
   59.2239990        -3.32704886E-08
   59.4044991        -2.33868285E-08
   59.5849991        -1.29188233E-08
   59.7654991        -1.88009497E-09
   59.9459991         9.70647385E-09
   60.1264992         2.18066134E-08
   60.3069992         3.43721460E-08
   60.4874992         4.73383821E-08
   60.6679993         6.06215664E-08
   60.8484993         7.41167696E-08
   61.0289993         8.76965700E-08
   61.2094994         1.01210844E-07
   61.3899994         1.14487825E-07
   61.5704994         1.27336719E-07
   61.7509995         1.39551844E-07
   61.9314995         1.50918339E-07
   62.1119995         1.61219276E-07
   62.2924995         1.70243709E-07
   62.4729996         1.77795485E-07
   62.6534996         1.83702085E-07
   62.8339996         1.87823133E-07
   63.0144997         1.90058046E-07
   63.1949997         1.90352381E-07
   63.3754997         1.88702657E-07
   63.5559998         1.85159109E-07
   63.7364998         1.79826586E-07
   63.9169998         1.72863082E-07
   64.0975037         1.64476276E-07
   64.2779999         1.54917984E-07
   64.4585037         1.44477013E-07
   64.6389999         1.33470635E-07
   64.8195038         1.22235093E-07
   65.0000000         1.11115831E-07
   65.1804962         1.00457235E-07
   65.3610001         9.05930193E-08
   65.5414963         8.18368946E-08
   65.7220001         7.44742863E-08
   65.9024963         6.87550354E-08
   66.0830002         6.48874163E-08
   66.2634964         6.30331058E-08
   66.4440002         6.33034531E-08
   66.6244965         6.57565593E-08
   66.8050003         7.03952949E-08
   66.9854965         7.71660922E-08
   67.1660004         8.59586038E-08
   67.3464966         9.66064135E-08
   67.5270004         1.08888685E-07
   67.7074966         1.22533194E-07
   67.8880005         1.37220823E-07
   68.0684967         1.52591682E-07
   68.2490005         1.68252924E-07
   68.4294968         1.83788586E-07
   68.6100006         1.98771090E-07
   68.7904968         2.12774253E-07
   68.9710007         2.25387424E-07
   69.1514969         2.36229980E-07
   69.3320007         2.44965634E-07
   69.5124969         2.51315726E-07
   69.6930008         2.55070802E-07
   69.8734970         2.56099867E-07
   70.0540009         2.54356735E-07
   70.2344971         2.49882788E-07
   70.4150009         2.42806692E-07
   70.5954971         2.33339918E-07
   70.7760010         2.21769184E-07
   70.9564972         2.08445826E-07
   71.1370010         1.93772706E-07
   71.3174973         1.78189381E-07
   71.4980011         1.62156240E-07
   71.6784973         1.46138319E-07
   71.8590012         1.30589598E-07
   72.0394974         1.15938192E-07
   72.2200012         1.02573438E-07
   72.4004974         9.08347175E-08
   72.5810013         8.10029945E-08
   72.7614975         7.32947214E-08
   72.9420013         6.78582595E-08
   73.1224976         6.47726353E-08
   73.3030014         6.40484004E-08
   73.4834976         6.56302319E-08
   73.6640015         6.94010112E-08
   73.8444977         7.51872378E-08
   74.0250015         8.27653892E-08
   74.2054977         9.18692180E-08
   74.3860016         1.02197696E-07
   74.5664978         1.13423539E-07
   74.7470016         1.25202192E-07
   74.9274979         1.37181232E-07
   75.1080017         1.49010049E-07
   75.2884979         1.60349813E-07
   75.4690018         1.70883254E-07
   75.6494980         1.80324093E-07
   75.8300018         1.88425631E-07
   76.0104980         1.94988047E-07
   76.1910019         1.99863976E-07
   76.3714981         2.02962156E-07
   76.5520020         2.04248735E-07
   76.7324982         2.03746339E-07
   76.9130020         2.01530582E-07
   77.0934982         1.97724361E-07
   77.2740021         1.92489949E-07
   77.4544983         1.86019506E-07
   77.6350021         1.78524488E-07
   77.8154984         1.70224581E-07
   77.9960022         1.61336914E-07
   78.1764984         1.52066150E-07
   78.3570023         1.42595837E-07
   78.5374985         1.33081485E-07
   78.7180023         1.23645748E-07
   78.8984985         1.14375943E-07
   79.0790024         1.05323721E-07
   79.2594986         9.65071436E-08
   79.4400024         8.79145645E-08
   79.6204987         7.95101442E-08
   79.8010025         7.12401373E-08
   79.9814987         6.30397921E-08
   80.1620026         5.48400507E-08
   80.3424988         4.65737351E-08
   80.5230026         3.81810530E-08
   80.7034988         2.96138598E-08
   80.8840027         2.08387156E-08
   81.0644989         1.18383578E-08
   81.2450027         2.61177879E-09
   81.4254990        -6.82723522E-09
   81.6060028        -1.64525531E-08
   81.7864990        -2.62293689E-08
   81.9670029        -3.61181449E-08
   82.1474991        -4.60795420E-08
   82.3280029        -5.60790419E-08
   82.5084991        -6.60921771E-08
   82.6890030        -7.61092380E-08
   82.8694992        -8.61398917E-08
