  -7.19999981       0.00000000    
  -7.01999998       0.00000000    
  -6.84000015       0.00000000    
  -6.65999985       0.00000000    
  -6.48000002       0.00000000    
  -6.30000019       0.00000000    
  -6.11999989       0.00000000    
  -5.94000006      -9.39131138E-30
  -5.76000023      -1.20596280E-28
  -5.57999992      -8.27984535E-28
  -5.40000010      -4.03268507E-27
  -5.21999979      -1.53143986E-26
  -5.03999996      -4.85019110E-26
  -4.86000013      -1.33667636E-25
  -4.67999983      -3.27200965E-25
  -4.50000000      -7.28260512E-25
  -4.32000017      -1.52269511E-24
  -4.13999987      -3.04836798E-24
  -3.96000004      -5.80423896E-24
  -3.77999997      -1.04251968E-23
  -3.59999990      -1.80452942E-23
  -3.42000008      -3.16973746E-23
  -3.24000001      -5.86641524E-23
  -3.05999994      -1.12178457E-22
  -2.88000011      -2.10581887E-22
  -2.70000005      -3.75388234E-22
  -2.51999998      -6.35304700E-22
  -2.33999991      -1.04374886E-21
  -2.16000009      -1.70551273E-21
  -1.98000002      -2.78968641E-21
  -1.79999995      -4.50410587E-21
  -1.62000000      -7.04321593E-21
  -1.44000006      -1.05799252E-20
  -1.25999999      -1.53848372E-20
  -1.08000004      -2.20570231E-20
 -0.899999976      -3.16757119E-20
 -0.720000029      -4.56131947E-20
 -0.540000021      -6.49836902E-20
 -0.360000014      -9.01929952E-20
 -0.180000007      -1.21361872E-19
   4.44089210E-16  -1.59957421E-19
  0.180000007      -2.10718897E-19
  0.360000014      -2.81809526E-19
  0.540000021      -3.81544450E-19
  0.720000029      -5.12745118E-19
  0.899999976      -6.69349433E-19
   1.08000004      -8.41020792E-19
   1.25999999      -1.02725037E-18
   1.44000006      -1.25371578E-18
   1.62000000      -1.57636864E-18
   1.79999995      -2.06084874E-18
   1.98000002      -2.73979548E-18
   2.16000009      -3.57195200E-18
   2.33999991      -4.43925873E-18
   2.51999998      -5.20655933E-18
   2.70000005      -5.83147277E-18
   2.88000011      -6.46757590E-18
   3.05999994      -7.48338058E-18
   3.24000001      -9.34690518E-18
   3.42000008      -1.23983554E-17
   3.59999990      -1.66153917E-17
   3.77999997      -2.15138494E-17
   3.96000004      -2.62840676E-17
   4.13999987      -3.01461607E-17
   4.32000017      -3.27733624E-17
   4.50000000      -3.45594670E-17
   4.67999983      -3.65515529E-17
   4.86000013      -4.00277430E-17
   5.03999996      -4.59014433E-17
   5.21999979      -5.42721472E-17
   5.40000010      -6.44296604E-17
   5.57999992      -7.54295611E-17
   5.76000023      -8.70547508E-17
   5.94000006      -1.00690466E-16
   6.11999989      -1.19520240E-16
   6.30000019      -1.47608011E-16
   6.48000002      -1.87871034E-16
   6.65999985      -2.39537873E-16
   6.84000015      -2.96169490E-16
   7.01999998      -3.45413233E-16
   7.19999981      -3.71179922E-16
   7.38000011      -3.57964488E-16
   7.55999994      -2.95933512E-16
   7.73999977      -1.84762251E-16
   7.92000008      -3.44961513E-17
   8.10000038       1.36973420E-16
   8.27999973       3.08391355E-16
   8.46000004       4.58791955E-16
   8.64000034       5.67692228E-16
   8.81999969       6.11282608E-16
   9.00000000       5.57412742E-16
   9.18000031       3.65096055E-16
   9.35999966      -5.33375323E-18
   9.53999996      -5.68588548E-16
   9.72000027      -1.28097926E-15
   9.89999962      -2.00789732E-15
   10.0799999      -2.50756205E-15
   10.2600002      -2.44507072E-15
   10.4399996      -1.44392277E-15
   10.6199999       8.29019309E-16
   10.8000002       4.56016916E-15
   10.9799995       9.69044655E-15
   11.1599998       1.58459586E-14
   11.3400002       2.23189048E-14
   11.5200005       2.81095388E-14
   11.6999998       3.20248385E-14
   11.8800001       3.28117186E-14
   12.0600004       2.92820103E-14
   12.2399998       2.03794975E-14
   12.4200001       5.13948506E-15
   12.6000004      -1.74853265E-14
   12.7799997      -4.89128289E-14
   12.9600000      -9.12768260E-14
   13.1400003      -1.47732683E-13
   13.3199997      -2.22634018E-13
   13.5000000      -3.21519260E-13
   13.6800003      -4.50916458E-13
   13.8599997      -6.18030583E-13
   14.0400000      -8.30439450E-13
   14.2200003      -1.09592402E-12
   14.3999996      -1.42253668E-12
   14.5799999      -1.81896718E-12
   14.7600002      -2.29516688E-12
   14.9399996      -2.86310840E-12
   15.1199999      -3.53747218E-12
   15.3000002      -4.33599164E-12
   15.4799995      -5.27910354E-12
   15.6599998      -6.38867995E-12
   15.8400002      -7.68570624E-12
   16.0200005      -9.18692986E-12
   16.2000008      -1.09007690E-11
   16.3799992      -1.28229380E-11
   16.5599995      -1.49321579E-11
   16.7399998      -1.71865352E-11
   16.9200001      -1.95209664E-11
   17.1000004      -2.18453346E-11
   17.2800007      -2.40439179E-11
   17.4599991      -2.59754163E-11
   17.6399994      -2.74731904E-11
   17.8199997      -2.83453157E-11
   18.0000000      -2.83741294E-11
   18.1800003      -2.73147876E-11
   18.3600006      -2.48935508E-11
   18.5400009      -2.08056471E-11
   18.7199993      -1.47141570E-11
   18.8999996      -6.25083665E-12
   19.0799999       4.98014173E-12
   19.2600002       1.93948937E-11
   19.4400005       3.74181901E-11
   19.6200008       5.94679236E-11
   19.7999992       8.59372226E-11
   19.9799995       1.17174076E-10
   20.1599998       1.53461993E-10
   20.3400002       1.95001890E-10
   20.5200005       2.41897974E-10
   20.7000008       2.94147789E-10
   20.8799992       3.51638663E-10
   21.0599995       4.14147799E-10
   21.2399998       4.81347018E-10
   21.4200001       5.52809742E-10
   21.6000004       6.28017138E-10
   21.7800007       7.06365744E-10
   21.9599991       7.87172272E-10
   22.1399994       8.69677108E-10
   22.3199997       9.53047308E-10
   22.5000000       1.03638054E-09
   22.6800003       1.11871112E-09
   22.8600006       1.19902077E-09
   23.0400009       1.27625566E-09
   23.2199993       1.34935030E-09
   23.3999996       1.41725942E-09
   23.5799999       1.47899304E-09
   23.7600002       1.53365542E-09
   23.9400005       1.58048263E-09
   24.1200008       1.61887614E-09
   24.2999992       1.64842817E-09
   24.4799995       1.66893788E-09
   24.6599998       1.68041481E-09
   24.8400002       1.68307035E-09
   25.0200005       1.67729730E-09
   25.2000008       1.66363789E-09
   25.3799992       1.64274949E-09
   25.5599995       1.61536240E-09
   25.7399998       1.58224167E-09
   25.9200001       1.54415225E-09
   26.1000004       1.50182944E-09
   26.2800007       1.45595647E-09
   26.4599991       1.40714929E-09
   26.6399994       1.35594613E-09
   26.8199997       1.30280076E-09
   27.0000000       1.24807586E-09
   27.1800003       1.19203336E-09
   27.3600006       1.13481680E-09
   27.5400009       1.07642506E-09
   27.7199993       1.01667663E-09
   27.8999996       9.55167057E-10
   28.0799999       8.91222096E-10
   28.2600002       8.23854096E-10
   28.4400005       7.51728624E-10
   28.6200008       6.73147538E-10
   28.7999992       5.86054705E-10
   28.9799995       4.88070084E-10
   29.1599998       3.76555231E-10
   29.3400002       2.48702142E-10
   29.5200005       1.01645477E-10
   29.7000008      -6.74142478E-11
   29.8799992      -2.61092203E-10
   30.0599995      -4.81711671E-10
   30.2399998      -7.31225858E-10
   30.4200001      -1.01116460E-09
   30.6000004      -1.32262179E-09
   30.7800007      -1.66626968E-09
   30.9599991      -2.04239514E-09
   31.1399994      -2.45094700E-09
   31.3199997      -2.89158009E-09
   31.5000000      -3.36367711E-09
   31.6800003      -3.86634458E-09
   31.8600006      -4.39837100E-09
   32.0400009      -4.95815167E-09
   32.2200012      -5.54358603E-09
   32.4000015      -6.15196694E-09
   32.5800018      -6.77987444E-09
   32.7599983      -7.42309147E-09
   32.9399986      -8.07655720E-09
   33.1199989      -8.73437855E-09
   33.2999992      -9.38988887E-09
   33.4799995      -1.00357660E-08
   33.6599998      -1.06641886E-08
   33.8400002      -1.12670158E-08
   34.0200005      -1.18359811E-08
   34.2000008      -1.23628601E-08
   34.3800011      -1.28396236E-08
   34.5600014      -1.32585383E-08
   34.7400017      -1.36122358E-08
   34.9199982      -1.38937324E-08
   35.0999985      -1.40964440E-08
   35.2799988      -1.42141632E-08
   35.4599991      -1.42410679E-08
   35.6399994      -1.41717322E-08
   35.8199997      -1.40011949E-08
   36.0000000      -1.37250558E-08
   36.1800003      -1.33396298E-08
   36.3600006      -1.28421318E-08
   36.5400009      -1.22308883E-08
   36.7200012      -1.15055556E-08
   36.9000015      -1.06673319E-08
   37.0800018      -9.71913572E-09
   37.2599983      -8.66575256E-09
   37.4399986      -7.51392726E-09
   37.6199989      -6.27239460E-09
   37.7999992      -4.95186026E-09
   37.9799995      -3.56493191E-09
   38.1599998      -2.12599938E-09
   38.3400002      -6.51088294E-10
   38.5200005       8.42312053E-10
   38.7000008       2.33544584E-09
   38.8800011       3.80851395E-09
   39.0600014       5.24090904E-09
   39.2400017       6.61150246E-09
   39.4199982       7.89894994E-09
   39.5999985       9.08204356E-09
   39.7799988       1.01401127E-08
   39.9599991       1.10534648E-08
   40.1399994       1.18038512E-08
   40.3199997       1.23749588E-08
   40.5000000       1.27528912E-08
   40.6800003       1.29266233E-08
   40.8600006       1.28883881E-08
   41.0400009       1.26339890E-08
   41.2200012       1.21630279E-08
   41.4000015       1.14790026E-08
   41.5800018       1.05893321E-08
   41.7599983       9.50526857E-09
   41.9399986       8.24173796E-09
   42.1199989       6.81710999E-09
   42.2999992       5.25294208E-09
   42.4799995       3.57366359E-09
   42.6599998       1.80626725E-09
   42.8400002      -2.00502635E-11
   43.0200005      -1.87427229E-09
   43.2000008      -3.72400222E-09
   43.3800011      -5.53595969E-09
   43.5600014      -7.27657401E-09
   43.7400017      -8.91263152E-09
   43.9199982      -1.04120055E-08
   44.0999985      -1.17444312E-08
   44.2799988      -1.28822872E-08
   44.4599991      -1.38013503E-08
   44.6399994      -1.44814640E-08
   44.8199997      -1.49070782E-08
   45.0000000      -1.50676254E-08
   45.1800003      -1.49576849E-08
   45.3600006      -1.45769414E-08
   45.5400009      -1.39299514E-08
   45.7200012      -1.30257414E-08
   45.9000015      -1.18772574E-08
   46.0800018      -1.05007638E-08
   46.2599983      -8.91519925E-09
   46.4399986      -7.14154824E-09
   46.6199989      -5.20232524E-09
   46.7999992      -3.12111581E-09
   46.9799995      -9.22267207E-10
   47.1599998       1.36930900E-09
   47.3400002       3.72824260E-09
   47.5200005       6.12872642E-09
   47.7000008       8.54450644E-09
   47.8800011       1.09488560E-08
   48.0600014       1.33145797E-08
   48.2400017       1.56140629E-08
   48.4199982       1.78194171E-08
   48.5999985       1.99026573E-08
   48.7799988       2.18360157E-08
   48.9599991       2.35922606E-08
   49.1399994       2.51451038E-08
   49.3199997       2.64695981E-08
   49.5000000       2.75425265E-08
   49.6800003       2.83428054E-08
   49.8600006       2.88518009E-08
   50.0400009       2.90536573E-08
   50.2200012       2.89355455E-08
   50.4000015       2.84879178E-08
   50.5800018       2.77047576E-08
   50.7599983       2.65838072E-08
   50.9399986       2.51268819E-08
   51.1199989       2.33401956E-08
   51.2999992       2.12347526E-08
   51.4799995       1.88267464E-08
   51.6599998       1.61379923E-08
   51.8400002       1.31962841E-08
   52.0200005       1.00357047E-08
   52.2000008       6.69678046E-09
   52.3800011       3.22646621E-09
   52.5600014      -3.22094296E-10
   52.7400017      -3.89003363E-09
   52.9199982      -7.41351114E-09
   53.0999985      -1.08246851E-08
   53.2799988      -1.40529171E-08
   53.4599991      -1.70261512E-08
   53.6399994      -1.96724255E-08
   53.8199997      -2.19214744E-08
   54.0000000      -2.37063684E-08
   54.1800003      -2.49651304E-08
   54.3600006      -2.56423007E-08
   54.5400009      -2.56903778E-08
   54.7200012      -2.50711256E-08
   54.9000015      -2.37566766E-08
   55.0800018      -2.17303970E-08
   55.2599983      -1.89874907E-08
   55.4399986      -1.55352797E-08
   55.6199989      -1.13931495E-08
   55.7999992      -6.59213173E-09
   55.9799995      -1.17413779E-09
   56.1599998       4.80917572E-09
   56.3400002       1.12978231E-08
   56.5200005       1.82251423E-08
   56.7000008       2.55195971E-08
   56.8800011       3.31066445E-08
   57.0600014       4.09105603E-08
   57.2400017       4.88561582E-08
   57.4199982       5.68702845E-08
   57.5999985       6.48830536E-08
   57.7799988       7.28287972E-08
   57.9599991       8.06467426E-08
   58.1399994       8.82813538E-08
   58.3199997       9.56825161E-08
   58.5000000       1.02805458E-07
   58.6800003       1.09610561E-07
   58.8600006       1.16063021E-07
   59.0400009       1.22132448E-07
   59.2200012       1.27792347E-07
   59.4000015       1.33019483E-07
   59.5800018       1.37793236E-07
   59.7599983       1.42094720E-07
   59.9399986       1.45905830E-07
   60.1199989       1.49208134E-07
   60.2999992       1.51981666E-07
   60.4799995       1.54203690E-07
   60.6599998       1.55847502E-07
   60.8400002       1.56881399E-07
   61.0200005       1.57267806E-07
   61.2000008       1.56962969E-07
   61.3800011       1.55916879E-07
   61.5600014       1.54073973E-07
   61.7400017       1.51374309E-07
   61.9199982       1.47755330E-07
   62.0999985       1.43154210E-07
   62.2799988       1.37510554E-07
   62.4599991       1.30769450E-07
   62.6399994       1.22884614E-07
   62.8199997       1.13821450E-07
   63.0000000       1.03560012E-07
   63.1800003       9.20974870E-08
   63.3600006       7.94502668E-08
   63.5400009       6.56554633E-08
   63.7200012       5.07718170E-08
   63.9000015       3.48800100E-08
   64.0800018       1.80823569E-08
   64.2600021       5.01992614E-10
   64.4400024      -1.77184596E-08
   64.6200027      -3.64186512E-08
   64.8000031      -5.54227064E-08
   64.9800034      -7.45417807E-08
   65.1600037      -9.35769151E-08
   65.3399963      -1.12322169E-07
   65.5199966      -1.30567969E-07
   65.6999969      -1.48104647E-07
   65.8799973      -1.64726004E-07
   66.0599976      -1.80232888E-07
   66.2399979      -1.94436666E-07
   66.4199982      -2.07162472E-07
   66.5999985      -2.18252168E-07
   66.7799988      -2.27566829E-07
   66.9599991      -2.34988860E-07
   67.1399994      -2.40423560E-07
   67.3199997      -2.43800201E-07
   67.5000000      -2.45072528E-07
   67.6800003      -2.44218882E-07
   67.8600006      -2.41241821E-07
   68.0400009      -2.36167338E-07
   68.2200012      -2.29043792E-07
   68.4000015      -2.19940375E-07
   68.5800018      -2.08945579E-07
   68.7600021      -1.96165075E-07
   68.9400024      -1.81719784E-07
   69.1200027      -1.65743458E-07
   69.3000031      -1.48380408E-07
   69.4800034      -1.29783089E-07
   69.6600037      -1.10109909E-07
   69.8399963      -8.95229704E-08
   70.0199966      -6.81863526E-08
   70.1999969      -4.62645247E-08
   70.3799973      -2.39212987E-08
   70.5599976      -1.31912870E-09
   70.7399979       2.13811067E-08
   70.9199982       4.40199592E-08
   71.0999985       6.64389219E-08
   71.2799988       8.84798297E-08
   71.4599991       1.09984185E-07
   71.6399994       1.30792614E-07
   71.8199997       1.50744540E-07
   72.0000000       1.69678316E-07
   72.1800003       1.87431837E-07
   72.3600006       2.03843584E-07
   72.5400009       2.18754408E-07
   72.7200012       2.32009668E-07
   72.9000015       2.43461898E-07
   73.0800018       2.52973791E-07
   73.2600021       2.60421388E-07
   73.4400024       2.65697111E-07
   73.6200027       2.68713109E-07
   73.8000031       2.69403785E-07
   73.9800034       2.67728552E-07
   74.1600037       2.63673684E-07
   74.3399963       2.57253959E-07
   74.5199966       2.48513714E-07
   74.6999969       2.37527402E-07
   74.8799973       2.24399500E-07
   75.0599976       2.09264215E-07
   75.2399979       1.92284460E-07
   75.4199982       1.73650378E-07
   75.5999985       1.53577403E-07
   75.7799988       1.32303569E-07
   75.9599991       1.10086432E-07
   76.1399994       8.71990338E-08
   76.3199997       6.39253699E-08
   76.5000000       4.05551965E-08
   76.6800003       1.73781203E-08
   76.8600006      -5.32259525E-09
   77.0400009      -2.72766503E-08
   77.2200012      -4.82333107E-08
   77.4000015      -6.79677754E-08
   77.5800018      -8.62871445E-08
   77.7600021      -1.03035553E-07
   77.9400024      -1.18098534E-07
   78.1200027      -1.31406168E-07
   78.3000031      -1.42935036E-07
   78.4800034      -1.52709092E-07
   78.6600037      -1.60799146E-07
   78.8399963      -1.67321303E-07
   79.0199966      -1.72434341E-07
   79.1999969      -1.76336130E-07
   79.3799973      -1.79259288E-07
   79.5599976      -1.81466078E-07
   79.7399979      -1.83242662E-07
   79.9199982      -1.84892954E-07
   80.0999985      -1.86731896E-07
   80.2799988      -1.89078378E-07
   80.4599991      -1.92248010E-07
   80.6399994      -1.96545713E-07
   80.8199997      -2.02258320E-07
   81.0000000      -2.09647425E-07
   81.1800003      -2.18942645E-07
   81.3600006      -2.30335488E-07
   81.5400009      -2.43974029E-07
   81.7200012      -2.59958313E-07
   81.9000015      -2.78337382E-07
   82.0800018      -2.99106915E-07
   82.2600021      -3.22208422E-07
   82.4400024      -3.47529692E-07
   82.6200027      -3.74906108E-07
   82.8000031      -4.04123483E-07
   82.9800034      -4.34921446E-07
   83.1600037      -4.66998046E-07
   83.3399963      -5.00014949E-07
   83.5199966      -5.33603213E-07
   83.6999969      -5.67369511E-07
   83.8799973      -6.00902922E-07
   84.0599976      -6.33781895E-07
   84.2399979      -6.65581240E-07
   84.4199982      -6.95879123E-07
   84.5999985      -7.24264453E-07
   84.7799988      -7.50343247E-07
   84.9599991      -7.73745398E-07
   85.1399994      -7.94130244E-07
   85.3199997      -8.11192251E-07
   85.5000000      -8.24665221E-07
   85.6800003      -8.34326272E-07
   85.8600006      -8.39998620E-07
   86.0400009      -8.41553856E-07
   86.2200012      -8.38912797E-07
   86.4000015      -8.32046226E-07
   86.5800018      -8.20974378E-07
   86.7600021      -8.05766376E-07
   86.9400024      -7.86538862E-07
   87.1200027      -7.63453954E-07
   87.3000031      -7.36717709E-07
   87.4800034      -7.06577111E-07
   87.6600037      -6.73317743E-07
   87.8399963      -6.37260200E-07
   88.0199966      -5.98756458E-07
   88.1999969      -5.58185661E-07
   88.3799973      -5.15949409E-07
   88.5599976      -4.72466013E-07
   88.7399979      -4.28165009E-07
   88.9199982      -3.83480455E-07
   89.0999985      -3.38844757E-07
   89.2799988      -2.94681854E-07
   89.4599991      -2.51401076E-07
   89.6399994      -2.09391004E-07
   89.8199997      -1.69014214E-07
   90.0000000      -1.30602572E-07
   90.1800003      -9.44532701E-08
   90.3600006      -6.08257551E-08
   90.5400009      -2.99392404E-08
   90.7200012      -1.97089878E-09
   90.9000015       2.29456116E-08
   91.0800018       4.47210660E-08
   91.2600021       6.33115889E-08
   91.4400024       7.87191468E-08
   91.6200027       9.09918754E-08
   91.8000031       1.00224220E-07
   91.9800034       1.06556605E-07
   92.1600037       1.10174497E-07
   92.3399963       1.11306996E-07
   92.5199966       1.10224299E-07
   92.6999969       1.07234541E-07
   92.8799973       1.02679387E-07
   93.0599976       9.69289502E-08
   93.2399979       9.03754866E-08
   93.4199982       8.34266345E-08
   93.5999985       7.64978552E-08
   93.7799988       7.00046314E-08
   93.9599991       6.43544453E-08
   94.1399994       5.99388770E-08
   94.3199997       5.71259946E-08
   94.5000000       5.62532030E-08
   94.6800003       5.76208556E-08
   94.8600006       6.14864319E-08
   95.0400009       6.80597410E-08
   95.2200012       7.74988820E-08
   95.4000015       8.99071821E-08
   95.5800018       1.05331182E-07
   95.7600021       1.23759321E-07
   95.9400024       1.45121831E-07
   96.1200027       1.69291241E-07
   96.3000031       1.96084059E-07
   96.4800034       2.25263236E-07
   96.6600037       2.56541284E-07
   96.8399963       2.89584534E-07
   97.0199966       3.24017975E-07
   97.1999969       3.59430885E-07
   97.3799973       3.95383125E-07
   97.5599976       4.31411991E-07
   97.7399979       4.67039598E-07
   97.9199982       5.01780505E-07
   98.0999985       5.35149866E-07
   98.2799988       5.66671531E-07
   98.4599991       5.95886434E-07
   98.6399994       6.22360744E-07
   98.8199997       6.45694115E-07
   99.0000000       6.65527409E-07
   99.1800003       6.81550603E-07
   99.3600006       6.93509605E-07
   99.5400009       7.01212969E-07
   99.7200012       7.04537229E-07
   99.9000015       7.03432136E-07
   100.080002       6.97923554E-07
   100.260002       6.88115904E-07
   100.440002       6.74192620E-07
   100.620003       6.56415466E-07
