  -7.19999981         9.91858417E-19
  -7.01949978         9.91858624E-19
  -6.83900023         9.91858727E-19
  -6.65850019         9.91858314E-19
  -6.47800016         9.91858210E-19
  -6.29750013         9.91857797E-19
  -6.11700010         9.91857487E-19
  -5.93650007         9.91857176E-19
  -5.75600004         9.91856453E-19
  -5.57550001         9.91856246E-19
  -5.39499998         9.91855832E-19
  -5.21449995         9.91854798E-19
  -5.03399992         9.91854281E-19
  -4.85349989         9.91853764E-19
  -4.67299986         9.91853247E-19
  -4.49249983         9.91852524E-19
  -4.31199980         9.91851696E-19
  -4.13149977         9.91850869E-19
  -3.95099998         9.91849215E-19
  -3.77049994         9.91848698E-19
  -3.58999991         9.91847664E-19
  -3.40949988         9.91846630E-19
  -3.22900009         9.91845596E-19
  -3.04850006         9.91844769E-19
  -2.86800003         9.91843528E-19
  -2.68750000         9.91842804E-19
  -2.50699997         9.91841977E-19
  -2.32649994         9.91841150E-19
  -2.14599991         9.91839909E-19
  -1.96550000         9.91838772E-19
  -1.78499997         9.91837221E-19
  -1.60450006         9.91835670E-19
  -1.42400002         9.91834015E-19
  -1.24349999         9.91833085E-19
  -1.06299996         9.91831741E-19
 -0.882499993         9.91830293E-19
 -0.702000022         9.91828639E-19
 -0.521499991         9.91827191E-19
 -0.340999991         9.91825020E-19
 -0.160500005         9.91822331E-19
   1.99999996E-02     9.91820057E-19
  0.200499997         9.91817265E-19
  0.381000012         9.91814680E-19
  0.561500013         9.91812716E-19
  0.741999984         9.91810234E-19
  0.922500014         9.91808063E-19
   1.10300004         9.91805891E-19
   1.28349996         9.91803720E-19
   1.46399999         9.91801549E-19
   1.64450002         9.91799377E-19
   1.82500005         9.91796999E-19
   2.00550008         9.91794311E-19
   2.18600011         9.91791312E-19
   2.36649990         9.91788210E-19
   2.54699993         9.91785108E-19
   2.72749996         9.91781696E-19
   2.90799999         9.91779215E-19
   3.08850002         9.91776423E-19
   3.26900005         9.91773735E-19
   3.44950008         9.91771356E-19
   3.63000011         9.91769495E-19
   3.81049991         9.91767738E-19
   3.99099994         9.91765566E-19
   4.17150021         9.91762878E-19
   4.35200024         9.91759673E-19
   4.53249979         9.91756054E-19
   4.71299982         9.91752435E-19
   4.89349985         9.91747989E-19
   5.07399988         9.91744266E-19
   5.25449991         9.91739613E-19
   5.43499994         9.91735995E-19
   5.61549997         9.91731755E-19
   5.79600000         9.91728343E-19
   5.97650003         9.91724414E-19
   6.15700006         9.91720692E-19
   6.33750010         9.91717280E-19
   6.51800013         9.91713661E-19
   6.69850016         9.91709938E-19
   6.87900019         9.91705389E-19
   7.05950022         9.91700839E-19
   7.23999977         9.91696600E-19
   7.42049980         9.91692361E-19
   7.60099983         9.91687811E-19
   7.78149986         9.91684399E-19
   7.96199989         9.91680470E-19
   8.14249992         9.91677161E-19
   8.32299995         9.91673542E-19
   8.50349998         9.91670027E-19
   8.68400002         9.91666305E-19
   8.86450005         9.91662375E-19
   9.04500008         9.91657929E-19
   9.22550011         9.91653070E-19
   9.40600014         9.91648210E-19
   9.58650017         9.91643143E-19
   9.76700020         9.91637870E-19
   9.94750023         9.91633321E-19
   10.1280003         9.91627634E-19
   10.3085003         9.91622567E-19
   10.4890003         9.91618018E-19
   10.6695004         9.91613158E-19
   10.8500004         9.91608402E-19
   11.0305004         9.91602922E-19
   11.2110004         9.91597235E-19
   11.3915005         9.91591755E-19
   11.5719995         9.91585861E-19
   11.7524996         9.91580278E-19
   11.9329996         9.91574901E-19
   12.1134996         9.91569007E-19
   12.2939997         9.91562597E-19
   12.4744997         9.91556600E-19
   12.6549997         9.91550292E-19
   12.8354998         9.91543365E-19
   13.0159998         9.91537161E-19
   13.1964998         9.91531061E-19
   13.3769999         9.91525167E-19
   13.5574999         9.91520307E-19
   13.7379999         9.91515137E-19
   13.9184999         9.91509967E-19
   14.0990000         9.91505625E-19
   14.2795000         9.91501282E-19
   14.4600000         9.91496319E-19
   14.6405001         9.91490839E-19
   14.8210001         9.91484635E-19
   15.0015001         9.91478121E-19
   15.1820002         9.91470056E-19
   15.3625002         9.91460130E-19
   15.5430002         9.91447722E-19
   15.7235003         9.91432419E-19
   15.9040003         9.91415152E-19
   16.0844994         9.91397884E-19
   16.2649994         9.91384029E-19
   16.4454994         9.91378135E-19
   16.6259995         9.91386097E-19
   16.8064995         9.91415152E-19
   16.9869995         9.91469642E-19
   17.1674995         9.91551120E-19
   17.3479996         9.91658757E-19
   17.5284996         9.91784591E-19
   17.7089996         9.91918491E-19
   17.8894997         9.92046084E-19
   18.0699997         9.92151343E-19
   18.2504997         9.92216897E-19
   18.4309998         9.92225582E-19
   18.6114998         9.92161372E-19
   18.7919998         9.92009481E-19
   18.9724998         9.91755123E-19
   19.1529999         9.91384133E-19
   19.3334999         9.90884205E-19
   19.5139999         9.90244278E-19
   19.6945000         9.89459076E-19
   19.8750000         9.88527878E-19
   20.0555000         9.87453474E-19
   20.2360001         9.86245583E-19
   20.4165001         9.84913822E-19
   20.5970001         9.83469048E-19
   20.7775002         9.81921186E-19
   20.9580002         9.80281921E-19
   21.1385002         9.78567589E-19
   21.3190002         9.76810451E-19
   21.4995003         9.75070166E-19
   21.6800003         9.73442275E-19
   21.8605003         9.72070499E-19
   22.0410004         9.71154707E-19
   22.2215004         9.70954529E-19
   22.4020004         9.71796289E-19
   22.5825005         9.74083133E-19
   22.7630005         9.78304029E-19
   22.9435005         9.85055477E-19
   23.1240005         9.95060537E-19
   23.3045006         1.00918723E-18
   23.4850006         1.02845227E-18
   23.6655006         1.05400987E-18
   23.8460007         1.08710092E-18
   24.0265007         1.12896836E-18
   24.2070007         1.18072836E-18
   24.3875008         1.24319290E-18
   24.5680008         1.31665823E-18
   24.7485008         1.40064229E-18
   24.9290009         1.49360105E-18
   25.1095009         1.59262243E-18
   25.2900009         1.69310616E-18
   25.4705009         1.78846912E-18
   25.6509991         1.86988768E-18
   25.8314991         1.92612252E-18
   26.0119991         1.94346106E-18
   26.1924992         1.90582392E-18
   26.3729992         1.79506589E-18
   26.5534992         1.59150894E-18
   26.7339993         1.27469908E-18
   26.9144993         8.24437940E-19
   27.0949993         2.22004135E-19
   27.2754993        -5.48402807E-19
   27.4559994        -1.49807196E-18
   27.6364994        -2.63210112E-18
   27.8169994        -3.94762807E-18
   27.9974995        -5.43213851E-18
   28.1779995        -7.06189235E-18
   28.3584995        -8.80057471E-18
   28.5389996        -1.05983103E-17
   28.7194996        -1.23911813E-17
   28.8999996        -1.41013813E-17
   29.0804996        -1.56380497E-17
   29.2609997        -1.68989409E-17
   29.4414997        -1.77729284E-17
   29.6219997        -1.81433382E-17
   29.8024998        -1.78920308E-17
   29.9829998        -1.69041637E-17
   30.1634998        -1.50735055E-17
   30.3439999        -1.23081084E-17
   30.5244999        -8.53625742E-18
   30.7049999        -3.71222694E-18
   30.8855000         2.17799013E-18
   31.0660000         9.11178488E-18
   31.2465000         1.70255558E-17
   31.4270000         2.58117359E-17
   31.6075001         3.53173928E-17
   31.7880001         4.53444232E-17
   31.9685001         5.56517322E-17
   32.1489983         6.59599379E-17
   32.3294983         7.59577391E-17
   32.5099983         8.53107695E-17
   32.6904984         9.36720104E-17
   32.8709984         1.00693616E-16
   33.0514984         1.06039969E-16
   33.2319984         1.09401075E-16
   33.4124985         1.10506135E-16
   33.5929985         1.09136483E-16
   33.7734985         1.05137554E-16
   33.9539986         9.84292254E-17
   34.1344986         8.90139050E-17
   34.3149986         7.69821460E-17
   34.4954987         6.25148696E-17
   34.6759987         4.58822064E-17
   34.8564987         2.74383568E-17
   35.0369987         7.61237361E-18
   35.2174988        -1.31042664E-17
   35.3979988        -3.41744045E-17
   35.5784988        -5.50335636E-17
   35.7589989        -7.51109047E-17
   35.9394989        -9.38509792E-17
   36.1199989        -1.10735304E-16
   36.3004990        -1.25303794E-16
   36.4809990        -1.37173889E-16
   36.6614990        -1.46058206E-16
   36.8419991        -1.51778987E-16
   37.0224991        -1.54279587E-16
   37.2029991        -1.53632321E-16
   37.3834991        -1.50041881E-16
   37.5639992        -1.43844498E-16
   37.7444992        -1.35501753E-16
   37.9249992        -1.25589297E-16
   38.1054993        -1.14780217E-16
   38.2859993        -1.03823356E-16
   38.4664993        -9.35171291E-17
   38.6469994        -8.46799616E-17
   38.8274994        -7.81177790E-17
   39.0079994        -7.45901184E-17
   39.1884995        -7.47754532E-17
   39.3689995        -7.92370073E-17
   39.5494995        -8.83898270E-17
   39.7299995        -1.02469996E-16
   39.9104996        -1.21506757E-16
   40.0909996        -1.45299026E-16
   40.2714996        -1.73396750E-16
   40.4519997        -2.05089189E-16
   40.6324997        -2.39400945E-16
   40.8129997        -2.75097481E-16
   40.9934998        -3.10699785E-16
   41.1739998        -3.44510931E-16
   41.3544998        -3.74652308E-16
   41.5349998        -3.99110278E-16
   41.7154999        -4.15791904E-16
   41.8959999        -4.22589290E-16
   42.0764999        -4.17449706E-16
   42.2570000        -3.98451286E-16
   42.4375000        -3.63881781E-16
   42.6180000        -3.12318279E-16
   42.7985001        -2.42706041E-16
   42.9790001        -1.54433892E-16
   43.1595001        -4.74030607E-17
   43.3400002         7.79131213E-17
   43.5205002         2.20421412E-16
   43.7010002         3.78375706E-16
   43.8815002         5.49361588E-16
   44.0620003         7.30299102E-16
   44.2425003         9.17465643E-16
   44.4230003         1.10653928E-15
   44.6035004         1.29266164E-15
   44.7840004         1.47052077E-15
   44.9645004         1.63445193E-15
   45.1450005         1.77855553E-15
   45.3255005         1.89683055E-15
   45.5060005         1.98331918E-15
   45.6865005         2.03226180E-15
   45.8670006         2.03825667E-15
   46.0475006         1.99642066E-15
   46.2280006         1.90254527E-15
   46.4085007         1.75324597E-15
   46.5890007         1.54609707E-15
   46.7695007         1.27975222E-15
   46.9500008         9.54043808E-16
   47.1305008         5.70064132E-16
   47.3110008         1.30223613E-16
   47.4915009        -3.61714012E-16
   47.6720009        -9.00619322E-16
   47.8525009        -1.48000976E-15
   48.0330009        -2.09208964E-15
   48.2135010        -2.72781476E-15
   48.3940010        -3.37698632E-15
   48.5745010        -4.02837350E-15
   48.7550011        -4.66985527E-15
   48.9355011        -5.28859293E-15
   49.1160011        -5.87120591E-15
   49.2965012        -6.40397185E-15
   49.4770012        -6.87301930E-15
   49.6575012        -7.26453149E-15
   49.8380013        -7.56494188E-15
   50.0185013        -7.76113081E-15
   50.1990013        -7.84061384E-15
   50.3795013        -7.79173919E-15
   50.5600014        -7.60387491E-15
   50.7405014        -7.26760621E-15
   50.9210014        -6.77493120E-15
   51.1015015        -6.11945602E-15
   51.2820015        -5.29658850E-15
   51.4625015        -4.30372655E-15
   51.6430016        -3.14043246E-15
   51.8235016        -1.80860190E-15
   52.0040016        -3.12619506E-16
   52.1845016         1.34049994E-15
   52.3650017         3.14097837E-15
   52.5455017         5.07614775E-15
   52.7260017         7.13034114E-15
   52.9065018         9.28478892E-15
   53.0870018         1.15175398E-14
   53.2675018         1.38034039E-14
   53.4480019         1.61139345E-14
   53.6285019         1.84174558E-14
   53.8089981         2.06791591E-14
   53.9894981         2.28612583E-14
   54.1699982         2.49232431E-14
   54.3504982         2.68222249E-14
   54.5309982         2.85133855E-14
   54.7114983         2.99505327E-14
   54.8919983         3.10867936E-14
   55.0724983         3.18753948E-14
   55.2529984         3.22705662E-14
   55.4334984         3.22285533E-14
   55.6139984         3.17086852E-14
   55.7944984         3.06745189E-14
   55.9749985         2.90950091E-14
   56.1554985         2.69456546E-14
   56.3359985         2.42096280E-14
   56.5164986         2.08788353E-14
   56.6969986         1.69548467E-14
   56.8774986         1.24497284E-14
   57.0579987         7.38670752E-15
   57.2384987         1.80064678E-15
   57.4189987        -4.26167221E-15
   57.5994987        -1.07414975E-14
   57.7799988        -1.75683002E-14
   57.9604988        -2.46602394E-14
   58.1409988        -3.19248988E-14
   58.3214989        -3.92603193E-14
   58.5019989        -4.65562952E-14
   58.6824989        -5.36959562E-14
   58.8629990        -6.05575838E-14
   59.0434990        -6.70166098E-14
   59.2239990        -7.29478394E-14
   59.4044991        -7.82276940E-14
   59.5849991        -8.27365926E-14
   59.7654991        -8.63613041E-14
   59.9459991        -8.89973045E-14
   60.1264992        -9.05509595E-14
   60.3069992        -9.09416856E-14
   60.4874992        -9.01038616E-14
   60.6679993        -8.79885628E-14
   60.8484993        -8.45650657E-14
   61.0289993        -7.98220065E-14
   61.2094994        -7.37683298E-14
   61.3899994        -6.64338037E-14
   61.5704994        -5.78692639E-14
   61.7509995        -4.81464268E-14
   61.9314995        -3.73574056E-14
   62.1119995        -2.56137698E-14
   62.2924995        -1.30452976E-14
   62.4729996         2.01654510E-16
   62.6534996         1.39661113E-14
   62.8339996         2.80747546E-14
   63.0144997         4.23444442E-14
   63.1949997         5.65849654E-14
   63.3754997         7.06018970E-14
   63.5559998         8.41996218E-14
   63.7364998         9.71842168E-14
   63.9169998         1.09366461E-13
   64.0975037         1.20564542E-13
   64.2779999         1.30606748E-13
   64.4585037         1.39333938E-13
   64.6389999         1.46601738E-13
   64.8195038         1.52282727E-13
   65.0000000         1.56268173E-13
   65.1804962         1.58469849E-13
   65.3610001         1.58821375E-13
   65.5414963         1.57279571E-13
   65.7220001         1.53825425E-13
   65.9024963         1.48464723E-13
   66.0830002         1.41228554E-13
   66.2634964         1.32173311E-13
   66.4440002         1.21380282E-13
   66.6244965         1.08955108E-13
   66.8050003         9.50266477E-14
   66.9854965         7.97456583E-14
   67.1660004         6.32831461E-14
   67.3464966         4.58284432E-14
   67.5270004         2.75871058E-14
   67.7074966         8.77856392E-15
   67.8880005        -1.03663738E-14
   68.0684967        -2.96081925E-14
   68.2490005        -4.87015112E-14
   68.4294968        -6.73981067E-14
   68.6100006        -8.54500322E-14
   68.7904968        -1.02612925E-13
   68.9710007        -1.18649475E-13
   69.1514969        -1.33332920E-13
   69.3320007        -1.46450655E-13
   69.5124969        -1.57807917E-13
   69.6930008        -1.67231355E-13
   69.8734970        -1.74572610E-13
   70.0540009        -1.79711646E-13
   70.2344971        -1.82559859E-13
   70.4150009        -1.83062753E-13
   70.5954971        -1.81202303E-13
   70.7760010        -1.76998607E-13
   70.9564972        -1.70511039E-13
   71.1370010        -1.61838614E-13
   71.3174973        -1.51119839E-13
   71.4980011        -1.38531642E-13
   71.6784973        -1.24287746E-13
   71.8590012        -1.08636306E-13
   72.0394974        -9.18567929E-14
   72.2200012        -7.42563495E-14
   72.4004974        -5.61653317E-14
   72.5810013        -3.79323106E-14
   72.7614975        -1.99183304E-14
   72.9420013        -2.49065803E-15
   73.1224976         1.39840498E-14
   73.3030014         2.91469763E-14
   73.4834976         4.26546446E-14
   73.6640015         5.41865577E-14
   73.8444977         6.34527356E-14
   74.0250015         7.02009929E-14
   74.2054977         7.42237286E-14
   74.3860016         7.53641331E-14
   74.5664978         7.35215586E-14
   74.7470016         6.86559845E-14
   74.9274979         6.07914801E-14
   75.1080017         5.00184983E-14
   75.2884979         3.64949736E-14
   75.4690018         2.04461336E-14
   75.6494980         2.16293336E-15
   75.8300018        -1.80009002E-14
   76.0104980        -3.96332916E-14
   76.1910019        -6.22695661E-14
   76.3714981        -8.53997184E-14
   76.5520020        -1.08476833E-13
   76.7324982        -1.30926831E-13
   76.9130020        -1.52159142E-13
   77.0934982        -1.71578179E-13
   77.2740021        -1.88595450E-13
   77.4544983        -2.02642062E-13
   77.6350021        -2.13181062E-13
   77.8154984        -2.19719818E-13
   77.9960022        -2.21821544E-13
   78.1764984        -2.19116175E-13
   78.3570023        -2.11309919E-13
   78.5374985        -1.98193526E-13
   78.7180023        -1.79648831E-13
   78.8984985        -1.55653607E-13
   79.0790024        -1.26284535E-13
   79.2594986        -9.17184351E-14
   79.4400024        -5.22315684E-14
   79.6204987        -8.19734092E-15
   79.8010025         3.99176643E-14
   79.9814987         9.15591794E-14
   80.1620026         1.46092231E-13
   80.3424988         2.02809395E-13
   80.5230026         2.60940575E-13
   80.7034988         3.19663729E-13
   80.8840027         3.78117080E-13
   81.0644989         4.35412123E-13
   81.2450027         4.90647562E-13
   81.4254990         5.42924050E-13
   81.6060028         5.91358830E-13
   81.7864990         6.35100967E-13
   81.9670029         6.73346199E-13
   82.1474991         7.05350979E-13
   82.3280029         7.30446194E-13
   82.5084991         7.48049517E-13
   82.6890030         7.57676474E-13
   82.8694992         7.58950465E-13
