  -7.19999981         4.91965752E-18
  -7.01949978         4.91965793E-18
  -6.83900023         4.91965711E-18
  -6.65850019         4.91965628E-18
  -6.47800016         4.91965463E-18
  -6.29750013         4.91965256E-18
  -6.11700010         4.91965049E-18
  -5.93650007         4.91964842E-18
  -5.75600004         4.91964635E-18
  -5.57550001         4.91964429E-18
  -5.39499998         4.91964222E-18
  -5.21449995         4.91964015E-18
  -5.03399992         4.91963808E-18
  -4.85349989         4.91963519E-18
  -4.67299986         4.91963270E-18
  -4.49249983         4.91962857E-18
  -4.31199980         4.91962443E-18
  -4.13149977         4.91961988E-18
  -3.95099998         4.91961492E-18
  -3.77049994         4.91960954E-18
  -3.58999991         4.91960375E-18
  -3.40949988         4.91959755E-18
  -3.22900009         4.91959176E-18
  -3.04850006         4.91958556E-18
  -2.86800003         4.91957977E-18
  -2.68750000         4.91957398E-18
  -2.50699997         4.91956818E-18
  -2.32649994         4.91956239E-18
  -2.14599991         4.91955619E-18
  -1.96550000         4.91955040E-18
  -1.78499997         4.91954378E-18
  -1.60450006         4.91953675E-18
  -1.42400002         4.91952807E-18
  -1.24349999         4.91951938E-18
  -1.06299996         4.91951028E-18
 -0.882499993         4.91950160E-18
 -0.702000022         4.91949250E-18
 -0.521499991         4.91948299E-18
 -0.340999991         4.91947389E-18
 -0.160500005         4.91946437E-18
   1.99999996E-02     4.91945527E-18
  0.200499997         4.91944618E-18
  0.381000012         4.91943708E-18
  0.561500013         4.91942715E-18
  0.741999984         4.91941722E-18
  0.922500014         4.91940647E-18
   1.10300004         4.91939572E-18
   1.28349996         4.91938414E-18
   1.46399999         4.91937214E-18
   1.64450002         4.91935891E-18
   1.82500005         4.91934526E-18
   2.00550008         4.91933161E-18
   2.18600011         4.91931796E-18
   2.36649990         4.91930431E-18
   2.54699993         4.91929067E-18
   2.72749996         4.91927826E-18
   2.90799999         4.91926585E-18
   3.08850002         4.91925303E-18
   3.26900005         4.91924062E-18
   3.44950008         4.91922780E-18
   3.63000011         4.91921374E-18
   3.81049991         4.91919926E-18
   3.99099994         4.91918355E-18
   4.17150021         4.91916700E-18
   4.35200024         4.91914922E-18
   4.53249979         4.91913185E-18
   4.71299982         4.91911324E-18
   4.89349985         4.91909462E-18
   5.07399988         4.91907684E-18
   5.25449991         4.91905906E-18
   5.43499994         4.91904293E-18
   5.61549997         4.91902638E-18
   5.79600000         4.91901108E-18
   5.97650003         4.91899536E-18
   6.15700006         4.91897882E-18
   6.33750010         4.91896186E-18
   6.51800013         4.91894366E-18
   6.69850016         4.91892505E-18
   6.87900019         4.91890479E-18
   7.05950022         4.91888369E-18
   7.23999977         4.91886177E-18
   7.42049980         4.91883944E-18
   7.60099983         4.91881628E-18
   7.78149986         4.91879353E-18
   7.96199989         4.91877202E-18
   8.14249992         4.91875093E-18
   8.32299995         4.91873108E-18
   8.50349998         4.91871164E-18
   8.68400002         4.91869261E-18
   8.86450005         4.91867359E-18
   9.04500008         4.91865291E-18
   9.22550011         4.91863223E-18
   9.40600014         4.91861031E-18
   9.58650017         4.91858674E-18
   9.76700020         4.91856233E-18
   9.94750023         4.91853669E-18
   10.1280003         4.91851105E-18
   10.3085003         4.91848458E-18
   10.4890003         4.91845811E-18
   10.6695004         4.91843164E-18
   10.8500004         4.91840600E-18
   11.0305004         4.91838118E-18
   11.2110004         4.91835678E-18
   11.3915005         4.91833362E-18
   11.5719995         4.91831128E-18
   11.7524996         4.91828812E-18
   11.9329996         4.91826496E-18
   12.1134996         4.91824097E-18
   12.2939997         4.91821450E-18
   12.4744997         4.91818555E-18
   12.6549997         4.91815371E-18
   12.8354998         4.91811938E-18
   13.0159998         4.91808298E-18
   13.1964998         4.91804659E-18
   13.3769999         4.91801143E-18
   13.5574999         4.91797876E-18
   13.7379999         4.91794939E-18
   13.9184999         4.91792416E-18
   14.0990000         4.91790307E-18
   14.2795000         4.91788570E-18
   14.4600000         4.91787246E-18
   14.6405001         4.91786212E-18
   14.8210001         4.91785385E-18
   15.0015001         4.91784641E-18
   15.1820002         4.91783690E-18
   15.3625002         4.91782077E-18
   15.5430002         4.91779057E-18
   15.7235003         4.91774342E-18
   15.9040003         4.91767932E-18
   16.0844994         4.91760983E-18
   16.2649994         4.91756020E-18
   16.4454994         4.91757303E-18
   16.6259995         4.91770372E-18
   16.8064995         4.91801929E-18
   16.9869995         4.91858260E-18
   17.1674995         4.91944576E-18
   17.3479996         4.92063318E-18
   17.5284996         4.92213575E-18
   17.7089996         4.92391006E-18
   17.8894997         4.92588164E-18
   18.0699997         4.92795786E-18
   18.2504997         4.93004153E-18
   18.4309998         4.93204786E-18
   18.6114998         4.93391191E-18
   18.7919998         4.93559357E-18
   18.9724998         4.93708373E-18
   19.1529999         4.93839937E-18
   19.3334999         4.93958678E-18
   19.5139999         4.94072912E-18
   19.6945000         4.94195293E-18
   19.8750000         4.94343855E-18
   20.0555000         4.94542213E-18
   20.2360001         4.94818946E-18
   20.4165001         4.95205529E-18
   20.5970001         4.95733684E-18
   20.7775002         4.96433355E-18
   20.9580002         4.97331962E-18
   21.1385002         4.98457176E-18
   21.3190002         4.99843448E-18
   21.4995003         5.01542518E-18
   21.6800003         5.03636774E-18
   21.8605003         5.06253519E-18
   22.0410004         5.09579116E-18
   22.2215004         5.13870818E-18
   22.4020004         5.19466778E-18
   22.5825005         5.26794481E-18
   22.7630005         5.36378858E-18
   22.9435005         5.48851542E-18
   23.1240005         5.64960181E-18
   23.3045006         5.85576831E-18
   23.4850006         6.11699856E-18
   23.6655006         6.44444628E-18
   23.8460007         6.85016100E-18
   24.0265007         7.34657814E-18
   24.2070007         7.94573649E-18
   24.3875008         8.65820204E-18
   24.5680008         9.49171969E-18
   24.7485008         1.04495932E-17
   24.9290009         1.15288405E-17
   25.1095009         1.27181575E-17
   25.2900009         1.39957206E-17
   25.4705009         1.53269222E-17
   25.6509991         1.66621224E-17
   25.8314991         1.79345810E-17
   26.0119991         1.90587740E-17
   26.1924992         1.99293518E-17
   26.3729992         2.04209883E-17
   26.5534992         2.03893751E-17
   26.7339993         1.96735479E-17
   26.9144993         1.80996515E-17
   27.0949993         1.54861760E-17
   27.2754993         1.16505833E-17
   27.4559994         6.41721343E-18
   27.6364994        -3.73671216E-19
   27.8169994        -8.85589325E-18
   27.9974995        -1.91266723E-17
   28.1779995        -3.12354583E-17
   28.3584995        -4.51726873E-17
   28.5389996        -6.08590195E-17
   28.7194996        -7.81355799E-17
   28.8999996        -9.67561037E-17
   29.0804996        -1.16381573E-16
   29.2609997        -1.36578253E-16
   29.4414997        -1.56819614E-16
   29.6219997        -1.76492536E-16
   29.8024998        -1.94907946E-16
   29.9829998        -2.11315662E-16
   30.1634998        -2.24923379E-16
   30.3439999        -2.34919188E-16
   30.5244999        -2.40497138E-16
   30.7049999        -2.40885768E-16
   30.8855000        -2.35378624E-16
   31.0660000        -2.23366426E-16
   31.2465000        -2.04369913E-16
   31.4270000        -1.78072001E-16
   31.6075001        -1.44347609E-16
   31.7880001        -1.03289309E-16
   31.9685001        -5.52264688E-17
   32.1489983        -7.36055811E-19
   32.3294983         5.93566345E-17
   32.5099983         1.23988180E-16
   32.6904984         1.91878294E-16
   32.8709984         2.61561604E-16
   33.0514984         3.31428640E-16
   33.2319984         3.99774061E-16
   33.4124985         4.64850570E-16
   33.5929985         5.24926699E-16
   33.7734985         5.78346261E-16
   33.9539986         6.23589309E-16
   34.1344986         6.59331293E-16
   34.3149986         6.84499977E-16
   34.4954987         6.98326890E-16
   34.6759987         7.00390315E-16
   34.8564987         6.90647372E-16
   35.0369987         6.69450478E-16
   35.2174988         6.37547565E-16
   35.3979988         5.96062697E-16
   35.5784988         5.46458330E-16
   35.7589989         4.90479987E-16
   35.9394989         4.30087067E-16
   36.1199989         3.67372033E-16
   36.3004990         3.04473219E-16
   36.4809990         2.43483856E-16
   36.6614990         1.86360880E-16
   36.8419991         1.34835310E-16
   37.0224991         9.03265546E-17
   37.2029991         5.38628086E-17
   37.3834991         2.60107109E-17
   37.5639992         6.81826988E-18
   37.7444992        -4.22367975E-18
   37.9249992        -8.19647975E-18
   38.1054993        -6.74036849E-18
   38.2859993        -2.00991861E-18
   38.4664993         3.40236509E-18
   38.6469994         6.57227794E-18
   38.8274994         4.37521675E-18
   39.0079994        -6.36382884E-18
   39.1884995        -2.87089708E-17
   39.3689995        -6.54480058E-17
   39.5494995        -1.18929276E-16
   39.7299995        -1.90906099E-16
   39.9104996        -2.82393294E-16
   40.0909996        -3.93540110E-16
   40.2714996        -5.23524754E-16
   40.4519997        -6.70476976E-16
   40.6324997        -8.31436371E-16
   40.8129997        -1.00235317E-15
   40.9934998        -1.17814003E-15
   41.1739998        -1.35277800E-15
   41.3544998        -1.51947684E-15
   41.5349998        -1.67088906E-15
   41.7154999        -1.79936607E-15
   41.8959999        -1.89725089E-15
   42.0764999        -1.95719033E-15
   42.2570000        -1.97245640E-15
   42.4375000        -1.93726282E-15
   42.6180000        -1.84706482E-15
   42.7985001        -1.69883300E-15
   42.9790001        -1.49128843E-15
   43.1595001        -1.22508937E-15
   43.3400002        -9.02959674E-16
   43.5205002        -5.29747164E-16
   43.7010002        -1.12402000E-16
   43.8815002         3.40129071E-16
   44.0620003         8.17096315E-16
   44.2425003         1.30622295E-15
   44.4230003         1.79405432E-15
   44.6035004         2.26636561E-15
   44.7840004         2.70861274E-15
   44.9645004         3.10640715E-15
   45.1450005         3.44599981E-15
   45.3255005         3.71475870E-15
   45.5060005         3.90162476E-15
   45.6865005         3.99753642E-15
   45.8670006         3.99580212E-15
   46.0475006         3.89240650E-15
   46.2280006         3.68623487E-15
   46.4085007         3.37918945E-15
   46.5890007         2.97618663E-15
   46.7695007         2.48502357E-15
   46.9500008         1.91611262E-15
   47.1305008         1.28209755E-15
   47.3110008         5.97371521E-16
   47.4915009        -1.22471792E-16
   47.6720009        -8.61222126E-16
   47.8525009        -1.60264097E-15
   48.0330009        -2.33103022E-15
   48.2135010        -3.03176533E-15
   48.3940010        -3.69178378E-15
   48.5745010        -4.30002205E-15
   48.7550011        -4.84779741E-15
   48.9355011        -5.32912007E-15
   49.1160011        -5.74091488E-15
   49.2965012        -6.08313355E-15
   49.4770012        -6.35871615E-15
   49.6575012        -6.57339326E-15
   49.8380013        -6.73529937E-15
   50.0185013        -6.85441211E-15
   50.1990013        -6.94183311E-15
   50.3795013        -7.00896216E-15
   50.5600014        -7.06660699E-15
   50.7405014        -7.12410020E-15
   50.9210014        -7.18846454E-15
   51.1015015        -7.26367344E-15
   51.2820015        -7.35004200E-15
   51.4625015        -7.44374841E-15
   51.6430016        -7.53651376E-15
   51.8235016        -7.61543437E-15
   52.0040016        -7.66298341E-15
   52.1845016        -7.65720495E-15
   52.3650017        -7.57210778E-15
   52.5455017        -7.37829733E-15
   52.7260017        -7.04385696E-15
   52.9065018        -6.53547202E-15
   53.0870018        -5.81978084E-15
   53.2675018        -4.86490959E-15
   53.4480019        -3.64213029E-15
   53.6285019        -2.12756952E-15
   53.8089981        -3.03893055E-16
   53.9894981         1.83810025E-15
   54.1699982         4.29804550E-15
   54.3504982         7.06479180E-15
   54.5309982         1.01154521E-14
   54.7114983         1.34147716E-14
   54.8919983         1.69148753E-14
   55.0724983         2.05554347E-14
   55.2529984         2.42643040E-14
   55.4334984         2.79586653E-14
   55.6139984         3.15466478E-14
   55.7944984         3.49294500E-14
   55.9749985         3.80038306E-14
   56.1554985         4.06649337E-14
   56.3359985         4.28093060E-14
   56.5164986         4.43379701E-14
   56.6969986         4.51594803E-14
   56.8774986         4.51928432E-14
   57.0579987         4.43702285E-14
   57.2384987         4.26394658E-14
   57.4189987         3.99662095E-14
   57.5994987         3.63357856E-14
   57.7799988         3.17546621E-14
   57.9604988         2.62514179E-14
   58.1409988         1.98772087E-14
   58.3214989         1.27055933E-14
   58.5019989         4.83171056E-15
   58.6824989        -3.62923845E-15
   58.8629990        -1.25441505E-14
   59.0434990        -2.17647826E-14
   59.2239990        -3.11309714E-14
   59.4044991        -4.04742124E-14
   59.5849991        -4.96214398E-14
   59.7654991        -5.83989034E-14
   59.9459991        -6.66360142E-14
   60.1264992        -7.41691051E-14
   60.3069992        -8.08449716E-14
   60.4874992        -8.65241445E-14
   60.6679993        -9.10838516E-14
   60.8484993        -9.44204635E-14
   61.0289993        -9.64514858E-14
   61.2094994        -9.71168743E-14
   61.3899994        -9.63797591E-14
   61.5704994        -9.42264997E-14
   61.7509995        -9.06661288E-14
   61.9314995        -8.57293227E-14
   62.1119995        -7.94669370E-14
   62.2924995        -7.19482525E-14
   62.4729996        -6.32590023E-14
   62.6534996        -5.34992481E-14
   62.8339996        -4.27811371E-14
   63.0144997        -3.12265676E-14
   63.1949997        -1.89647357E-14
   63.3754997        -6.12969241E-15
   63.5559998         7.14200055E-15
   63.7364998         2.07133962E-14
   63.9169998         3.44488503E-14
   64.0975037         4.82151008E-14
   64.2779999         6.18816793E-14
   64.4585037         7.53205888E-14
   64.6389999         8.84052895E-14
   64.8195038         1.01009302E-13
   65.0000000         1.13004570E-13
   65.1804962         1.24259896E-13
   65.3610001         1.34639899E-13
   65.5414963         1.44004410E-13
   65.7220001         1.52208798E-13
   65.9024963         1.59104948E-13
   66.0830002         1.64542926E-13
   66.2634964         1.68373440E-13
   66.4440002         1.70450608E-13
   66.6244965         1.70635424E-13
   66.8050003         1.68799490E-13
   66.9854965         1.64829210E-13
   67.1660004         1.58630392E-13
   67.3464966         1.50133188E-13
   67.5270004         1.39297441E-13
   67.7074966         1.26117880E-13
   67.8880005         1.10629435E-13
   68.0684967         9.29119588E-14
   68.2490005         7.30942745E-14
   68.4294968         5.13571966E-14
   68.6100006         2.79353194E-14
   68.7904968         3.11729703E-15
   68.9710007        -2.27553707E-14
   69.1514969        -4.92913002E-14
   69.3320007        -7.60538822E-14
   69.5124969        -1.02567768E-13
   69.6930008        -1.28327199E-13
   69.8734970        -1.52806180E-13
   70.0540009        -1.75470261E-13
   70.2344971        -1.95789890E-13
   70.4150009        -2.13254775E-13
   70.5954971        -2.27388800E-13
   70.7760010        -2.37764913E-13
   70.9564972        -2.44019404E-13
   71.1370010        -2.45864825E-13
   71.3174973        -2.43101275E-13
   71.4980011        -2.35625592E-13
   71.6784973        -2.23438198E-13
   71.8590012        -2.06647647E-13
   72.0394974        -1.85472636E-13
   72.2200012        -1.60241585E-13
   72.4004974        -1.31389582E-13
   72.5810013        -9.94526998E-14
   72.7614975        -6.50592861E-14
   72.9420013        -2.89184333E-14
   73.1224976         8.19470665E-15
   73.3030014         4.54562603E-14
   73.4834976         8.20134366E-14
   73.6640015         1.17006068E-13
   73.8444977         1.49589149E-13
   74.0250015         1.78955565E-13
   74.2054977         2.04358069E-13
   74.3860016         2.25129960E-13
   74.5664978         2.40703562E-13
   74.7470016         2.50626261E-13
   74.9274979         2.54573435E-13
   75.1080017         2.52358410E-13
   75.2884979         2.43938523E-13
   75.4690018         2.29417776E-13
   75.6494980         2.09045211E-13
   75.8300018         1.83209540E-13
   76.0104980         1.52429434E-13
   76.1910019         1.17340328E-13
   76.3714981         7.86777734E-14
   76.5520020         3.72581435E-14
   76.7324982        -6.04251790E-15
   76.9130020        -5.03107687E-14
   77.0934982        -9.46184320E-14
   77.2740021        -1.38044985E-13
   77.4544983        -1.79699151E-13
   77.6350021        -2.18739509E-13
   77.8154984        -2.54393430E-13
   77.9960022        -2.85974315E-13
   78.1764984        -3.12896519E-13
   78.3570023        -3.34687356E-13
   78.5374985        -3.50995979E-13
   78.7180023        -3.61598067E-13
   78.8984985        -3.66396366E-13
   79.0790024        -3.65416898E-13
   79.2594986        -3.58801015E-13
   79.4400024        -3.46794045E-13
   79.6204987        -3.29731305E-13
   79.8010025        -3.08022271E-13
   79.9814987        -2.82134667E-13
   80.1620026        -2.52578638E-13
   80.3424988        -2.19891922E-13
   80.5230026        -1.84626592E-13
   80.7034988        -1.47337315E-13
   80.8840027        -1.08571233E-13
   81.0644989        -6.88595299E-14
   81.2450027        -2.87106120E-14
   81.4254990         1.13950385E-14
   81.6060028         5.10081445E-14
   81.7864990         8.97120377E-14
   81.9670029         1.27122014E-13
   82.1474991         1.62883040E-13
   82.3280029         1.96665872E-13
   82.5084991         2.28162351E-13
   82.6890030         2.57080164E-13
   82.8694992         2.83138151E-13
