  -7.19999981       0.00000000    
  -7.01999998       0.00000000    
  -6.84000015       0.00000000    
  -6.65999985       0.00000000    
  -6.48000002       0.00000000    
  -6.30000019       0.00000000    
  -6.11999989       0.00000000    
  -5.94000006       0.00000000    
  -5.76000023       0.00000000    
  -5.57999992       0.00000000    
  -5.40000010       0.00000000    
  -5.21999979       0.00000000    
  -5.03999996       0.00000000    
  -4.86000013       0.00000000    
  -4.67999983       0.00000000    
  -4.50000000       0.00000000    
  -4.32000017       0.00000000    
  -4.13999987       1.41531145E-43
  -3.96000004      -3.05483065E-43
  -3.77999997      -3.08285662E-43
  -3.59999990      -2.52794243E-42
  -3.42000008      -1.14135760E-41
  -3.24000001      -2.27164494E-40
  -3.05999994       2.63820500E-39
  -2.88000011       9.55233354E-39
  -2.70000005       3.01380512E-38
  -2.51999998       8.66516559E-38
  -2.33999991       1.71891386E-37
  -2.16000009       2.54972870E-38
  -1.98000002      -5.25074427E-37
  -1.79999995      -1.17035829E-36
  -1.62000000      -1.25349713E-37
  -1.44000006       6.04237817E-36
  -1.25999999       1.56737277E-35
  -1.08000004       1.00351172E-35
 -0.899999976      -4.58950188E-35
 -0.720000029      -1.51649172E-34
 -0.540000021      -1.70009119E-34
 -0.360000014       1.87533536E-34
 -0.180000007       1.03665837E-33
   4.44089210E-16   1.64369412E-33
  0.180000007       1.51981639E-34
  0.360000014      -4.88068707E-33
  0.540000021      -1.08010049E-32
  0.720000029      -8.33061606E-33
  0.899999976       1.31604836E-32
   1.08000004       4.94979747E-32
   1.25999999       6.57764791E-32
   1.44000006       6.84575290E-33
   1.62000000      -1.47144751E-31
   1.79999995      -3.06733355E-31
   1.98000002      -2.64235637E-31
   2.16000009       1.67271988E-31
   2.33999991       8.96648095E-31
   2.51999998       1.38376073E-30
   2.70000005       8.30884546E-31
   2.88000011      -1.17849863E-30
   3.05999994      -3.91992045E-30
   3.24000001      -5.30910350E-30
   3.42000008      -2.79560392E-30
   3.59999990       4.66880138E-30
   3.77999997       1.44851042E-29
   3.96000004       1.96712634E-29
   4.13999987       1.12526136E-29
   4.32000017      -1.54003618E-29
   4.50000000      -5.20290576E-29
   4.67999983      -7.26479432E-29
   4.86000013      -4.15108741E-29
   5.03999996       6.03439231E-29
   5.21999979       1.98480334E-28
   5.40000010       2.67476256E-28
   5.57999992       1.30255349E-28
   5.76000023      -2.72895173E-28
   5.94000006      -7.94641632E-28
   6.11999989      -1.04133231E-27
   6.30000019      -5.32945838E-28
   6.48000002       9.38106706E-28
   6.65999985       2.92818889E-27
   6.84000015       4.24498148E-27
   7.01999998       3.36319291E-27
   7.19999981      -6.99710571E-28
   7.38000011      -7.44785305E-27
   7.55999994      -1.44689832E-26
   7.73999977      -1.78668059E-26
   7.92000008      -1.35114478E-26
   8.10000038       1.29653142E-27
   8.27999973       2.61783584E-26
   8.46000004       5.62542258E-26
   8.64000034       8.11088540E-26
   8.81999969       8.48194154E-26
   9.00000000       4.85992490E-26
   9.18000031      -4.20858710E-26
   9.35999966      -1.85542501E-25
   9.53999996      -3.50274777E-25
   9.72000027      -4.67570037E-25
   9.89999962      -4.40373120E-25
   10.0799999      -1.75535196E-25
   10.2600002       3.63246880E-25
   10.4399996       1.09854403E-24
   10.6199999       1.80711487E-24
   10.8000002       2.14343053E-24
   10.9799995       1.73606039E-24
   11.1599998       3.45652003E-25
   11.3400002      -1.96177657E-24
   11.5200005      -4.69933710E-24
   11.6999998      -6.97769559E-24
   11.8800001      -7.70293565E-24
   12.0600004      -5.93727325E-24
   12.2399998      -1.32898923E-24
   12.4200001       5.54541409E-24
   12.6000004       1.31009160E-23
   12.7799997       1.90465669E-23
   12.9600000       2.10670054E-23
   13.1400003       1.77129061E-23
   13.3199997       9.18478088E-24
   13.5000000      -2.35433723E-24
   13.6800003      -1.31962254E-23
   13.8599997      -1.92314822E-23
   14.0400000      -1.74741731E-23
   14.2200003      -7.34391243E-24
   14.3999996       8.96540734E-24
   14.5799999       2.74199405E-23
   14.7600002       4.42057393E-23
   14.9399996       5.80920578E-23
   15.1199999       7.18767206E-23
   15.3000002       9.18408022E-23
   15.4799995       1.24935587E-22
   15.6599998       1.74656341E-22
   15.8400002       2.37689269E-22
   16.0200005       3.03781222E-22
   16.2000008       3.60365646E-22
   16.3799992       4.01287787E-22
   16.5599995       4.36163290E-22
   16.7399998       4.94720700E-22
   16.9200001       6.20246418E-22
   17.1000004       8.48796361E-22
   17.2800007       1.17589581E-21
   17.4599991       1.51840997E-21
   17.6399994       1.68381358E-21
   17.8199997       1.35970570E-21
   18.0000000       1.32068897E-22
   18.1800003      -2.46782813E-21
   18.3600006      -6.89784540E-21
   18.5400009      -1.35377768E-20
   18.7199993      -2.26384309E-20
   18.8999996      -3.42980134E-20
   19.0799999      -4.84643150E-20
   19.2600002      -6.49479793E-20
   19.4400005      -8.34245446E-20
   19.6200008      -1.03405764E-19
   19.7999992      -1.24174751E-19
   19.9799995      -1.44700243E-19
   20.1599998      -1.63564626E-19
   20.3400002      -1.78946812E-19
   20.5200005      -1.88689759E-19
   20.7000008      -1.90452882E-19
   20.8799992      -1.81910187E-19
   21.0599995      -1.60922017E-19
   21.2399998      -1.25596429E-19
   21.4200001      -7.41753212E-20
   21.6000004      -4.72884979E-21
   21.7800007       8.52962863E-20
   21.9599991       1.99572677E-19
   22.1399994       3.43307432E-19
   22.3199997       5.23462381E-19
   22.5000000       7.48719068E-19
   22.6800003       1.02918742E-18
   22.8600006       1.37590721E-18
   23.0400009       1.80019337E-18
   23.2199993       2.31284063E-18
   23.3999996       2.92311442E-18
   23.5799999       3.63739605E-18
   23.7600002       4.45729789E-18
   23.9400005       5.37712562E-18
   24.1200008       6.38067314E-18
   24.2999992       7.43752169E-18
   24.4799995       8.49919394E-18
   24.6599998       9.49564383E-18
   24.8400002       1.03326133E-17
   25.0200005       1.08902819E-17
   25.2000008       1.10235267E-17
   25.3799992       1.05639641E-17
   25.5599995       9.32382766E-18
   25.7399998       7.10172441E-18
   25.9200001       3.69045555E-18
   26.1000004      -1.11290999E-18
   26.2800007      -7.49439697E-18
   26.4599991      -1.56077583E-17
   26.6399994      -2.55565027E-17
   26.8199997      -3.73739027E-17
   27.0000000      -5.10020739E-17
   27.1800003      -6.62716394E-17
   27.3600006      -8.28838415E-17
   27.5400009      -1.00396837E-16
   27.7199993      -1.18217808E-16
   27.8999996      -1.35602074E-16
   28.0799999      -1.51660018E-16
   28.2600002      -1.65372304E-16
   28.4400005      -1.75614031E-16
   28.6200008      -1.81187852E-16
   28.7999992      -1.80867011E-16
   28.9799995      -1.73448035E-16
   29.1599998      -1.57812813E-16
   29.3400002      -1.32998969E-16
   29.5200005      -9.82755419E-17
   29.7000008      -5.32206716E-17
   29.8799992       2.20390528E-18
   30.0599995       6.75870022E-17
   30.2399998       1.42016072E-16
   30.4200001       2.24044159E-16
   30.6000004       3.11679670E-16
   30.7800007       4.02401875E-16
   30.9599991       4.93203251E-16
   31.1399994       5.80659879E-16
   31.3199997       6.61029330E-16
   31.5000000       7.30375388E-16
   31.6800003       7.84717316E-16
   31.8600006       8.20201220E-16
   32.0400009       8.33288038E-16
   32.2200012       8.20951850E-16
   32.4000015       7.80878880E-16
   32.5800018       7.11656965E-16
   32.7599983       6.12942369E-16
   32.9399986       4.85592660E-16
   33.1199989       3.31752603E-16
   33.2999992       1.54884818E-16
   33.4799995      -4.02618351E-17
   33.6599998      -2.47749911E-16
   33.8400002      -4.60615934E-16
   34.0200005      -6.71095310E-16
   34.2000008      -8.70902071E-16
   34.3800011      -1.05155498E-15
   34.5600014      -1.20473867E-15
   34.7400017      -1.32268652E-15
   34.9199982      -1.39857019E-15
   35.0999985      -1.42687962E-15
   35.2799988      -1.40377415E-15
   35.4599991      -1.32738523E-15
   35.6399994      -1.19804869E-15
   35.8199997      -1.01845039E-15
   36.0000000      -7.93664789E-16
   36.1800003      -5.31078964E-16
   36.3600006      -2.40195039E-16
   36.5400009       6.76854565E-17
   36.7200012       3.79885039E-16
   36.9000015       6.82864145E-16
   37.0800018       9.62803293E-16
   37.2599983       1.20622743E-15
   37.4399986       1.40064436E-15
   37.6199989       1.53516950E-15
   37.7999992       1.60110890E-15
   37.9799995       1.59247530E-15
   38.1599998       1.50640924E-15
   38.3400002       1.34348139E-15
   38.5200005       1.10785133E-15
   38.7000008       8.07264168E-16
   38.8800011       4.52868971E-16
   39.0600014       5.88574409E-17
   39.2400017      -3.58072538E-16
   39.4199982      -7.79407531E-16
   39.5999985      -1.18563405E-15
   39.7799988      -1.55713963E-15
   39.9599991      -1.87515497E-15
   40.1399994      -2.12269188E-15
   40.3199997      -2.28543148E-15
   40.5000000      -2.35252432E-15
   40.6800003      -2.31726530E-15
   40.8600006      -2.17761202E-15
   41.0400009      -1.93652018E-15
   41.2200012      -1.60207155E-15
   41.4000015      -1.18737671E-15
   41.5800018      -7.10233262E-16
   41.7599983      -1.92541137E-16
   41.9399986       3.40520189E-16
   42.1199989       8.61522822E-16
   42.2999992       1.34198881E-15
   42.4799995       1.75369754E-15
   42.6599998       2.07003714E-15
   42.8400002       2.26733313E-15
   43.0200005       2.32609202E-15
   43.2000008       2.23210186E-15
   43.3800011       1.97734844E-15
   43.5600014       1.56070458E-15
   43.7400017       9.88367488E-16
   43.9199982       2.74012988E-16
   44.0999985      -5.61348798E-16
   44.2799988      -1.48983577E-15
   44.4599991      -2.47747989E-15
   44.6399994      -3.48533221E-15
   44.8199997      -4.47086055E-15
   45.0000000      -5.38959441E-15
   45.1800003      -6.19694005E-15
   45.3600006      -6.85008801E-15
   45.5400009      -7.30989857E-15
   45.7200012      -7.54268694E-15
   45.9000015      -7.52180758E-15
   46.0800018      -7.22898236E-15
   46.2599983      -6.65532591E-15
   46.4399986      -5.80202492E-15
   46.6199989      -4.68066087E-15
   46.7999992      -3.31315688E-15
   46.9799995      -1.73133047E-15
   47.1599998       2.39452442E-17
   47.3400002       1.90398205E-15
   47.5200005       3.85389784E-15
   47.7000008       5.81458176E-15
   47.8800011       7.72493370E-15
   48.0600014       9.52428410E-15
   48.2400017       1.11548683E-14
   48.4199982       1.25642193E-14
   48.5999985       1.37073563E-14
   48.7799988       1.45486447E-14
   48.9599991       1.50632663E-14
   49.1399994       1.52382413E-14
   49.3199997       1.50730106E-14
   49.5000000       1.45795326E-14
   49.6800003       1.37819731E-14
   49.8600006       1.27159212E-14
   50.0400009       1.14271936E-14
   50.2200012       9.97021560E-15
   50.4000015       8.40598885E-15
   50.5800018       6.79969759E-15
   50.7599983       5.21801984E-15
   50.9399986       3.72624490E-15
   51.1199989       2.38534028E-15
   51.2999992       1.24912012E-15
   51.4799995       3.61672639E-16
   51.6599998      -2.44820262E-16
   51.8400002      -5.51778385E-16
   52.0200005      -5.55390080E-16
   52.2000008      -2.67225316E-16
   52.3800011       2.85690608E-16
   52.5600014       1.06133069E-15
   52.7400017       2.00364712E-15
   52.9199982       3.04407844E-15
   53.0999985       4.10359807E-15
   53.2799988       5.09528646E-15
   53.4599991       5.92740866E-15
   53.6399994       6.50692997E-15
   53.8199997       6.74333941E-15
   54.0000000       6.55263375E-15
   54.1800003       5.86126810E-15
   54.3600006       4.60987348E-15
   54.5400009       2.75654358E-15
   54.7200012       2.79582335E-16
   54.9000015      -2.82040774E-15
   55.0800018      -6.51913106E-15
   55.2599983      -1.07679351E-14
   55.4399986      -1.54938775E-14
   55.6199989      -2.06005934E-14
   55.7999992      -2.59699861E-14
   55.9799995      -3.14648142E-14
   56.1599998      -3.69321849E-14
   56.3400002      -4.22079601E-14
   56.5200005      -4.71219438E-14
   56.7000008      -5.15037164E-14
   56.8800011      -5.51888383E-14
   57.0600014      -5.80251450E-14
   57.2400017      -5.98787716E-14
   57.4199982      -6.06396105E-14
   57.5999985      -6.02260212E-14
   57.7799988      -5.85884694E-14
   57.9599991      -5.57121623E-14
   58.1399994      -5.16185131E-14
   58.3199997      -4.63654892E-14
   58.5000000      -4.00467555E-14
   58.6800003      -3.27896144E-14
   58.8600006      -2.47516207E-14
   59.0400009      -1.61159080E-14
   59.2200012      -7.08522943E-15
   59.4000015       2.12512287E-15
   59.5800018       1.12952597E-14
   59.7599983       2.02091270E-14
   59.9399986       2.86629885E-14
   60.1199989       3.64734657E-14
   60.2999992       4.34847233E-14
   60.4799995       4.95744430E-14
   60.6599998       5.46583144E-14
   60.8400002       5.86929865E-14
   61.0200005       6.16774223E-14
   61.2000008       6.36526490E-14
   61.3800011       6.47000154E-14
   61.5600014       6.49377877E-14
   61.7400017       6.45161957E-14
   61.9199982       6.36108394E-14
   62.0999985       6.24146053E-14
   62.2799988       6.11282062E-14
   62.4599991       5.99499562E-14
   62.6399994       5.90650643E-14
   62.8199997       5.86352188E-14
   63.0000000       5.87891349E-14
   63.1800003       5.96145583E-14
   63.3600006       6.11522213E-14
   63.5400009       6.33920813E-14
   63.7200012       6.62718171E-14
   63.9000015       6.96776350E-14
   64.0800018       7.34471417E-14
   64.2600021       7.73741626E-14
   64.4400024       8.12154773E-14
   64.6200027       8.46992222E-14
   64.8000031       8.75350478E-14
   64.9800034       8.94257812E-14
   65.1600037       9.00803818E-14
   65.3399963       8.92275755E-14
   65.5199966       8.66295628E-14
   65.6999969       8.20949821E-14
   65.8799973       7.54903206E-14
   66.0599976       6.67490355E-14
   66.2399979       5.58778386E-14
   66.4199982       4.29598780E-14
   66.5999985       2.81546196E-14
   66.7799988       1.16946722E-14
   66.9599991      -6.12024291E-15
   67.1399994      -2.49318524E-14
   67.3199997      -4.43341686E-14
   67.5000000      -6.38862268E-14
   67.6800003      -8.31266750E-14
   67.8600006      -1.01589811E-13
   68.0400009      -1.18822731E-13
   68.2200012      -1.34402960E-13
   68.4000015      -1.47955799E-13
   68.5800018      -1.59170311E-13
   68.7600021      -1.67813083E-13
   68.9400024      -1.73738831E-13
   69.1200027      -1.76897207E-13
   69.3000031      -1.77335360E-13
   69.4800034      -1.75196514E-13
   69.6600037      -1.70714435E-13
   69.8399963      -1.64204425E-13
   70.0199966      -1.56051360E-13
   70.1999969      -1.46695129E-13
   70.3799973      -1.36613960E-13
   70.5599976      -1.26306165E-13
   70.7399979      -1.16270437E-13
   70.9199982      -1.06985316E-13
   71.0999985      -9.88884538E-14
   71.2799988      -9.23565898E-14
   71.4599991      -8.76873037E-14
   71.6399994      -8.50838497E-14
   71.8199997      -8.46441041E-14
   72.0000000      -8.63543110E-14
   72.1800003      -9.00880661E-14
   72.3600006      -9.56103821E-14
   72.5400009      -1.02586451E-13
   72.7200012      -1.10594171E-13
   72.9000015      -1.19139900E-13
   73.0800018      -1.27676475E-13
   73.2600021      -1.35623067E-13
   73.4400024      -1.42386374E-13
   73.6200027      -1.47382784E-13
   73.8000031      -1.50061129E-13
   73.9800034      -1.49925564E-13
   74.1600037      -1.46557625E-13
   74.3399963      -1.39636458E-13
   74.5199966      -1.28955969E-13
   74.6999969      -1.14437648E-13
   74.8799973      -9.61382056E-14
   75.0599976      -7.42514435E-14
   75.2399979      -4.91046311E-14
   75.4199982      -2.11496927E-14
   75.5999985       9.04988805E-15
   75.7799988       4.08355871E-14
   75.9599991       7.34730609E-14
   76.1399994       1.06173561E-13
   76.3199997       1.38117219E-13
   76.5000000       1.68477943E-13
   76.6800003       1.96449790E-13
   76.8600006       2.21274293E-13
   77.0400009       2.42267957E-13
   77.2200012       2.58848851E-13
   77.4000015       2.70560457E-13
   77.5800018       2.77091772E-13
   77.7600021       2.78291794E-13
   77.9400024       2.74177382E-13
   78.1200027       2.64934721E-13
   78.3000031       2.50914009E-13
   78.4800034       2.32618829E-13
   78.6600037       2.10690203E-13
   78.8399963       1.85886977E-13
   79.0199966       1.59062732E-13
   79.1999969       1.31139864E-13
   79.3799973       1.03080989E-13
   79.5599976       7.58580752E-14
   79.7399979       5.04198361E-14
   79.9199982       2.76586073E-14
   80.0999985       8.37778773E-15
   80.2799988      -6.73804037E-15
   80.4599991      -1.71486631E-14
   80.6399994      -2.24776049E-14
   80.8199997      -2.25241714E-14
   81.0000000      -1.72673240E-14
   81.1800003      -6.86200110E-15
   81.3600006       8.37156543E-15
   81.5400009       2.79641422E-14
   81.7200012       5.13181789E-14
   81.9000015       7.77318273E-14
   82.0800018       1.06425726E-13
   82.2600021       1.36572380E-13
   82.4400024       1.67327144E-13
   82.6200027       1.97860920E-13
   82.8000031       2.27393489E-13
   82.9800034       2.55225691E-13
   83.1600037       2.80768925E-13
   83.3399963       3.03570076E-13
   83.5199966       3.23329796E-13
   83.6999969       3.39912587E-13
   83.8799973       3.53348508E-13
   84.0599976       3.63825940E-13
   84.2399979       3.71676946E-13
   84.4199982       3.77356864E-13
   84.5999985       3.81418882E-13
   84.7799988       3.84486551E-13
   84.9599991       3.87223375E-13
   85.1399994       3.90301290E-13
   85.3199997       3.94367319E-13
   85.5000000       4.00008721E-13
   85.6800003       4.07717398E-13
   85.8600006       4.17854716E-13
   86.0400009       4.30619326E-13
   86.2200012       4.46019767E-13
   86.4000015       4.63854920E-13
   86.5800018       4.83704223E-13
   86.7600021       5.04929269E-13
   86.9400024       5.26686821E-13
   87.1200027       5.47952200E-13
   87.3000031       5.67552190E-13
   87.4800034       5.84204072E-13
   87.6600037       5.96559152E-13
   87.8399963       6.03248788E-13
   88.0199966       6.02931279E-13
   88.1999969       5.94339356E-13
   88.3799973       5.76327831E-13
   88.5599976       5.47920325E-13
   88.7399979       5.08353938E-13
   88.9199982       4.57120453E-13
   89.0999985       3.93999557E-13
   89.2799988       3.19083383E-13
   89.4599991       2.32788533E-13
   89.6399994       1.35853934E-13
   89.8199997       2.93251311E-14
   90.0000000      -8.54753822E-14
   90.1800003      -2.06988425E-13
   90.3600006      -3.33467032E-13
   90.5400009      -4.63030439E-13
   90.7200012      -5.93720494E-13
   90.9000015      -7.23559179E-13
   91.0800018      -8.50605068E-13
   91.2600021      -9.73009217E-13
   91.4400024      -1.08906981E-12
   91.6200027      -1.19728403E-12
   91.8000031      -1.29639550E-12
   91.9800034      -1.38543560E-12
   92.1600037      -1.46375436E-12
   92.3399963      -1.53103908E-12
   92.5199966      -1.58731849E-12
   92.6999969      -1.63295202E-12
   92.8799973      -1.66860525E-12
   93.0599976      -1.69521309E-12
   93.2399979      -1.71393357E-12
   93.4199982      -1.72609713E-12
   93.5999985      -1.73315138E-12
   93.7799988      -1.73660500E-12
   93.9599991      -1.73797131E-12
   94.1399994      -1.73871247E-12
   94.3199997      -1.74018189E-12
   94.5000000      -1.74356807E-12
   94.6800003      -1.74984018E-12
   94.8600006      -1.75969721E-12
   95.0400009      -1.77352555E-12
   95.2200012      -1.79136762E-12
   95.4000015      -1.81290486E-12
   95.5800018      -1.83745749E-12
   95.7600021      -1.86400006E-12
   95.9400024      -1.89119250E-12
   96.1200027      -1.91742455E-12
   96.3000031      -1.94086717E-12
   96.4800034      -1.95953410E-12
   96.6600037      -1.97134409E-12
   96.8399963      -1.97418536E-12
   97.0199966      -1.96598358E-12
   97.1999969      -1.94476705E-12
   97.3799973      -1.90873554E-12
   97.5599976      -1.85632521E-12
   97.7399979      -1.78627143E-12
   97.9199982      -1.69766425E-12
   98.0999985      -1.58999224E-12
   98.2799988      -1.46317095E-12
   98.4599991      -1.31755468E-12
   98.6399994      -1.15392765E-12
   98.8199997      -9.73479435E-13
   99.0000000      -7.77765114E-13
   99.1800003      -5.68654824E-13
   99.3600006      -3.48276475E-13
   99.5400009      -1.18954231E-13
   99.7200012       1.16854673E-13
   99.9000015       3.56623558E-13
   100.080002       5.97822356E-13
   100.260002       8.37984846E-13
   100.440002       1.07477785E-12
   100.620003       1.30607005E-12
