  -7.19999981       0.00000000    
  -7.01999998       0.00000000    
  -6.84000015       0.00000000    
  -6.65999985       0.00000000    
  -6.48000002       0.00000000    
  -6.30000019       0.00000000    
  -6.11999989       0.00000000    
  -5.94000006       0.00000000    
  -5.76000023       0.00000000    
  -5.57999992       0.00000000    
  -5.40000010       0.00000000    
  -5.21999979       0.00000000    
  -5.03999996       0.00000000    
  -4.86000013       0.00000000    
  -4.67999983       0.00000000    
  -4.50000000       0.00000000    
  -4.32000017       0.00000000    
  -4.13999987      -2.24207754E-44
  -3.96000004      -1.00893489E-43
  -3.77999997       2.25048533E-42
  -3.59999990       9.42092958E-42
  -3.42000008       3.55929810E-41
  -3.24000001       1.16705741E-40
  -3.05999994       4.86438341E-40
  -2.88000011      -3.89468487E-40
  -2.70000005      -1.33755690E-38
  -2.51999998      -3.50314695E-38
  -2.33999991      -7.81992702E-38
  -2.16000009       4.89909357E-38
  -1.98000002       5.76104784E-37
  -1.79999995       1.67990763E-36
  -1.62000000       2.17111579E-36
  -1.44000006      -1.40035876E-36
  -1.25999999      -1.17188464E-35
  -1.08000004      -2.24638692E-35
 -0.899999976      -1.05864954E-35
 -0.720000029       5.04913854E-35
 -0.540000021       1.44383801E-34
 -0.360000014       1.60612488E-34
 -0.180000007      -7.49178825E-35
   4.44089210E-16  -6.08383071E-34
  0.180000007      -1.07559542E-33
  0.360000014      -6.46180357E-34
  0.540000021       1.40713341E-33
  0.720000029       4.51558845E-33
  0.899999976       5.87968940E-33
   1.08000004       1.36694050E-33
   1.25999999      -1.07964601E-32
   1.44000006      -2.50606021E-32
   1.62000000      -2.69682707E-32
   1.79999995      -2.42465110E-34
   1.98000002       5.69998504E-32
   2.16000009       1.15966938E-31
   2.33999991       1.17593434E-31
   2.51999998       3.17681940E-33
   2.70000005      -2.29395842E-31
   2.88000011      -4.74648867E-31
   3.05999994      -5.21878820E-31
   3.24000001      -1.49361286E-31
   3.42000008       6.97101816E-31
   3.59999990       1.72321284E-30
   3.77999997       2.25250767E-30
   3.96000004       1.48431317E-30
   4.13999987      -9.60545429E-31
   4.32000017      -4.49046102E-30
   4.50000000      -7.50189059E-30
   4.67999983      -8.20563894E-30
   4.86000013      -5.95557837E-30
   5.03999996      -1.77695061E-30
   5.21999979       3.33343453E-30
   5.40000010       1.20445823E-29
   5.57999992       3.27347905E-29
   5.76000023       7.42532239E-29
   5.94000006       1.30478070E-28
   6.11999989       1.61044854E-28
   6.30000019       8.61095556E-29
   6.48000002      -1.83486981E-28
   6.65999985      -6.73463227E-28
   6.84000015      -1.25491246E-27
   7.01999998      -1.59149914E-27
   7.19999981      -1.19111901E-27
   7.38000011       4.02817902E-28
   7.55999994       3.31018323E-27
   7.73999977       7.00260501E-27
   7.92000008       1.01231400E-26
   8.10000038       1.05776140E-26
   8.27999973       6.00183018E-27
   8.46000004      -5.35324015E-27
   8.64000034      -2.33800407E-26
   8.81999969      -4.47632958E-26
   9.00000000      -6.20430597E-26
   9.18000031      -6.38983065E-26
   9.35999966      -3.75290129E-26
   9.53999996       2.63925464E-26
   9.72000027       1.26760383E-25
   9.89999962       2.45100045E-25
   10.0799999       3.42057731E-25
   10.2600002       3.61139561E-25
   10.4399996       2.42302793E-25
   10.6199999      -5.50817875E-26
   10.8000002      -5.24734891E-25
   10.9799995      -1.09052299E-24
   11.1599998      -1.59944852E-24
   11.3400002      -1.84066769E-24
   11.5200005      -1.59492756E-24
   11.6999998      -7.09331055E-25
   11.8800001       8.18748035E-25
   12.0600004       2.77392189E-24
   12.2399998       4.69984868E-24
   12.4200001       5.94419984E-24
   12.6000004       5.77966634E-24
   12.7799997       3.58758005E-24
   12.9600000      -9.31289544E-25
   13.1400003      -7.56876855E-24
   13.3199997      -1.54950094E-23
   13.5000000      -2.32539960E-23
   13.6800003      -2.88795698E-23
   13.8599997      -3.01170307E-23
   14.0400000      -2.47206210E-23
   14.2200003      -1.07996241E-23
   14.3999996       1.28004286E-23
   14.5799999       4.60849732E-23
   14.7600002       8.74856652E-23
   14.9399996       1.33498742E-22
   15.1199999       1.78551471E-22
   15.3000002       2.15350924E-22
   15.4799995       2.36003858E-22
   15.6599998       2.34113545E-22
   15.8400002       2.07828094E-22
   16.0200005       1.63451285E-22
   16.2000008       1.18825563E-22
   16.3799992       1.05394644E-22
   16.5599995       1.67808991E-22
   16.7399998       3.60252353E-22
   16.9200001       7.39331093E-22
   17.1000004       1.35423835E-21
   17.2800007       2.23572016E-21
   17.4599991       3.38584816E-21
   17.6399994       4.77052669E-21
   17.8199997       6.31599250E-21
   18.0000000       7.90951233E-21
   18.1800003       9.40333993E-21
   18.3600006       1.06202688E-20
   18.5400009       1.13590009E-20
   18.7199993       1.13981458E-20
   18.8999996       1.04986967E-20
   19.0799999       8.40578434E-21
   19.2600002       4.85081935E-21
   19.4400005      -4.45419746E-22
   19.6200008      -7.76955240E-21
   19.7999992      -1.74146092E-20
   19.9799995      -2.96845460E-20
   20.1599998      -4.49067792E-20
   20.3400002      -6.34527340E-20
   20.5200005      -8.57622862E-20
   20.7000008      -1.12363594E-19
   20.8799992      -1.43876642E-19
   21.0599995      -1.80988294E-19
   21.2399998      -2.24389957E-19
   21.4200001      -2.74674292E-19
   21.6000004      -3.32194286E-19
   21.7800007      -3.96893924E-19
   21.9599991      -4.68121309E-19
   22.1399994      -5.44433477E-19
   22.3199997      -6.23395518E-19
   22.5000000      -7.01370319E-19
   22.6800003      -7.73289227E-19
   22.8600006      -8.32394797E-19
   23.0400009      -8.69951951E-19
   23.2199993      -8.74939126E-19
   23.3999996      -8.33746255E-19
   23.5799999      -7.29923198E-19
   23.7600002      -5.44033277E-19
   23.9400005      -2.53673598E-19
   24.1200008       1.66281876E-19
   24.2999992       7.43164240E-19
   24.4799995       1.50567437E-18
   24.6599998       2.48269348E-18
   24.8400002       3.70170562E-18
   25.0200005       5.18680956E-18
   25.2000008       6.95630192E-18
   25.3799992       9.01984127E-18
   25.5599995       1.13752430E-17
   25.7399998       1.40050115E-17
   25.9200001       1.68727640E-17
   26.1000004       1.99197863E-17
   26.2800007       2.30619808E-17
   26.4599991       2.61874993E-17
   26.6399994       2.91553670E-17
   26.8199997       3.17953437E-17
   27.0000000       3.39092435E-17
   27.1800003       3.52739360E-17
   27.3600006       3.56460680E-17
   27.5400009       3.47686709E-17
   27.7199993       3.23796476E-17
   27.8999996       2.82221121E-17
   28.0799999       2.20564666E-17
   28.2600002       1.36739655E-17
   28.4400005       2.91134633E-18
   28.6200008      -1.03340567E-17
   28.7999992      -2.60893940E-17
   28.9799995      -4.42925009E-17
   29.1599998      -6.47800012E-17
   29.3400002      -8.72782947E-17
   29.5200005      -1.11398028E-16
   29.7000008      -1.36632847E-16
   29.8799992      -1.62362743E-16
   30.0599995      -1.87862551E-16
   30.2399998      -2.12315479E-16
   30.4200001      -2.34832208E-16
   30.6000004      -2.54475167E-16
   30.7800007      -2.70288055E-16
   30.9599991      -2.81330082E-16
   31.1399994      -2.86714168E-16
   31.3199997      -2.85647700E-16
   31.5000000      -2.77474282E-16
   31.6800003      -2.61714493E-16
   31.8600006      -2.38102841E-16
   32.0400009      -2.06618732E-16
   32.2200012      -1.67509209E-16
   32.4000015      -1.21301127E-16
   32.5800018      -6.88018724E-17
   32.7599983      -1.10875025E-17
   32.9399986       5.05215779E-17
   33.1199989       1.14497136E-16
   33.2999992       1.79150777E-16
   33.4799995       2.42691562E-16
   33.6599998       3.03292058E-16
   33.8400002       3.59160578E-16
   34.0200005       4.08617905E-16
   34.2000008       4.50174824E-16
   34.3800011       4.82607715E-16
   34.5600014       5.05027619E-16
   34.7400017       5.16939284E-16
   34.9199982       5.18284955E-16
   35.0999985       5.09469883E-16
   35.2799988       4.91366777E-16
   35.4599991       4.65296162E-16
   35.6399994       4.32984105E-16
   35.8199997       3.96497049E-16
   36.0000000       3.58156711E-16
   36.1800003       3.20438255E-16
   36.3600006       2.85855647E-16
   36.5400009       2.56838548E-16
   36.7200012       2.35605364E-16
   36.9000015       2.24037118E-16
   37.0800018       2.23557618E-16
   37.2599983       2.35024882E-16
   37.4399986       2.58640240E-16
   37.6199989       2.93880887E-16
   37.7999992       3.39461900E-16
   37.9799995       3.93332666E-16
   38.1599998       4.52711264E-16
   38.3400002       5.14157893E-16
   38.5200005       5.73687315E-16
   38.7000008       6.26915978E-16
   38.8800011       6.69238932E-16
   39.0600014       6.96030266E-16
   39.2400017       7.02857193E-16
   39.4199982       6.85701546E-16
   39.5999985       6.41178424E-16
   39.7799988       5.66744133E-16
   39.9599991       4.60885608E-16
   40.1399994       3.23281533E-16
   40.3199997       1.54927805E-16
   40.5000000      -4.17821964E-17
   40.6800003      -2.63029935E-16
   40.8600006      -5.03603598E-16
   41.0400009      -7.56993663E-16
   41.2200012      -1.01555343E-15
   41.4000015      -1.27072232E-15
   41.5800018      -1.51330546E-15
   41.7599983      -1.73380190E-15
   41.9399986      -1.92276712E-15
   42.1199989      -2.07119906E-15
   42.2999992      -2.17093062E-15
   42.4799995      -2.21501572E-15
   42.6599998      -2.19809031E-15
   42.8400002      -2.11669531E-15
   43.0200005      -1.96954663E-15
   43.2000008      -1.75773450E-15
   43.3800011      -1.48484103E-15
   43.5600014      -1.15696453E-15
   43.7400017      -7.82639703E-16
   43.9199982      -3.72654607E-16
   44.0999985       6.02377804E-17
   44.2799988       5.01702591E-16
   44.4599991       9.36289150E-16
   44.6399994       1.34796262E-15
   44.8199997       1.72068242E-15
   45.0000000       2.03900545E-15
   45.1800003       2.28869361E-15
   45.3600006       2.45730357E-15
   45.5400009       2.53473657E-15
   45.7200012       2.51372718E-15
   45.9000015       2.39024630E-15
   46.0800018       2.16379564E-15
   46.2599983       1.83757445E-15
   46.4399986       1.41849812E-15
   46.6199989       9.17057690E-16
   46.7999992       3.47018069E-16
   46.9799995      -2.75036468E-16
   47.1599998      -9.30292263E-16
   47.3400002      -1.59840210E-15
   47.5200005      -2.25825569E-15
   47.7000008      -2.88878384E-15
   47.8800011      -3.46976501E-15
   48.0600014      -3.98260450E-15
   48.2400017      -4.41105621E-15
   48.4199982      -4.74186874E-15
   48.5999985      -4.96534017E-15
   48.7799988      -5.07575642E-15
   48.9599991      -5.07169702E-15
   49.1399994      -4.95618925E-15
   49.3199997      -4.73668193E-15
   49.5000000      -4.42482642E-15
   49.6800003      -4.03605058E-15
   49.8600006      -3.58892773E-15
   50.0400009      -3.10435458E-15
   50.2200012      -2.60457718E-15
   50.4000015      -2.11210270E-15
   50.5800018      -1.64855640E-15
   50.7599983      -1.23354202E-15
   50.9399986      -8.83557008E-16
   51.1199989      -6.11020716E-16
   51.2999992      -4.23442438E-16
   51.4799995      -3.22776198E-16
   51.6599998      -3.04974821E-16
   51.8400002      -3.59771659E-16
   52.0200005      -4.70705050E-16
   52.2000008      -6.15398235E-16
   52.3800011      -7.66110066E-16
   52.5600014      -8.90558582E-16
   52.7400017      -9.53006192E-16
   52.9199982      -9.15605241E-16
   53.0999985      -7.39940242E-16
   53.2799988      -3.88740636E-16
   53.4599991       1.72309054E-16
   53.6399994       9.72726284E-16
   53.8199997       2.03542250E-15
   54.0000000       3.37501210E-15
   54.1800003       4.99629499E-15
   54.3600006       6.89298345E-15
   54.5400009       9.04674556E-15
   54.7200012       1.14266159E-14
   54.9000015       1.39888372E-14
   55.0800018       1.66771792E-14
   55.2599983       1.94237716E-14
   55.4399986       2.21504537E-14
   55.6199989       2.47706281E-14
   55.7999992       2.71915703E-14
   55.9799995       2.93171181E-14
   56.1599998       3.10506185E-14
   56.3400002       3.22980642E-14
   56.5200005       3.29712216E-14
   56.7000008       3.29907305E-14
   56.8800011       3.22889942E-14
   57.0600014       3.08128191E-14
   57.2400017       2.85257590E-14
   57.4199982       2.54100177E-14
   57.5999985       2.14679569E-14
   57.7799988       1.67230680E-14
   57.9599991       1.12203871E-14
   58.1399994       5.02627657E-15
   58.3199997      -1.77243995E-15
   58.5000000      -9.07001440E-15
   58.6800003      -1.67439881E-14
   58.8600006      -2.46579677E-14
   59.0400009      -3.26649074E-14
   59.2200012      -4.06107575E-14
   59.4000015      -4.83383339E-14
   59.5800018      -5.56912508E-14
   59.7599983      -6.25177942E-14
   59.9399986      -6.86745989E-14
   60.1199989      -7.40300494E-14
   60.2999992      -7.84672349E-14
   60.4799995      -8.18864765E-14
   60.6599998      -8.42072858E-14
   60.8400002      -8.53696996E-14
   61.0200005      -8.53349441E-14
   61.2000008      -8.40854689E-14
   61.3800011      -8.16242893E-14
   61.5600014      -7.79736993E-14
   61.7400017      -7.31734822E-14
   61.9199982      -6.72788173E-14
   62.0999985      -6.03578263E-14
   62.2799988      -5.24891206E-14
   62.4599991      -4.37593077E-14
   62.6399994      -3.42606836E-14
   62.8199997      -2.40890444E-14
   63.0000000      -1.33417887E-14
   63.1800003      -2.11623241E-15
   63.3600006       9.49167418E-15
   63.5400009       2.13883019E-14
   63.7200012       3.34827652E-14
   63.9000015       4.56867786E-14
   64.0800018       5.79138855E-14
   64.2600021       7.00779834E-14
   64.4400024       8.20913162E-14
   64.6200027       9.38618961E-14
   64.8000031       1.05290783E-13
   64.9800034       1.16269272E-13
   65.1600037       1.26676556E-13
   65.3399963       1.36377942E-13
   65.5199966       1.45223907E-13
   65.6999969       1.53050383E-13
   65.8799973       1.59679941E-13
   66.0599976       1.64924376E-13
   66.2399979       1.68588193E-13
   66.4199982       1.70473214E-13
   66.5999985       1.70384106E-13
   66.7799988       1.68134590E-13
   66.9599991       1.63554513E-13
   67.1399994       1.56497238E-13
   67.3199997       1.46847500E-13
   67.5000000       1.34529337E-13
   67.6800003       1.19513828E-13
   67.8600006       1.01826303E-13
   68.0400009       8.15525964E-14
   68.2200012       5.88441920E-14
   68.4000015       3.39216333E-14
   68.5800018       7.07615093E-15
   68.7600021      -2.13307629E-14
   68.9400024      -5.08700815E-14
   69.1200027      -8.10501839E-14
   69.3000031      -1.11324185E-13
   69.4800034      -1.41099575E-13
   69.6600037      -1.69750078E-13
   69.8399963      -1.96629646E-13
   70.0199966      -2.21088203E-13
   70.1999969      -2.42488917E-13
   70.3799973      -2.60226275E-13
   70.5599976      -2.73744650E-13
   70.7399979      -2.82556259E-13
   70.9199982      -2.86258159E-13
   71.0999985      -2.84547396E-13
   71.2799988      -2.77233965E-13
   71.4599991      -2.64250644E-13
   71.6399994      -2.45660100E-13
   71.8199997      -2.21658561E-13
   72.0000000      -1.92576139E-13
   72.1800003      -1.58873918E-13
   72.3600006      -1.21137543E-13
   72.5400009      -8.00676393E-14
   72.7200012      -3.64667030E-14
   72.9000015       8.77700199E-15
   73.0800018       5.47087264E-14
   73.2600021       1.00329067E-13
   73.4400024       1.44617974E-13
   73.6200027       1.86560118E-13
   73.8000031       2.25170888E-13
   73.9800034       2.59521950E-13
   74.1600037       2.88765810E-13
   74.3399963       3.12158123E-13
   74.5199966       3.29077558E-13
   74.6999969       3.39042352E-13
   74.8799973       3.41723123E-13
   75.0599976       3.36951983E-13
   75.2399979       3.24727387E-13
   75.4199982       3.05214540E-13
   75.5999985       2.78741819E-13
   75.7799988       2.45792536E-13
   75.9599991       2.06992802E-13
   76.1399994       1.63095489E-13
   76.3199997       1.14961101E-13
   76.5000000       6.35361108E-14
   76.6800003       9.82948447E-15
   76.8600006      -4.51114908E-14
   77.0400009      -1.00225506E-13
   77.2200012      -1.54460957E-13
   77.4000015      -2.06798432E-13
   77.5800018      -2.56271756E-13
   77.7600021      -3.01987005E-13
   77.9400024      -3.43139552E-13
   78.1200027      -3.79028460E-13
   78.3000031      -4.09067989E-13
   78.4800034      -4.32796187E-13
   78.6600037      -4.49879554E-13
   78.8399963      -4.60114043E-13
   79.0199966      -4.63422269E-13
   79.1999969      -4.59847113E-13
   79.3799973      -4.49542394E-13
   79.5599976      -4.32760652E-13
   79.7399979      -4.09840564E-13
   79.9199982      -3.81192961E-13
   80.0999985      -3.47287845E-13
   80.2799988      -3.08642272E-13
   80.4599991      -2.65809672E-13
   80.6399994      -2.19370813E-13
   80.8199997      -1.69926288E-13
   81.0000000      -1.18090650E-13
   81.1800003      -6.44876540E-14
   81.3600006      -9.74688182E-15
   81.5400009       4.54987204E-14
   81.7200012       1.00614199E-13
   81.9000015       1.54963241E-13
   82.0800018       2.07908289E-13
   82.2600021       2.58810443E-13
   82.4400024       3.07029874E-13
   82.6200027       3.51927119E-13
   82.8000031       3.92865834E-13
   82.9800034       4.29217425E-13
   83.1600037       4.60367909E-13
   83.3399963       4.85726585E-13
   83.5199966       5.04737094E-13
   83.6999969       5.16889754E-13
   83.8799973       5.21735866E-13
   84.0599976       5.18902846E-13
   84.2399979       5.08110535E-13
   84.4199982       4.89188226E-13
   84.5999985       4.62092279E-13
   84.7799988       4.26923308E-13
   84.9599991       3.83942661E-13
   85.1399994       3.33586674E-13
   85.3199997       2.76477490E-13
   85.5000000       2.13429385E-13
   85.6800003       1.45448513E-13
   85.8600006       7.37261204E-14
   86.0400009      -3.75944959E-16
   86.2200012      -7.53469756E-14
   86.4000015      -1.49555959E-13
   86.5800018      -2.21285758E-13
   86.7600021      -2.88771882E-13
   86.9400024      -3.50244627E-13
   87.1200027      -4.03973567E-13
   87.3000031      -4.48313560E-13
   87.4800034      -4.81751249E-13
   87.6600037      -5.02951955E-13
   87.8399963      -5.10805211E-13
   88.0199966      -5.04468483E-13
   88.1999969      -4.83406934E-13
   88.3799973      -4.47428065E-13
   88.5599976      -3.96708545E-13
   88.7399979      -3.31811835E-13
   88.9199982      -2.53694987E-13
   89.0999985      -1.63703252E-13
   89.2799988      -6.35525703E-14
   89.4599991       4.47003952E-14
   89.6399994       1.58699727E-13
   89.8199997       2.75841985E-13
   90.0000000       3.93337272E-13
   90.1800003       5.08277773E-13
   90.3600006       6.17712370E-13
   90.5400009       7.18724776E-13
   90.7200012       8.08514714E-13
   90.9000015       8.84477387E-13
   91.0800018       9.44280461E-13
   91.2600021       9.85935400E-13
   91.4400024       1.00785884E-12
   91.6200027       1.00892450E-12
   91.8000031       9.88500839E-13
   91.9800034       9.46474453E-13
   92.1600037       8.83259449E-13
   92.3399963       7.99791440E-13
   92.5199966       6.97507644E-13
   92.6999969       5.78313981E-13
   92.8799973       4.44539696E-13
   93.0599976       2.98881281E-13
   93.2399979       1.44335458E-13
   93.4199982      -1.58765043E-14
   93.5999985      -1.78392457E-13
   93.7799988      -3.39798990E-13
   93.9599991      -4.96723864E-13
   94.1399994      -6.45928894E-13
   94.3199997      -7.84399238E-13
   94.5000000      -9.09425801E-13
   94.6800003      -1.01867690E-12
   94.8600006      -1.11025804E-12
   95.0400009      -1.18275648E-12
   95.2200012      -1.23527013E-12
   95.4000015      -1.26742106E-12
   95.5800018      -1.27935434E-12
   95.7600021      -1.27172209E-12
   95.9400024      -1.24565495E-12
   96.1200027      -1.20272108E-12
   96.3000031      -1.14487348E-12
   96.4800034      -1.07438776E-12
   96.6600037      -9.93791312E-13
   96.8399963      -9.05785646E-13
   97.0199966      -8.13163935E-13
   97.1999969      -7.18728300E-13
   97.3799973      -6.25208219E-13
   97.5599976      -5.35183334E-13
   97.7399979      -4.51013955E-13
   97.9199982      -3.74780393E-13
   98.0999985      -3.08233202E-13
   98.2799988      -2.52754794E-13
   98.4599991      -2.09332727E-13
   98.6399994      -1.78545845E-13
   98.8199997      -1.60562048E-13
   99.0000000      -1.55148694E-13
   99.1800003      -1.61695689E-13
   99.3600006      -1.79249912E-13
   99.5400009      -2.06560734E-13
   99.7200012      -2.42134221E-13
   99.9000015      -2.84292745E-13
   100.080002      -3.31237343E-13
   100.260002      -3.81107987E-13
   100.440002      -4.32039197E-13
   100.620003      -4.82208078E-13
