  -7.19999981         9.82761953E-18
  -7.01949978         9.82761953E-18
  -6.83900023         9.82762036E-18
  -6.65850019         9.82762202E-18
  -6.47800016         9.82762367E-18
  -6.29750013         9.82762532E-18
  -6.11700010         9.82762615E-18
  -5.93650007         9.82762698E-18
  -5.75600004         9.82762781E-18
  -5.57550001         9.82763029E-18
  -5.39499998         9.82763360E-18
  -5.21449995         9.82763856E-18
  -5.03399992         9.82764270E-18
  -4.85349989         9.82764683E-18
  -4.67299986         9.82765097E-18
  -4.49249983         9.82765510E-18
  -4.31199980         9.82765758E-18
  -4.13149977         9.82766089E-18
  -3.95099998         9.82766586E-18
  -3.77049994         9.82767165E-18
  -3.58999991         9.82767744E-18
  -3.40949988         9.82768405E-18
  -3.22900009         9.82769150E-18
  -3.04850006         9.82769894E-18
  -2.86800003         9.82770473E-18
  -2.68750000         9.82770970E-18
  -2.50699997         9.82771466E-18
  -2.32649994         9.82771962E-18
  -2.14599991         9.82772707E-18
  -1.96550000         9.82773534E-18
  -1.78499997         9.82774444E-18
  -1.60450006         9.82775354E-18
  -1.42400002         9.82776264E-18
  -1.24349999         9.82777091E-18
  -1.06299996         9.82777835E-18
 -0.882499993         9.82778497E-18
 -0.702000022         9.82779241E-18
 -0.521499991         9.82779903E-18
 -0.340999991         9.82780813E-18
 -0.160500005         9.82781723E-18
   1.99999996E-02     9.82782633E-18
  0.200499997         9.82783708E-18
  0.381000012         9.82784701E-18
  0.561500013         9.82785611E-18
  0.741999984         9.82786273E-18
  0.922500014         9.82786934E-18
   1.10300004         9.82787596E-18
   1.28349996         9.82788423E-18
   1.46399999         9.82789333E-18
   1.64450002         9.82790491E-18
   1.82500005         9.82791566E-18
   2.00550008         9.82792559E-18
   2.18600011         9.82793386E-18
   2.36649990         9.82794131E-18
   2.54699993         9.82794710E-18
   2.72749996         9.82795371E-18
   2.90799999         9.82796199E-18
   3.08850002         9.82797191E-18
   3.26900005         9.82798432E-18
   3.44950008         9.82799673E-18
   3.63000011         9.82800665E-18
   3.81049991         9.82801410E-18
   3.99099994         9.82802072E-18
   4.17150021         9.82802651E-18
   4.35200024         9.82803312E-18
   4.53249979         9.82804305E-18
   4.71299982         9.82805629E-18
   4.89349985         9.82807200E-18
   5.07399988         9.82808689E-18
   5.25449991         9.82810013E-18
   5.43499994         9.82810840E-18
   5.61549997         9.82811419E-18
   5.79600000         9.82811832E-18
   5.97650003         9.82812329E-18
   6.15700006         9.82813156E-18
   6.33750010         9.82814397E-18
   6.51800013         9.82815886E-18
   6.69850016         9.82817375E-18
   6.87900019         9.82818615E-18
   7.05950022         9.82819442E-18
   7.23999977         9.82819939E-18
   7.42049980         9.82820435E-18
   7.60099983         9.82821097E-18
   7.78149986         9.82822172E-18
   7.96199989         9.82823661E-18
   8.14249992         9.82825398E-18
   8.32299995         9.82826970E-18
   8.50349998         9.82828128E-18
   8.68400002         9.82828955E-18
   8.86450005         9.82829286E-18
   9.04500008         9.82829699E-18
   9.22550011         9.82830361E-18
   9.40600014         9.82831519E-18
   9.58650017         9.82833174E-18
   9.76700020         9.82835159E-18
   9.94750023         9.82836979E-18
   10.1280003         9.82838468E-18
   10.3085003         9.82839543E-18
   10.4890003         9.82840205E-18
   10.6695004         9.82841032E-18
   10.8500004         9.82842190E-18
   11.0305004         9.82843762E-18
   11.2110004         9.82845664E-18
   11.3915005         9.82847484E-18
   11.5719995         9.82848973E-18
   11.7524996         9.82849883E-18
   11.9329996         9.82850296E-18
   12.1134996         9.82850462E-18
   12.2939997         9.82850793E-18
   12.4744997         9.82851620E-18
   12.6549997         9.82853109E-18
   12.8354998         9.82855177E-18
   13.0159998         9.82857410E-18
   13.1964998         9.82859643E-18
   13.3769999         9.82861629E-18
   13.5574999         9.82863614E-18
   13.7379999         9.82865682E-18
   13.9184999         9.82867915E-18
   14.0990000         9.82870314E-18
   14.2795000         9.82872713E-18
   14.4600000         9.82874533E-18
   14.6405001         9.82875608E-18
   14.8210001         9.82876022E-18
   15.0015001         9.82876352E-18
   15.1820002         9.82878172E-18
   15.3625002         9.82884128E-18
   15.5430002         9.82897528E-18
   15.7235003         9.82922923E-18
   15.9040003         9.82965688E-18
   16.0844994         9.83031118E-18
   16.2649994         9.83123845E-18
   16.4454994         9.83247178E-18
   16.6259995         9.83401529E-18
   16.8064995         9.83583344E-18
   16.9869995         9.83783770E-18
   17.1674995         9.83988414E-18
   17.3479996         9.84176929E-18
   17.5284996         9.84324580E-18
   17.7089996         9.84404486E-18
   17.8894997         9.84391168E-18
   18.0699997         9.84264362E-18
   18.2504997         9.84013147E-18
   18.4309998         9.83640088E-18
   18.6114998         9.83164542E-18
   18.7919998         9.82625220E-18
   18.9724998         9.82082094E-18
   19.1529999         9.81616805E-18
   19.3334999         9.81331924E-18
   19.5139999         9.81348633E-18
   19.6945000         9.81802507E-18
   19.8750000         9.82838219E-18
   20.0555000         9.84602099E-18
   20.2360001         9.87236008E-18
   20.4165001         9.90872459E-18
   20.5970001         9.95633463E-18
   20.7775002         1.00163532E-17
   20.9580002         1.00899963E-17
   21.1385002         1.01787081E-17
   21.3190002         1.02843920E-17
   21.4995003         1.04096586E-17
   21.6800003         1.05580589E-17
   21.8605003         1.07342616E-17
   22.0410004         1.09441090E-17
   22.2215004         1.11945297E-17
   22.4020004         1.14932288E-17
   22.5825005         1.18481281E-17
   22.7630005         1.22664797E-17
   22.9435005         1.27536039E-17
   23.1240005         1.33111931E-17
   23.3045006         1.39351544E-17
   23.4850006         1.46129876E-17
   23.6655006         1.53207829E-17
   23.8460007         1.60199540E-17
   24.0265007         1.66539565E-17
   24.2070007         1.71452224E-17
   24.3875008         1.73927098E-17
   24.5680008         1.72703798E-17
   24.7485008         1.66270053E-17
   24.9290009         1.52876311E-17
   25.1095009         1.30570542E-17
   25.2900009         9.72560169E-18
   25.4705009         5.07746001E-18
   25.6509991        -1.09827024E-18
   25.8314991        -8.99374951E-18
   26.0119991        -1.87659173E-17
   26.1924992        -3.05177236E-17
   26.3729992        -4.42776812E-17
   26.5534992        -5.99786809E-17
   26.7339993        -7.74372343E-17
   26.9144993        -9.63345526E-17
   27.0949993        -1.16201035E-16
   27.2754993        -1.36405709E-16
   27.4559994        -1.56152006E-16
   27.6364994        -1.74481495E-16
   27.8169994        -1.90286640E-16
   27.9974995        -2.02333367E-16
   28.1779995        -2.09294324E-16
   28.3584995        -2.09793028E-16
   28.5389996        -2.02458702E-16
   28.7194996        -1.85990714E-16
   28.8999996        -1.59231341E-16
   29.0804996        -1.21243873E-16
   29.2609997        -7.13933432E-17
   29.4414997        -9.42508450E-18
   29.6219997         6.44627609E-17
   29.8024998         1.49557934E-16
   29.9829998         2.44588413E-16
   30.1634998         3.47696781E-16
   30.3439999         4.56438156E-16
   30.5244999         5.67804830E-16
   30.7049999         6.78279314E-16
   30.8855000         7.83917664E-16
   31.0660000         8.80461844E-16
   31.2465000         9.63481025E-16
   31.4270000         1.02853813E-15
   31.6075001         1.07137703E-15
   31.7880001         1.08812372E-15
   31.9685001         1.07549330E-15
   32.1489983         1.03099209E-15
   32.3294983         9.53104130E-16
   32.5099983         8.41450682E-16
   32.6904984         6.96913404E-16
   32.8709984         5.21709774E-16
   33.0514984         3.19415357E-16
   33.2319984         9.49270552E-17
   33.4124985        -1.45635404E-16
   33.5929985        -3.95089545E-16
   33.7734985        -6.45409618E-16
   33.9539986        -8.88000278E-16
   34.1344986        -1.11401667E-15
   34.3149986        -1.31471975E-15
   34.4954987        -1.48185481E-15
   34.6759987        -1.60803445E-15
   34.8564987        -1.68711133E-15
   35.0369987        -1.71451729E-15
   35.2174988        -1.68755221E-15
   35.3979988        -1.60560336E-15
   35.5784988        -1.47028021E-15
   35.7589989        -1.28545381E-15
   35.9394989        -1.05719432E-15
   36.1199989        -7.93606291E-16
   36.3004990        -5.04564980E-16
   36.4809990        -2.01363104E-16
   36.6614990         1.03720726E-16
   36.8419991         3.97915670E-16
   37.0224991         6.68496190E-16
   37.2029991         9.03342639E-16
   37.3834991         1.09150127E-15
   37.5639992         1.22371866E-15
   37.7444992         1.29292443E-15
   37.9249992         1.29463544E-15
   38.1054993         1.22725831E-15
   38.2859993         1.09226836E-15
   38.4664993         8.94250481E-16
   38.6469994         6.40795142E-16
   38.8274994         3.42249142E-16
   39.0079994         1.13315158E-17
   39.1884995        -3.37370497E-16
   39.3689995        -6.88002776E-16
   39.5494995        -1.02411884E-15
   39.7299995        -1.32940148E-15
   39.9104996        -1.58840213E-15
   40.0909996        -1.78727213E-15
   40.2714996        -1.91445434E-15
   40.4519997        -1.96130458E-15
   40.6324997        -1.92261275E-15
   40.8129997        -1.79699374E-15
   40.9934998        -1.58711941E-15
   41.1739998        -1.29977206E-15
   41.3544998        -9.45706780E-16
   41.5349998        -5.39318583E-16
   41.7154999        -9.81251406E-17
   41.8959999         3.57914566E-16
   42.0764999         8.07217105E-16
   42.2570000         1.22749040E-15
   42.4375000         1.59671047E-15
   42.6180000         1.89412174E-15
   42.7985001         2.10122214E-15
   42.9790001         2.20269859E-15
   43.1595001         2.18727476E-15
   43.3400002         2.04843399E-15
   43.5205002         1.78497773E-15
   43.7010002         1.40138287E-15
   43.8815002         9.07924875E-16
   44.0620003         3.20543684E-16
   44.2425003        -3.39555339E-16
   44.4230003        -1.04656151E-15
   44.6035004        -1.77095647E-15
   44.7840004        -2.48061370E-15
   44.9645004        -3.14205114E-15
   45.1450005        -3.72178569E-15
   45.3255005        -4.18773428E-15
   45.5060005        -4.51060630E-15
   45.6865005        -4.66524868E-15
   45.8670006        -4.63188236E-15
   46.0475006        -4.39719409E-15
   46.2280006        -3.95523348E-15
   46.4085007        -3.30805499E-15
   46.5890007        -2.46606930E-15
   46.7695007        -1.44805026E-15
   46.9500008        -2.80777208E-16
   47.1305008         1.00168962E-15
   47.3110008         2.35908459E-15
   47.4915009         3.74631746E-15
   47.6720009         5.11509221E-15
   47.8525009         6.41569393E-15
   48.0330009         7.59885708E-15
   48.2135010         8.61764036E-15
   48.3940010         9.42924446E-15
   48.5745010         9.99671842E-15
   48.7550011         1.02904966E-14
   48.9355011         1.02897478E-14
   49.1160011         9.98345812E-15
   49.2965012         9.37122694E-15
   49.4770012         8.46370567E-15
   49.6575012         7.28264020E-15
   49.8380013         5.86047061E-15
   50.0185013         4.23949646E-15
   50.1990013         2.47060643E-15
   50.3795013         6.11637938E-16
   50.5600014        -1.27456775E-15
   50.7405014        -3.12232798E-15
   50.9210014        -4.86540172E-15
   51.1015015        -6.43930625E-15
   51.2820015        -7.78360175E-15
   51.4625015        -8.84408530E-15
   51.6430016        -9.57483926E-15
   51.8235016        -9.94010020E-15
   52.0040016        -9.91589877E-15
   52.1845016        -9.49140821E-15
   52.3650017        -8.66991923E-15
   52.5455017        -7.46938386E-15
   52.7260017        -5.92244505E-15
   52.9065018        -4.07591492E-15
   53.0870018        -1.98969627E-15
   53.2675018         2.64813390E-16
   53.4480019         2.60679091E-15
   53.6285019         4.94843043E-15
   53.8089981         7.19769042E-15
   53.9894981         9.26126258E-15
   54.1699982         1.10476906E-14
   54.3504982         1.24705832E-14
   54.5309982         1.34518725E-14
   54.7114983         1.39250116E-14
   54.8919983         1.38380399E-14
   55.0724983         1.31563783E-14
   55.2529984         1.18651808E-14
   55.4334984         9.97105840E-15
   55.6139984         7.50303055E-15
   55.7944984         4.51257184E-15
   55.9749985         1.07269597E-15
   56.1554985        -2.72393006E-15
   56.3359985        -6.76772210E-15
   56.5164986        -1.09356578E-14
   56.6969986        -1.50953401E-14
   56.8774986        -1.91094902E-14
   57.0579987        -2.28407211E-14
   57.2384987        -2.61564486E-14
   57.4189987        -2.89338120E-14
   57.5994987        -3.10644556E-14
   57.7799988        -3.24589836E-14
   57.9604988        -3.30509274E-14
   58.1409988        -3.27999042E-14
   58.3214989        -3.16938655E-14
   58.5019989        -2.97501146E-14
   58.6824989        -2.70150384E-14
   58.8629990        -2.35624610E-14
   59.0434990        -1.94907567E-14
   59.2239990        -1.49188116E-14
   59.4044991        -9.98108643E-15
   59.5849991        -4.82207768E-15
   59.7654991         4.09638739E-16
   59.9459991         5.56751114E-15
   60.1264992         1.05130824E-14
   60.3069992         1.51218810E-14
   60.4874992         1.92888748E-14
   60.6679993         2.29333188E-14
   60.8484993         2.60027409E-14
   61.0289993         2.84757434E-14
   61.2094994         3.03634207E-14
   61.3899994         3.17091358E-14
   61.5704994         3.25865772E-14
   61.7509995         3.30960879E-14
   61.9314995         3.33594711E-14
   62.1119995         3.35135463E-14
   62.2924995         3.37029056E-14
   62.4729996         3.40721612E-14
   62.6534996         3.47581596E-14
   62.8339996         3.58823722E-14
   63.0144997         3.75437020E-14
   63.1949997         3.98119241E-14
   63.3754997         4.27218448E-14
   63.5559998         4.62685107E-14
   63.7364998         5.04035629E-14
   63.9169998         5.50332620E-14
   64.0975037         6.00183152E-14
   64.2779999         6.51758785E-14
   64.4585037         7.02838598E-14
   64.6389999         7.50875192E-14
   64.8195038         7.93081082E-14
   65.0000000         8.26531768E-14
   65.1804962         8.48280525E-14
   65.3610001         8.55478205E-14
   65.5414963         8.45493380E-14
   65.7220001         8.16028289E-14
   65.9024963         7.65225692E-14
   66.0830002         6.91766184E-14
   66.2634964         5.94951470E-14
   66.4440002         4.74770505E-14
   66.6244965         3.31946994E-14
   66.8050003         1.67962246E-14
   66.9854965        -1.49497091E-15
   67.1660004        -2.13836720E-14
   67.3464966        -4.25095275E-14
   67.5270004        -6.44567068E-14
   67.7074966        -8.67661723E-14
   67.8880005        -1.08950080E-13
   68.0684967        -1.30507489E-13
   68.2490005        -1.50940648E-13
   68.4294968        -1.69771234E-13
   68.6100006        -1.86555835E-13
   68.7904968        -2.00900345E-13
   68.9710007        -2.12473038E-13
   69.1514969        -2.21015873E-13
   69.3320007        -2.26353861E-13
   69.5124969        -2.28402014E-13
   69.6930008        -2.27169425E-13
   69.8734970        -2.22760111E-13
   70.0540009        -2.15369850E-13
   70.2344971        -2.05279438E-13
   70.4150009        -1.92844045E-13
   70.5954971        -1.78479410E-13
   70.7760010        -1.62645437E-13
   70.9564972        -1.45828363E-13
   71.1370010        -1.28522206E-13
   71.3174973        -1.11210594E-13
   71.4980011        -9.43495363E-14
   71.6784973        -7.83516725E-14
   71.8590012        -6.35723164E-14
   72.0394974        -5.02974093E-14
   72.2200012        -3.87336884E-14
   72.4004974        -2.90013375E-14
   72.5810013        -2.11296282E-14
   72.7614975        -1.50559497E-14
   72.9420013        -1.06287490E-14
   73.1224976        -7.61450263E-15
   73.3030014        -5.70861158E-15
   73.4834976        -4.54973753E-15
   73.6640015        -3.73670363E-15
   73.8444977        -2.84697938E-15
   74.0250015        -1.45567906E-15
   74.2054977         8.45774786E-16
   74.3860016         4.43214394E-15
   74.5664978         9.62823452E-15
   74.7470016         1.66944231E-14
   74.9274979         2.58139508E-14
   75.1080017         3.70821334E-14
   75.2884979         5.04978919E-14
   75.4690018         6.59582184E-14
   75.6494980         8.32562846E-14
   75.8300018         1.02083916E-13
   76.0104980         1.22038908E-13
   76.1910019         1.42637123E-13
   76.3714981         1.63329067E-13
   76.5520020         1.83519907E-13
   76.7324982         2.02591714E-13
   76.9130020         2.19926873E-13
   77.0934982         2.34931405E-13
   77.2740021         2.47057393E-13
   77.4544983         2.55824008E-13
   77.6350021         2.60836952E-13
   77.8154984         2.61806012E-13
   77.9960022         2.58560344E-13
   78.1764984         2.51061352E-13
   78.3570023         2.39411572E-13
   78.5374985         2.23859492E-13
   78.7180023         2.04798336E-13
   78.8984985         1.82758607E-13
   79.0790024         1.58393982E-13
   79.2594986         1.32461005E-13
   79.4400024         1.05793643E-13
   79.6204987         7.92742472E-14
   79.8010025         5.38025740E-14
   79.9814987         3.02643652E-14
   80.1620026         9.50076792E-15
   80.3424988        -7.72064941E-15
   80.5230026        -2.07325595E-14
   80.7034988        -2.89920235E-14
   80.8840027        -3.21013527E-14
   81.0644989        -2.98252295E-14
   81.2450027        -2.21029368E-14
   81.4254990        -9.05461449E-15
   81.6060028         9.01937538E-15
   81.7864990         3.16468755E-14
   81.9670029         5.82002233E-14
   82.1474991         8.79198041E-14
   82.3280029         1.19943253E-13
   82.5084991         1.53338713E-13
   82.6890030         1.87139814E-13
   82.8694992         2.20380531E-13
