  -7.19999981         0.00000000    
  -7.01999998         0.00000000    
  -6.84000015         0.00000000    
  -6.65999985         0.00000000    
  -6.48000002         0.00000000    
  -6.30000019         0.00000000    
  -6.11999989         0.00000000    
  -5.94000006         0.00000000    
  -5.76000023         0.00000000    
  -5.57999992         0.00000000    
  -5.40000010         0.00000000    
  -5.21999979         0.00000000    
  -5.03999996         0.00000000    
  -4.86000013         0.00000000    
  -4.67999983         0.00000000    
  -4.50000000         0.00000000    
  -4.32000017         0.00000000    
  -4.13999987         0.00000000    
  -3.96000004         0.00000000    
  -3.77999997         0.00000000    
  -3.59999990         0.00000000    
  -3.42000008         0.00000000    
  -3.24000001         0.00000000    
  -3.05999994         0.00000000    
  -2.88000011         0.00000000    
  -2.70000005         0.00000000    
  -2.51999998         0.00000000    
  -2.33999991         0.00000000    
  -2.16000009         0.00000000    
  -1.98000002         0.00000000    
  -1.79999995         0.00000000    
  -1.62000000         0.00000000    
  -1.44000006        -1.22907720E-38
  -1.25999999        -2.45815440E-38
  -1.08000004        -0.00000000    
 -0.899999976         0.00000000    
 -0.720000029         3.07894223E-38
 -0.540000021        -4.85056325E-38
 -0.360000014         1.53565597E-37
 -0.180000007         2.81132309E-37
   0.00000000         1.35975949E-37
  0.180000007         2.33646686E-36
  0.360000014        -2.32570352E-35
  0.540000021        -3.71510914E-35
  0.720000029        -2.47913526E-34
  0.899999976        -6.54678125E-34
   1.08000004        -1.44755921E-33
   1.25999999        -3.42580417E-33
   1.44000006        -5.87300194E-33
   1.62000000        -7.85867491E-33
   1.79999995        -1.90452658E-33
   1.98000002         1.83176311E-33
   2.16000009        -7.70829392E-33
   2.33999991        -8.59570969E-34
   2.51999998         1.62867305E-31
   2.70000005         3.71477891E-31
   2.88000011         6.68066212E-31
   3.05999994         1.76470647E-30
   3.24000001         2.52819457E-30
   3.42000008         2.15301796E-30
   3.59999990        -3.63427565E-31
   3.77999997        -3.76269309E-30
   3.96000004        -5.40451866E-30
   4.13999987        -8.32455477E-31
   4.32000017         9.71020325E-30
   4.50000000         1.98178041E-29
   4.67999983         1.93308929E-29
   4.86000013         1.53896266E-30
   5.03999996        -3.09658479E-29
   5.21999979        -6.23587347E-29
   5.40000010        -6.49647768E-29
   5.57999992        -8.09327748E-30
   5.76000023         1.24005802E-28
   5.94000006         3.04465811E-28
   6.11999989         4.41877133E-28
   6.30000019         3.84634595E-28
   6.48000002        -2.19268734E-29
   6.65999985        -8.23462355E-28
   6.84000015        -1.83426512E-27
   7.01999998        -2.58098070E-27
   7.19999981        -2.38256659E-27
   7.38000011        -5.87797093E-28
   7.55999994         3.07766648E-27
   7.73999977         8.14254523E-27
   7.92000008         1.30987626E-26
   8.10000038         1.53375391E-26
   8.27999973         1.15241500E-26
   8.46000004        -1.33500042E-27
   8.64000034        -2.40359216E-26
   8.81999969        -5.28910653E-26
   9.00000000        -7.80411096E-26
   9.18000031        -8.38786248E-26
   9.35999966        -5.29333864E-26
   9.53999996         2.65485129E-26
   9.72000027         1.50986116E-25
   9.89999962         2.93428647E-25
   10.0799999         4.01859082E-25
   10.2600002         4.07994645E-25
   10.4399996         2.48053170E-25
   10.6199999        -1.07609169E-25
   10.8000002        -6.24436063E-25
   10.9799995        -1.18586748E-24
   11.1599998        -1.60117376E-24
   11.3400002        -1.64743256E-24
   11.5200005        -1.14333092E-24
   11.6999998        -3.80929037E-26
   11.8800001         1.51395996E-24
   12.0600004         3.12753885E-24
   12.2399998         4.23555316E-24
   12.4200001         4.21832088E-24
   12.6000004         2.58835104E-24
   12.7799997        -8.21159434E-25
   12.9600000        -5.72916188E-24
   13.1400003        -1.13955580E-23
   13.3199997        -1.67449311E-23
   13.5000000        -2.05926349E-23
   13.6800003        -2.18931967E-23
   13.8599997        -1.99121793E-23
   14.0400000        -1.42508070E-23
   14.2200003        -4.72766628E-24
   14.3999996         8.78227013E-24
   14.5799999         2.63820472E-23
   14.7600002         4.79022216E-23
   14.9399996         7.23296845E-23
   15.1199999         9.70992732E-23
   15.3000002         1.17675807E-22
   15.4799995         1.28007197E-22
   15.6599998         1.22369164E-22
   15.8400002         9.87819767E-23
   16.0200005         6.35912388E-23
   16.2000008         3.61293877E-23
   16.3799992         5.18652379E-23
   16.5599995         1.62372048E-22
   16.7399998         4.30963674E-22
   16.9200001         9.23932269E-22
   17.1000004         1.69869354E-21
   17.2800007         2.79138217E-21
   17.4599991         4.20704787E-21
   17.6399994         5.91528246E-21
   17.8199997         7.85284803E-21
   18.0000000         9.93297301E-21
   18.1800003         1.20590905E-20
   18.3600006         1.41395960E-20
   18.5400009         1.61001271E-20
   18.7199993         1.78911848E-20
   18.8999996         1.94909747E-20
   19.0799999         2.09055521E-20
   19.2600002         2.21694760E-20
   19.4400005         2.33496915E-20
   19.6200008         2.45533201E-20
   19.7999992         2.59369202E-20
   19.9799995         2.77123988E-20
   20.1599998         3.01442968E-20
   20.3400002         3.35355209E-20
   20.5200005         3.82035498E-20
   20.7000008         4.44551418E-20
   20.8799992         5.25723621E-20
   21.0599995         6.28238958E-20
   21.2399998         7.55126202E-20
   21.4200001         9.10626076E-20
   21.6000004         1.10139706E-19
   21.7800007         1.33791527E-19
   21.9599991         1.63589274E-19
   22.1399994         2.01755801E-19
   22.3199997         2.51272758E-19
   22.5000000         3.15968777E-19
   22.6800003         4.00599874E-19
   22.8600006         5.10933696E-19
   23.0400009         6.53842072E-19
   23.2199993         8.37390761E-19
   23.3999996         1.07089315E-18
   23.5799999         1.36487913E-18
   23.7600002         1.73091576E-18
   23.9400005         2.18122192E-18
   24.1200008         2.72802801E-18
   24.2999992         3.38265544E-18
   24.4799995         4.15431486E-18
   24.6599998         5.04863194E-18
   24.8400002         6.06593712E-18
   25.0200005         7.19933916E-18
   25.2000008         8.43263402E-18
   25.3799992         9.73809460E-18
   25.5599995         1.10742312E-17
   25.7399998         1.23836407E-17
   25.9200001         1.35911325E-17
   26.1000004         1.46023467E-17
   26.2800007         1.53031226E-17
   26.4599991         1.55598794E-17
   26.6399994         1.52212003E-17
   26.8199997         1.41208118E-17
   27.0000000         1.20819903E-17
   27.1800003         8.92338208E-18
   27.3600006         4.46616692E-18
   27.5400009        -1.45759626E-18
   27.7199993        -8.99559330E-18
   27.8999996        -1.82650512E-17
   28.0799999        -2.93419360E-17
   28.2600002        -4.22498744E-17
   28.4400005        -5.69492014E-17
   28.6200008        -7.33267224E-17
   28.7999992        -9.11868489E-17
   28.9799995        -1.10244865E-16
   29.1599998        -1.30123028E-16
   29.3400002        -1.50350307E-16
   29.5200005        -1.70366013E-16
   29.7000008        -1.89527950E-16
   29.8799992        -2.07124609E-16
   30.0599995        -2.22391703E-16
   30.2399998        -2.34532438E-16
   30.4200001        -2.42741008E-16
   30.6000004        -2.46229090E-16
   30.7800007        -2.44254947E-16
   30.9599991        -2.36154242E-16
   31.1399994        -2.21372127E-16
   31.3199997        -1.99495556E-16
   31.5000000        -1.70284208E-16
   31.6800003        -1.33698513E-16
   31.8600006        -8.99225529E-17
   32.0400009        -3.93798885E-17
   32.2200012         1.72595751E-17
   32.4000015         7.90830392E-17
   32.5800018         1.44949175E-16
   32.7599983         2.13513223E-16
   32.9399986         2.83262032E-16
   33.1199989         3.52557427E-16
   33.2999992         4.19686164E-16
   33.4799995         4.82914765E-16
   33.6599998         5.40547310E-16
   33.8400002         5.90984840E-16
   34.0200005         6.32784857E-16
   34.2000008         6.64719164E-16
   34.3800011         6.85828178E-16
   34.5600014         6.95469266E-16
   34.7400017         6.93355230E-16
   34.9199982         6.79580939E-16
   35.0999985         6.54634337E-16
   35.2799988         6.19389719E-16
   35.4599991         5.75082432E-16
   35.6399994         5.23265562E-16
   35.8199997         4.65750119E-16
   36.0000000         4.04532665E-16
   36.1800003         3.41712890E-16
   36.3600006         2.79406126E-16
   36.5400009         2.19653166E-16
   36.7200012         1.64330520E-16
   36.9000015         1.15063245E-16
   37.0800018         7.31419832E-17
   37.2599983         3.94473137E-17
   37.4399986         1.43839975E-17
   37.6199989        -2.16995365E-18
   37.7999992        -1.08945560E-17
   37.9799995        -1.30345450E-17
   38.1599998        -1.03769725E-17
   38.3400002        -5.19788427E-18
   38.5200005        -1.77716317E-19
   38.7000008         1.71123537E-18
   38.8800011        -2.65946218E-18
   39.0600014        -1.64223889E-17
   39.2400017        -4.25532677E-17
   39.4199982        -8.37078126E-17
   39.5999985        -1.42062460E-16
   39.7799988        -2.19163965E-16
   39.9599991        -3.15791988E-16
   40.1399994        -4.31839313E-16
   40.3199997        -5.66215003E-16
   40.5000000        -7.16776644E-16
   40.6800003        -8.80299902E-16
   40.8600006        -1.05249233E-15
   41.0400009        -1.22805759E-15
   41.2200012        -1.40081398E-15
   41.4000015        -1.56386677E-15
   41.5800018        -1.70983024E-15
   41.7599983        -1.83109084E-15
   41.9399986        -1.92010130E-15
   42.1199989        -1.96969253E-15
   42.2999992        -1.97339004E-15
   42.4799995        -1.92572369E-15
   42.6599998        -1.82251865E-15
   42.8400002        -1.66115528E-15
   43.0200005        -1.44079288E-15
   43.2000008        -1.16254023E-15
   43.3800011        -8.29567657E-16
   43.5600014        -4.47147475E-16
   43.7400017        -2.26152420E-17
   43.9199982         4.34753610E-16
   44.0999985         9.13952573E-16
   44.2799988         1.40253208E-15
   44.4599991         1.88695753E-15
   44.6399994         2.35302174E-15
   44.8199997         2.78629561E-15
   45.0000000         3.17259960E-15
   45.1800003         3.49848112E-15
   45.3600006         3.75168214E-15
   45.5400009         3.92158382E-15
   45.7200012         3.99961546E-15
   45.9000015         3.97961151E-15
   46.0800018         3.85810040E-15
   46.2599983         3.63450614E-15
   46.4399986         3.31124407E-15
   46.6199989         2.89369600E-15
   46.7999992         2.39005699E-15
   46.9799995         1.81105194E-15
   47.1599998         1.16953958E-15
   47.3400002         4.80025006E-16
   47.5200005        -2.41891249E-16
   47.7000008        -9.80091129E-16
   47.8800011        -1.71851836E-15
   48.0600014        -2.44173531E-15
   48.2400017        -3.13544153E-15
   48.4199982        -3.78694963E-15
   48.5999985        -4.38560753E-15
   48.7799988        -4.92316386E-15
   48.9599991        -5.39406590E-15
   49.1399994        -5.79566243E-15
   49.3199997        -6.12829650E-15
   49.5000000        -6.39525249E-15
   49.6800003        -6.60252992E-15
   49.8600006        -6.75844793E-15
   50.0400009        -6.87306843E-15
   50.2200012        -6.95747484E-15
   50.4000015        -7.02294583E-15
   50.5800018        -7.08007439E-15
   50.7599983        -7.13790091E-15
   50.9399986        -7.20309703E-15
   51.1199989        -7.27924699E-15
   51.2999992        -7.36626099E-15
   51.4799995        -7.45991996E-15
   51.6599998        -7.55157147E-15
   51.8400002        -7.62798739E-15
   52.0200005        -7.67137666E-15
   52.2000008        -7.65959782E-15
   52.3800011        -7.56656480E-15
   52.5600014        -7.36289403E-15
   52.7400017        -7.01679129E-15
   52.9199982        -6.49517485E-15
   53.0999985        -5.76502694E-15
   53.2799988        -4.79491630E-15
   53.4599991        -3.55664010E-15
   53.6399994        -2.02690897E-15
   53.8199997        -1.89006323E-16
   54.0000000         1.96564964E-15
   54.1800003         4.43610382E-15
   54.3600006         7.21067459E-15
   54.5400009         1.02660351E-14
   54.7200012         1.35666099E-14
   54.9000015         1.70643444E-14
   55.0800018         2.06988882E-14
   55.2599983         2.43982555E-14
   55.4399986         2.80799418E-14
   55.6199989         3.16525777E-14
   55.7999992         3.50179988E-14
   55.9799995         3.80737413E-14
   56.1599998         4.07158201E-14
   56.3400002         4.28417101E-14
   56.5200005         4.43533895E-14
   56.7000008         4.51603375E-14
   56.8800011         4.51824213E-14
   57.0600014         4.43525797E-14
   57.2400017         4.26192522E-14
   57.4199982         3.99485302E-14
   57.5999985         3.63259634E-14
   57.7799988         3.17580096E-14
   57.9599991         2.62729952E-14
   58.1399994         1.99215559E-14
   58.3199997         1.27764917E-14
   58.5000000         4.93194929E-15
   58.6800003        -3.49806100E-15
   58.8600006        -1.23817921E-14
   59.0400009        -2.15724689E-14
   59.2200012        -3.09114611E-14
   59.4000015        -4.02318085E-14
   59.5800018        -4.93619461E-14
   59.7599983        -5.81295266E-14
   59.9399986        -6.63652144E-14
   60.1199989        -7.39064029E-14
   60.2999992        -8.06007008E-14
   60.4799995        -8.63091947E-14
   60.6599998        -9.09093561E-14
   60.8400002        -9.42974878E-14
   61.0200005        -9.63907028E-14
   61.2000008        -9.71282923E-14
   61.3800011        -9.64724313E-14
   61.5600014        -9.44082798E-14
   61.7400017        -9.09434881E-14
   61.9199982        -8.61071807E-14
   62.0999985        -7.99485397E-14
   62.2799988        -7.25350972E-14
   62.4599991        -6.39507775E-14
   62.6399994        -5.42938294E-14
   62.8199997        -4.36746315E-14
   63.0000000        -3.22133779E-14
   63.1800003        -2.00377045E-14
   63.3600006        -7.28024903E-15
   63.5400009         5.92365673E-15
   63.7200012         1.94381034E-14
   63.9000015         3.31283192E-14
   64.0800018         4.68618166E-14
   64.2600021         6.05088489E-14
   64.4400024         7.39421951E-14
   64.6200027         8.70362200E-14
   64.8000031         9.96655083E-14
   64.9800034         1.11703276E-13
   65.1600037         1.23019813E-13
   65.3399963         1.33481361E-13
   65.5199966         1.42949481E-13
   65.6999969         1.51281223E-13
   65.8799973         1.58330001E-13
   66.0599976         1.63947198E-13
   66.2399979         1.67984523E-13
   66.4199982         1.70296706E-13
   66.5999985         1.70744752E-13
   66.7799988         1.69199697E-13
   66.9599991         1.65546613E-13
   67.1399994         1.59689116E-13
   67.3199997         1.51554225E-13
   67.5000000         1.41097488E-13
   67.6800003         1.28308239E-13
   67.8600006         1.13214708E-13
   68.0400009         9.58889476E-14
   68.2200012         7.64508221E-14
   68.4000015         5.50712226E-14
   68.5800018         3.19740131E-14
   68.7600021         7.43658929E-15
   68.9400024        -1.82111050E-14
   69.1200027        -4.45891696E-14
   69.3000031        -7.12720762E-14
   69.4800034        -9.77947446E-14
   69.6600037        -1.23660414E-13
   69.8399963        -1.48350340E-13
   70.0199966        -1.71335155E-13
   70.1999969        -1.92087733E-13
   70.3799973        -2.10097212E-13
   70.5599976        -2.24883643E-13
   70.7399979        -2.36012761E-13
   70.9199982        -2.43110111E-13
   71.0999985        -2.45874366E-13
   71.2799988        -2.44088549E-13
   71.4599991        -2.37629740E-13
   71.6399994        -2.26476173E-13
   71.8199997        -2.10712348E-13
   72.0000000        -1.90531415E-13
   72.1800003        -1.66235325E-13
   72.3600006        -1.38232416E-13
   72.5400009        -1.07032323E-13
   72.7200012        -7.32381888E-14
   72.9000015        -3.75358110E-14
   73.0800018        -6.79967345E-16
   73.2600021         3.65221023E-14
   73.4400024         7.32296846E-14
   73.6200027         1.08589488E-13
   73.8000031         1.41757726E-13
   73.9800034         1.71922508E-13
   74.1600037         1.98325907E-13
   74.3399963         2.20284620E-13
   74.5199966         2.37208826E-13
   74.6999969         2.48618671E-13
   74.8799973         2.54157941E-13
   75.0599976         2.53604402E-13
   75.2399979         2.46877199E-13
   75.4199982         2.34039974E-13
   75.5999985         2.15300773E-13
   75.7799988         1.91007569E-13
   75.9599991         1.61639921E-13
   76.1399994         1.27796875E-13
   76.3199997         9.01815108E-14
   76.5000000         4.95824763E-14
   76.6800003         6.85365359E-15
   76.8600006        -3.71076223E-14
   77.0400009        -8.13828646E-14
   77.2200012        -1.25054643E-13
   77.4000015        -1.67228183E-13
   77.5800018        -2.07051986E-13
   77.7600021        -2.43736970E-13
   77.9400024        -2.76574092E-13
   78.1200027        -3.04949777E-13
   78.3000031        -3.28358678E-13
   78.4800034        -3.46413599E-13
   78.6600037        -3.58851295E-13
   78.8399963        -3.65534561E-13
   79.0199966        -3.66449818E-13
   79.1999969        -3.61700605E-13
   79.3799973        -3.51497341E-13
   79.5599976        -3.36144334E-13
   79.7399979        -3.16024659E-13
   79.9199982        -2.91584329E-13
   80.0999985        -2.63316604E-13
   80.2799988        -2.31746832E-13
   80.4599991        -1.97418945E-13
   80.6399994        -1.60883310E-13
   80.8199997        -1.22686163E-13
   81.0000000        -8.33608017E-14
   81.1800003        -4.34202506E-14
   81.3600006        -3.35158994E-15
   81.5400009         3.63879256E-14
   81.7200012         7.53729761E-14
   81.9000015         1.13210311E-13
   82.0800018         1.49537013E-13
   82.2600021         1.84017284E-13
   82.4400024         2.16338042E-13
   82.6200027         2.46203828E-13
   82.8000031         2.73331976E-13
   82.9800034         2.97448101E-13
   83.1600037         3.18282808E-13
   83.3399963         3.35569625E-13
   83.5199966         3.49044253E-13
   83.6999969         3.58445912E-13
   83.8799973         3.63519815E-13
   84.0599976         3.64022180E-13
   84.2399979         3.59727276E-13
   84.4199982         3.50436965E-13
   84.5999985         3.35993142E-13
   84.7799988         3.16292321E-13
   84.9599991         2.91302220E-13
   85.1399994         2.61079407E-13
   85.3199997         2.25786322E-13
   85.5000000         1.85706471E-13
   85.6800003         1.41256053E-13
   85.8600006         9.29910310E-14
   86.0400009         4.16087419E-14
   86.2200012        -1.20562934E-14
   86.4000015        -6.70418853E-14
   86.5800018        -1.22272675E-13
   86.7600021        -1.76578804E-13
   86.9400024        -2.28718086E-13
   87.1200027        -2.77401501E-13
   87.3000031        -3.21321393E-13
   87.4800034        -3.59183007E-13
   87.6600037        -3.89738507E-13
   87.8399963        -4.11824085E-13
   88.0199966        -4.24398282E-13
   88.1999969        -4.26581432E-13
   88.3799973        -4.17693630E-13
   88.5599976        -3.97289569E-13
   88.7399979        -3.65188159E-13
   88.9199982        -3.21495109E-13
   89.0999985        -2.66616725E-13
   89.2799988        -2.01264678E-13
   89.4599991        -1.26450825E-13
   89.6399994        -4.34727226E-14
   89.8199997         4.61100003E-14
   90.0000000         1.40507696E-13
   90.1800003         2.37740573E-13
   90.3600006         3.35685554E-13
   90.5400009         4.32129376E-13
   90.7200012         5.24826656E-13
   90.9000015         6.11561095E-13
   91.0800018         6.90208199E-13
   91.2600021         7.58797159E-13
   91.4400024         8.15568587E-13
   91.6200027         8.59027476E-13
   91.8000031         8.87987221E-13
   91.9800034         9.01605071E-13
   92.1600037         8.99407285E-13
   92.3399963         8.81303656E-13
   92.5199966         8.47591853E-13
   92.6999969         7.98951779E-13
   92.8799973         7.36429960E-13
   93.0599976         6.61413795E-13
   93.2399979         5.75596266E-13
   93.4199982         4.80930508E-13
   93.5999985         3.79575006E-13
   93.7799988         2.73830112E-13
   93.9599991         1.66068128E-13
   94.1399994         5.86592068E-14
   94.3199997        -4.61038305E-14
   94.5000000        -1.46078137E-13
   94.6800003        -2.39337684E-13
   94.8600006        -3.24231392E-13
   95.0400009        -3.99430597E-13
   95.2200012        -4.63964262E-13
   95.4000015        -5.17241469E-13
   95.5800018        -5.59061749E-13
   95.7600021        -5.89612885E-13
   95.9400024        -6.09456767E-13
   96.1200027        -6.19504448E-13
   96.3000031        -6.20979830E-13
   96.4800034        -6.15373637E-13
   96.6600037        -6.04387200E-13
   96.8399963        -5.89869137E-13
   97.0199966        -5.73746129E-13
   97.1999969        -5.57950279E-13
   97.3799973        -5.44346089E-13
   97.5599976        -5.34660261E-13
   97.7399979        -5.30416097E-13
   97.9199982        -5.32875827E-13
   98.0999985        -5.42991758E-13
   98.2799988        -5.61368389E-13
   98.4599991        -5.88234648E-13
   98.6399994        -6.23430019E-13
   98.8199997        -6.66402968E-13
   99.0000000        -7.16222925E-13
   99.1800003        -7.71607333E-13
   99.3600006        -8.30962306E-13
   99.5400009        -8.92436244E-13
   99.7200012        -9.53984938E-13
   99.9000015        -1.01344410E-12
   100.080002        -1.06860517E-12
   100.260002        -1.11729137E-12
   100.440002        -1.15742875E-12
   100.620003        -1.18710846E-12
