  -7.19999981         0.00000000    
  -7.01999998         0.00000000    
  -6.84000015         0.00000000    
  -6.65999985         0.00000000    
  -6.48000002         0.00000000    
  -6.30000019         0.00000000    
  -6.11999989         0.00000000    
  -5.94000006         0.00000000    
  -5.76000023         0.00000000    
  -5.57999992         0.00000000    
  -5.40000010         0.00000000    
  -5.21999979         0.00000000    
  -5.03999996         0.00000000    
  -4.86000013         0.00000000    
  -4.67999983         0.00000000    
  -4.50000000         0.00000000    
  -4.32000017         0.00000000    
  -4.13999987         0.00000000    
  -3.96000004         0.00000000    
  -3.77999997         0.00000000    
  -3.59999990         0.00000000    
  -3.42000008         0.00000000    
  -3.24000001         0.00000000    
  -3.05999994         0.00000000    
  -2.88000011         0.00000000    
  -2.70000005         0.00000000    
  -2.51999998         0.00000000    
  -2.33999991         0.00000000    
  -2.16000009         0.00000000    
  -1.98000002         0.00000000    
  -1.79999995         0.00000000    
  -1.62000000         0.00000000    
  -1.44000006        -6.40509874E-38
  -1.25999999        -1.28101975E-37
  -1.08000004        -1.30712527E-37
 -0.899999976        -1.33323067E-37
 -0.720000029        -2.04771924E-37
 -0.540000021        -1.94522894E-37
 -0.360000014        -4.53430391E-38
 -0.180000007         5.65861135E-37
   0.00000000         8.01706483E-37
  0.180000007        -1.31600705E-36
  0.360000014        -1.27527568E-36
  0.540000021         7.71040925E-36
  0.720000029         7.03680673E-34
  0.899999976         1.14858269E-33
   1.08000004         9.81672230E-34
   1.25999999        -8.95361936E-35
   1.44000006        -2.65087182E-33
   1.62000000        -7.04043093E-33
   1.79999995        -4.34364889E-33
   1.98000002         2.96613794E-33
   2.16000009         1.36247583E-32
   2.33999991         1.00135478E-32
   2.51999998        -1.40247584E-32
   2.70000005        -4.40742144E-32
   2.88000011        -4.71094466E-32
   3.05999994         1.07417776E-32
   3.24000001         6.37919390E-32
   3.42000008         8.40406344E-32
   3.59999990         3.33929057E-32
   3.77999997        -6.97086112E-31
   3.96000004        -9.47732540E-31
   4.13999987        -6.40928280E-31
   4.32000017        -1.91008957E-31
   4.50000000         3.89024730E-31
   4.67999983        -2.27359792E-31
   4.86000013        -2.78956546E-30
   5.03999996        -7.17168539E-30
   5.21999979        -1.12851460E-29
   5.40000010        -1.27428688E-29
   5.57999992        -7.89952667E-30
   5.76000023         4.49909535E-30
   5.94000006         2.20472485E-29
   6.11999989         3.12984711E-29
   6.30000019         1.36291607E-29
   6.48000002        -4.69044891E-29
   6.65999985        -1.45665172E-28
   6.84000015        -2.44521603E-28
   7.01999998        -2.74726058E-28
   7.19999981        -1.61188239E-28
   7.38000011         1.40347486E-28
   7.55999994         6.07292271E-28
   7.73999977         1.12814014E-27
   7.92000008         1.50051860E-27
   8.10000038         1.44874132E-27
   8.27999973         6.71112678E-28
   8.46000004        -1.04864574E-27
   8.64000034        -3.65244795E-27
   8.81999969        -6.57924786E-27
   9.00000000        -8.62561314E-27
   9.18000031        -8.07452369E-27
   9.35999966        -3.22631804E-27
   9.53999996         6.70627604E-27
   9.72000027         2.06081884E-26
   9.89999962         3.48342857E-26
   10.0799999         4.34374270E-26
   10.2600002         3.95739315E-26
   10.4399996         1.80389563E-26
   10.6199999        -2.16200212E-26
   10.8000002        -7.24744263E-26
   10.9799995        -1.19452819E-25
   11.1599998        -1.41706067E-25
   11.3400002        -1.18593971E-25
   11.5200005        -3.84163335E-26
   11.6999998         9.25835939E-26
   11.8800001         2.44554449E-25
   12.0600004         3.65278196E-25
   12.2399998         3.90286123E-25
   12.4200001         2.60898513E-25
   12.6000004        -5.41339772E-26
   12.7799997        -5.40234726E-25
   12.9600000        -1.12916386E-24
   13.1400003        -1.70675756E-24
   13.3199997        -2.13630357E-24
   13.5000000        -2.29165848E-24
   13.6800003        -2.08950479E-24
   13.8599997        -1.50940162E-24
   14.0400000        -5.95116568E-25
   14.2200003         5.59673196E-25
   14.3999996         1.82813939E-24
   14.5799999         3.05080004E-24
   14.7600002         4.00678980E-24
   14.9399996         4.36003620E-24
   15.1199999         3.61028977E-24
   15.3000002         1.10196700E-24
   15.4799995        -3.84966015E-24
   15.6599998        -1.16763878E-23
   15.8400002        -2.21326381E-23
   16.0200005        -3.38143176E-23
   16.2000008        -4.37751980E-23
   16.3799992        -4.74270560E-23
   16.5599995        -3.88831213E-23
   16.7399998        -1.18069064E-23
   16.9200001         3.93192667E-23
   17.1000004         1.17739308E-22
   17.2800007         2.23115436E-22
   17.4599991         3.50702113E-22
   17.6399994         4.91237090E-22
   17.8199997         6.31574360E-22
   18.0000000         7.55883440E-22
   18.1800003         8.47056777E-22
   18.3600006         8.87947590E-22
   18.5400009         8.62137677E-22
   18.7199993         7.54161325E-22
   18.8999996         5.49385353E-22
   19.0799999         2.33896930E-22
   19.2600002        -2.05201010E-22
   19.4400005        -7.78900861E-22
   19.6200008        -1.49495599E-21
   19.7999992        -2.35657496E-21
   19.9799995        -3.36177369E-21
   20.1599998        -4.50388252E-21
   20.3400002        -5.77317582E-21
   20.5200005        -7.15907533E-21
   20.7000008        -8.65162501E-21
   20.8799992        -1.02408999E-20
   21.0599995        -1.19132547E-20
   21.2399998        -1.36440792E-20
   21.4200001        -1.53877485E-20
   21.6000004        -1.70664179E-20
   21.7800007        -1.85592559E-20
   21.9599991        -1.96940346E-20
   22.1399994        -2.02403567E-20
   22.3199997        -1.99044778E-20
   22.5000000        -1.83224561E-20
   22.6800003        -1.50499923E-20
   22.8600006        -9.54675641E-21
   23.0400009        -1.15678957E-21
   23.2199993         1.09111981E-20
   23.3999996         2.75965547E-20
   23.5799999         4.99818812E-20
   23.7600002         7.92627469E-20
   23.9400005         1.16682653E-19
   24.1200008         1.63426074E-19
   24.2999992         2.20466019E-19
   24.4799995         2.88372274E-19
   24.6599998         3.67075226E-19
   24.8400002         4.55595572E-19
   25.0200005         5.51752009E-19
   25.2000008         6.51848928E-19
   25.3799992         7.50373946E-19
   25.5599995         8.39718913E-19
   25.7399998         9.09963918E-19
   25.9200001         9.48756103E-19
   26.1000004         9.41327505E-19
   26.2800007         8.70690209E-19
   26.4599991         7.18037491E-19
   26.6399994         4.63377015E-19
   26.8199997         8.64235008E-20
   27.0000000        -4.32315116E-19
   27.1800003        -1.11022321E-18
   27.3600006        -1.96105291E-18
   27.5400009        -2.99333441E-18
   27.7199993        -4.20865691E-18
   27.8999996        -5.59995319E-18
   28.0799999        -7.14988038E-18
   28.2600002        -8.82933992E-18
   28.4400005        -1.05962978E-17
   28.6200008        -1.23950451E-17
   28.7999992        -1.41559720E-17
   28.9799995        -1.57960147E-17
   29.1599998        -1.72198241E-17
   29.3400002        -1.83218173E-17
   29.5200005        -1.89889550E-17
   29.7000008        -1.91043814E-17
   29.8799992        -1.85517619E-17
   30.0599995        -1.72202245E-17
   30.2399998        -1.50097927E-17
   30.4200001        -1.18370720E-17
   30.6000004        -7.64108835E-18
   30.7800007        -2.38904071E-18
   30.9599991         3.91845424E-18
   31.1399994         1.12426360E-17
   31.3199997         1.95028939E-17
   31.5000000         2.85743488E-17
   31.6800003         3.82871134E-17
   31.8600006         4.84272559E-17
   32.0400009         5.87400342E-17
   32.2200012         6.89349558E-17
   32.4000015         7.86932585E-17
   32.5800018         8.76772539E-17
   32.7599983         9.55410085E-17
   32.9399986         1.01942771E-16
   33.1199989         1.06557890E-16
   33.2999992         1.09092166E-16
   33.4799995         1.09295110E-16
   33.6599998         1.06972347E-16
   33.8400002         1.01996895E-16
   34.0200005         9.43186208E-17
   34.2000008         8.39713325E-17
   34.3800011         7.10772147E-17
   34.5600014         5.58478468E-17
   34.7400017         3.85813614E-17
   34.9199982         1.96565708E-17
   35.0999985        -4.77861309E-19
   35.2799988        -2.13170234E-17
   35.4599991        -4.23165749E-17
   35.6399994        -6.29123795E-17
   35.8199997        -8.25411770E-17
   36.0000000        -1.00662315E-16
   36.1800003        -1.16778857E-16
   36.3600006        -1.30458109E-16
   36.5400009        -1.41350132E-16
   36.7200012        -1.49204033E-16
   36.9000015        -1.53881442E-16
   37.0800018        -1.55366608E-16
   37.2599983        -1.53772849E-16
   37.4399986        -1.49344508E-16
   37.6199989        -1.42454782E-16
   37.7999992        -1.33597689E-16
   37.9799995        -1.23375603E-16
   38.1599998        -1.12481092E-16
   38.3400002        -1.01674215E-16
   38.5200005        -9.17557572E-17
   38.7000008        -8.35368576E-17
   38.8800011        -7.78064812E-17
   39.0600014        -7.52977416E-17
   39.2400017        -7.66537090E-17
   39.4199982        -8.23939984E-17
   39.5999985        -9.28827809E-17
   39.7799988        -1.08299204E-16
   39.9599991        -1.28611047E-16
   40.1399994        -1.53552661E-16
   40.3199997        -1.82608458E-16
   40.5000000        -2.15003286E-16
   40.6800003        -2.49700892E-16
   40.8600006        -2.85411510E-16
   41.0400009        -3.20609885E-16
   41.2200012        -3.53563411E-16
   41.4000015        -3.82370551E-16
   41.5800018        -4.05009624E-16
   41.7599983        -4.19395658E-16
   41.9399986        -4.23445508E-16
   42.1199989        -4.15148609E-16
   42.2999992        -3.92642361E-16
   42.4799995        -3.54290377E-16
   42.6599998        -2.98760855E-16
   42.8400002        -2.25103956E-16
   43.0200005        -1.32824745E-16
   43.2000008        -2.19492177E-17
   43.3800011         1.06919017E-16
   43.5600014         2.52554785E-16
   43.7400017         4.13082589E-16
   43.9199982         5.85964899E-16
   44.0999985         7.68009379E-16
   44.2799988         9.55395778E-16
   44.4599991         1.14372222E-15
   44.6399994         1.32807196E-15
   44.8199997         1.50309829E-15
   45.0000000         1.66312823E-15
   45.1800003         1.80228113E-15
   45.3600006         1.91460278E-15
   45.5400009         1.99421096E-15
   45.7200012         2.03544876E-15
   45.9000015         2.03304255E-15
   46.0800018         1.98226038E-15
   46.2599983         1.87906530E-15
   46.4399986         1.72025933E-15
   46.6199989         1.50361530E-15
   46.7999992         1.22799152E-15
   46.9799995         8.93427801E-16
   47.1599998         5.01220682E-16
   47.3400002         5.39781539E-17
   47.5200005        -4.44350149E-16
   47.7000008        -9.88463944E-16
   47.8800011        -1.57172967E-15
   48.0600014        -2.18622232E-15
   48.2400017        -2.82279553E-15
   48.4199982        -3.47117659E-15
   48.5999985        -4.12009065E-15
   48.7799988        -4.75740586E-15
   48.9599991        -5.37030408E-15
   49.1399994        -5.94545724E-15
   49.3199997        -6.46922260E-15
   49.5000000        -6.92783970E-15
   49.6800003        -7.30762513E-15
   49.8600006        -7.59517080E-15
   50.0400009        -7.77753021E-15
   50.2200012        -7.84241294E-15
   50.4000015        -7.77837047E-15
   50.5800018        -7.57498854E-15
   50.7599983        -7.22307600E-15
   50.9399986        -6.71486174E-15
   51.1199989        -6.04418444E-15
   51.2999992        -5.20668569E-15
   51.4799995        -4.19999169E-15
   51.6599998        -3.02388645E-15
   51.8400002        -1.68047927E-15
   52.0200005        -1.74352918E-16
   52.2000008         1.48729615E-15
   52.3800011         3.29452597E-15
   52.5600014         5.23452851E-15
   52.7400017         7.29151965E-15
   52.9199982         9.44663998E-15
   53.0999985         1.16778798E-14
   53.2799988         1.39600228E-14
   53.4599991         1.62646335E-14
   53.6399994         1.85600928E-14
   53.8199997         2.08116825E-14
   54.0000000         2.29817606E-14
   54.1800003         2.50300082E-14
   54.3600006         2.69137739E-14
   54.5400009         2.85885309E-14
   54.7200012         3.00084258E-14
   54.9000015         3.11269633E-14
   55.0800018         3.18977870E-14
   55.2599983         3.22755704E-14
   55.4399986         3.22170337E-14
   55.6199989         3.16819731E-14
   55.7999992         3.06344136E-14
   55.9799995         2.90437433E-14
   56.1599998         2.68858727E-14
   56.3400002         2.41443133E-14
   56.5200005         2.08112404E-14
   56.7000008         1.68884038E-14
   56.8800011         1.23879509E-14
   57.0600014         7.33306831E-15
   57.2400017         1.75845416E-15
   57.4199982        -4.28940068E-15
   57.5999985        -1.07521719E-14
   57.7799988        -1.75598959E-14
   57.9599991        -2.46314149E-14
   58.1399994        -3.18751170E-14
   58.3199997        -3.91899444E-14
   58.5000000        -4.64666791E-14
   58.6800003        -5.35894876E-14
   58.8600006        -6.04377117E-14
   59.0400009        -6.68878608E-14
   59.2200012        -7.28157430E-14
   59.4000015        -7.80987552E-14
   59.5800018        -8.26181774E-14
   59.7599983        -8.62615101E-14
   59.9399986        -8.89247782E-14
   60.1199989        -9.05147336E-14
   60.2999992        -9.09509420E-14
   60.4799995        -9.01677143E-14
   60.6599998        -8.81158143E-14
   60.8400002        -8.47639152E-14
   61.0200005        -8.00998265E-14
   61.2000008        -7.41313749E-14
   61.3800011        -6.68869799E-14
   61.5600014        -5.84158915E-14
   61.7400017        -4.87880271E-14
   61.9199982        -3.80935077E-14
   62.0999985        -2.64417784E-14
   62.2799988        -1.39603744E-14
   62.4599991        -7.93355675E-16
   62.6399994         1.29006159E-14
   62.8199997         2.69504860E-14
   63.0000000         4.11752880E-14
   63.1800003         5.53868305E-14
   63.3600006         6.93925372E-14
   63.5400009         8.29983529E-14
   63.7200012         9.60116928E-14
   63.9000015         1.08244319E-13
   64.0800018         1.19515102E-13
   64.2600021         1.29652677E-13
   64.4400024         1.38497829E-13
   64.6200027         1.45905789E-13
   64.8000031         1.51748284E-13
   64.9800034         1.55915415E-13
   65.1600037         1.58317343E-13
   65.3399963         1.58885708E-13
   65.5199966         1.57574935E-13
   65.6999969         1.54363244E-13
   65.8799973         1.49253345E-13
   66.0599976         1.42272953E-13
   66.2399979         1.33474747E-13
   66.4199982         1.22936194E-13
   66.5999985         1.10758875E-13
   66.7799988         9.70675566E-14
   66.9599991         8.20088219E-14
   67.1399994         6.57495502E-14
   67.3199997         4.84750315E-14
   67.5000000         3.03869173E-14
   67.6800003         1.17009275E-14
   67.8600006        -7.35556720E-15
   68.0400009        -2.65461854E-14
   68.2200012        -4.56283062E-14
   68.4000015        -6.43559912E-14
   68.5800018        -8.24830723E-14
   68.7600021        -9.97664272E-14
   68.9400024        -1.15969259E-13
   69.1200027        -1.30864639E-13
   69.3000031        -1.44239018E-13
   69.4800034        -1.55895818E-13
   69.6600037        -1.65659085E-13
   69.8399963        -1.73376856E-13
   70.0199966        -1.78924638E-13
   70.1999969        -1.82208442E-13
   70.3799973        -1.83167582E-13
   70.5599976        -1.81776984E-13
   70.7399979        -1.78049022E-13
   70.9199982        -1.72034736E-13
   71.0999985        -1.63824371E-13
   71.2799988        -1.53547314E-13
   71.4599991        -1.41371168E-13
   71.6399994        -1.27500400E-13
   71.8199997        -1.12174003E-13
   72.0000000        -9.56627017E-14
   72.1800003        -7.82654242E-14
   72.3600006        -6.03050528E-14
   72.5400009        -4.21236634E-14
   72.7200012        -2.40769844E-14
   72.9000015        -6.52838447E-15
   73.0800018         1.01577707E-14
   73.2600021         2.56231498E-14
   73.4400024         3.95228148E-14
   73.6200027         5.15327290E-14
   73.8000031         6.13572439E-14
   73.9800034         6.87363442E-14
   74.1600037         7.34525085E-14
   74.3399963         7.53369467E-14
   74.5199966         7.42751672E-14
   74.6999969         7.02115842E-14
   74.8799973         6.31532248E-14
   75.0599976         5.31722595E-14
   75.2399979         4.04074526E-14
   75.4199982         2.50642877E-14
   75.5999985         7.41379394E-15
   75.7799988        -1.22099935E-14
   75.9599991        -3.34139793E-14
   76.1399994        -5.57513427E-14
   76.3199997        -7.87282566E-14
   76.5000000        -1.01811924E-13
   76.6800003        -1.24439779E-13
   76.8600006        -1.46029808E-13
   77.0400009        -1.65991624E-13
   77.2200012        -1.83738292E-13
   77.4000015        -1.98698493E-13
   77.5800018        -2.10328865E-13
   77.7600021        -2.18126190E-13
   77.9400024        -2.21638991E-13
   78.1200027        -2.20478597E-13
   78.3000031        -2.14328989E-13
   78.4800034        -2.02955247E-13
   78.6600037        -1.86210774E-13
   78.8399963        -1.64042459E-13
   79.0199966        -1.36494277E-13
   79.1999969        -1.03709067E-13
   79.3799973        -6.59284639E-14
   79.5599976        -2.34910730E-14
   79.7399979         2.31708336E-14
   79.9199982         7.35362698E-14
   80.0999985         1.27001965E-13
   80.2799988         1.82890039E-13
   80.4599991         2.40457150E-13
   80.6399994         2.98904808E-13
   80.8199997         3.57390793E-13
   81.0000000         4.15041862E-13
   81.1800003         4.70967124E-13
   81.3600006         5.24272249E-13
   81.5400009         5.74074046E-13
   81.7200012         6.19515561E-13
   81.9000015         6.59780282E-13
   82.0800018         6.94106881E-13
   82.2600021         7.21802663E-13
   82.4400024         7.42256246E-13
   82.6200027         7.54949109E-13
   82.8000031         7.59465895E-13
   82.9800034         7.55502974E-13
   83.1600037         7.42875596E-13
   83.3399963         7.21523047E-13
   83.5199966         6.91512169E-13
   83.6999969         6.53038875E-13
   83.8799973         6.06427777E-13
   84.0599976         5.52129902E-13
   84.2399979         4.90718306E-13
   84.4199982         4.22882514E-13
   84.5999985         3.49420362E-13
   84.7799988         2.71228921E-13
   84.9599991         1.89293432E-13
   85.1399994         1.04674760E-13
   85.3199997         1.84954997E-14
   85.5000000        -6.80751909E-14
   85.6800003        -1.53838246E-13
   85.8600006        -2.37581981E-13
   86.0400009        -3.18100472E-13
   86.2200012        -3.94212115E-13
   86.4000015        -4.64778606E-13
   86.5800018        -5.28723658E-13
   86.7600021        -5.85051159E-13
   86.9400024        -6.32862794E-13
   87.1200027        -6.71374631E-13
   87.3000031        -6.99932571E-13
   87.4800034        -7.18026224E-13
   87.6600037        -7.25301600E-13
   87.8399963        -7.21571891E-13
   88.0199966        -7.06825549E-13
   88.1999969        -6.81232685E-13
   88.3799973        -6.45147835E-13
   88.5599976        -5.99110063E-13
   88.7399979        -5.43839062E-13
   88.9199982        -4.80227782E-13
   89.0999985        -4.09331450E-13
   89.2799988        -3.32352852E-13
   89.4599991        -2.50624228E-13
   89.6399994        -1.65586512E-13
   89.8199997        -7.87659326E-14
   90.0000000         8.25106314E-15
   90.1800003         9.38443455E-14
   90.3600006         1.76387252E-13
   90.5400009         2.54274087E-13
   90.7200012         3.25947277E-13
   90.9000015         3.89923879E-13
   91.0800018         4.44820802E-13
   91.2600021         4.89378395E-13
   91.4400024         5.22482231E-13
   91.6200027         5.43181982E-13
   91.8000031         5.50708079E-13
   91.9800034         5.44484867E-13
   92.1600037         5.24140844E-13
   92.3399963         4.89515438E-13
   92.5199966         4.40661884E-13
   92.6999969         3.77846490E-13
   92.8799973         3.01544949E-13
   93.0599976         2.12433302E-13
   93.2399979         1.11376633E-13
   93.4199982        -5.86535746E-16
   93.5999985        -1.22262619E-13
   93.7799988        -2.52324935E-13
   93.9599991        -3.89336729E-13
   94.1399994        -5.31777313E-13
   94.3199997        -6.78067574E-13
   94.5000000        -8.26596821E-13
   94.6800003        -9.75748345E-13
   94.8600006        -1.12392376E-12
   95.0400009        -1.26956572E-12
   95.2200012        -1.41117922E-12
   95.4000015        -1.54734938E-12
   95.5800018        -1.67675715E-12
   95.7600021        -1.79819224E-12
   95.9400024        -1.91056307E-12
   96.1200027        -2.01290352E-12
   96.3000031        -2.10437592E-12
   96.4800034        -2.18427186E-12
   96.6600037        -2.25200956E-12
   96.8399963        -2.30712671E-12
   97.0199966        -2.34927442E-12
   97.1999969        -2.37820419E-12
   97.3799973        -2.39375880E-12
   97.5599976        -2.39585760E-12
   97.7399979        -2.38448584E-12
   97.9199982        -2.35968146E-12
   98.0999985        -2.32152470E-12
   98.2799988        -2.27012831E-12
   98.4599991        -2.20562999E-12
   98.6399994        -2.12818608E-12
   98.8199997        -2.03796745E-12
   99.0000000        -1.93515798E-12
   99.1800003        -1.81995369E-12
   99.3600006        -1.69256525E-12
   99.5400009        -1.55322044E-12
   99.7200012        -1.40216994E-12
   99.9000015        -1.23969281E-12
   100.080002        -1.06610294E-12
   100.260002        -8.81755931E-13
   100.440002        -6.87057074E-13
   100.620003        -4.82467636E-13
