  -7.19999981         0.00000000    
  -7.01999998         0.00000000    
  -6.84000015        -1.27238934E-16
  -6.65999985        -5.70519042E-16
  -6.48000002        -1.43332141E-15
  -6.30000019        -2.55762805E-15
  -6.11999989        -3.37036591E-15
  -5.94000006        -2.77895268E-15
  -5.76000023         8.85755429E-16
  -5.57999992         9.89254184E-15
  -5.40000010         2.71067856E-14
  -5.21999979         5.59630027E-14
  -5.03999996         1.00425453E-13
  -4.86000013         1.64978830E-13
  -4.67999983         2.54719585E-13
  -4.50000000         3.75621030E-13
  -4.32000017         5.35010025E-13
  -4.13999987         7.42232285E-13
  -3.96000004         1.00943180E-12
  -3.77999997         1.35235247E-12
  -3.59999990         1.79109342E-12
  -3.42000008         2.35079556E-12
  -3.24000001         3.06227092E-12
  -3.05999994         3.96259197E-12
  -2.88000011         5.09565567E-12
  -2.70000005         6.51271138E-12
  -2.51999998         8.27285636E-12
  -2.33999991         1.04435263E-11
  -2.16000009         1.31010133E-11
  -1.98000002         1.63310442E-11
  -1.79999995         2.02294050E-11
  -1.62000000         2.49025401E-11
  -1.44000006         3.04680378E-11
  -1.25999999         3.70548627E-11
  -1.08000004         4.48033173E-11
 -0.899999976         5.38646384E-11
 -0.720000029         6.44002490E-11
 -0.540000021         7.65806932E-11
 -0.360000014         9.05841652E-11
 -0.180000007         1.06594747E-10
   0.00000000         1.24800462E-10
  0.180000007         1.45391102E-10
  0.360000014         1.68556169E-10
  0.540000021         1.94483096E-10
  0.720000029         2.23355681E-10
  0.899999976         2.55352905E-10
   1.08000004         2.90648006E-10
   1.25999999         3.29407779E-10
   1.44000006         3.71791736E-10
   1.62000000         4.17951257E-10
   1.79999995         4.68028505E-10
   1.98000002         5.22155374E-10
   2.16000009         5.80451742E-10
   2.33999991         6.43024523E-10
   2.51999998         7.09965975E-10
   2.70000005         7.81352927E-10
   2.88000011         8.57246274E-10
   3.05999994         9.37690370E-10
   3.24000001         1.02271214E-09
   3.42000008         1.11231957E-09
   3.59999990         1.20649946E-09
   3.77999997         1.30521316E-09
   3.96000004         1.40839240E-09
   4.13999987         1.51593382E-09
   4.32000017         1.62769387E-09
   4.50000000         1.74348491E-09
   4.67999983         1.86307236E-09
   4.86000013         1.98617234E-09
   5.03999996         2.11244999E-09
   5.21999979         2.24152008E-09
   5.40000010         2.37294273E-09
   5.57999992         2.50622123E-09
   5.76000023         2.64079425E-09
   5.94000006         2.77603118E-09
   6.11999989         2.91122304E-09
   6.30000019         3.04557535E-09
   6.48000002         3.17820414E-09
   6.65999985         3.30813599E-09
   6.84000015         3.43431172E-09
   7.01999998         3.55559759E-09
   7.19999981         3.67079767E-09
   7.38000011         3.77867515E-09
   7.55999994         3.87797172E-09
   7.73999977         3.96743216E-09
   7.92000008         4.04582279E-09
   8.10000038         4.11194856E-09
   8.27999973         4.16466239E-09
   8.46000004         4.20286428E-09
   8.64000034         4.22548974E-09
   8.81999969         4.23148894E-09
   9.00000000         4.21980051E-09
   9.18000031         4.18932622E-09
   9.35999966         4.13891099E-09
   9.53999996         4.06734602E-09
   9.72000027         3.97338518E-09
   9.89999962         3.85579479E-09
   10.0799999         3.71341646E-09
   10.2600002         3.54524832E-09
   10.4399996         3.35051875E-09
   10.6199999         3.12874104E-09
   10.8000002         2.87972601E-09
   10.9799995         2.60354605E-09
   11.1599998         2.30044095E-09
   11.3400002         1.97067873E-09
   11.5200005         1.61438685E-09
   11.6999998         1.23138921E-09
   11.8800001         8.21072099E-10
   12.0600004         3.82310572E-10
   12.2399998        -8.65365141E-11
   12.4200001        -5.87572158E-10
   12.6000004        -1.12327225E-09
   12.7799997        -1.69641334E-09
   12.9600000        -2.31007813E-09
   13.1400003        -2.96778269E-09
   13.3199997        -3.67378039E-09
   13.5000000        -4.43353665E-09
   13.6800003        -5.25435606E-09
   13.8599997        -6.14608631E-09
   14.0400000        -7.12179649E-09
   14.2200003        -8.19830870E-09
   14.3999996        -9.39647560E-09
   14.5799999        -1.07410951E-08
   14.7600002        -1.22604282E-08
   14.9399996        -1.39853320E-08
   15.1199999        -1.59480695E-08
   15.3000002        -1.81809181E-08
   15.4799995        -2.07147117E-08
   15.6599998        -2.35774689E-08
   15.8400002        -2.67932219E-08
   16.0200005        -3.03811127E-08
   16.2000008        -3.43547839E-08
   16.3799992        -3.87219998E-08
   16.5599995        -4.34844232E-08
   16.7399998        -4.86374283E-08
   16.9200001        -5.41698064E-08
   17.1000004        -6.00633570E-08
   17.2800007        -6.62922233E-08
   17.4599991        -7.28220897E-08
   17.6399994        -7.96093715E-08
   17.8199997        -8.66004655E-08
   18.0000000        -9.37312592E-08
   18.1800003        -1.00927139E-07
   18.3600006        -1.08103620E-07
   18.5400009        -1.15167502E-07
   18.7199993        -1.22018989E-07
   18.8999996        -1.28553992E-07
   19.0799999        -1.34667175E-07
   19.2600002        -1.40254983E-07
   19.4400005        -1.45218607E-07
   19.6200008        -1.49466672E-07
   19.7999992        -1.52917110E-07
   19.9799995        -1.55498469E-07
   20.1599998        -1.57150495E-07
   20.3400002        -1.57823564E-07
   20.5200005        -1.57477956E-07
   20.7000008        -1.56082336E-07
   20.8799992        -1.53612504E-07
   21.0599995        -1.50050028E-07
   21.2399998        -1.45381719E-07
   21.4200001        -1.39599408E-07
   21.6000004        -1.32701018E-07
   21.7800007        -1.24692136E-07
   21.9599991        -1.15588719E-07
   22.1399994        -1.05419687E-07
   22.3199997        -9.42302592E-08
   22.5000000        -8.20846822E-08
   22.6800003        -6.90685127E-08
   22.8600006        -5.52898314E-08
   23.0400009        -4.08794385E-08
   23.2199993        -2.59894062E-08
   23.3999996        -1.07907310E-08
   23.5799999         4.53082150E-09
   23.7600002         1.97793888E-08
   23.9400005         3.47550682E-08
   24.1200008         4.92599632E-08
   24.2999992         6.31054178E-08
   24.4799995         7.61187309E-08
   24.6599998         8.81502942E-08
   24.8400002         9.90806939E-08
   25.0200005         1.08827564E-07
   25.2000008         1.17352812E-07
   25.3799992         1.24668972E-07
   25.5599995         1.30845223E-07
   25.7399998         1.36012829E-07
   25.9200001         1.40368897E-07
   26.1000004         1.44178927E-07
   26.2800007         1.47776831E-07
   26.4599991         1.51562702E-07
   26.6399994         1.55997725E-07
   26.8199997         1.61595480E-07
   27.0000000         1.68910972E-07
   27.1800003         1.78526435E-07
   27.3600006         1.91034687E-07
   27.5400009         2.07020861E-07
   27.7199993         2.27043344E-07
   27.8999996         2.51613869E-07
   28.0799999         2.81178700E-07
   28.2600002         3.16100852E-07
   28.4400005         3.56644051E-07
   28.6200008         4.02959444E-07
   28.7999992         4.55074769E-07
   28.9799995         5.12886061E-07
   29.1599998         5.76153184E-07
   29.3400002         6.44497447E-07
   29.5200005         7.17402600E-07
   29.7000008         7.94218863E-07
   29.8799992         8.74169586E-07
   30.0599995         9.56361077E-07
   30.2399998         1.03979551E-06
   30.4200001         1.12338546E-06
   30.6000004         1.20597372E-06
   30.7800007         1.28635247E-06
   30.9599991         1.36328686E-06
   31.1399994         1.43553802E-06
   31.3199997         1.50188782E-06
   31.5000000         1.56116312E-06
   31.6800003         1.61225853E-06
   31.8600006         1.65415702E-06
   32.0400009         1.68594886E-06
   32.2200012         1.70684632E-06
   32.4000015         1.71619615E-06
   32.5800018         1.71348836E-06
   32.7599983         1.69836278E-06
   32.9399986         1.67061273E-06
   33.1199989         1.63018808E-06
   33.2999992         1.57719592E-06
   33.4799995         1.51190204E-06
   33.6599998         1.43473119E-06
   33.8400002         1.34626725E-06
   34.0200005         1.24725273E-06
   34.2000008         1.13858823E-06
   34.3800011         1.02132935E-06
   34.5600014         8.96683161E-07
   34.7400017         7.65999800E-07
   34.9199982         6.30763623E-07
   35.0999985         4.92578295E-07
   35.2799988         3.53149545E-07
   35.4599991         2.14262997E-07
   35.6399994         7.77586209E-08
   35.8199997        -5.44992247E-08
   36.0000000        -1.80654638E-07
   36.1800003        -2.98896055E-07
   36.3600006        -4.07494610E-07
   36.5400009        -5.04844422E-07
   36.7200012        -5.89502747E-07
   36.9000015        -6.60230853E-07
   37.0800018        -7.16033696E-07
   37.2599983        -7.56197380E-07
   37.4399986        -7.80322807E-07
   37.6199989        -7.88354896E-07
   37.7999992        -7.80605205E-07
   37.9799995        -7.57767395E-07
   38.1599998        -7.20922230E-07
   38.3400002        -6.71533257E-07
   38.5200005        -6.11430039E-07
   38.7000008        -5.42779162E-07
   38.8800011        -4.68042401E-07
   39.0600014        -3.89922207E-07
   39.2400017        -3.11295224E-07
   39.4199982        -2.35135133E-07
   39.5999985        -1.64426993E-07
   39.7799988        -1.02075219E-07
   39.9599991        -5.08078415E-08
   40.1399994        -1.30807063E-08
   40.3199997         9.01517438E-09
   40.5000000         1.38397525E-08
   40.6800003         2.80474699E-10
   40.8600006        -3.21844063E-08
   41.0400009        -8.34374916E-08
   41.2200012        -1.52691811E-07
   41.4000015        -2.38479458E-07
   41.5800018        -3.38660300E-07
   41.7599983        -4.50451097E-07
   41.9399986        -5.70475265E-07
   42.1199989        -6.94830987E-07
   42.2999992        -8.19178865E-07
   42.4799995        -9.38844551E-07
   42.6599998        -1.04893581E-06
   42.8400002        -1.14447050E-06
   43.0200005        -1.22051233E-06
   43.2000008        -1.27231101E-06
   43.3800011        -1.29544139E-06
   43.5600014        -1.28593899E-06
   43.7400017        -1.24042595E-06
   43.9199982        -1.15622436E-06
   44.0999985        -1.03145157E-06
   44.2799988        -8.65093568E-07
   44.4599991        -6.57054841E-07
   44.6399994        -4.08181933E-07
   44.8199997        -1.20260822E-07
   45.0000000         2.04015322E-07
   45.1800003         5.61101160E-07
   45.3600006         9.46679336E-07
   45.5400009         1.35576045E-06
   45.7200012         1.78279993E-06
   45.9000015         2.22182734E-06
   46.0800018         2.66658321E-06
   46.2599983         3.11066037E-06
   46.4399986         3.54764234E-06
   46.6199989         3.97123904E-06
   46.7999992         4.37541212E-06
   46.9799995         4.75448951E-06
   47.1599998         5.10326163E-06
   47.3400002         5.41706504E-06
   47.5200005         5.69184522E-06
   47.7000008         5.92419747E-06
   47.8800011         6.11139103E-06
   48.0600014         6.25137454E-06
   48.2400017         6.34275921E-06
   48.4199982         6.38479014E-06
   48.5999985         6.37730000E-06
   48.7799988         6.32065621E-06
   48.9599991         6.21569507E-06
   49.1399994         6.06365438E-06
   49.3199997         5.86610258E-06
   49.5000000         5.62487276E-06
   49.6800003         5.34199671E-06
   49.8600006         5.01964905E-06
   50.0400009         4.66009760E-06
   50.2200012         4.26566749E-06
   50.4000015         3.83870884E-06
   50.5800018         3.38158316E-06
   50.7599983         2.89664968E-06
   50.9399986         2.38626603E-06
   51.1199989         1.85279077E-06
   51.2999992         1.29858802E-06
   51.4799995         7.26034500E-07
   51.6599998         1.37522861E-07
   51.8400002        -4.64540506E-07
   52.0200005        -1.07773894E-06
   52.2000008        -1.69965904E-06
   52.3800011        -2.32791353E-06
   52.5600014        -2.96016037E-06
   52.7400017        -3.59413548E-06
   52.9199982        -4.22768471E-06
   53.0999985        -4.85879627E-06
   53.2799988        -5.48563503E-06
   53.4599991        -6.10657344E-06
   53.6399994        -6.72021770E-06
   53.8199997        -7.32543367E-06
   54.0000000        -7.92136234E-06
   54.1800003        -8.50742344E-06
   54.3600006        -9.08332913E-06
   54.5400009        -9.64906394E-06
   54.7200012        -1.02048734E-05
   54.9000015        -1.07512342E-05
   55.0800018        -1.12888101E-05
   55.2599983        -1.18184025E-05
   55.4399986        -1.23408881E-05
   55.6199989        -1.28571464E-05
   55.7999992        -1.33679832E-05
   55.9799995        -1.38740497E-05
   56.1599998        -1.43757652E-05
   56.3400002        -1.48732388E-05
   56.5200005        -1.53662022E-05
   56.7000008        -1.58539551E-05
   56.8800011        -1.63353325E-05
   57.0600014        -1.68086626E-05
   57.2400017        -1.72717846E-05
   57.4199982        -1.77220336E-05
   57.5999985        -1.81562973E-05
   57.7799988        -1.85710396E-05
   57.9599991        -1.89623715E-05
   58.1399994        -1.93261239E-05
   58.3199997        -1.96579258E-05
   58.5000000        -1.99533079E-05
   58.6800003        -2.02077899E-05
   58.8600006        -2.04169919E-05
   59.0400009        -2.05767319E-05
   59.2200012        -2.06831373E-05
   59.4000015        -2.07327503E-05
   59.5800018        -2.07226076E-05
   59.7599983        -2.06503501E-05
   59.9399986        -2.05142824E-05
   60.1199989        -2.03134532E-05
   60.2999992        -2.00476952E-05
   60.4799995        -1.97176723E-05
   60.6599998        -1.93248852E-05
   60.8400002        -1.88716804E-05
   61.0200005        -1.83612283E-05
   61.2000008        -1.77974835E-05
   61.3800011        -1.71851316E-05
   61.5600014        -1.65295223E-05
   61.7400017        -1.58365729E-05
   61.9199982        -1.51126742E-05
   62.0999985        -1.43645793E-05
   62.2799988        -1.35992868E-05
   62.4599991        -1.28239089E-05
   62.6399994        -1.20455506E-05
   62.8199997        -1.12711723E-05
   63.0000000        -1.05074705E-05
   63.1800003        -9.76074716E-06
   63.3600006        -9.03679393E-06
   63.5400009        -8.34078128E-06
   63.7200012        -7.67715392E-06
   63.9000015        -7.04954255E-06
   64.0800018        -6.46068293E-06
   64.2600021        -5.91235357E-06
   64.4400024        -5.40533165E-06
   64.6200027        -4.93935977E-06
   64.8000031        -4.51314691E-06
   64.9800034        -4.12437794E-06
   65.1600037        -3.76975413E-06
   65.3399963        -3.44505338E-06
   65.5199966        -3.14521390E-06
   65.6999969        -2.86443606E-06
   65.8799973        -2.59630497E-06
   66.0599976        -2.33391461E-06
   66.2399979        -2.07002449E-06
   66.4199982        -1.79720382E-06
   66.5999985        -1.50799053E-06
   66.7799988        -1.19504909E-06
   66.9599991        -8.51327002E-07
   67.1399994        -4.70207908E-07
   67.3199997        -4.56609897E-08
   67.5000000         4.27622439E-07
   67.6800003         9.54101097E-07
   67.8600006         1.53726774E-06
   68.0400009         2.17955835E-06
   68.2200012         2.88227443E-06
   68.4000015         3.64552739E-06
   68.5800018         4.46822241E-06
   68.7600021         5.34805622E-06
   68.9400024         6.28155749E-06
   69.1200027         7.26414692E-06
   69.3000031         8.29022883E-06
   69.4800034         9.35331173E-06
   69.6600037         1.04461515E-05
   69.8399963         1.15609046E-05
   70.0199966         1.26893074E-05
   70.1999969         1.38228615E-05
   70.3799973         1.49530151E-05
   70.5599976         1.60713571E-05
   70.7399979         1.71697975E-05
   70.9199982         1.82407530E-05
   71.0999985         1.92772859E-05
   71.2799988         2.02732735E-05
   71.4599991         2.12235063E-05
   71.6399994         2.21237970E-05
   71.8199997         2.29710458E-05
   72.0000000         2.37632794E-05
   72.1800003         2.44996518E-05
   72.3600006         2.51804358E-05
   72.5400009         2.58069540E-05
   72.7200012         2.63815127E-05
   72.9000015         2.69072898E-05
   73.0800018         2.73882124E-05
   73.2600021         2.78288207E-05
   73.4400024         2.82341098E-05
   73.6200027         2.86093746E-05
   73.8000031         2.89600666E-05
   73.9800034         2.92916266E-05
   74.1600037         2.96093513E-05
   74.3399963         2.99182702E-05
   74.5199966         3.02230455E-05
   74.6999969         3.05278772E-05
   74.8799973         3.08364506E-05
   75.0599976         3.11519034E-05
   75.2399979         3.14768040E-05
   75.4199982         3.18131788E-05
   75.5999985         3.21625157E-05
   75.7799988         3.25258297E-05
   75.9599991         3.29036884E-05
   76.1399994         3.32962882E-05
   76.3199997         3.37035090E-05
   76.5000000         3.41249470E-05
   76.6800003         3.45599874E-05
   76.8600006         3.50078153E-05
   77.0400009         3.54674521E-05
   77.2200012         3.59377773E-05
   77.4000015         3.64175175E-05
   77.5800018         3.69052432E-05
   77.7600021         3.73993535E-05
   77.9400024         3.78980440E-05
   78.1200027         3.83992665E-05
   78.3000031         3.89007037E-05
   78.4800034         3.93996961E-05
   78.6600037         3.98932207E-05
   78.8399963         4.03778395E-05
   79.0199966         4.08496599E-05
   79.1999969         4.13043090E-05
   79.3799973         4.17369265E-05
   79.5599976         4.21421682E-05
   79.7399979         4.25142425E-05
   79.9199982         4.28469502E-05
   80.0999985         4.31337648E-05
   80.2799988         4.33679270E-05
   80.4599991         4.35425609E-05
   80.6399994         4.36508017E-05
   80.8199997         4.36859336E-05
   81.0000000         4.36415285E-05
   81.1800003         4.35116126E-05
   81.3600006         4.32907800E-05
   81.5400009         4.29743341E-05
   81.7200012         4.25584258E-05
   81.9000015         4.20401193E-05
   82.0800018         4.14175047E-05
   82.2600021         4.06897525E-05
   82.4400024         3.98571610E-05
   82.6200027         3.89211782E-05
   82.8000031         3.78844052E-05
   82.9800034         3.67505891E-05
   83.1600037         3.55245647E-05
   83.3399963         3.42122257E-05
   83.5199966         3.28204333E-05
   83.6999969         3.13569362E-05
   83.8799973         2.98302602E-05
   84.0599976         2.82496021E-05
   84.2399979         2.66246916E-05
   84.4199982         2.49656696E-05
   84.5999985         2.32829334E-05
   84.7799988         2.15870041E-05
   84.9599991         1.98883845E-05
   85.1399994         1.81973974E-05
   85.3199997         1.65240817E-05
   85.5000000         1.48780318E-05
   85.6800003         1.32682926E-05
   85.8600006         1.17032441E-05
   86.0400009         1.01904971E-05
   86.2200012         8.73680165E-06
   86.4000015         7.34796413E-06
   86.5800018         6.02877753E-06
   86.7600021         4.78295260E-06
   86.9400024         3.61306297E-06
   87.1200027         2.52050972E-06
   87.3000031         1.50547828E-06
   87.4800034         5.66920903E-07
   87.6600037        -2.97449418E-07
   87.8399963        -1.09114558E-06
   88.0199966        -1.81887708E-06
   88.1999969        -2.48649508E-06
   88.3799973        -3.10091468E-06
   88.5599976        -3.67001599E-06
   88.7399979        -4.20252036E-06
   88.9199982        -4.70785335E-06
   89.0999985        -5.19598780E-06
   89.2799988        -5.67726829E-06
   89.4599991        -6.16223997E-06
   89.6399994        -6.66145706E-06
   89.8199997        -7.18529554E-06
   90.0000000        -7.74376076E-06
   90.1800003        -8.34630464E-06
   90.3600006        -9.00162831E-06
   90.5400009        -9.71750706E-06
   90.7200012        -1.05006120E-05
   90.9000015        -1.13563465E-05
   91.0800018        -1.22886877E-05
   91.2600021        -1.33000576E-05
   91.4400024        -1.43912157E-05
   91.6200027        -1.55611779E-05
   91.8000031        -1.68071711E-05
   91.9800034        -1.81246323E-05
   92.1600037        -1.95072480E-05
   92.3399963        -2.09470236E-05
   92.5199966        -2.24344221E-05
   92.6999969        -2.39585133E-05
   92.8799973        -2.55071664E-05
   93.0599976        -2.70672826E-05
   93.2399979        -2.86250252E-05
   93.4199982        -3.01660839E-05
   93.5999985        -3.16759324E-05
   93.7799988        -3.31400952E-05
   93.9599991        -3.45443950E-05
   94.1399994        -3.58752004E-05
   94.3199997        -3.71196475E-05
   94.5000000        -3.82658582E-05
   94.6800003        -3.93031114E-05
   94.8600006        -4.02220030E-05
   95.0400009        -4.10145622E-05
   95.2200012        -4.16743787E-05
   95.4000015        -4.21966215E-05
   95.5800018        -4.25781145E-05
   95.7600021        -4.28172934E-05
   95.9400024        -4.29142128E-05
   96.1200027        -4.28704625E-05
   96.3000031        -4.26891056E-05
   96.4800034        -4.23745551E-05
   96.6600037        -4.19324679E-05
   96.8399963        -4.13696325E-05
   97.0199966        -4.06938270E-05
   97.1999969        -3.99136989E-05
   97.3799973        -3.90386485E-05
   97.5599976        -3.80787205E-05
   97.7399979        -3.70445159E-05
   97.9199982        -3.59471269E-05
   98.0999985        -3.47980422E-05
   98.2799988        -3.36091289E-05
   98.4599991        -3.23925742E-05
   98.6399994        -3.11608492E-05
   98.8199997        -2.99266721E-05
   99.0000000        -2.87029598E-05
   99.1800003        -2.75027869E-05
   99.3600006        -2.63393140E-05
   99.5400009        -2.52257196E-05
   99.7200012        -2.41751077E-05
   99.9000015        -2.32004113E-05
   100.080002        -2.23142870E-05
   100.260002        -2.15289892E-05
   100.440002        -2.08562578E-05
   100.620003        -2.03071868E-05
