  -7.19999981         0.00000000    
  -7.01999998         0.00000000    
  -6.84000015        -7.32378568E-17
  -6.65999985        -3.89193243E-16
  -6.48000002        -1.22092165E-15
  -6.30000019        -2.91111714E-15
  -6.11999989        -5.78479500E-15
  -5.94000006        -1.00243080E-14
  -5.76000023        -1.55456651E-14
  -5.57999992        -2.19161356E-14
  -5.40000010        -2.83268485E-14
  -5.21999979        -3.35949394E-14
  -5.03999996        -3.61422962E-14
  -4.86000013        -3.39023582E-14
  -4.67999983        -2.41418942E-14
  -4.50000000        -3.23006676E-15
  -4.32000017         3.35856492E-14
  -4.13999987         9.23575384E-14
  -3.96000004         1.80584063E-13
  -3.77999997         3.07409588E-13
  -3.59999990         4.84002215E-13
  -3.42000008         7.24209158E-13
  -3.24000001         1.04552977E-12
  -3.05999994         1.47033080E-12
  -2.88000011         2.02716359E-12
  -2.70000005         2.75200045E-12
  -2.51999998         3.68928716E-12
  -2.33999991         4.89278973E-12
  -2.16000009         6.42631391E-12
  -1.98000002         8.36451828E-12
  -1.79999995         1.07938936E-11
  -1.62000000         1.38141226E-11
  -1.44000006         1.75395913E-11
  -1.25999999         2.21008836E-11
  -1.08000004         2.76459289E-11
 -0.899999976         3.43404333E-11
 -0.720000029         4.23675123E-11
 -0.540000021         5.19263174E-11
 -0.360000014         6.32303168E-11
 -0.180000007         7.65050662E-11
   0.00000000         9.19859397E-11
  0.180000007         1.09916042E-10
  0.360000014         1.30543326E-10
  0.540000021         1.54117358E-10
  0.720000029         1.80884988E-10
  0.899999976         2.11084941E-10
   1.08000004         2.44941151E-10
   1.25999999         2.82656065E-10
   1.44000006         3.24403032E-10
   1.62000000         3.70320469E-10
   1.79999995         4.20505686E-10
   1.98000002         4.75010364E-10
   2.16000009         5.33837197E-10
   2.33999991         5.96936167E-10
   2.51999998         6.64201527E-10
   2.70000005         7.35469463E-10
   2.88000011         8.10514322E-10
   3.05999994         8.89047280E-10
   3.24000001         9.70714953E-10
   3.42000008         1.05510090E-09
   3.59999990         1.14173127E-09
   3.77999997         1.23008148E-09
   3.96000004         1.31958711E-09
   4.13999987         1.40965484E-09
   4.32000017         1.49966883E-09
   4.50000000         1.58899316E-09
   4.67999983         1.67696801E-09
   4.86000013         1.76290049E-09
   5.03999996         1.84605708E-09
   5.21999979         1.92566363E-09
   5.40000010         2.00092010E-09
   5.57999992         2.07103290E-09
   5.76000023         2.13526685E-09
   5.94000006         2.19300156E-09
   6.11999989         2.24377539E-09
   6.30000019         2.28729391E-09
   6.48000002         2.32338482E-09
   6.65999985         2.35189757E-09
   6.84000015         2.37256526E-09
   7.01999998         2.38486830E-09
   7.19999981         2.38796027E-09
   7.38000011         2.38070030E-09
   7.55999994         2.36182340E-09
   7.73999977         2.33023689E-09
   7.92000008         2.28538077E-09
   8.10000038         2.22755214E-09
   8.27999973         2.15808371E-09
   8.46000004         2.07927031E-09
   8.64000034         1.99400585E-09
   8.81999969         1.90514893E-09
   9.00000000         1.81473980E-09
   9.18000031         1.72323344E-09
   9.35999966         1.62896285E-09
   9.53999996         1.52801938E-09
   9.72000027         1.41466061E-09
   9.89999962         1.28225142E-09
   10.0799999         1.12460441E-09
   10.2600002         9.37488087E-10
   10.4399996         7.19988680E-10
   10.6199999         4.75425699E-10
   10.8000002         2.11589288E-10
   10.9799995        -5.97873556E-11
   11.1599998        -3.24250460E-10
   11.3400002        -5.66307223E-10
   11.5200005        -7.71216924E-10
   11.6999998        -9.26495769E-10
   11.8800001        -1.02277176E-09
   12.0600004        -1.05373832E-09
   12.2399998        -1.01509634E-09
   12.4200001        -9.02550146E-10
   12.6000004        -7.09052039E-10
   12.7799997        -4.21570140E-10
   12.9600000        -1.76933416E-11
   13.1400003         5.37692446E-10
   13.3199997         1.29546707E-09
   13.5000000         2.32503861E-09
   13.6800003         3.71679576E-09
   13.8599997         5.58431479E-09
   14.0400000         8.06634226E-09
   14.2200003         1.13284990E-08
   14.3999996         1.55645683E-08
   14.5799999         2.09971418E-08
   14.7600002         2.78773147E-08
   14.9399996         3.64832111E-08
   15.1199999         4.71170978E-08
   15.3000002         6.01011365E-08
   15.4799995         7.57717302E-08
   15.6599998         9.44728100E-08
   15.8400002         1.16548073E-07
   16.0200005         1.42332439E-07
   16.2000008         1.72142592E-07
   16.3799992         2.06266606E-07
   16.5599995         2.44952275E-07
   16.7399998         2.88394233E-07
   16.9200001         3.36719665E-07
   17.1000004         3.89973280E-07
   17.2800007         4.48101872E-07
   17.4599991         5.10939969E-07
   17.6399994         5.78197330E-07
   17.8199997         6.49450556E-07
   18.0000000         7.24138886E-07
   18.1800003         8.01566216E-07
   18.3600006         8.80909624E-07
   18.5400009         9.61234264E-07
   18.7199993         1.04151377E-06
   18.8999996         1.12065629E-06
   19.0799999         1.19753281E-06
   19.2600002         1.27100759E-06
   19.4400005         1.33996900E-06
   19.6200008         1.40335760E-06
   19.7999992         1.46019295E-06
   19.9799995         1.50959556E-06
   20.1599998         1.55080522E-06
   20.3400002         1.58319517E-06
   20.5200005         1.60628144E-06
   20.7000008         1.61972798E-06
   20.8799992         1.62334914E-06
   21.0599995         1.61710693E-06
   21.2399998         1.60110756E-06
   21.4200001         1.57559327E-06
   21.6000004         1.54093505E-06
   21.7800007         1.49762195E-06
   21.9599991         1.44625255E-06
   22.1399994         1.38752387E-06
   22.3199997         1.32222215E-06
   22.5000000         1.25121289E-06
   22.6800003         1.17543027E-06
   22.8600006         1.09586620E-06
   23.0400009         1.01355738E-06
   23.2199993         9.29572536E-07
   23.3999996         8.44996293E-07
   23.5799999         7.60914190E-07
   23.7600002         6.78395793E-07
   23.9400005         5.98479346E-07
   24.1200008         5.22157166E-07
   24.2999992         4.50362421E-07
   24.4799995         3.83958024E-07
   24.6599998         3.23726482E-07
   24.8400002         2.70361710E-07
   25.0200005         2.24460962E-07
   25.2000008         1.86517227E-07
   25.3799992         1.56911739E-07
   25.5599995         1.35906660E-07
   25.7399998         1.23637861E-07
   25.9200001         1.20109405E-07
   26.1000004         1.25189189E-07
   26.2800007         1.38606907E-07
   26.4599991         1.59955107E-07
   26.6399994         1.88692979E-07
   26.8199997         2.24153624E-07
   27.0000000         2.65554121E-07
   27.1800003         3.12007955E-07
   27.3600006         3.62539879E-07
   27.5400009         4.16101955E-07
   27.7199993         4.71590965E-07
   27.8999996         5.27867257E-07
   28.0799999         5.83773726E-07
   28.2600002         6.38156166E-07
   28.4400005         6.89883962E-07
   28.6200008         7.37870664E-07
   28.7999992         7.81094911E-07
   28.9799995         8.18620776E-07
   29.1599998         8.49616242E-07
   29.3400002         8.73370823E-07
   29.5200005         8.89309149E-07
   29.7000008         8.97002337E-07
   29.8799992         8.96174186E-07
   30.0599995         8.86704072E-07
   30.2399998         8.68624454E-07
   30.4200001         8.42115071E-07
   30.6000004         8.07492256E-07
   30.7800007         7.65195693E-07
   30.9599991         7.15771648E-07
   31.1399994         6.59854265E-07
   31.3199997         5.98146755E-07
   31.5000000         5.31401270E-07
   31.6800003         4.60400969E-07
   31.8600006         3.85943565E-07
   32.0400009         3.08826515E-07
   32.2200012         2.29835706E-07
   32.4000015         1.49736110E-07
   32.5800018         6.92647433E-08
   32.7599983        -1.08742544E-08
   32.9399986        -9.00135362E-08
   33.1199989        -1.67524831E-07
   33.2999992        -2.42821130E-07
   33.4799995        -3.15358847E-07
   33.6599998        -3.84639947E-07
   33.8400002        -4.50215254E-07
   34.0200005        -5.11688484E-07
   34.2000008        -5.68722101E-07
   34.3800011        -6.21043910E-07
   34.5600014        -6.68453993E-07
   34.7400017        -7.10832978E-07
   34.9199982        -7.48149716E-07
   35.0999985        -7.80467190E-07
   35.2799988        -8.07946378E-07
   35.4599991        -8.30847000E-07
   35.6399994        -8.49524213E-07
   35.8199997        -8.64422304E-07
   36.0000000        -8.76063439E-07
   36.1800003        -8.85034638E-07
   36.3600006        -8.91972320E-07
   36.5400009        -8.97545135E-07
   36.7200012        -9.02436909E-07
   36.9000015        -9.07329422E-07
   37.0800018        -9.12885298E-07
   37.2599983        -9.19731690E-07
   37.4399986        -9.28443285E-07
   37.6199989        -9.39525762E-07
   37.7999992        -9.53398853E-07
   37.9799995        -9.70379006E-07
   38.1599998        -9.90663466E-07
   38.3400002        -1.01431442E-06
   38.5200005        -1.04124649E-06
   38.7000008        -1.07121753E-06
   38.8800011        -1.10382462E-06
   39.0600014        -1.13850433E-06
   39.2400017        -1.17454147E-06
   39.4199982        -1.21108110E-06
   39.5999985        -1.24714984E-06
   39.7799988        -1.28168153E-06
   39.9599991        -1.31355125E-06
   40.1399994        -1.34161303E-06
   40.3199997        -1.36474489E-06
   40.5000000        -1.38189728E-06
   40.6800003        -1.39214364E-06
   40.8600006        -1.39473116E-06
   41.0400009        -1.38912833E-06
   41.2200012        -1.37506572E-06
   41.4000015        -1.35256823E-06
   41.5800018        -1.32197476E-06
   41.7599983        -1.28394470E-06
   41.9399986        -1.23944938E-06
   42.1199989        -1.18975231E-06
   42.2999992        -1.13637452E-06
   42.4799995        -1.08105439E-06
   42.6599998        -1.02569811E-06
   42.8400002        -9.72329758E-07
   43.0200005        -9.23039295E-07
   43.2000008        -8.79930440E-07
   43.3800011        -8.45070247E-07
   43.5600014        -8.20439880E-07
   43.7400017        -8.07885442E-07
   43.9199982        -8.09069718E-07
   44.0999985        -8.25423399E-07
   44.2799988        -8.58097849E-07
   44.4599991        -9.07919230E-07
   44.6399994        -9.75347234E-07
   44.8199997        -1.06044047E-06
   45.0000000        -1.16283024E-06
   45.1800003        -1.28170529E-06
   45.3600006        -1.41580904E-06
   45.5400009        -1.56344811E-06
   45.7200012        -1.72251316E-06
   45.9000015        -1.89051104E-06
   46.0800018        -2.06460459E-06
   46.2599983        -2.24166206E-06
   46.4399986        -2.41831253E-06
   46.6199989        -2.59100489E-06
   46.7999992        -2.75607272E-06
   46.9799995        -2.90979733E-06
   47.1599998        -3.04847526E-06
   47.3400002        -3.16848309E-06
   47.5200005        -3.26633813E-06
   47.7000008        -3.33875732E-06
   47.8800011        -3.38271116E-06
   48.0600014        -3.39546705E-06
   48.2400017        -3.37462848E-06
   48.4199982        -3.31816454E-06
   48.5999985        -3.22443248E-06
   48.7799988        -3.09219308E-06
   48.9599991        -2.92062077E-06
   49.1399994        -2.70930832E-06
   49.3199997        -2.45827096E-06
   49.5000000        -2.16794592E-06
   49.6800003        -1.83918917E-06
   49.8600006        -1.47327557E-06
   50.0400009        -1.07188680E-06
   50.2200012        -6.37104620E-07
   50.4000015        -1.71392443E-07
   50.5800018         3.22424569E-07
   50.7599983         8.41186136E-07
   50.9399986         1.38143059E-06
   51.1199989         1.93943220E-06
   51.2999992         2.51124493E-06
   51.4799995         3.09274810E-06
   51.6599998         3.67969665E-06
   51.8400002         4.26777433E-06
   52.0200005         4.85265173E-06
   52.2000008         5.43004535E-06
   52.3800011         5.99577425E-06
   52.5600014         6.54582345E-06
   52.7400017         7.07640675E-06
   52.9199982         7.58402484E-06
   53.0999985         8.06552453E-06
   53.2799988         8.51815275E-06
   53.4599991         8.93959441E-06
   53.6399994         9.32801686E-06
   53.8199997         9.68208133E-06
   54.0000000         1.00009520E-05
   54.1800003         1.02842905E-05
   54.3600006         1.05322288E-05
   54.5400009         1.07453398E-05
   54.7200012         1.09245866E-05
   54.9000015         1.10712790E-05
   55.0800018         1.11870131E-05
   55.2599983         1.12736161E-05
   55.4399986         1.13330880E-05
   55.6199989         1.13675433E-05
   55.7999992         1.13791557E-05
   55.9799995         1.13701062E-05
   56.1599998         1.13425340E-05
   56.3400002         1.12984972E-05
   56.5200005         1.12399321E-05
   56.7000008         1.11686277E-05
   56.8800011         1.10862038E-05
   57.0600014         1.09941002E-05
   57.2400017         1.08935728E-05
   57.4199982         1.07857013E-05
   57.5999985         1.06713969E-05
   57.7799988         1.05514227E-05
   57.9599991         1.04264191E-05
   58.1399994         1.02969307E-05
   58.3199997         1.01634259E-05
   58.5000000         1.00263323E-05
   58.6800003         9.88604461E-06
   58.8600006         9.74294744E-06
   59.0400009         9.59742101E-06
   59.2200012         9.44984731E-06
   59.4000015         9.30061378E-06
   59.5800018         9.15011242E-06
   59.7599983         8.99873703E-06
   59.9399986         8.84687870E-06
   60.1199989         8.69491487E-06
   60.2999992         8.54320024E-06
   60.4799995         8.39205404E-06
   60.6599998         8.24174913E-06
   60.8400002         8.09249923E-06
   61.0200005         7.94445077E-06
   61.2000008         7.79768197E-06
   61.3800011         7.65220921E-06
   61.5600014         7.50799882E-06
   61.7400017         7.36498805E-06
   61.9199982         7.22311506E-06
   62.0999985         7.08234938E-06
   62.2799988         6.94272512E-06
   62.4599991         6.80437506E-06
   62.6399994         6.66755841E-06
   62.8199997         6.53268216E-06
   63.0000000         6.40032067E-06
   63.1800003         6.27122517E-06
   63.3600006         6.14630790E-06
   63.5400009         6.02663749E-06
   63.7200012         5.91340813E-06
   63.9000015         5.80790856E-06
   64.0800018         5.71147484E-06
   64.2600021         5.62544574E-06
   64.4400024         5.55111365E-06
   64.6200027         5.48965909E-06
   64.8000031         5.44209206E-06
   64.9800034         5.40918427E-06
   65.1600037         5.39140183E-06
   65.3399963         5.38883387E-06
   65.5199966         5.40114115E-06
   65.6999969         5.42750695E-06
   65.8799973         5.46659521E-06
   66.0599976         5.51653375E-06
   66.2399979         5.57490694E-06
   66.4199982         5.63876711E-06
   66.5999985         5.70465545E-06
   66.7799988         5.76864704E-06
   66.9599991         5.82640723E-06
   67.1399994         5.87326304E-06
   67.3199997         5.90429681E-06
   67.5000000         5.91444450E-06
   67.6800003         5.89861293E-06
   67.8600006         5.85180123E-06
   68.0400009         5.76922639E-06
   68.2200012         5.64645097E-06
   68.4000015         5.47949776E-06
   68.5800018         5.26497070E-06
   68.7600021         5.00015267E-06
   68.9400024         4.68309099E-06
   69.1200027         4.31266108E-06
   69.3000031         3.88861145E-06
   69.4800034         3.41158170E-06
   69.6600037         2.88309479E-06
   69.8399963         2.30552541E-06
   70.0199966         1.68205190E-06
   70.1999969         1.01657599E-06
   70.3799973         3.13635269E-07
   70.5599976        -4.21697337E-07
   70.7399979        -1.18392734E-06
   70.9199982        -1.96725796E-06
   71.0999985        -2.76572086E-06
   71.2799988        -3.57330782E-06
   71.4599991        -4.38410370E-06
   71.6399994        -5.19242394E-06
   71.8199997        -5.99294754E-06
   72.0000000        -6.78084234E-06
   72.1800003        -7.55187193E-06
   72.3600006        -8.30249974E-06
   72.5400009        -9.02996908E-06
   72.7200012        -9.73235728E-06
   72.9000015        -1.04086139E-05
   73.0800018        -1.10585779E-05
   73.2600021        -1.16829688E-05
   73.4400024        -1.22833408E-05
   73.6200027        -1.28620395E-05
   73.8000031        -1.34221173E-05
   73.9800034        -1.39672402E-05
   74.1600037        -1.45015865E-05
   74.3399963        -1.50297219E-05
   74.5199966        -1.55564849E-05
   74.6999969        -1.60868458E-05
   74.8799973        -1.66257923E-05
   75.0599976        -1.71781940E-05
   75.2399979        -1.77486800E-05
   75.4199982        -1.83415214E-05
   75.5999985        -1.89605289E-05
   75.7799988        -1.96089459E-05
   75.9599991        -2.02893752E-05
   76.1399994        -2.10036960E-05
   76.3199997        -2.17530196E-05
   76.5000000        -2.25376443E-05
   76.6800003        -2.33570318E-05
   76.8600006        -2.42098049E-05
   77.0400009        -2.50937428E-05
   77.2200012        -2.60058114E-05
   77.4000015        -2.69421907E-05
   77.5800018        -2.78983352E-05
   77.7600021        -2.88690371E-05
   77.9400024        -2.98484993E-05
   78.1200027        -3.08304188E-05
   78.3000031        -3.18080893E-05
   78.4800034        -3.27744929E-05
   78.6600037        -3.37223901E-05
   78.8399963        -3.46444103E-05
   79.0199966        -3.55331540E-05
   79.1999969        -3.63812505E-05
   79.3799973        -3.71814349E-05
   79.5599976        -3.79266021E-05
   79.7399979        -3.86098654E-05
   79.9199982        -3.92245856E-05
   80.0999985        -3.97644144E-05
   80.2799988        -4.02233200E-05
   80.4599991        -4.05956271E-05
   80.6399994        -4.08760534E-05
   80.8199997        -4.10597349E-05
   81.0000000        -4.11422698E-05
   81.1800003        -4.11197543E-05
   81.3600006        -4.09888489E-05
   81.5400009        -4.07467996E-05
   81.7200012        -4.03914964E-05
   81.9000015        -3.99215023E-05
   82.0800018        -3.93361115E-05
   82.2600021        -3.86353640E-05
   82.4400024        -3.78200966E-05
   82.6200027        -3.68919646E-05
   82.8000031        -3.58534562E-05
   82.9800034        -3.47079149E-05
   83.1600037        -3.34595170E-05
   83.3399963        -3.21132684E-05
   83.5199966        -3.06749607E-05
   83.6999969        -2.91511333E-05
   83.8799973        -2.75489892E-05
   84.0599976        -2.58763357E-05
   84.2399979        -2.41414891E-05
   84.4199982        -2.23531697E-05
   84.5999985        -2.05204014E-05
   84.7799988        -1.86523939E-05
   84.9599991        -1.67584221E-05
   85.1399994        -1.48477093E-05
   85.3199997        -1.29293094E-05
   85.5000000        -1.10119890E-05
   85.6800003        -9.10412746E-06
   85.8600006        -7.21362358E-06
   86.0400009        -5.34780565E-06
   86.2200012        -3.51336621E-06
   86.4000015        -1.71631120E-06
   86.5800018         3.80740062E-08
   86.7600021         1.74524484E-06
   86.9400024         3.40138968E-06
   87.1200027         5.00341230E-06
   87.3000031         6.54889436E-06
   87.4800034         8.03604053E-06
   87.6600037         9.46361979E-06
   87.8399963         1.08308950E-05
   88.0199966         1.21375442E-05
   88.1999969         1.33835838E-05
   88.3799973         1.45692902E-05
   88.5599976         1.56951173E-05
   88.7399979         1.67616345E-05
   88.9199982         1.77694492E-05
   89.0999985         1.87191563E-05
   89.2799988         1.96112996E-05
   89.4599991         2.04463340E-05
   89.6399994         2.12246341E-05
   89.8199997         2.19464873E-05
   90.0000000         2.26121374E-05
   90.1800003         2.32218226E-05
   90.3600006         2.37758522E-05
   90.5400009         2.42746464E-05
   90.7200012         2.47188345E-05
   90.9000015         2.51093115E-05
   91.0800018         2.54473180E-05
   91.2600021         2.57344927E-05
   91.4400024         2.59729295E-05
   91.6200027         2.61652203E-05
   91.8000031         2.63144811E-05
   91.9800034         2.64243536E-05
   92.1600037         2.64990049E-05
   92.3399963         2.65431026E-05
   92.5199966         2.65617800E-05
   92.6999969         2.65605777E-05
   92.8799973         2.65454019E-05
   93.0599976         2.65224553E-05
   93.2399979         2.64981682E-05
   93.4199982         2.64791342E-05
   93.5999985         2.64720184E-05
   93.7799988         2.64834925E-05
   93.9599991         2.65201434E-05
   94.1399994         2.65883882E-05
   94.3199997         2.66944062E-05
   94.5000000         2.68440490E-05
   94.6800003         2.70427627E-05
   94.8600006         2.72955112E-05
   95.0400009         2.76066930E-05
   95.2200012         2.79800734E-05
   95.4000015         2.84186935E-05
   95.5800018         2.89248019E-05
   95.7600021         2.94997844E-05
   95.9400024         3.01441014E-05
   96.1200027         3.08572307E-05
   96.3000031         3.16376463E-05
   96.4800034         3.24827779E-05
   96.6600037         3.33890130E-05
   96.8399963         3.43517058E-05
   97.0199966         3.53652176E-05
   97.1999969         3.64229527E-05
   97.3799973         3.75174350E-05
   97.5599976         3.86404099E-05
   97.7399979         3.97829608E-05
   97.9199982         4.09356289E-05
   98.0999985         4.20885735E-05
   98.2799988         4.32317393E-05
   98.4599991         4.43550234E-05
   98.6399994         4.54484507E-05
   98.8199997         4.65023477E-05
   99.0000000         4.75074958E-05
   99.1800003         4.84553238E-05
   99.3600006         4.93380430E-05
   99.5400009         5.01487957E-05
   99.7200012         5.08817939E-05
   99.9000015         5.15324173E-05
   100.080002         5.20972862E-05
   100.260002         5.25743199E-05
   100.440002         5.29627505E-05
   100.620003         5.32631057E-05
