  -7.19999981       0.00000000    
  -7.01999998       0.00000000    
  -6.84000015       3.87254596E-17
  -6.65999985       1.68763241E-16
  -6.48000002       4.07128715E-16
  -6.30000019       6.86083452E-16
  -6.11999989       8.28079950E-16
  -5.94000006       5.55634185E-16
  -5.76000023      -4.68508852E-16
  -5.57999992      -2.58452072E-15
  -5.40000010      -6.07650467E-15
  -5.21999979      -1.11243954E-14
  -5.03999996      -1.77817677E-14
  -4.86000013      -2.60000473E-14
  -4.67999983      -3.57213343E-14
  -4.50000000      -4.70517722E-14
  -4.32000017      -6.05034008E-14
  -4.13999987      -7.72644210E-14
  -3.96000004      -9.94414037E-14
  -3.77999997      -1.30222574E-13
  -3.59999990      -1.73939056E-13
  -3.42000008      -2.36038104E-13
  -3.24000001      -3.23013995E-13
  -3.05999994      -4.42354378E-13
  -2.88000011      -6.02561295E-13
  -2.70000005      -8.13296587E-13
  -2.51999998      -1.08569577E-12
  -2.33999991      -1.43288658E-12
  -2.16000009      -1.87073187E-12
  -1.98000002      -2.41879455E-12
  -1.79999995      -3.10147654E-12
  -1.62000000      -3.94926236E-12
  -1.44000006      -4.99997309E-12
  -1.25999999      -6.29994754E-12
  -1.08000004      -7.90510105E-12
 -0.899999976      -9.88184621E-12
 -0.720000029      -1.23078856E-11
 -0.540000021      -1.52729270E-11
 -0.360000014      -1.88793772E-11
 -0.180000007      -2.32430776E-11
   4.44089210E-16  -2.84941515E-11
  0.180000007      -3.47780450E-11
  0.360000014      -4.22567155E-11
  0.540000021      -5.11099184E-11
  0.720000029      -6.15363940E-11
  0.899999976      -7.37547384E-11
   1.08000004      -8.80036460E-11
   1.25999999      -1.04541313E-10
   1.44000006      -1.23643762E-10
   1.62000000      -1.45601989E-10
   1.79999995      -1.70717787E-10
   1.98000002      -1.99298439E-10
   2.16000009      -2.31650102E-10
   2.33999991      -2.68070149E-10
   2.51999998      -3.08838871E-10
   2.70000005      -3.54210578E-10
   2.88000011      -4.04404371E-10
   3.05999994      -4.59594918E-10
   3.24000001      -5.19903176E-10
   3.42000008      -5.85386850E-10
   3.59999990      -6.56030841E-10
   3.77999997      -7.31737115E-10
   3.96000004      -8.12314271E-10
   4.13999987      -8.97466546E-10
   4.32000017      -9.86781989E-10
   4.50000000      -1.07972120E-09
   4.67999983      -1.17560450E-09
   4.86000013      -1.27360145E-09
   5.03999996      -1.37272071E-09
   5.21999979      -1.47180412E-09
   5.40000010      -1.56952373E-09
   5.57999992      -1.66438530E-09
   5.76000023      -1.75473480E-09
   5.94000006      -1.83877180E-09
   6.11999989      -1.91456384E-09
   6.30000019      -1.98006367E-09
   6.48000002      -2.03312700E-09
   6.65999985      -2.07152806E-09
   6.84000015      -2.09297868E-09
   7.01999998      -2.09514295E-09
   7.19999981      -2.07565987E-09
   7.38000011      -2.03216333E-09
   7.55999994      -1.96230876E-09
   7.73999977      -1.86380200E-09
   7.92000008      -1.73442971E-09
   8.10000038      -1.57209301E-09
   8.27999973      -1.37484069E-09
   8.46000004      -1.14090315E-09
   8.64000034      -8.68725925E-10
   8.81999969      -5.57000890E-10
   9.00000000      -2.04696010E-10
   9.18000031       1.88920019E-10
   9.35999966       6.24258478E-10
   9.53999996       1.10140153E-09
   9.72000027       1.62010294E-09
   9.89999962       2.17979879E-09
   10.0799999       2.77963008E-09
   10.2600002       3.41846951E-09
   10.4399996       4.09494572E-09
   10.6199999       4.80745665E-09
   10.8000002       5.55416602E-09
   10.9799995       6.33296882E-09
   11.1599998       7.14143411E-09
   11.3400002       7.97672595E-09
   11.5200005       8.83551809E-09
   11.6999998       9.71392033E-09
   11.8800001       1.06074376E-08
   12.0600004       1.15109691E-08
   12.2399998       1.24188668E-08
   12.4200001       1.33250353E-08
   12.6000004       1.42230494E-08
   12.7799997       1.51062594E-08
   12.9600000       1.59678351E-08
   13.1400003       1.68007013E-08
   13.3199997       1.75973351E-08
   13.5000000       1.83493984E-08
   13.6800003       1.90472527E-08
   13.8599997       1.96793444E-08
   14.0400000       2.02315942E-08
   14.2200003       2.06868371E-08
   14.3999996       2.10244160E-08
   14.5799999       2.12199911E-08
   14.7600002       2.12456150E-08
   14.9399996       2.10700737E-08
   15.1199999       2.06594244E-08
   15.3000002       1.99776906E-08
   15.4799995       1.89875955E-08
   15.6599998       1.76512529E-08
   15.8400002       1.59307234E-08
   16.0200005       1.37884637E-08
   16.2000008       1.11876117E-08
   16.3799992       8.09222733E-09
   16.5599995       4.46757298E-09
   16.7399998       2.80525297E-10
   16.9200001      -4.49974946E-09
   17.1000004      -9.90078686E-09
   17.2800007      -1.59455134E-08
   17.4599991      -2.26506227E-08
   17.6399994      -3.00247223E-08
   17.8199997      -3.80665419E-08
   18.0000000      -4.67631445E-08
   18.1800003      -5.60885205E-08
   18.3600006      -6.60026984E-08
   18.5400009      -7.64513501E-08
   18.7199993      -8.73660895E-08
   18.8999996      -9.86653390E-08
   19.0799999      -1.10255868E-07
   19.2600002      -1.22034621E-07
   19.4400005      -1.33890865E-07
   19.6200008      -1.45708484E-07
   19.7999992      -1.57368120E-07
   19.9799995      -1.68749210E-07
   20.1599998      -1.79731657E-07
   20.3400002      -1.90197426E-07
   20.5200005      -2.00031536E-07
   20.7000008      -2.09123300E-07
   20.8799992      -2.17367116E-07
   21.0599995      -2.24663651E-07
   21.2399998      -2.30920890E-07
   21.4200001      -2.36055698E-07
   21.6000004      -2.39995472E-07
   21.7800007      -2.42680073E-07
   21.9599991      -2.44063926E-07
   22.1399994      -2.44117729E-07
   22.3199997      -2.42830652E-07
   22.5000000      -2.40211108E-07
   22.6800003      -2.36287619E-07
   22.8600006      -2.31108444E-07
   23.0400009      -2.24740177E-07
   23.2199993      -2.17265551E-07
   23.3999996      -2.08780293E-07
   23.5799999      -1.99388978E-07
   23.7600002      -1.89200350E-07
   23.9400005      -1.78322566E-07
   24.1200008      -1.66857959E-07
   24.2999992      -1.54897990E-07
   24.4799995      -1.42518829E-07
   24.6599998      -1.29776566E-07
   24.8400002      -1.16704015E-07
   25.0200005      -1.03307357E-07
   25.2000008      -8.95634926E-08
   25.3799992      -7.54184555E-08
   25.5599995      -6.07861566E-08
   25.7399998      -4.55482834E-08
   25.9200001      -2.95550944E-08
   26.1000004      -1.26271189E-08
   26.2800007       5.44154544E-09
   26.4599991       2.48787693E-08
   26.6399994       4.59284131E-08
   26.8199997       6.88427022E-08
   27.0000000       9.38735099E-08
   27.1800003       1.21262659E-07
   27.3600006       1.51231006E-07
   27.5400009       1.83968069E-07
   27.7199993       2.19621398E-07
   27.8999996       2.58287287E-07
   28.0799999       3.00002426E-07
   28.2600002       3.44738140E-07
   28.4400005       3.92396259E-07
   28.6200008       4.42807504E-07
   28.7999992       4.95733048E-07
   28.9799995       5.50867981E-07
   29.1599998       6.07847198E-07
   29.3400002       6.66253300E-07
   29.5200005       7.25625910E-07
   29.7000008       7.85473219E-07
   29.8799992       8.45283353E-07
   30.0599995       9.04537046E-07
   30.2399998       9.62720947E-07
   30.4200001       1.01934029E-06
   30.6000004       1.07393191E-06
   30.7800007       1.12607654E-06
   30.9599991       1.17540969E-06
   31.1399994       1.22163169E-06
   31.3199997       1.26451448E-06
   31.5000000       1.30390754E-06
   31.6800003       1.33973890E-06
   31.8600006       1.37201459E-06
   32.0400009       1.40081306E-06
   32.2200012       1.42627687E-06
   32.4000015       1.44860144E-06
   32.5800018       1.46802029E-06
   32.7599983       1.48478966E-06
   32.9399986       1.49917059E-06
   33.1199989       1.51141307E-06
   33.2999992       1.52173959E-06
   33.4799995       1.53033170E-06
   33.6599998       1.53731867E-06
   33.8400002       1.54276984E-06
   34.0200005       1.54669056E-06
   34.2000008       1.54902159E-06
   34.3800011       1.54964107E-06
   34.5600014       1.54837085E-06
   34.7400017       1.54498434E-06
   34.9199982       1.53921610E-06
   35.0999985       1.53077349E-06
   35.2799988       1.51934807E-06
   35.4599991       1.50462779E-06
   35.6399994       1.48630852E-06
   35.8199997       1.46410491E-06
   36.0000000       1.43775969E-06
   36.1800003       1.40705151E-06
   36.3600006       1.37180041E-06
   36.5400009       1.33187189E-06
   36.7200012       1.28717647E-06
   36.9000015       1.23766790E-06
   37.0800018       1.18333799E-06
   37.2599983       1.12420787E-06
   37.4399986       1.06031678E-06
   37.6199989       9.91708930E-07
   37.7999992       9.18418380E-07
   37.9799995       8.40453708E-07
   38.1599998       7.57781947E-07
   38.3400002       6.70315387E-07
   38.5200005       5.77900096E-07
   38.7000008       4.80308813E-07
   38.8800011       3.77238848E-07
   39.0600014       2.68314835E-07
   39.2400017       1.53098696E-07
   39.4199982       3.11051629E-08
   39.5999985      -9.81760806E-08
   39.7799988      -2.35252770E-07
   39.9599991      -3.80597783E-07
   40.1399994      -5.34612980E-07
   40.3199997      -6.97591361E-07
   40.5000000      -8.69677990E-07
   40.6800003      -1.05083222E-06
   40.8600006      -1.24079270E-06
   41.0400009      -1.43904583E-06
   41.2200012      -1.64480116E-06
   41.4000015      -1.85697172E-06
   41.5800018      -2.07416406E-06
   41.7599983      -2.29467537E-06
   41.9399986      -2.51650158E-06
   42.1199989      -2.73735373E-06
   42.2999992      -2.95468521E-06
   42.4799995      -3.16572846E-06
   42.6599998      -3.36754124E-06
   42.8400002      -3.55706084E-06
   43.0200005      -3.73116677E-06
   43.2000008      -3.88674880E-06
   43.3800011      -4.02077967E-06
   43.5600014      -4.13038879E-06
   43.7400017      -4.21293544E-06
   43.9199982      -4.26608040E-06
   44.0999985      -4.28784870E-06
   44.2799988      -4.27668601E-06
   44.4599991      -4.23150414E-06
   44.6399994      -4.15171326E-06
   44.8199997      -4.03724061E-06
   45.0000000      -3.88853459E-06
   45.1800003      -3.70655721E-06
   45.3600006      -3.49275751E-06
   45.5400009      -3.24903772E-06
   45.7200012      -2.97770544E-06
   45.9000015      -2.68141753E-06
   46.0800018      -2.36311712E-06
   46.2599983      -2.02596539E-06
   46.4399986      -1.67327153E-06
   46.6199989      -1.30842113E-06
   46.7999992      -9.34808099E-07
   46.9799995      -5.55769532E-07
   47.1599998      -1.74526420E-07
   47.3400002       2.05867849E-07
   47.5200005       5.82569953E-07
   47.7000008       9.52980884E-07
   47.8800011       1.31476918E-06
   48.0600014       1.66588256E-06
   48.2400017       2.00455088E-06
   48.4199982       2.32928051E-06
   48.5999985       2.63883908E-06
   48.7799988       2.93223184E-06
   48.9599991       3.20867662E-06
   49.1399994       3.46757156E-06
   49.3199997       3.70846374E-06
   49.5000000       3.93101482E-06
   49.6800003       4.13496900E-06
   49.8600006       4.32012848E-06
   50.0400009       4.48632272E-06
   50.2200012       4.63339347E-06
   50.4000015       4.76117975E-06
   50.5800018       4.86950921E-06
   50.7599983       4.95819404E-06
   50.9399986       5.02703642E-06
   51.1199989       5.07583081E-06
   51.2999992       5.10437576E-06
   51.4799995       5.11248481E-06
   51.6599998       5.09999518E-06
   51.8400002       5.06677907E-06
   52.0200005       5.01275008E-06
   52.2000008       4.93786638E-06
   52.3800011       4.84213342E-06
   52.5600014       4.72559759E-06
   52.7400017       4.58834393E-06
   52.9199982       4.43048430E-06
   53.0999985       4.25214739E-06
   53.2799988       4.05346691E-06
   53.4599991       3.83456836E-06
   53.6399994       3.59555565E-06
   53.8199997       3.33650109E-06
   54.0000000       3.05743538E-06
   54.1800003       2.75833668E-06
   54.3600006       2.43913109E-06
   54.5400009       2.09968698E-06
   54.7200012       1.73981800E-06
   54.9000015       1.35929213E-06
   55.0800018       9.57846169E-07
   55.2599983       5.35201082E-07
   55.4399986       9.10903424E-08
   55.6199989      -3.74713949E-07
   55.7999992      -8.62365766E-07
   55.9799995      -1.37191273E-06
   56.1599998      -1.90325352E-06
   56.3400002      -2.45611000E-06
   56.5200005      -3.02998774E-06
   56.7000008      -3.62415540E-06
   56.8800011      -4.23761639E-06
   57.0600014      -4.86909767E-06
   57.2400017      -5.51704170E-06
   57.4199982      -6.17960904E-06
   57.5999985      -6.85468513E-06
   57.7799988      -7.53989934E-06
   57.9599991      -8.23264782E-06
   58.1399994      -8.93012202E-06
   58.3199997      -9.62934791E-06
   58.5000000      -1.03272278E-05
   58.6800003      -1.10205801E-05
   58.8600006      -1.17061954E-05
   59.0400009      -1.23808813E-05
   59.2200012      -1.30415128E-05
   59.4000015      -1.36850913E-05
   59.5800018      -1.43087873E-05
   59.7599983      -1.49099906E-05
   59.9399986      -1.54863556E-05
   60.1199989      -1.60358359E-05
   60.2999992      -1.65567235E-05
   60.4799995      -1.70476760E-05
   60.6599998      -1.75077239E-05
   60.8400002      -1.79362996E-05
   61.0200005      -1.83332286E-05
   61.2000008      -1.86987236E-05
   61.3800011      -1.90333703E-05
   61.5600014      -1.93381093E-05
   61.7400017      -1.96141918E-05
   61.9199982      -1.98631424E-05
   62.0999985      -2.00867125E-05
   62.2799988      -2.02868214E-05
   62.4599991      -2.04654862E-05
   62.6399994      -2.06247769E-05
   62.8199997      -2.07667290E-05
   63.0000000      -2.08932888E-05
   63.1800003      -2.10062444E-05
   63.3600006      -2.11071565E-05
   63.5400009      -2.11973111E-05
   63.7200012      -2.12776486E-05
   63.9000015      -2.13487256E-05
   64.0800018      -2.14106731E-05
   64.2600021      -2.14631527E-05
   64.4400024      -2.15053460E-05
   64.6200027      -2.15359323E-05
   64.8000031      -2.15530927E-05
   64.9800034      -2.15545224E-05
   65.1600037      -2.15374621E-05
   65.3399963      -2.14987303E-05
   65.5199966      -2.14347911E-05
   65.6999969      -2.13418170E-05
   65.8799973      -2.12157702E-05
   66.0599976      -2.10524904E-05
   66.2399979      -2.08477868E-05
   66.4199982      -2.05975339E-05
   66.5999985      -2.02977790E-05
   66.7799988      -1.99448241E-05
   66.9599991      -1.95353241E-05
   67.1399994      -1.90663650E-05
   67.3199997      -1.85355439E-05
   67.5000000      -1.79410308E-05
   67.6800003      -1.72816290E-05
   67.8600006      -1.65568126E-05
   68.0400009      -1.57667637E-05
   68.2200012      -1.49123771E-05
   68.4000015      -1.39952735E-05
   68.5800018      -1.30177796E-05
   68.7600021      -1.19828883E-05
   68.9400024      -1.08942195E-05
   69.1200027      -9.75595231E-06
   69.3000031      -8.57275336E-06
   69.4800034      -7.34968717E-06
   69.6600037      -6.09211838E-06
   69.8399963      -4.80561539E-06
   70.0199966      -3.49583502E-06
   70.1999969      -2.16843569E-06
   70.3799973      -8.28967586E-07
   70.5599976       5.17217984E-07
   70.7399979       1.86504735E-06
   70.9199982       3.20979848E-06
   71.0999985       4.54716292E-06
   71.2799988       5.87328168E-06
   71.4599991       7.18477850E-06
   71.6399994       8.47877618E-06
   71.8199997       9.75288731E-06
   72.0000000       1.10051997E-05
   72.1800003       1.22342444E-05
   72.3600006       1.34389566E-05
   72.5400009       1.46186239E-05
   72.7200012       1.57728282E-05
   72.9000015       1.69013820E-05
   73.0800018       1.80042680E-05
   73.2600021       1.90815736E-05
   73.4400024       2.01334406E-05
   73.6200027       2.11600109E-05
   73.8000031       2.21613882E-05
   73.9800034       2.31376052E-05
   74.1600037       2.40886038E-05
   74.3399963       2.50142439E-05
   74.5199966       2.59143035E-05
   74.6999969       2.67885134E-05
   74.8799973       2.76366045E-05
   75.0599976       2.84583475E-05
   75.2399979       2.92536370E-05
   75.4199982       3.00225493E-05
   75.5999985       3.07654336E-05
   75.7799988       3.14829704E-05
   75.9599991       3.21762491E-05
   76.1399994       3.28468086E-05
   76.3199997       3.34966971E-05
   76.5000000       3.41284831E-05
   76.6800003       3.47452478E-05
   76.8600006       3.53505820E-05
   77.0400009       3.59485130E-05
   77.2200012       3.65434789E-05
   77.4000015       3.71402057E-05
   77.5800018       3.77436336E-05
   77.7600021       3.83587903E-05
   77.9400024       3.89906709E-05
   78.1200027       3.96441028E-05
   78.3000031       4.03236190E-05
   78.4800034       4.10333123E-05
   78.6600037       4.17767078E-05
   78.8399963       4.25566395E-05
   79.0199966       4.33751338E-05
   79.1999969       4.42333221E-05
   79.3799973       4.51313572E-05
   79.5599976       4.60683659E-05
   79.7399979       4.70424202E-05
   79.9199982       4.80505369E-05
   80.0999985       4.90887105E-05
   80.2799988       5.01519862E-05
   80.4599991       5.12345214E-05
   80.6399994       5.23297058E-05
   80.8199997       5.34302781E-05
   81.0000000       5.45284638E-05
   81.1800003       5.56161431E-05
   81.3600006       5.66849594E-05
   81.5400009       5.77265091E-05
   81.7200012       5.87324466E-05
   81.9000015       5.96946484E-05
   82.0800018       6.06053145E-05
   82.2600021       6.14570818E-05
   82.4400024       6.22431398E-05
   82.6200027       6.29572678E-05
   82.8000031       6.35939505E-05
   82.9800034       6.41484148E-05
   83.1600037       6.46166518E-05
   83.3399963       6.49954527E-05
   83.5199966       6.52824456E-05
   83.6999969       6.54760370E-05
   83.8799973       6.55754629E-05
   84.0599976       6.55807016E-05
   84.2399979       6.54924879E-05
   84.4199982       6.53122333E-05
   84.5999985       6.50419461E-05
   84.7799988       6.46842454E-05
   84.9599991       6.42421801E-05
   85.1399994       6.37192497E-05
   85.3199997       6.31192597E-05
   85.5000000       6.24462555E-05
   85.6800003       6.17044425E-05
   85.8600006       6.08981027E-05
   86.0400009       6.00314925E-05
   86.2200012       5.91087664E-05
   86.4000015       5.81338863E-05
   86.5800018       5.71105447E-05
   86.7600021       5.60420667E-05
   86.9400024       5.49313190E-05
   87.1200027       5.37806518E-05
   87.3000031       5.25917967E-05
   87.4800034       5.13657906E-05
   87.6600037       5.01029244E-05
   87.8399963       4.88026926E-05
   88.0199966       4.74637527E-05
   88.1999969       4.60839146E-05
   88.3799973       4.46601407E-05
   88.5599976       4.31885819E-05
   88.7399979       4.16646326E-05
   88.9199982       4.00829958E-05
   89.0999985       3.84377927E-05
   89.2799988       3.67226821E-05
   89.4599991       3.49309630E-05
   89.6399994       3.30557632E-05
   89.8199997       3.10901523E-05
   90.0000000       2.90273365E-05
   90.1800003       2.68608055E-05
   90.3600006       2.45845204E-05
   90.5400009       2.21930841E-05
   90.7200012       1.96819219E-05
   90.9000015       1.70474414E-05
   91.0800018       1.42871995E-05
   91.2600021       1.14000641E-05
   91.4400024       8.38633150E-06
   91.6200027       5.24784809E-06
   91.8000031       1.98808766E-06
   91.9800034      -1.38779126E-06
   92.1600037      -4.87294574E-06
   92.3399963      -8.45884460E-06
   92.5199966      -1.21353469E-05
   92.6999969      -1.58907842E-05
   92.8799973      -1.97120989E-05
   93.0599976      -2.35849839E-05
   93.2399979      -2.74940703E-05
   93.4199982      -3.14231147E-05
   93.5999985      -3.53552095E-05
   93.7799988      -3.92729999E-05
   93.9599991      -4.31588851E-05
   94.1399994      -4.69952502E-05
   94.3199997      -5.07646400E-05
   94.5000000      -5.44499817E-05
   94.6800003      -5.80347623E-05
   94.8600006      -6.15031822E-05
   95.0400009      -6.48403075E-05
   95.2200012      -6.80322264E-05
   95.4000015      -7.10660897E-05
   95.5800018      -7.39302923E-05
   95.7600021      -7.66144585E-05
   95.9400024      -7.91095226E-05
   96.1200027      -8.14077575E-05
   96.3000031      -8.35027240E-05
   96.4800034      -8.53893289E-05
   96.6600037      -8.70637377E-05
   96.8399963      -8.85233603E-05
   97.0199966      -8.97668142E-05
   97.1999969      -9.07938374E-05
   97.3799973      -9.16052813E-05
   97.5599976      -9.22030813E-05
   97.7399979      -9.25901913E-05
   97.9199982      -9.27705623E-05
   98.0999985      -9.27491419E-05
   98.2799988      -9.25318163E-05
   98.4599991      -9.21254541E-05
   98.6399994      -9.15378550E-05
   98.8199997      -9.07777212E-05
   99.0000000      -8.98546641E-05
   99.1800003      -8.87791175E-05
   99.3600006      -8.75623518E-05
   99.5400009      -8.62163506E-05
   99.7200012      -8.47537522E-05
   99.9000015      -8.31877915E-05
   100.080002      -8.15321691E-05
   100.260002      -7.98009496E-05
   100.440002      -7.80084665E-05
   100.620003      -7.61692136E-05
