  -7.19999981         9.70815067E-18
  -7.01949978         9.70815067E-18
  -6.83900023        -6.43466247E-17
  -6.65850019        -3.83891425E-16
  -6.47800016        -1.22503506E-15
  -6.29750013        -2.93370687E-15
  -6.11700010        -5.83655549E-15
  -5.93650007        -1.01138868E-14
  -5.75600004        -1.56747462E-14
  -5.57550001        -2.20745375E-14
  -5.39499998        -2.84884184E-14
  -5.21449995        -3.37136867E-14
  -5.03399992        -3.61467380E-14
  -4.85349989        -3.36858633E-14
  -4.67299986        -2.35475769E-14
  -4.49249983        -2.03217201E-15
  -4.31199980         3.57025844E-14
  -4.13149977         9.58189555E-14
  -3.95099998         1.85947761E-13
  -3.77049994         3.15397177E-13
  -3.58999991         4.95545824E-13
  -3.40949988         7.40526564E-13
  -3.22900009         1.06822960E-12
  -3.04850006         1.50154487E-12
  -2.86800003         2.06969576E-12
  -2.68750000         2.80948485E-12
  -2.50699997         3.76635355E-12
  -2.32649994         4.99519913E-12
  -2.14599991         6.56114486E-12
  -1.96550000         8.54033250E-12
  -1.78499997         1.10209784E-11
  -1.60450006         1.41047547E-11
  -1.42400002         1.79083050E-11
  -1.24349999         2.25648163E-11
  -1.06299996         2.82250577E-11
 -0.882499993         3.50577969E-11
 -0.702000022         4.32492514E-11
 -0.521499991         5.30017974E-11
 -0.340999991         6.45320117E-11
 -0.160500005         7.80684545E-11
   1.99999996E-02     9.38493797E-11
  0.200499997         1.12120480E-10
  0.381000012         1.33132186E-10
  0.561500013         1.57136068E-10
  0.741999984         1.84380539E-10
  0.922500014         2.15104837E-10
   1.10300004         2.49532450E-10
   1.28349996         2.87863844E-10
   1.46399999         3.30269756E-10
   1.64450002         3.76884274E-10
   1.82500005         4.27799712E-10
   2.00550008         4.83062035E-10
   2.18600011         5.42666523E-10
   2.36649990         6.06554640E-10
   2.54699993         6.74611755E-10
   2.72749996         7.46662898E-10
   2.90799999         8.22471591E-10
   3.08850002         9.01735908E-10
   3.26900005         9.84089588E-10
   3.44950008         1.06910325E-09
   3.63000011         1.15628962E-09
   3.81049991         1.24511290E-09
   3.99099994         1.33499845E-09
   4.17150021         1.42534373E-09
   4.35200024         1.51552448E-09
   4.53249979         1.60489533E-09
   4.71299982         1.69278580E-09
   4.89349985         1.77849069E-09
   5.07399988         1.86126170E-09
   5.25449991         1.94031213E-09
   5.43499994         2.01483208E-09
   5.61549997         2.08402828E-09
   5.79600000         2.14717821E-09
   5.97650003         2.20368612E-09
   6.15700006         2.25312258E-09
   6.33750010         2.29522246E-09
   6.51800013         2.32982766E-09
   6.69850016         2.35677411E-09
   6.87900019         2.37574649E-09
   7.05950022         2.38615172E-09
   7.23999977         2.38706122E-09
   7.42049980         2.37727460E-09
   7.60099983         2.35552466E-09
   7.78149986         2.32079889E-09
   7.96199989         2.27270935E-09
   8.14249992         2.21179519E-09
   8.32299995         2.13965134E-09
   8.50349998         2.05878603E-09
   8.68400002         1.97217731E-09
   8.86450005         1.88258364E-09
   9.04500008         1.79172865E-09
   9.22550011         1.69956604E-09
   9.40600014         1.60382430E-09
   9.58650017         1.50001633E-09
   9.76700020         1.38199963E-09
   9.94750023         1.24305510E-09
   10.1280003         1.07731979E-09
   10.3085003         8.81308693E-10
   10.4890003         6.55200449E-10
   10.6695004         4.03594769E-10
   10.8500004         1.35541023E-10
   11.0305004        -1.36210224E-10
   11.2110004        -3.96608746E-10
   11.3915005        -6.30079988E-10
   11.5719995        -8.22300894E-10
   11.7524996        -9.61564384E-10
   11.9329996        -1.03940012E-09
   12.1134996        -1.05022746E-09
   12.2939997        -9.89985760E-10
   12.4744997        -8.53845328E-10
   12.6549997        -6.33236574E-10
   12.8354998        -3.12495169E-10
   13.0159998         1.34578362E-10
   13.1964998         7.48017648E-10
   13.3769999         1.58470237E-09
   13.5574999         2.72105116E-09
   13.7379999         4.25542668E-09
   13.9184999         6.31029939E-09
   14.0990000         9.03417963E-09
   14.2795000         1.26032358E-08
   14.4600000         1.72224173E-08
   14.6405001         2.31258301E-08
   14.8210001         3.05760501E-08
   15.0015001         3.98621580E-08
   15.1820002         5.12963467E-08
   15.3625002         6.52091074E-08
   15.5430002         8.19431136E-08
   15.7235003         1.01845991E-07
   15.9040003         1.25262218E-07
   16.0844994         1.52524137E-07
   16.2649994         1.83942063E-07
   16.4454994         2.19793279E-07
   16.6259995         2.60309776E-07
   16.8064995         3.05664742E-07
   16.9869995         3.55957553E-07
   17.1674995         4.11198414E-07
   17.3479996         4.71292907E-07
   17.5284996         5.36028040E-07
   17.7089996         6.05060791E-07
   17.8894997         6.77911260E-07
   18.0699997         7.53960592E-07
   18.2504997         8.32455726E-07
   18.4309998         9.12520477E-07
   18.6114998         9.93172989E-07
   18.7919998         1.07334870E-06
   18.9724998         1.15192790E-06
   19.1529999         1.22776578E-06
   19.3334999         1.29972318E-06
   19.5139999         1.36669735E-06
   19.6945000         1.42764975E-06
   19.8750000         1.48163133E-06
   20.0555000         1.52780319E-06
   20.2360001         1.56545366E-06
   20.4165001         1.59401054E-06
   20.5970001         1.61304820E-06
   20.7775002         1.62229264E-06
   20.9580002         1.62162110E-06
   21.1385002         1.61105856E-06
   21.3190002         1.59077285E-06
   21.4995003         1.56106637E-06
   21.6800003         1.52236669E-06
   21.8605003         1.47521746E-06
   22.0410004         1.42026738E-06
   22.2215004         1.35826122E-06
   22.4020004         1.29002910E-06
   22.5825005         1.21647668E-06
   22.7630005         1.13857425E-06
   22.9435005         1.05734478E-06
   23.1240005         9.73850547E-07
   23.3045006         8.89178921E-07
   23.4850006         8.04426122E-07
   23.6655006         7.20681214E-07
   23.8460007         6.39009784E-07
   24.0265007         5.60438195E-07
   24.2070007         4.85940234E-07
   24.3875008         4.16423944E-07
   24.5680008         3.52721543E-07
   24.7485008         2.95579838E-07
   24.9290009         2.45651989E-07
   25.1095009         2.03489591E-07
   25.2900009         1.69535042E-07
   25.4705009         1.44113883E-07
   25.6509991         1.27427498E-07
   25.8314991         1.19546584E-07
   26.0119991         1.20406028E-07
   26.1924992         1.29801592E-07
   26.3729992         1.47389613E-07
   26.5534992         1.72689184E-07
   26.7339993         2.05088014E-07
   26.9144993         2.43851247E-07
   27.0949993         2.88132867E-07
   27.2754993         3.36989871E-07
   27.4559994         3.89397798E-07
   27.6364994         4.44268125E-07
   27.8169994         5.00466285E-07
   27.9974995         5.56831253E-07
   28.1779995         6.12195208E-07
   28.3584995         6.65404798E-07
   28.5389996         7.15341514E-07
   28.7194996         7.60943180E-07
   28.8999996         8.01224985E-07
   29.0804996         8.35298920E-07
   29.2609997         8.62392369E-07
   29.4414997         8.81863798E-07
   29.6219997         8.93214974E-07
   29.8024998         8.96100119E-07
   29.9829998         8.90329545E-07
   30.1634998         8.75870285E-07
   30.3439999         8.52841254E-07
   30.5244999         8.21504500E-07
   30.7049999         7.82252869E-07
   30.8855000         7.35594256E-07
   31.0660000         6.82133589E-07
   31.2465000         6.22553557E-07
   31.4270000         5.57594376E-07
   31.6075001         4.88034857E-07
   31.7880001         4.14674844E-07
   31.9685001         3.38319438E-07
   32.1489983         2.59766551E-07
   32.3294983         1.79796487E-07
   32.5099983         9.91637705E-08
   32.6904984         1.85914732E-08
   32.8709984        -6.12329671E-08
   33.0514984        -1.39660685E-07
   33.2319984        -2.16083734E-07
   33.4124985        -2.89937162E-07
   33.5929985        -3.60701165E-07
   33.7734985        -4.27903814E-07
   33.9539986        -4.91125093E-07
   34.1344986        -5.50002198E-07
   34.3149986        -6.04235197E-07
   34.4954987        -6.53594725E-07
   34.6759987        -6.97930204E-07
   34.8564987        -7.37177515E-07
   35.0369987        -7.71365819E-07
   35.2174988        -8.00622786E-07
   35.3979988        -8.25175732E-07
   35.5784988        -8.45350257E-07
   35.7589989        -8.61564160E-07
   35.9394989        -8.74318175E-07
   36.1199989        -8.84183407E-07
   36.3004990        -8.91785874E-07
   36.4809990        -8.97790187E-07
   36.6614990        -9.02881823E-07
   36.8419991        -9.07750348E-07
   37.0224991        -9.13071403E-07
   37.2029991        -9.19490049E-07
   37.3834991        -9.27603821E-07
   37.5639992        -9.37945515E-07
   37.7444992        -9.50966523E-07
   37.9249992        -9.67019218E-07
   38.1054993        -9.86340524E-07
   38.2859993        -1.00903537E-06
   38.4664993        -1.03506341E-06
   38.6469994        -1.06422817E-06
   38.8274994        -1.09617099E-06
   39.0079994        -1.13037072E-06
   39.1884995        -1.16614865E-06
   39.3689995        -1.20268089E-06
   39.5494995        -1.23901691E-06
   39.7299995        -1.27410442E-06
   39.9104996        -1.30682145E-06
   40.0909996        -1.33601361E-06
   40.2714996        -1.36053802E-06
   40.4519997        -1.37931136E-06
   40.6324997        -1.39136114E-06
   40.8129997        -1.39587723E-06
   40.9934998        -1.39226154E-06
   41.1739998        -1.38017094E-06
   41.3544998        -1.35955304E-06
   41.5349998        -1.33066919E-06
   41.7154999        -1.29410455E-06
   41.8959999        -1.25076326E-06
   42.0764999        -1.20185030E-06
   42.2570000        -1.14884097E-06
   42.4375000        -1.09343989E-06
   42.6180000        -1.03753428E-06
   42.7985001        -9.83141945E-07
   42.9790001        -9.32360422E-07
   43.1595001        -8.87312353E-07
   43.3400002        -8.50096228E-07
   43.5205002        -8.22734364E-07
   43.7010002        -8.07123570E-07
   43.8815002        -8.04985802E-07
   44.0620003        -8.17818830E-07
   44.2425003        -8.46847911E-07
   44.4230003        -8.92978903E-07
   44.6035004        -9.56755230E-07
   44.7840004        -1.03832133E-06
   44.9645004        -1.13739418E-06
   45.1450005        -1.25324505E-06
   45.3255005        -1.38469397E-06
   45.5060005        -1.53011661E-06
   45.6865005        -1.68746340E-06
   45.8670006        -1.85428939E-06
   46.0475006        -2.02779415E-06
   46.2280006        -2.20487027E-06
   46.4085007        -2.38215671E-06
   46.5890007        -2.55610053E-06
   46.7695007        -2.72301941E-06
   46.9500008        -2.87916873E-06
   47.1305008        -3.02080662E-06
   47.3110008        -3.14426120E-06
   47.4915009        -3.24599409E-06
   47.6720009        -3.32265927E-06
   47.8525009        -3.37115853E-06
   48.0330009        -3.38868790E-06
   48.2135010        -3.37277811E-06
   48.3940010        -3.32132413E-06
   48.5745010        -3.23261111E-06
   48.7550011        -3.10532982E-06
   48.9355011        -2.93858807E-06
   49.1160011        -2.73191745E-06
   49.2965012        -2.48527590E-06
   49.4770012        -2.19904859E-06
   49.6575012        -1.87404567E-06
   49.8380013        -1.51149845E-06
   50.0185013        -1.11305349E-06
   50.1990013        -6.80762071E-07
   50.3795013        -2.17064994E-07
   50.5600014         2.75228047E-07
   50.7405014         7.92966546E-07
   50.9210014         1.33269077E-06
   51.1015015         1.89066873E-06
   51.2820015         2.46294030E-06
   51.4625015         3.04536547E-06
   51.6430016         3.63367349E-06
   51.8235016         4.22351650E-06
   52.0040016         4.81052666E-06
   52.1845016         5.39037546E-06
   52.3650017         5.95883330E-06
   52.5455017         6.51183336E-06
   52.7260017         7.04553440E-06
   52.9065018         7.55638257E-06
   53.0870018         8.04116826E-06
   53.2675018         8.49708249E-06
   53.4480019         8.92176377E-06
   53.6285019         9.31332488E-06
   53.8089981         9.67038432E-06
   53.9894981         9.99206895E-06
   54.1699982         1.02780059E-05
   54.3504982         1.05283025E-05
   54.5309982         1.07435108E-05
   54.7114983         1.09245866E-05
   54.8919983         1.10728352E-05
   55.0724983         1.11898535E-05
   55.2529984         1.12774778E-05
   55.4334984         1.13377173E-05
   55.6139984         1.13727010E-05
   55.7944984         1.13846181E-05
   55.9749985         1.13756696E-05
   56.1554985         1.13480146E-05
   56.3359985         1.13037322E-05
   56.5164986         1.12447806E-05
   56.6969986         1.11729705E-05
   56.8774986         1.10899373E-05
   57.0579987         1.09971388E-05
   57.2384987         1.08958420E-05
   57.4189987         1.07871356E-05
   57.5994987         1.06719435E-05
   57.7799988         1.05510380E-05
   57.9604988         1.04250694E-05
   58.1409988         1.02945887E-05
   58.3214989         1.01600726E-05
   58.5019989         1.00219522E-05
   58.6824989         9.88062948E-06
   58.8629990         9.73648821E-06
   59.0434990         9.58991313E-06
   59.2239990         9.44129260E-06
   59.4044991         9.29102225E-06
   59.5849991         9.13949953E-06
   59.7654991         8.98712187E-06
   59.9459991         8.83428584E-06
   60.1264992         8.68137249E-06
   60.3069992         8.52873654E-06
   60.4874992         8.37669813E-06
   60.6679993         8.22552920E-06
   60.8484993         8.07544347E-06
   61.0289993         7.92658648E-06
   61.2094994         7.77903097E-06
   61.3899994         7.63278877E-06
   61.5704994         7.48782122E-06
   61.7509995         7.34406285E-06
   61.9314995         7.20145090E-06
   62.1119995         7.05995672E-06
   62.2924995         6.91961941E-06
   62.4729996         6.78057995E-06
   62.6534996         6.64310892E-06
   62.8339996         6.50763104E-06
   63.0144997         6.37473840E-06
   63.1949997         6.24519998E-06
   63.3754997         6.11994619E-06
   63.5559998         6.00006570E-06
   63.7364998         5.88676858E-06
   63.9169998         5.78135996E-06
   64.0975037         5.68518863E-06
   64.2779999         5.59960426E-06
   64.4585037         5.52590336E-06
   64.6389999         5.46526235E-06
   64.8195038         5.41867621E-06
   65.0000000         5.38688846E-06
   65.1804962         5.37032656E-06
   65.3610001         5.36903417E-06
   65.5414963         5.38261611E-06
   65.7220001         5.41018971E-06
   65.9024963         5.45034709E-06
   66.0830002         5.50113282E-06
   66.2634964         5.56004215E-06
   66.4440002         5.62403147E-06
   66.6244965         5.68954465E-06
   66.8050003         5.75256126E-06
   66.9854965         5.80865844E-06
   67.1660004         5.85308680E-06
   67.3464966         5.88086277E-06
   67.5270004         5.88687499E-06
   67.7074966         5.86599572E-06
   67.8880005         5.81320865E-06
   68.0684967         5.72373528E-06
   68.2490005         5.59316777E-06
   68.4294968         5.41758482E-06
   68.6100006         5.19366995E-06
   68.7904968         4.91881065E-06
   68.9710007         4.59118019E-06
   69.1514969         4.20979950E-06
   69.3320007         3.77457604E-06
   69.5124969         3.28631722E-06
   69.6930008         2.74671788E-06
   69.8734970         2.15832893E-06
   70.0540009         1.52449661E-06
   70.2344971         8.49287346E-07
   70.4150009         1.37391410E-07
   70.5954971        -6.05978641E-07
   70.7760010        -1.37520794E-06
   70.9564972        -2.16440344E-06
   71.1370010        -2.96752569E-06
   71.3174973        -3.77852280E-06
   71.4980011        -4.59146668E-06
   71.6784973        -5.40069141E-06
   71.8590012        -6.20092669E-06
   72.0394974        -6.98741542E-06
   72.2200012        -7.75603257E-06
   72.4004974        -8.50337437E-06
   72.5810013        -9.22684649E-06
   72.7614975        -9.92470541E-06
   72.9420013        -1.05961071E-05
   73.1224976        -1.12410953E-05
   73.3030014        -1.18606004E-05
   73.4834976        -1.24563849E-05
   73.6640015        -1.30309936E-05
   73.8444977        -1.35876699E-05
   74.0250015        -1.41302489E-05
   74.2054977        -1.46630546E-05
   74.3860016        -1.51907734E-05
   74.5664978        -1.57183313E-05
   74.7470016        -1.62507586E-05
   74.9274979        -1.67930630E-05
   75.1080017        -1.73501048E-05
   75.2884979        -1.79264698E-05
   75.4690018        -1.85263543E-05
   75.6494980        -1.91534546E-05
   75.8300018        -1.98108755E-05
   76.0104980        -2.05010474E-05
   76.1910019        -2.12256600E-05
   76.3714981        -2.19856083E-05
   76.5520020        -2.27809560E-05
   76.7324982        -2.36109263E-05
   76.9130020        -2.44738803E-05
   77.0934982        -2.53673370E-05
   77.2740021        -2.62880039E-05
   77.4544983        -2.72318030E-05
   77.6350021        -2.81939447E-05
   77.8154984        -2.91689867E-05
   77.9960022        -3.01509226E-05
   78.1764984        -3.11332587E-05
   78.3570023        -3.21091320E-05
   78.5374985        -3.30713847E-05
   78.7180023        -3.40126680E-05
   78.8984985        -3.49255424E-05
   79.0790024        -3.58025427E-05
   79.2594986        -3.66362656E-05
   79.4400024        -3.74194351E-05
   79.6204987        -3.81449499E-05
   79.8010025        -3.88059489E-05
   79.9814987        -3.93958253E-05
   80.1620026        -3.99082892E-05
   80.3424988        -4.03373742E-05
   80.5230026        -4.06774889E-05
   80.7034988        -4.09234453E-05
   80.8840027        -4.10704961E-05
   81.0644989        -4.11143810E-05
   81.2450027        -4.10513676E-05
   81.4254990        -4.08782907E-05
   81.6060028        -4.05926003E-05
   81.7864990        -4.01924153E-05
   81.9670029        -3.96765499E-05
   82.1474991        -3.90445675E-05
   82.3280029        -3.82968065E-05
   82.5084991        -3.74344236E-05
   82.6890030        -3.64594089E-05
   82.8694992        -3.53746073E-05
