  -7.19999981         0.00000000    
  -7.01999998         0.00000000    
  -6.84000015        -9.33784050E-16
  -6.65999985        -4.22140638E-15
  -6.48000002        -1.07432509E-14
  -6.30000019        -1.95821024E-14
  -6.11999989        -2.68818865E-14
  -5.94000006        -2.50062930E-14
  -5.76000023        -2.00322064E-15
  -5.57999992         5.86785124E-14
  -5.40000010         1.78216708E-13
  -5.21999979         3.82134239E-13
  -5.03999996         6.99743052E-13
  -4.86000013         1.16358789E-12
  -4.67999983         1.80941720E-12
  -4.50000000         2.67728114E-12
  -4.32000017         3.81414084E-12
  -4.13999987         5.27795559E-12
  -3.96000004         7.14278896E-12
  -3.77999997         9.50427844E-12
  -3.59999990         1.24848777E-11
  -3.42000008         1.62385157E-11
  -3.24000001         2.09545402E-11
  -3.05999994         2.68608434E-11
  -2.88000011         3.42260872E-11
  -2.70000005         4.33608392E-11
  -2.51999998         5.46176021E-11
  -2.33999991         6.83898979E-11
  -2.16000009         8.51106824E-11
  -1.98000002         1.05250454E-10
  -1.79999995         1.29315059E-10
  -1.62000000         1.57842947E-10
  -1.44000006         1.91401187E-10
  -1.25999999         2.30579777E-10
  -1.08000004         2.75983819E-10
 -0.899999976         3.28223199E-10
 -0.720000029         3.87899962E-10
 -0.540000021         4.55593230E-10
 -0.360000014         5.31841737E-10
 -0.180000007         6.17124130E-10
   0.00000000         7.11838144E-10
  0.180000007         8.16279266E-10
  0.360000014         9.30620137E-10
  0.540000021         1.05489295E-09
  0.720000029         1.18897481E-09
  0.899999976         1.33257760E-09
   1.08000004         1.48524248E-09
   1.25999999         1.64633840E-09
   1.44000006         1.81506610E-09
   1.62000000         1.99046668E-09
   1.79999995         2.17143548E-09
   1.98000002         2.35673903E-09
   2.16000009         2.54503685E-09
   2.33999991         2.73490497E-09
   2.51999998         2.92485880E-09
   2.70000005         3.11338177E-09
   2.88000011         3.29894800E-09
   3.05999994         3.48005025E-09
   3.24000001         3.65522523E-09
   3.42000008         3.82307741E-09
   3.59999990         3.98230293E-09
   3.77999997         4.13171053E-09
   3.96000004         4.27023972E-09
   4.13999987         4.39697700E-09
   4.32000017         4.51116611E-09
   4.50000000         4.61221683E-09
   4.67999983         4.69970374E-09
   4.86000013         4.77336615E-09
   5.03999996         4.83309570E-09
   5.21999979         4.87892704E-09
   5.40000010         4.91102181E-09
   5.57999992         4.92965357E-09
   5.76000023         4.93519137E-09
   5.94000006         4.92808550E-09
   6.11999989         4.90885155E-09
   6.30000019         4.87805796E-09
   6.48000002         4.83630824E-09
   6.65999985         4.78422857E-09
   6.84000015         4.72245354E-09
   7.01999998         4.65160932E-09
   7.19999981         4.57230298E-09
   7.38000011         4.48510518E-09
   7.55999994         4.39054082E-09
   7.73999977         4.28907931E-09
   7.92000008         4.18112922E-09
   8.10000038         4.06703737E-09
   8.27999973         3.94709465E-09
   8.46000004         3.82154219E-09
   8.64000034         3.69058184E-09
   8.81999969         3.55438612E-09
   9.00000000         3.41310979E-09
   9.18000031         3.26689475E-09
   9.35999966         3.11587511E-09
   9.53999996         2.96017433E-09
   9.72000027         2.79990009E-09
   9.89999962         2.63513256E-09
   10.0799999         2.46591525E-09
   10.2600002         2.29225083E-09
   10.4399996         2.11410800E-09
   10.6199999         1.93143990E-09
   10.8000002         1.74422343E-09
   10.9799995         1.55251512E-09
   11.1599998         1.35652090E-09
   11.3400002         1.15666965E-09
   11.5200005         9.53679913E-10
   11.6999998         7.48604012E-10
   11.8800001         5.42835221E-10
   12.0600004         3.38068906E-10
   12.2399998         1.36220882E-10
   12.4200001        -6.06947340E-11
   12.6000004        -2.50698712E-10
   12.7799997        -4.31961855E-10
   12.9600000        -6.02866201E-10
   13.1400003        -7.61979813E-10
   13.3199997        -9.07913411E-10
   13.5000000        -1.03906483E-09
   13.6800003        -1.15325183E-09
   13.8599997        -1.24728416E-09
   14.0400000        -1.31652145E-09
   14.2200003        -1.35449540E-09
   14.3999996        -1.35266365E-09
   14.5799999        -1.30035482E-09
   14.7600002        -1.18493537E-09
   14.9399996        -9.92198879E-10
   15.1199999        -7.06942949E-10
   15.3000002        -3.13666065E-10
   15.4799995         2.02702286E-10
   15.6599998         8.56130167E-10
   15.8400002         1.65895309E-09
   16.0200005         2.62152478E-09
   16.2000008         3.75206932E-09
   16.3799992         5.05676878E-09
   16.5599995         6.53987264E-09
   16.7399998         8.20398061E-09
   16.9200001         1.00501722E-08
   17.1000004         1.20780355E-08
   17.2800007         1.42855532E-08
   17.4599991         1.66688370E-08
   17.6399994         1.92216358E-08
   17.8199997         2.19349250E-08
   18.0000000         2.47965524E-08
   18.1800003         2.77910743E-08
   18.3600006         3.08999226E-08
   18.5400009         3.41020332E-08
   18.7199993         3.73748783E-08
   18.8999996         4.06960332E-08
   19.0799999         4.40450130E-08
   19.2600002         4.74051376E-08
   19.4400005         5.07653546E-08
   19.6200008         5.41219762E-08
   19.7999992         5.74794576E-08
   19.9799995         6.08506028E-08
   20.1599998         6.42558931E-08
   20.3400002         6.77215866E-08
   20.5200005         7.12768156E-08
   20.7000008         7.49500799E-08
   20.8799992         7.87648204E-08
   21.0599995         8.27348430E-08
   21.2399998         8.68594512E-08
   21.4200001         9.11191904E-08
   21.6000004         9.54719468E-08
   21.7800007         9.98499701E-08
   21.9599991         1.04158062E-07
   22.1399994         1.08272346E-07
   22.3199997         1.12040553E-07
   22.5000000         1.15282909E-07
   22.6800003         1.17793896E-07
   22.8600006         1.19344577E-07
   23.0400009         1.19685581E-07
   23.2199993         1.18550233E-07
   23.3999996         1.15658260E-07
   23.5799999         1.10719995E-07
   23.7600002         1.03440804E-07
   23.9400005         9.35263671E-08
   24.1200008         8.06885865E-08
   24.2999992         6.46518572E-08
   24.4799995         4.51601387E-08
   24.6599998         2.19841887E-08
   24.8400002        -5.07116171E-09
   25.0200005        -3.61599426E-08
   25.2000008        -7.13888824E-08
   25.3799992        -1.10812074E-07
   25.5599995        -1.54427269E-07
   25.7399998        -2.02173652E-07
   25.9200001        -2.53931120E-07
   26.1000004        -3.09521340E-07
   26.2800007        -3.68709834E-07
   26.4599991        -4.31209173E-07
   26.6399994        -4.96682844E-07
   26.8199997        -5.64748632E-07
   27.0000000        -6.34982428E-07
   27.1800003        -7.06921014E-07
   27.3600006        -7.80063829E-07
   27.5400009        -8.53874155E-07
   27.7199993        -9.27779581E-07
   27.8999996        -1.00117120E-06
   28.0799999        -1.07340327E-06
   28.2600002        -1.14379247E-06
   28.4400005        -1.21161781E-06
   28.6200008        -1.27612122E-06
   28.7999992        -1.33650929E-06
   28.9799995        -1.39195686E-06
   29.1599998        -1.44161118E-06
   29.3400002        -1.48459958E-06
   29.5200005        -1.52003724E-06
   29.7000008        -1.54703832E-06
   29.8799992        -1.56472800E-06
   30.0599995        -1.57225770E-06
   30.2399998        -1.56882072E-06
   30.4200001        -1.55367172E-06
   30.6000004        -1.52614609E-06
   30.7800007        -1.48568211E-06
   30.9599991        -1.43184286E-06
   31.1399994        -1.36433971E-06
   31.3199997        -1.28305464E-06
   31.5000000        -1.18806167E-06
   31.6800003        -1.07964570E-06
   31.8600006        -9.58319106E-07
   32.0400009        -8.24832853E-07
   32.2200012        -6.80183575E-07
   32.4000015        -5.25614723E-07
   32.5800018        -3.62610933E-07
   32.7599983        -1.92886858E-07
   32.9399986        -1.83687234E-08
   33.1199989         1.58829451E-07
   33.2999992         3.36435590E-07
   33.4799995         5.12053873E-07
   33.6599998         6.83203211E-07
   33.8400002         8.47358081E-07
   34.0200005         1.00199190E-06
   34.2000008         1.14462125E-06
   34.3800011         1.27285000E-06
   34.5600014         1.38441283E-06
   34.7400017         1.47721664E-06
   34.9199982         1.54938141E-06
   35.0999985         1.59927538E-06
   35.2799988         1.62554977E-06
   35.4599991         1.62716663E-06
   35.6399994         1.60342358E-06
   35.8199997         1.55397299E-06
   36.0000000         1.47883418E-06
   36.1800003         1.37840050E-06
   36.3600006         1.25343865E-06
   36.5400009         1.10508188E-06
   36.7200012         9.34815148E-07
   36.9000015         7.44454780E-07
   37.0800018         5.36121092E-07
   37.2599983         3.12205714E-07
   37.4399986         7.53343699E-08
   37.6199989        -1.71674102E-07
   37.7999992        -4.25851312E-07
   37.9799995        -6.84124416E-07
   38.1599998        -9.43361840E-07
   38.3400002        -1.20041864E-06
   38.5200005        -1.45218064E-06
   38.7000008        -1.69560724E-06
   38.8800011        -1.92777179E-06
   39.0600014        -2.14589909E-06
   39.2400017        -2.34740173E-06
   39.4199982        -2.52991026E-06
   39.5999985        -2.69130328E-06
   39.7799988        -2.82973156E-06
   39.9599991        -2.94363986E-06
   40.1399994        -3.03178240E-06
   40.3199997        -3.09323673E-06
   40.5000000        -3.12740804E-06
   40.6800003        -3.13403211E-06
   40.8600006        -3.11317058E-06
   41.0400009        -3.06519928E-06
   41.2200012        -2.99079238E-06
   41.4000015        -2.89089985E-06
   41.5800018        -2.76671926E-06
   41.7599983        -2.61966443E-06
   41.9399986        -2.45132992E-06
   42.1199989        -2.26345173E-06
   42.2999992        -2.05786841E-06
   42.4799995        -1.83648137E-06
   42.6599998        -1.60121658E-06
   42.8400002        -1.35398648E-06
   43.0200005        -1.09665632E-06
   43.2000008        -8.31013267E-07
   43.3800011        -5.58738805E-07
   43.5600014        -2.81385297E-07
   43.7400017        -3.57899682E-10
   43.9199982         2.83100093E-07
   44.0999985         5.67915777E-07
   44.2799988         8.53190897E-07
   44.4599991         1.13819976E-06
   44.6399994         1.42238264E-06
   44.8199997         1.70533235E-06
   45.0000000         1.98677662E-06
   45.1800003         2.26655425E-06
   45.3600006         2.54458905E-06
   45.5400009         2.82085807E-06
   45.7200012         3.09535949E-06
   45.9000015         3.36807943E-06
   46.0800018         3.63895992E-06
   46.2599983         3.90786818E-06
   46.4399986         4.17456931E-06
   46.6199989         4.43870567E-06
   46.7999992         4.69977886E-06
   46.9799995         4.95714130E-06
   47.1599998         5.20999129E-06
   47.3400002         5.45737657E-06
   47.5200005         5.69820304E-06
   47.7000008         5.93125060E-06
   47.8800011         6.15519548E-06
   48.0600014         6.36863479E-06
   48.2400017         6.57011788E-06
   48.4199982         6.75818001E-06
   48.5999985         6.93137872E-06
   48.7799988         7.08833250E-06
   48.9599991         7.22775849E-06
   49.1399994         7.34850937E-06
   49.3199997         7.44960835E-06
   49.5000000         7.53028371E-06
   49.6800003         7.58999340E-06
   49.8600006         7.62844820E-06
   50.0400009         7.64562537E-06
   50.2200012         7.64177912E-06
   50.4000015         7.61743513E-06
   50.5800018         7.57338739E-06
   50.7599983         7.51067910E-06
   50.9399986         7.43057944E-06
   51.1199989         7.33455363E-06
   51.2999992         7.22422828E-06
   51.4799995         7.10134964E-06
   51.6599998         6.96774214E-06
   51.8400002         6.82526161E-06
   52.0200005         6.67574795E-06
   52.2000008         6.52098151E-06
   52.3800011         6.36263621E-06
   52.5600014         6.20223682E-06
   52.7400017         6.04111756E-06
   52.9199982         5.88038756E-06
   53.0999985         5.72089630E-06
   53.2799988         5.56320856E-06
   53.4599991         5.40758037E-06
   53.6399994         5.25394580E-06
   53.8199997         5.10190739E-06
   54.0000000         4.95073800E-06
   54.1800003         4.79938581E-06
   54.3600006         4.64649202E-06
   54.5400009         4.49041454E-06
   54.7200012         4.32925799E-06
   54.9000015         4.16091598E-06
   55.0800018         3.98311067E-06
   55.2599983         3.79344783E-06
   55.4399986         3.58946681E-06
   55.6199989         3.36869516E-06
   55.7999992         3.12870498E-06
   55.9799995         2.86716568E-06
   56.1599998         2.58189402E-06
   56.3400002         2.27090436E-06
   56.5200005         1.93245000E-06
   56.7000008         1.56506110E-06
   56.8800011         1.16757826E-06
   57.0600014         7.39177437E-07
   57.2400017         2.79392737E-07
   57.4199982        -2.11870088E-07
   57.5999985        -7.34323805E-07
   57.7799988        -1.28730028E-06
   57.9599991        -1.86975240E-06
   58.1399994        -2.48026686E-06
   58.3199997        -3.11707845E-06
   58.5000000        -3.77809374E-06
   58.6800003        -4.46091872E-06
   58.8600006        -5.16288628E-06
   59.0400009        -5.88109833E-06
   59.2200012        -6.61245440E-06
   59.4000015        -7.35369349E-06
   59.5800018        -8.10143320E-06
   59.7599983        -8.85220470E-06
   59.9399986        -9.60248872E-06
   60.1199989        -1.03487519E-05
   60.2999992        -1.10874744E-05
   60.4799995        -1.18151820E-05
   60.6599998        -1.25284687E-05
   60.8400002        -1.32240193E-05
   61.0200005        -1.38986270E-05
   61.2000008        -1.45492140E-05
   61.3800011        -1.51728354E-05
   61.5600014        -1.57666946E-05
   61.7400017        -1.63281402E-05
   61.9199982        -1.68546831E-05
   62.0999985        -1.73439839E-05
   62.2799988        -1.77938637E-05
   62.4599991        -1.82023014E-05
   62.6399994        -1.85674326E-05
   62.8199997        -1.88875529E-05
   63.0000000        -1.91611252E-05
   63.1800003        -1.93867927E-05
   63.3600006        -1.95633875E-05
   63.5400009        -1.96899382E-05
   63.7200012        -1.97657137E-05
   63.9000015        -1.97902209E-05
   64.0800018        -1.97632507E-05
   64.2600021        -1.96849014E-05
   64.4400024        -1.95556040E-05
   64.6200027        -1.93761625E-05
   64.8000031        -1.91477702E-05
   64.9800034        -1.88720405E-05
   65.1600037        -1.85510198E-05
   65.3399963        -1.81872001E-05
   65.5199966        -1.77835173E-05
   65.6999969        -1.73433455E-05
   65.8799973        -1.68704737E-05
   66.0599976        -1.63690729E-05
   66.2399979        -1.58436487E-05
   66.4199982        -1.52989996E-05
   66.5999985        -1.47401352E-05
   66.7799988        -1.41722103E-05
   66.9599991        -1.36004373E-05
   67.1399994        -1.30299986E-05
   67.3199997        -1.24659528E-05
   67.5000000        -1.19131346E-05
   67.6800003        -1.13760634E-05
   67.8600006        -1.08588401E-05
   68.0400009        -1.03650618E-05
   68.2200012        -9.89773343E-06
   68.4000015        -9.45919328E-06
   68.5800018        -9.05105207E-06
   68.7600021        -8.67414110E-06
   68.9400024        -8.32848491E-06
   69.1200027        -8.01328406E-06
   69.3000031        -7.72692601E-06
   69.4800034        -7.46701289E-06
   69.6600037        -7.23041330E-06
   69.8399963        -7.01332829E-06
   70.0199966        -6.81138636E-06
   70.1999969        -6.61974354E-06
   70.3799973        -6.43320391E-06
   70.5599976        -6.24634822E-06
   70.7399979        -6.05366586E-06
   70.9199982        -5.84969484E-06
   71.0999985        -5.62915238E-06
   71.2799988        -5.38706399E-06
   71.4599991        -5.11888720E-06
   71.6399994        -4.82061841E-06
   71.8199997        -4.48888659E-06
   72.0000000        -4.12103282E-06
   72.1800003        -3.71517172E-06
   72.3600006        -3.27023190E-06
   72.5400009        -2.78597327E-06
   72.7200012        -2.26299198E-06
   72.9000015        -1.70269993E-06
   73.0800018        -1.10727706E-06
   73.2600021        -4.79618109E-07
   73.4400024         1.76743868E-07
   73.6200027         8.57736893E-07
   73.8000031         1.55884709E-06
   73.9800034         2.27523424E-06
   74.1600037         3.00184911E-06
   74.3399963         3.73355442E-06
   74.5199966         4.46524109E-06
   74.6999969         5.19193190E-06
   74.8799973         5.90888430E-06
   75.0599976         6.61167360E-06
   75.2399979         7.29626481E-06
   75.4199982         7.95905635E-06
   75.5999985         8.59692136E-06
   75.7799988         9.20721959E-06
   75.9599991         9.78779553E-06
   76.1399994         1.03369612E-05
   76.3199997         1.08534632E-05
   76.5000000         1.13364376E-05
   76.6800003         1.17853579E-05
   76.8600006         1.21999647E-05
   77.0400009         1.25802026E-05
   77.2200012         1.29261443E-05
   77.4000015         1.32379146E-05
   77.5800018         1.35156279E-05
   77.7600021         1.37593033E-05
   77.9400024         1.39688264E-05
   78.1200027         1.41438768E-05
   78.3000031         1.42839135E-05
   78.4800034         1.43881434E-05
   78.6600037         1.44555179E-05
   78.8399963         1.44847609E-05
   79.0199966         1.44743963E-05
   79.1999969         1.44228179E-05
   79.3799973         1.43283578E-05
   79.5599976         1.41893779E-05
   79.7399979         1.40043794E-05
   79.9199982         1.37721063E-05
   80.0999985         1.34916609E-05
   80.2799988         1.31626130E-05
   80.4599991         1.27851017E-05
   80.6399994         1.23599266E-05
   80.8199997         1.18886228E-05
   81.0000000         1.13735241E-05
   81.1800003         1.08178047E-05
   81.3600006         1.02254908E-05
   81.5400009         9.60148009E-06
   81.7200012         8.95150606E-06
   81.9000015         8.28210796E-06
   82.0800018         7.60056764E-06
   82.2600021         6.91483046E-06
   82.4400024         6.23339974E-06
   82.6200027         5.56523628E-06
   82.8000031         4.91960827E-06
   82.9800034         4.30595310E-06
   83.1600037         3.73371859E-06
   83.3399963         3.21220682E-06
   83.5199966         2.75040065E-06
   83.6999969         2.35681455E-06
   83.8799973         2.03933837E-06
   84.0599976         1.80508698E-06
   84.2399979         1.66029281E-06
   84.4199982         1.61018727E-06
   84.5999985         1.65892152E-06
   84.7799988         1.80950769E-06
   84.9599991         2.06377490E-06
   85.1399994         2.42235478E-06
   85.3199997         2.88468186E-06
   85.5000000         3.44901719E-06
   85.6800003         4.11248584E-06
   85.8600006         4.87113721E-06
   86.0400009         5.72000954E-06
   86.2200012         6.65321340E-06
   86.4000015         7.66402627E-06
   86.5800018         8.74499710E-06
   86.7600021         9.88805186E-06
   86.9400024         1.10846222E-05
   87.1200027         1.23257660E-05
   87.3000031         1.36022882E-05
   87.4800034         1.49048792E-05
   87.6600037         1.62242286E-05
   87.8399963         1.75511577E-05
   88.0199966         1.88767226E-05
   88.1999969         2.01923231E-05
   88.3799973         2.14897918E-05
   88.5599976         2.27614728E-05
   88.7399979         2.40002901E-05
   88.9199982         2.51997917E-05
   89.0999985         2.63541970E-05
   89.2799988         2.74584145E-05
   89.4599991         2.85080569E-05
   89.6399994         2.94994552E-05
   89.8199997         3.04296300E-05
   90.0000000         3.12962948E-05
   90.1800003         3.20978215E-05
   90.3600006         3.28332135E-05
   90.5400009         3.35020522E-05
   90.7200012         3.41044470E-05
   90.9000015         3.46409906E-05
   91.0800018         3.51126764E-05
   91.2600021         3.55208213E-05
   91.4400024         3.58670004E-05
   91.6200027         3.61529492E-05
   91.8000031         3.63804975E-05
   91.9800034         3.65514679E-05
   92.1600037         3.66676213E-05
   92.3399963         3.67305875E-05
   92.5199966         3.67417852E-05
   92.6999969         3.67024004E-05
   92.8799973         3.66133354E-05
   93.0599976         3.64751868E-05
   93.2399979         3.62882201E-05
   93.4199982         3.60523809E-05
   93.5999985         3.57672943E-05
   93.7799988         3.54322692E-05
   93.9599991         3.50463415E-05
   94.1399994         3.46082816E-05
   94.3199997         3.41166706E-05
   94.5000000         3.35699224E-05
   94.6800003         3.29663744E-05
   94.8600006         3.23043496E-05
   95.0400009         3.15822508E-05
   95.2200012         3.07986593E-05
   95.4000015         2.99524363E-05
   95.5800018         2.90428416E-05
   95.7600021         2.80696386E-05
   95.9400024         2.70332202E-05
   96.1200027         2.59347016E-05
   96.3000031         2.47760254E-05
   96.4800034         2.35600455E-05
   96.6600037         2.22905874E-05
   96.8399963         2.09725094E-05
   97.0199966         1.96117217E-05
   97.1999969         1.82151907E-05
   97.3799973         1.67909293E-05
   97.5599976         1.53479432E-05
   97.7399979         1.38961796E-05
   97.9199982         1.24464214E-05
   98.0999985         1.10101782E-05
   98.2799988         9.59954650E-06
   98.4599991         8.22704715E-06
   98.6399994         6.90545176E-06
   98.8199997         5.64757011E-06
   99.0000000         4.46603281E-06
   99.1800003         3.37306574E-06
   99.3600006         2.38025154E-06
   99.5400009         1.49828372E-06
   99.7200012         7.36738343E-07
   99.9000015         1.03846787E-07
   100.080002        -3.93720825E-07
   100.260002        -7.51029290E-07
   100.440002        -9.65054141E-07
   100.620003        -1.03479806E-06
