  -7.19999981         0.00000000    
  -7.01999998         0.00000000    
  -6.84000015         0.00000000    
  -6.65999985         0.00000000    
  -6.48000002         0.00000000    
  -6.30000019         0.00000000    
  -6.11999989         9.24288857E-32
  -5.94000006        -3.15376652E-30
  -5.76000023        -2.60366168E-29
  -5.57999992        -1.14634119E-28
  -5.40000010        -3.20467183E-28
  -5.21999979        -6.60871594E-28
  -5.03999996        -1.09461837E-27
  -4.86000013        -8.40498457E-28
  -4.67999983         4.09390961E-27
  -4.50000000         2.35049550E-26
  -4.32000017         7.11946104E-26
  -4.13999987         1.63682808E-25
  -3.96000004         3.40903824E-25
  -3.77999997         7.11380762E-25
  -3.59999990         1.45420079E-24
  -3.42000008         2.69639146E-24
  -3.24000001         4.36709532E-24
  -3.05999994         6.37887009E-24
  -2.88000011         9.32335850E-24
  -2.70000005         1.50386692E-23
  -2.51999998         2.56674102E-23
  -2.33999991         4.07108678E-23
  -2.16000009         5.45231754E-23
  -1.98000002         5.90851517E-23
  -1.79999995         5.43200090E-23
  -1.62000000         5.95216694E-23
  -1.44000006         1.11271645E-22
  -1.25999999         2.36762553E-22
  -1.08000004         4.11297889E-22
 -0.899999976         5.33414971E-22
 -0.720000029         4.57972100E-22
 -0.540000021         1.01628382E-22
 -0.360000014        -4.15670198E-22
 -0.180000007        -6.79512717E-22
   0.00000000        -5.08289903E-23
  0.180000007         2.01150049E-21
  0.360000014         5.37345614E-21
  0.540000021         8.59372559E-21
  0.720000029         8.73227188E-21
  0.899999976         2.29735420E-21
   1.08000004        -1.22348769E-20
   1.25999999        -3.09243669E-20
   1.44000006        -4.20576590E-20
   1.62000000        -2.82541956E-20
   1.79999995         2.46817447E-20
   1.98000002         1.13495746E-19
   2.16000009         2.04510894E-19
   2.33999991         2.32647468E-19
   2.51999998         1.21969487E-19
   2.70000005        -1.71078115E-19
   2.88000011        -6.04451789E-19
   3.05999994        -1.01376071E-18
   3.24000001        -1.12434328E-18
   3.42000008        -6.35938936E-19
   3.59999990         6.21936837E-19
   3.77999997         2.50462700E-18
   3.96000004         4.41796255E-18
   4.13999987         5.33835773E-18
   4.32000017         4.07324579E-18
   4.50000000        -2.25912719E-19
   4.67999983        -7.41072103E-18
   4.86000013        -1.57956441E-17
   5.03999996        -2.20709274E-17
   5.21999979        -2.19681717E-17
   5.40000010        -1.17606869E-17
   5.57999992         9.68976575E-18
   5.76000023         3.90371214E-17
   5.94000006         6.76650020E-17
   6.11999989         8.28902935E-17
   6.30000019         7.15128212E-17
   6.48000002         2.51642851E-17
   6.65999985        -5.41033130E-17
   6.84000015        -1.50259224E-16
   7.01999998        -2.34015642E-16
   7.19999981        -2.69093315E-16
   7.38000011        -2.23447186E-16
   7.55999994        -8.26922135E-17
   7.73999977         1.38733290E-16
   7.92000008         3.93495350E-16
   8.10000038         6.07794632E-16
   8.27999973         6.98647016E-16
   8.46000004         5.98548315E-16
   8.64000034         2.80807224E-16
   8.81999969        -2.22549622E-16
   9.00000000        -8.17203994E-16
   9.18000031        -1.36056266E-15
   9.35999966        -1.69159955E-15
   9.53999996        -1.66990428E-15
   9.72000027        -1.21415905E-15
   9.89999962        -3.29902181E-16
   10.0799999         8.80958893E-16
   10.2600002         2.23158940E-15
   10.4399996         3.47979113E-15
   10.6199999         4.36841530E-15
   10.8000002         4.66767416E-15
   10.9799995         4.21187768E-15
   11.1599998         2.92704369E-15
   11.3400002         8.49853249E-16
   11.5200005        -1.85976248E-15
   11.6999998        -4.91211643E-15
   11.8800001        -7.89224389E-15
   12.0600004        -1.02853491E-14
   12.2399998        -1.15349785E-14
   12.4200001        -1.11398004E-14
   12.6000004        -8.78237048E-15
   12.7799997        -4.46734070E-15
   12.9600000         1.36679989E-15
   13.1400003         7.80201116E-15
   13.3199997         1.34913248E-14
   13.5000000         1.68145256E-14
   13.6800003         1.61190167E-14
   13.8599997         9.99838538E-15
   14.0400000        -2.45662552E-15
   14.2200003        -2.15024260E-14
   14.3999996        -4.67344398E-14
   14.5799999        -7.72468434E-14
   14.7600002        -1.11939239E-13
   14.9399996        -1.49910602E-13
   15.1199999        -1.90856472E-13
   15.3000002        -2.35379533E-13
   15.4799995        -2.85151893E-13
   15.6599998        -3.42913117E-13
   15.8400002        -4.12337753E-13
   16.0200005        -4.97854850E-13
   16.2000008        -6.04510691E-13
   16.3799992        -7.37951150E-13
   16.5599995        -9.04555185E-13
   16.7399998        -1.11168941E-12
   16.9200001        -1.36800521E-12
   17.1000004        -1.68367327E-12
   17.2800007        -2.07045427E-12
   17.4599991        -2.54156158E-12
   17.6399994        -3.11129638E-12
   17.8199997        -3.79452329E-12
   18.0000000        -4.60607984E-12
   18.1800003        -5.56022155E-12
   18.3600006        -6.67018741E-12
   18.5400009        -7.94790015E-12
   18.7199993        -9.40378071E-12
   18.8999996        -1.10465881E-11
   19.0799999        -1.28831815E-11
   19.2600002        -1.49181657E-11
   19.4400005        -1.71533742E-11
   19.6200008        -1.95872884E-11
   19.7999992        -2.22145219E-11
   19.9799995        -2.50254539E-11
   20.1599998        -2.80062761E-11
   20.3400002        -3.11393238E-11
   20.5200005        -3.44038756E-11
   20.7000008        -3.77771529E-11
   20.8799992        -4.12355913E-11
   21.0599995        -4.47560947E-11
   21.2399998        -4.83172495E-11
   21.4200001        -5.19005151E-11
   21.6000004        -5.54911499E-11
   21.7800007        -5.90793942E-11
   21.9599991        -6.26613691E-11
   22.1399994        -6.62402286E-11
   22.3199997        -6.98271302E-11
   22.5000000        -7.34423494E-11
   22.6800003        -7.71157929E-11
   22.8600006        -8.08873454E-11
   23.0400009        -8.48061413E-11
   23.2199993        -8.89294471E-11
   23.3999996        -9.33206082E-11
   23.5799999        -9.80466125E-11
   23.7600002        -1.03175447E-10
   23.9400005        -1.08773338E-10
   24.1200008        -1.14902442E-10
   24.2999992        -1.21618396E-10
   24.4799995        -1.28968156E-10
   24.6599998        -1.36987574E-10
   24.8400002        -1.45698120E-10
   25.0200005        -1.55102570E-10
   25.2000008        -1.65179259E-10
   25.3799992        -1.75874537E-10
   25.5599995        -1.87093632E-10
   25.7399998        -1.98690286E-10
   25.9200001        -2.10455570E-10
   26.1000004        -2.22106680E-10
   26.2800007        -2.33276454E-10
   26.4599991        -2.43504217E-10
   26.6399994        -2.52228932E-10
   26.8199997        -2.58785160E-10
   27.0000000        -2.62402405E-10
   27.1800003        -2.62209116E-10
   27.3600006        -2.57241506E-10
   27.5400009        -2.46458520E-10
   27.7199993        -2.28762481E-10
   27.8999996        -2.03026040E-10
   28.0799999        -1.68124292E-10
   28.2600002        -1.22971605E-10
   28.4400005        -6.65615965E-11
   28.6200008         1.99167679E-12
   28.7999992         8.34118885E-11
   28.9799995         1.78220050E-10
   29.1599998         2.86696278E-10
   29.3400002         4.08845485E-10
   29.5200005         5.44366940E-10
   29.7000008         6.92629065E-10
   29.8799992         8.52650062E-10
   30.0599995         1.02308617E-09
   30.2399998         1.20222798E-09
   30.4200001         1.38800682E-09
   30.6000004         1.57801228E-09
   30.7800007         1.76952075E-09
   30.9599991         1.95953520E-09
   31.1399994         2.14483564E-09
   31.3199997         2.32203679E-09
   31.5000000         2.48765253E-09
   31.6800003         2.63816213E-09
   31.8600006         2.77007728E-09
   32.0400009         2.88000646E-09
   32.2200012         2.96471514E-09
   32.4000015         3.02117820E-09
   32.5800018         3.04662762E-09
   32.7599983         3.03858716E-09
   32.9399986         2.99489877E-09
   33.1199989         2.91373614E-09
   33.2999992         2.79360801E-09
   33.4799995         2.63334932E-09
   33.6599998         2.43210341E-09
   33.8400002         2.18929919E-09
   34.0200005         1.90462446E-09
   34.2000008         1.57800251E-09
   34.3800011         1.20957666E-09
   34.5600014         7.99707300E-10
   34.7400017         3.48984258E-10
   34.9199982        -1.41741466E-10
   35.0999985        -6.71306455E-10
   35.2799988        -1.23816712E-09
   35.4599991        -1.84031657E-09
   35.6399994        -2.47519161E-09
   35.8199997        -3.13957504E-09
   36.0000000        -3.82949894E-09
   36.1800003        -4.54015625E-09
   36.3600006        -5.26582244E-09
   36.5400009        -5.99979622E-09
   36.7200012        -6.73436595E-09
   36.9000015        -7.46079643E-09
   37.0800018        -8.16935586E-09
   37.2599983        -8.84936657E-09
   37.4399986        -9.48929824E-09
   37.6199989        -1.00768887E-08
   37.7999992        -1.05993099E-08
   37.9799995        -1.10433573E-08
   38.1599998        -1.13956808E-08
   38.3400002        -1.16430376E-08
   38.5200005        -1.17725847E-08
   38.7000008        -1.17721806E-08
   38.8800011        -1.16307142E-08
   39.0600014        -1.13384440E-08
   39.2400017        -1.08873470E-08
   39.4199982        -1.02714610E-08
   39.5999985        -9.48721812E-09
   39.7799988        -8.53375326E-09
   39.9599991        -7.41318029E-09
   40.1399994        -6.13080786E-09
   40.3199997        -4.69529882E-09
   40.5000000        -3.11874881E-09
   40.6800003        -1.41667633E-09
   40.8600006         3.92079313E-10
   41.0400009         2.28556174E-09
   41.2200012         4.23899893E-09
   41.4000015         6.22519725E-09
   41.5800018         8.21502066E-09
   41.7599983         1.01779376E-08
   41.9399986         1.20826256E-08
   42.1199989         1.38976022E-08
   42.2999992         1.55918851E-08
   42.4799995         1.71356351E-08
   42.6599998         1.85007814E-08
   42.8400002         1.96616146E-08
   43.0200005         2.05953281E-08
   43.2000008         2.12824993E-08
   43.3800011         2.17074945E-08
   43.5600014         2.18588134E-08
   43.7400017         2.17293490E-08
   43.9199982         2.13165681E-08
   44.0999985         2.06226076E-08
   44.2799988         1.96542906E-08
   44.4599991         1.84230462E-08
   44.6399994         1.69447443E-08
   44.8199997         1.52394346E-08
   45.0000000         1.33309985E-08
   45.1800003         1.12467085E-08
   45.3600006         9.01671893E-09
   45.5400009         6.67347777E-09
   45.7200012         4.25109281E-09
   45.9000015         1.78465343E-09
   46.0800018        -6.90463742E-10
   46.2599983        -3.13929083E-09
   46.4399986        -5.52793988E-09
   46.6199989        -7.82423992E-09
   46.7999992        -9.99831329E-09
   46.9799995        -1.20230856E-08
   47.1599998        -1.38747138E-08
   47.3400002        -1.55329243E-08
   47.5200005        -1.69812697E-08
   47.7000008        -1.82072846E-08
   47.8800011        -1.92025684E-08
   48.0600014        -1.99627745E-08
   48.2400017        -2.04875406E-08
   48.4199982        -2.07803446E-08
   48.5999985        -2.08483204E-08
   48.7799988        -2.07020072E-08
   48.9599991        -2.03550670E-08
   49.1399994        -1.98239434E-08
   49.3199997        -1.91275014E-08
   49.5000000        -1.82866113E-08
   49.6800003        -1.73237318E-08
   49.8600006        -1.62624350E-08
   50.0400009        -1.51269450E-08
   50.2200012        -1.39416612E-08
   50.4000015        -1.27306787E-08
   50.5800018        -1.15173426E-08
   50.7599983        -1.03238094E-08
   50.9399986        -9.17065535E-09
   51.1199989        -8.07652167E-09
   51.2999992        -7.05780545E-09
   51.4799995        -6.12839246E-09
   51.6599998        -5.29944311E-09
   51.8400002        -4.57922011E-09
   52.0200005        -3.97296374E-09
   52.2000008        -3.48281382E-09
   52.3800011        -3.10777359E-09
   52.5600014        -2.84372659E-09
   52.7400017        -2.68349920E-09
   52.9199982        -2.61697908E-09
   53.0999985        -2.63129163E-09
   53.2799988        -2.71103096E-09
   53.4599991        -2.83856005E-09
   53.6399994        -2.99436054E-09
   53.8199997        -3.15744431E-09
   54.0000000        -3.30580985E-09
   54.1800003        -3.41693629E-09
   54.3600006        -3.46830764E-09
   54.5400009        -3.43794904E-09
   54.7200012        -3.30496230E-09
   54.9000015        -3.05004710E-09
   55.0800018        -2.65599120E-09
   55.2599983        -2.10811435E-09
   55.4399986        -1.39466583E-09
   55.6199989        -5.07150932E-10
   55.7999992         5.59409907E-10
   55.9799995         1.80630622E-09
   56.1599998         3.23102656E-09
   56.3400002         4.82724927E-09
   56.5200005         6.58489885E-09
   56.7000008         8.49028226E-09
   56.8800011         1.05263105E-08
   57.0600014         1.26727713E-08
   57.2400017         1.49066981E-08
   57.4199982         1.72027814E-08
   57.5999985         1.95338590E-08
   57.7799988         2.18714415E-08
   57.9599991         2.41862939E-08
   58.1399994         2.64490421E-08
   58.3199997         2.86307973E-08
   58.5000000         3.07037560E-08
   58.6800003         3.26418039E-08
   58.8600006         3.44210491E-08
   59.0400009         3.60202890E-08
   59.2200012         3.74214082E-08
   59.4000015         3.86096417E-08
   59.5800018         3.95737842E-08
   59.7599983         4.03062614E-08
   59.9399986         4.08031013E-08
   60.1199989         4.10638279E-08
   60.2999992         4.10912975E-08
   60.4799995         4.08914289E-08
   60.6599998         4.04729263E-08
   60.8400002         3.98469631E-08
   61.0200005         3.90268546E-08
   61.2000008         3.80276894E-08
   61.3800011         3.68660160E-08
   61.5600014         3.55594665E-08
   61.7400017         3.41264048E-08
   61.9199982         3.25855964E-08
   62.0999985         3.09558352E-08
   62.2799988         2.92555971E-08
   62.4599991         2.75026792E-08
   62.6399994         2.57138719E-08
   62.8199997         2.39046116E-08
   63.0000000         2.20886829E-08
   63.1800003         2.02779411E-08
   63.3600006         1.84820763E-08
   63.5400009         1.67084409E-08
   63.7200012         1.49619162E-08
   63.9000015         1.32448736E-08
   64.0800018         1.15571677E-08
   64.2600021         9.89622428E-09
   64.4400024         8.25716651E-09
   64.6200027         6.63299948E-09
   64.8000031         5.01484276E-09
   64.9800034         3.39219253E-09
   65.1600037         1.75320547E-09
   65.3399963         8.50063075E-11
   65.5199966        -1.62600255E-09
   65.6999969        -3.39380946E-09
   65.8799973        -5.23244781E-09
   66.0599976        -7.15564141E-09
   66.2399979        -9.17640897E-09
   66.4199982        -1.13066481E-08
   66.5999985        -1.35566811E-08
   66.7799988        -1.59347824E-08
   66.9599991        -1.84466700E-08
   67.1399994        -2.10950173E-08
   67.3199997        -2.38789521E-08
   67.5000000        -2.67936304E-08
   67.6800003        -2.98298772E-08
   67.8600006        -3.29739080E-08
   68.0400009        -3.62072363E-08
   68.2200012        -3.95066522E-08
   68.4000015        -4.28444338E-08
   68.5800018        -4.61886849E-08
   68.7600021        -4.95038321E-08
   68.9400024        -5.27512753E-08
   69.1200027        -5.58901405E-08
   69.3000031        -5.88781681E-08
   69.4800034        -6.16726368E-08
   69.6600037        -6.42313864E-08
   69.8399963        -6.65138273E-08
   70.0199966        -6.84819668E-08
   70.1999969        -7.01014287E-08
   70.3799973        -7.13424555E-08
   70.5599976        -7.21807822E-08
   70.7399979        -7.25985174E-08
   70.9199982        -7.25848111E-08
   71.0999985        -7.21365154E-08
   71.2799988        -7.12585617E-08
   71.4599991        -6.99642797E-08
   71.6399994        -6.82753907E-08
   71.8199997        -6.62219364E-08
   72.0000000        -6.38418385E-08
   72.1800003        -6.11803443E-08
   72.3600006        -5.82891673E-08
   72.5400009        -5.52254065E-08
   72.7200012        -5.20503214E-08
   72.9000015        -4.88278538E-08
   73.0800018        -4.56230573E-08
   73.2600021        -4.25004281E-08
   73.4400024        -3.95221846E-08
   73.6200027        -3.67465844E-08
   73.8000031        -3.42262894E-08
   73.9800034        -3.20069020E-08
   74.1600037        -3.01256442E-08
   74.3399963        -2.86102591E-08
   74.5199966        -2.74781815E-08
   74.6999969        -2.67359237E-08
   74.8799973        -2.63787534E-08
   75.0599976        -2.63906355E-08
   75.2399979        -2.67444289E-08
   75.4199982        -2.74023311E-08
   75.5999985        -2.83165775E-08
   75.7799988        -2.94303462E-08
   75.9599991        -3.06789047E-08
   76.1399994        -3.19909255E-08
   76.3199997        -3.32900321E-08
   76.5000000        -3.44964519E-08
   76.6800003        -3.55288670E-08
   76.8600006        -3.63063108E-08
   77.0400009        -3.67501478E-08
   77.2200012        -3.67860551E-08
   77.4000015        -3.63459343E-08
   77.5800018        -3.53697018E-08
   77.7600021        -3.38069377E-08
   77.9400024        -3.16182671E-08
   78.1200027        -2.87765172E-08
   78.3000031        -2.52675463E-08
   78.4800034        -2.10907807E-08
   78.6600037        -1.62594436E-08
   78.8399963        -1.08004885E-08
   79.0199966        -4.75424589E-09
   79.1999969         1.82618021E-09
   79.3799973         8.87577478E-09
   79.5599976         1.63186886E-08
   79.7399979         2.40695499E-08
   79.9199982         3.20349756E-08
   80.0999985         4.01152640E-08
   80.2799988         4.82062887E-08
   80.4599991         5.62015252E-08
   80.6399994         6.39941931E-08
   80.8199997         7.14794979E-08
   81.0000000         7.85568872E-08
   81.1800003         8.51322355E-08
   81.3600006         9.11199862E-08
   81.5400009         9.64450635E-08
   81.7200012         1.01044577E-07
   81.9000015         1.04869265E-07
   82.0800018         1.07884524E-07
   82.2600021         1.10071184E-07
   82.4400024         1.11425727E-07
   82.6200027         1.11960347E-07
   82.8000031         1.11702384E-07
   82.9800034         1.10693549E-07
   83.1600037         1.08988765E-07
   83.3399963         1.06654731E-07
   83.5199966         1.03768251E-07
   83.6999969         1.00414383E-07
   83.8799973         9.66844667E-08
   84.0599976         9.26740853E-08
   84.2399979         8.84809097E-08
   84.4199982         8.42026040E-08
   84.5999985         7.99347291E-08
   84.7799988         7.57686891E-08
   84.9599991         7.17897208E-08
   85.1399994         6.80750603E-08
   85.3199997         6.46922089E-08
   85.5000000         6.16973708E-08
   85.6800003         5.91342122E-08
   85.8600006         5.70328744E-08
   86.0400009         5.54093482E-08
   86.2200012         5.42652607E-08
   86.4000015         5.35880815E-08
   86.5800018         5.33517230E-08
   86.7600021         5.35175744E-08
   86.9400024         5.40358940E-08
   87.1200027         5.48474866E-08
   87.3000031         5.58856748E-08
   87.4800034         5.70783243E-08
   87.6600037         5.83500359E-08
   87.8399963         5.96242202E-08
   88.0199966         6.08251653E-08
   88.1999969         6.18798950E-08
   88.3799973         6.27198418E-08
   88.5599976         6.32823216E-08
   88.7399979         6.35117203E-08
   88.9199982         6.33604174E-08
   89.0999985         6.27895176E-08
   89.2799988         6.17692564E-08
   89.4599991         6.02792056E-08
   89.6399994         5.83082560E-08
   89.8199997         5.58543540E-08
   90.0000000         5.29240722E-08
   90.1800003         4.95319732E-08
   90.3600006         4.56997888E-08
   90.5400009         4.14554719E-08
   90.7200012         3.68321018E-08
   90.9000015         3.18667404E-08
   91.0800018         2.65992206E-08
   91.2600021         2.10709281E-08
   91.4400024         1.53236375E-08
   91.6200027         9.39840472E-09
   91.8000031         3.33459949E-09
   91.9800034        -2.83093748E-09
   92.1600037        -9.06454112E-09
   92.3399963        -1.53361963E-08
   92.5199966        -2.16198242E-08
   92.6999969        -2.78933943E-08
   92.8799973        -3.41388571E-08
   93.0599976        -4.03419449E-08
   93.2399979        -4.64918131E-08
   93.4199982        -5.25806279E-08
   93.5999985        -5.86030460E-08
   93.7799988        -6.45556497E-08
   93.9599991        -7.04363714E-08
   94.1399994        -7.62438717E-08
   94.3199997        -8.19769141E-08
   94.5000000        -8.76337438E-08
   94.6800003        -9.32114901E-08
   94.8600006        -9.87055273E-08
   95.0400009        -1.04108878E-07
   95.2200012        -1.09411623E-07
   95.4000015        -1.14600354E-07
   95.5800018        -1.19657656E-07
   95.7600021        -1.24561694E-07
   95.9400024        -1.29285837E-07
   96.1200027        -1.33798395E-07
   96.3000031        -1.38062504E-07
   96.4800034        -1.42036100E-07
   96.6600037        -1.45672033E-07
   96.8399963        -1.48918303E-07
   97.0199966        -1.51718424E-07
   97.1999969        -1.54011943E-07
   97.3799973        -1.55734938E-07
   97.5599976        -1.56820775E-07
   97.7399979        -1.57200873E-07
   97.9199982        -1.56805626E-07
   98.0999985        -1.55565360E-07
   98.2799988        -1.53411435E-07
   98.4599991        -1.50277543E-07
   98.6399994        -1.46101030E-07
   98.8199997        -1.40824369E-07
   99.0000000        -1.34396771E-07
   99.1800003        -1.26775873E-07
   99.3600006        -1.17929432E-07
   99.5400009        -1.07837110E-07
   99.7200012        -9.64920446E-08
   99.9000015        -8.39025205E-08
   100.080002        -7.00933640E-08
   100.260002        -5.51070904E-08
   100.440002        -3.90048740E-08
   100.620003        -2.18671126E-08
