  -7.19999981       0.00000000    
  -7.01999998       0.00000000    
  -6.84000015       0.00000000    
  -6.65999985       0.00000000    
  -6.48000002       0.00000000    
  -6.30000019       0.00000000    
  -6.11999989      -1.20055906E-31
  -5.94000006      -1.17095309E-30
  -5.76000023      -7.52538468E-30
  -5.57999992      -3.39132731E-29
  -5.40000010      -1.05996528E-28
  -5.21999979      -2.54675539E-28
  -5.03999996      -5.30446366E-28
  -4.86000013      -8.89550160E-28
  -4.67999983      -6.14133848E-28
  -4.50000000       2.23295746E-27
  -4.32000017       9.79490067E-27
  -4.13999987       2.34814047E-26
  -3.96000004       5.06094854E-26
  -3.77999997       1.19254987E-25
  -3.59999990       2.76901394E-25
  -3.42000008       5.45894162E-25
  -3.24000001       8.77369324E-25
  -3.05999994       1.22657931E-24
  -2.88000011       1.78921621E-24
  -2.70000005       3.13626050E-24
  -2.51999998       5.79913187E-24
  -2.33999991       9.30573535E-24
  -2.16000009       1.16911174E-23
  -1.98000002       1.09725764E-23
  -1.79999995       8.63604529E-24
  -1.62000000       1.21864258E-23
  -1.44000006       3.21807981E-23
  -1.25999999       7.21397457E-23
  -1.08000004       1.16897801E-22
 -0.899999976       1.30829653E-22
 -0.720000029       7.54492444E-23
 -0.540000021      -5.51719598E-23
 -0.360000014      -1.97250189E-22
 -0.180000007      -2.05065579E-22
   4.44089210E-16   1.07037053E-22
  0.180000007       8.48428512E-22
  0.360000014       1.87470570E-21
  0.540000021       2.63110401E-21
  0.720000029       2.18542027E-21
  0.899999976      -3.58877060E-22
   1.08000004      -5.03548258E-21
   1.25999999      -1.01069297E-20
   1.44000006      -1.18052834E-20
   1.62000000      -5.50913799E-21
   1.79999995       1.14490973E-20
   1.98000002       3.62941585E-20
   2.16000009       5.86435641E-20
   2.33999991       6.18250299E-20
   2.51999998       2.86995903E-20
   2.70000005      -4.89542353E-20
   2.88000011      -1.60293877E-19
   3.05999994      -2.68413543E-19
   3.24000001      -3.10913488E-19
   3.42000008      -2.12658830E-19
   3.59999990       8.56117458E-20
   3.77999997       5.83667636E-19
   3.96000004       1.17404278E-18
   4.13999987       1.61471032E-18
   4.32000017       1.55595300E-18
   4.50000000       6.48457229E-19
   4.67999983      -1.27058375E-18
   4.86000013      -3.96504518E-18
   5.03999996      -6.65917658E-18
   5.21999979      -8.08269113E-18
   5.40000010      -6.77998175E-18
   5.57999992      -1.67329859E-18
   5.76000023       7.24823216E-18
   5.94000006       1.83500275E-17
   6.11999989       2.81754227E-17
   6.30000019       3.19294992E-17
   6.48000002       2.47413228E-17
   6.65999985       3.57420359E-18
   6.84000015      -3.06615769E-17
   7.01999998      -7.15335007E-17
   7.19999981      -1.06923060E-16
   7.38000011      -1.20978381E-16
   7.55999994      -9.83387649E-17
   7.73999977      -2.99419298E-17
   7.92000008       8.11619095E-17
   8.10000038       2.16115110E-16
   8.27999973       3.40688298E-16
   8.46000004       4.10951428E-16
   8.64000034       3.83786526E-16
   8.81999969       2.30195232E-16
   9.00000000      -5.18910317E-17
   9.18000031      -4.29006253E-16
   9.35999966      -8.30870235E-16
   9.53999996      -1.15809574E-15
   9.72000027      -1.29859182E-15
   9.89999962      -1.15035682E-15
   10.0799999      -6.46795894E-16
   10.2600002       2.20092101E-16
   10.4399996       1.38316203E-15
   10.6199999       2.69373990E-15
   10.8000002       3.92753931E-15
   10.9799995       4.80369325E-15
   11.1599998       5.01664369E-15
   11.3400002       4.27980676E-15
   11.5200005       2.37861590E-15
   11.6999998      -7.71829709E-16
   11.8800001      -5.07292860E-15
   12.0600004      -1.02046930E-14
   12.2399998      -1.56182338E-14
   12.4200001      -2.05715656E-14
   12.6000004      -2.42149762E-14
   12.7799997      -2.57219088E-14
   12.9600000      -2.44485083E-14
   13.1400003      -2.00945167E-14
   13.3199997      -1.28325000E-14
   13.5000000      -3.37396580E-15
   13.6800003       7.05080390E-15
   13.8599997       1.68083456E-14
   14.0400000       2.40650903E-14
   14.2200003       2.70526484E-14
   14.3999996       2.43557124E-14
   14.5799999       1.51746816E-14
   14.7600002      -4.85640888E-16
   14.9399996      -2.17387686E-14
   15.1199999      -4.68733600E-14
   15.3000002      -7.35446182E-14
   15.4799995      -9.90866189E-14
   15.6599998      -1.20918100E-13
   15.8400002      -1.37013597E-13
   16.0200005      -1.46413060E-13
   16.2000008      -1.49746413E-13
   16.3799992      -1.49749218E-13
   16.5599995      -1.51741697E-13
   16.7399998      -1.64044871E-13
   16.9200001      -1.98294208E-13
   17.1000004      -2.69656395E-13
   17.2800007      -3.96912375E-13
   17.4599991      -6.02449134E-13
   17.6399994      -9.12170730E-13
   17.8199997      -1.35536059E-12
   18.0000000      -1.96452446E-12
   18.1800003      -2.77520194E-12
   18.3600006      -3.82574137E-12
   18.5400009      -5.15696730E-12
   18.7199993      -6.81167232E-12
   18.8999996      -8.83384511E-12
   19.0799999      -1.12675555E-11
   19.2600002      -1.41554928E-11
   19.4400005      -1.75371540E-11
   19.6200008      -2.14468322E-11
   19.7999992      -2.59115351E-11
   19.9799995      -3.09490315E-11
   20.1599998      -3.65662188E-11
   20.3400002      -4.27579257E-11
   20.5200005      -4.95063608E-11
   20.7000008      -5.67810833E-11
   20.8799992      -6.45397277E-11
   21.0599995      -7.27292393E-11
   21.2399998      -8.12877959E-11
   21.4200001      -9.01470773E-11
   21.6000004      -9.92348703E-11
   21.7800007      -1.08477928E-10
   21.9599991      -1.17804627E-10
   22.1399994      -1.27147626E-10
   22.3199997      -1.36445757E-10
   22.5000000      -1.45645551E-10
   22.6800003      -1.54701765E-10
   22.8600006      -1.63576847E-10
   23.0400009      -1.72239473E-10
   23.2199993      -1.80661971E-10
   23.3999996      -1.88816976E-10
   23.5799999      -1.96673552E-10
   23.7600002      -2.04192913E-10
   23.9400005      -2.11324222E-10
   24.1200008      -2.18000590E-10
   24.2999992      -2.24135530E-10
   24.4799995      -2.29620045E-10
   24.6599998      -2.34320424E-10
   24.8400002      -2.38076864E-10
   25.0200005      -2.40702985E-10
   25.2000008      -2.41986015E-10
   25.3799992      -2.41688031E-10
   25.5599995      -2.39547771E-10
   25.7399998      -2.35283432E-10
   25.9200001      -2.28596531E-10
   26.1000004      -2.19176816E-10
   26.2800007      -2.06708178E-10
   26.4599991      -1.90875551E-10
   26.6399994      -1.71372930E-10
   26.8199997      -1.47911447E-10
   27.0000000      -1.20228064E-10
   27.1800003      -8.80939696E-11
   27.3600006      -5.13227308E-11
   27.5400009      -9.77789030E-12
   27.7199993       3.66204497E-11
   27.8999996       8.78900841E-11
   28.0799999       1.43982326E-10
   28.2600002       2.04778902E-10
   28.4400005       2.70090117E-10
   28.6200008       3.39653972E-10
   28.7999992       4.13136053E-10
   28.9799995       4.90130325E-10
   29.1599998       5.70159975E-10
   29.3400002       6.52678300E-10
   29.5200005       7.37069406E-10
   29.7000008       8.22648782E-10
   29.8799992       9.08663145E-10
   30.0599995       9.94290872E-10
   30.2399998       1.07864273E-09
   30.4200001       1.16076437E-09
   30.6000004       1.23963984E-09
   30.7800007       1.31419853E-09
   30.9599991       1.38332323E-09
   31.1399994       1.44586110E-09
   31.3199997       1.50063550E-09
   31.5000000       1.54645907E-09
   31.6800003       1.58214630E-09
   31.8600006       1.60652558E-09
   32.0400009       1.61844982E-09
   32.2200012       1.61680436E-09
   32.4000015       1.60051405E-09
   32.5800018       1.56854840E-09
   32.7599983       1.51992541E-09
   32.9399986       1.45371437E-09
   33.1199989       1.36903933E-09
   33.2999992       1.26508271E-09
   33.4799995       1.14109078E-09
   33.6599998       9.96381200E-10
   33.8400002       8.30355729E-10
   34.0200005       6.42516762E-10
   34.2000008       4.32491570E-10
   34.3800011       2.00063091E-10
   34.5600014      -5.47910745E-11
   34.7400017      -3.31852185E-10
   34.9199982      -6.30606733E-10
   35.0999985      -9.50187595E-10
   35.2799988      -1.28931199E-09
   35.4599991      -1.64621927E-09
   35.6399994      -2.01861261E-09
   35.8199997      -2.40360665E-09
   36.0000000      -2.79768742E-09
   36.1800003      -3.19668492E-09
   36.3600006      -3.59576280E-09
   36.5400009      -3.98942746E-09
   36.7200012      -4.37155734E-09
   36.9000015      -4.73545425E-09
   37.0800018      -5.07391951E-09
   37.2599983      -5.37934675E-09
   37.4399986      -5.64384006E-09
   37.6199989      -5.85935078E-09
   37.7999992      -6.01782846E-09
   37.9799995      -6.11138917E-09
   38.1599998      -6.13249407E-09
   38.3400002      -6.07413941E-09
   38.5200005      -5.93004934E-09
   38.7000008      -5.69487346E-09
   38.8800011      -5.36438272E-09
   39.0600014      -4.93565766E-09
   39.2400017      -4.40726922E-09
   39.4199982      -3.77944298E-09
   39.5999985      -3.05420200E-09
   39.7799988      -2.23548557E-09
   39.9599991      -1.32923150E-09
   40.1399994      -3.43419515E-10
   40.3199997       7.11932069E-10
   40.5000000       1.82482229E-09
   40.6800003       2.98137870E-09
   40.8600006       4.16602575E-09
   41.0400009       5.36171330E-09
   41.2200012       6.55019550E-09
   41.4000015       7.71236053E-09
   41.5800018       8.82860274E-09
   41.7599983       9.87921833E-09
   41.9399986       1.08448210E-08
   42.1199989       1.17067600E-08
   42.2999992       1.24475266E-08
   42.4799995       1.30511371E-08
   42.6599998       1.35034872E-08
   42.8400002       1.37926586E-08
   43.0200005       1.39091805E-08
   43.2000008       1.38462433E-08
   43.3800011       1.35998510E-08
   43.5600014       1.31689264E-08
   43.7400017       1.25553576E-08
   43.9199982       1.17640031E-08
   44.0999985       1.08026326E-08
   44.2799988       9.68183578E-09
   44.4599991       8.41486791E-09
   44.6399994       7.01745329E-09
   44.8199997       5.50754020E-09
   45.0000000       3.90500343E-09
   45.1800003       2.23130625E-09
   45.3600006       5.09117637E-10
   45.5400009      -1.23810528E-09
   45.7200012      -2.98656189E-09
   45.9000015      -4.71256856E-09
   46.0800018      -6.39302655E-09
   46.2599983      -8.00587330E-09
   46.4399986      -9.53051948E-09
   46.6199989      -1.09482370E-08
   46.7999992      -1.22425057E-08
   46.9799995      -1.33992968E-08
   47.1599998      -1.44072914E-08
   47.3400002      -1.52580277E-08
   47.5200005      -1.59459734E-08
   47.7000008      -1.64685332E-08
   47.8800011      -1.68259895E-08
   48.0600014      -1.70213728E-08
   48.2400017      -1.70602998E-08
   48.4199982      -1.69507608E-08
   48.5999985      -1.67028649E-08
   48.7799988      -1.63285723E-08
   48.9599991      -1.58413922E-08
   49.1399994      -1.52560773E-08
   49.3199997      -1.45882959E-08
   49.5000000      -1.38543079E-08
   49.6800003      -1.30706308E-08
   49.8600006      -1.22537074E-08
   50.0400009      -1.14195782E-08
   50.2200012      -1.05835722E-08
   50.4000015      -9.76000969E-09
   50.5800018      -8.96193342E-09
   50.7599983      -8.20086665E-09
   50.9399986      -7.48662021E-09
   51.1199989      -6.82712376E-09
   51.2999992      -6.22831964E-09
   51.4799995      -5.69408876E-09
   51.6599998      -5.22623012E-09
   51.8400002      -4.82448037E-09
   52.0200005      -4.48657866E-09
   52.2000008      -4.20836699E-09
   52.3800011      -3.98392697E-09
   52.5600014      -3.80574683E-09
   52.7400017      -3.66490971E-09
   52.9199982      -3.55131413E-09
   53.0999985      -3.45390516E-09
   53.2799988      -3.36092576E-09
   53.4599991      -3.26018035E-09
   53.6399994      -3.13930260E-09
   53.8199997      -2.98602454E-09
   54.0000000      -2.78844547E-09
   54.1800003      -2.53528953E-09
   54.3600006      -2.21614993E-09
   54.5400009      -1.82171478E-09
   54.7200012      -1.34396405E-09
   54.9000015      -7.76344544E-10
   55.0800018      -1.13909118E-10
   55.2599983       6.46580900E-10
   55.4399986       1.50657731E-09
   55.6199989       2.46571008E-09
   55.7999992       3.52177665E-09
   55.9799995       4.67076378E-09
   56.1599998       5.90690785E-09
   56.3400002       7.22277793E-09
   56.5200005       8.60938254E-09
   56.7000008       1.00563105E-08
   56.8800011       1.15518874E-08
   57.0600014       1.30833557E-08
   57.2400017       1.46370809E-08
   57.4199982       1.61987668E-08
   57.5999985       1.77537025E-08
   57.7799988       1.92870164E-08
   57.9599991       2.07839381E-08
   58.1399994       2.22300649E-08
   58.3199997       2.36116371E-08
   58.5000000       2.49157779E-08
   58.6800003       2.61307456E-08
   58.8600006       2.72461254E-08
   59.0400009       2.82530035E-08
   59.2200012       2.91440845E-08
   59.4000015       2.99137639E-08
   59.5800018       3.05581516E-08
   59.7599983       3.10750146E-08
   59.9399986       3.14637312E-08
   60.1199989       3.17251505E-08
   60.2999992       3.18614504E-08
   60.4799995       3.18759845E-08
   60.6599998       3.17730802E-08
   60.8400002       3.15578852E-08
   61.0200005       3.12361834E-08
   61.2000008       3.08142383E-08
   61.3800011       3.02986471E-08
   61.5600014       2.96961975E-08
   61.7400017       2.90137567E-08
   61.9199982       2.82581318E-08
   62.0999985       2.74359646E-08
   62.2799988       2.65535967E-08
   62.4599991       2.56169628E-08
   62.6399994       2.46314773E-08
   62.8199997       2.36019186E-08
   63.0000000       2.25323387E-08
   63.1800003       2.14259828E-08
   63.3600006       2.02852295E-08
   63.5400009       1.91115781E-08
   63.7200012       1.79056556E-08
   63.9000015       1.66672791E-08
   64.0800018       1.53955462E-08
   64.2600021       1.40889558E-08
   64.4400024       1.27455753E-08
   64.6200027       1.13632117E-08
   64.8000031       9.93959492E-09
   64.9800034       8.47257731E-09
   65.1600037       6.96031721E-09
   65.3399963       5.40142686E-09
   65.5199966       3.79512599E-09
   65.6999969       2.14134088E-09
   65.8799973       4.40795456E-10
   66.0599976      -1.30493294E-09
   66.2399979      -3.09336778E-09
   66.4199982      -4.92109997E-09
   66.5999985      -6.78376244E-09
   66.7799988      -8.67600214E-09
   66.9599991      -1.05914690E-08
   67.1399994      -1.25227881E-08
   67.3199997      -1.44615564E-08
   67.5000000      -1.63983351E-08
   67.6800003      -1.83226874E-08
   67.8600006      -2.02232311E-08
   68.0400009      -2.20877485E-08
   68.2200012      -2.39033362E-08
   68.4000015      -2.56566146E-08
   68.5800018      -2.73339751E-08
   68.7600021      -2.89218800E-08
   68.9400024      -3.04072110E-08
   69.1200027      -3.17776205E-08
   69.3000031      -3.30219301E-08
   69.4800034      -3.41305189E-08
   69.6600037      -3.50956917E-08
   69.8399963      -3.59120271E-08
   70.0199966      -3.65767114E-08
   70.1999969      -3.70897943E-08
   70.3799973      -3.74543916E-08
   70.5599976      -3.76768554E-08
   70.7399979      -3.77668279E-08
   70.9199982      -3.77372587E-08
   71.0999985      -3.76043232E-08
   71.2799988      -3.73872560E-08
   71.4599991      -3.71081050E-08
   71.6399994      -3.67914161E-08
   71.8199997      -3.64638311E-08
   72.0000000      -3.61535832E-08
   72.1800003      -3.58899577E-08
   72.3600006      -3.57026444E-08
   72.5400009      -3.56210208E-08
   72.7200012      -3.56734304E-08
   72.9000015      -3.58863446E-08
   73.0800018      -3.62835806E-08
   73.2600021      -3.68854778E-08
   73.4400024      -3.77081086E-08
   73.6200027      -3.87625718E-08
   73.8000031      -4.00543207E-08
   73.9800034      -4.15826804E-08
   74.1600037      -4.33404210E-08
   74.3399963      -4.53135485E-08
   74.5199966      -4.74812332E-08
   74.6999969      -4.98158990E-08
   74.8799973      -5.22834931E-08
   75.0599976      -5.48438841E-08
   75.2399979      -5.74514587E-08
   75.4199982      -6.00557755E-08
   75.5999985      -6.26024459E-08
   75.7799988      -6.50339729E-08
   75.9599991      -6.72908484E-08
   76.1399994      -6.93125486E-08
   76.3199997      -7.10387340E-08
   76.5000000      -7.24104297E-08
   76.6800003      -7.33711971E-08
   76.8600006      -7.38683852E-08
   77.0400009      -7.38542525E-08
   77.2200012      -7.32871399E-08
   77.4000015      -7.21324653E-08
   77.5800018      -7.03635905E-08
   77.7600021      -6.79626098E-08
   77.9400024      -6.49208900E-08
   78.1200027      -6.12394118E-08
   78.3000031      -5.69289895E-08
   78.4800034      -5.20101473E-08
   78.6600037      -4.65129091E-08
   78.8399963      -4.04763369E-08
   79.0199966      -3.39479236E-08
   79.1999969      -2.69828213E-08
   79.3799973      -1.96429681E-08
   79.5599976      -1.19960664E-08
   79.7399979      -4.11447676E-09
   79.9199982       3.92595512E-09
   80.0999985       1.20471526E-08
   80.2799988       2.01701127E-08
   80.4599991       2.82162329E-08
   80.6399994       3.61086769E-08
   80.8199997       4.37736816E-08
   81.0000000       5.11418854E-08
   81.1800003       5.81495421E-08
   81.3600006       6.47396448E-08
   81.5400009       7.08629244E-08
   81.7200012       7.64786350E-08
   81.9000015       8.15551857E-08
   82.0800018       8.60704787E-08
   82.2600021       9.00121151E-08
   82.4400024       9.33772810E-08
   82.6200027       9.61724140E-08
   82.8000031       9.84126842E-08
   82.9800034       1.00121262E-07
   83.1600037       1.01328375E-07
   83.3399963       1.02070317E-07
   83.5199966       1.02388391E-07
   83.6999969       1.02327654E-07
   83.8799973       1.01935768E-07
   84.0599976       1.01261868E-07
   84.2399979       1.00355322E-07
   84.4199982       9.92647031E-08
   84.5999985       9.80366792E-08
   84.7799988       9.67150626E-08
   84.9599991       9.53398427E-08
   85.1399994       9.39463902E-08
   85.3199997       9.25647186E-08
   85.5000000       9.12188156E-08
   85.6800003       8.99262247E-08
   85.8600006       8.86976821E-08
   86.0400009       8.75370034E-08
   86.2200012       8.64411760E-08
   86.4000015       8.54006572E-08
   86.5800018       8.43998862E-08
   86.7600021       8.34180227E-08
   86.9400024       8.24298141E-08
   87.1200027       8.14066894E-08
   87.3000031       8.03178892E-08
   87.4800034       7.91316666E-08
   87.6600037       7.78164875E-08
   87.8399963       7.63421610E-08
   88.0199966       7.46809121E-08
   88.1999969       7.28082910E-08
   88.3799973       7.07039050E-08
   88.5599976       6.83520511E-08
   88.7399979       6.57420571E-08
   88.9199982       6.28685086E-08
   89.0999985       5.97312422E-08
   89.2799988       5.63351819E-08
   89.4599991       5.26900088E-08
   89.6399994       4.88097029E-08
   89.8199997       4.47119319E-08
   90.0000000       4.04173726E-08
   90.1800003       3.59489576E-08
   90.3600006       3.13310622E-08
   90.5400009       2.65886690E-08
   90.7200012       2.17465708E-08
   90.9000015       1.68285972E-08
   91.0800018       1.18568977E-08
   91.2600021       6.85133283E-09
   91.4400024       1.82895599E-09
   91.6200027      -3.19637983E-09
   91.8000031      -8.21426216E-09
   91.9800034      -1.32178384E-08
   92.1600037      -1.82037301E-08
   92.3399963      -2.31718857E-08
   92.5199966      -2.81252159E-08
   92.6999969      -3.30691741E-08
   92.8799973      -3.80111835E-08
   93.0599976      -4.29600213E-08
   93.2399979      -4.79250915E-08
   93.4199982      -5.29157198E-08
   93.5999985      -5.79403547E-08
   93.7799988      -6.30058281E-08
   93.9599991      -6.81165986E-08
   94.1399994      -7.32740517E-08
   94.3199997      -7.84758640E-08
   94.5000000      -8.37153706E-08
   94.6800003      -8.89811176E-08
   94.8600006      -9.42564853E-08
   95.0400009      -9.95193901E-08
   95.2200012      -1.04742263E-07
   95.4000015      -1.09892035E-07
   95.5800018      -1.14930401E-07
   95.7600021      -1.19814217E-07
   95.9400024      -1.24495955E-07
   96.1200027      -1.28924455E-07
   96.3000031      -1.33045674E-07
   96.4800034      -1.36803479E-07
   96.6600037      -1.40140614E-07
   96.8399963      -1.42999497E-07
   97.0199966      -1.45323199E-07
   97.1999969      -1.47056184E-07
   97.3799973      -1.48145105E-07
   97.5599976      -1.48539527E-07
   97.7399979      -1.48192541E-07
   97.9199982      -1.47061385E-07
   98.0999985      -1.45107933E-07
   98.2799988      -1.42299157E-07
   98.4599991      -1.38607632E-07
   98.6399994      -1.34011856E-07
   98.8199997      -1.28496637E-07
   99.0000000      -1.22053464E-07
   99.1800003      -1.14680731E-07
   99.3600006      -1.06384014E-07
   99.5400009      -9.71762617E-08
   99.7200012      -8.70779218E-08
   99.9000015      -7.61170256E-08
   100.080002      -6.43292708E-08
   100.260002      -5.17580006E-08
   100.440002      -3.84541643E-08
   100.620003      -2.44762379E-08
