  -7.65000010         5.21952786E-18
  -7.53125000         5.21952786E-18
  -7.41249990         5.21952786E-18
  -7.29374981         5.21952786E-18
  -7.17500019         5.21952704E-18
  -7.05625010         5.21952662E-18
  -6.93750000         5.21952580E-18
  -6.81874990         5.21952538E-18
  -6.69999981         5.21952414E-18
  -6.58125019         5.21952331E-18
  -6.46250010         5.21952207E-18
  -6.34375000         5.21952125E-18
  -6.22499990         5.21952000E-18
  -6.10624981         5.21951876E-18
  -5.98750019         5.21951752E-18
  -5.86875010         5.21951587E-18
  -5.75000000         5.21951421E-18
  -5.63124990         5.21951215E-18
  -5.51249981         5.21951008E-18
  -5.39375019         5.21950760E-18
  -5.27500010         5.21950512E-18
  -5.15625000         5.21950263E-18
  -5.03749990         5.21950015E-18
  -4.91874981         5.21949767E-18
  -4.80000019         5.21949478E-18
  -4.68125010         5.21949188E-18
  -4.56250000         5.21948899E-18
  -4.44374990         5.21948568E-18
  -4.32499981         5.21948320E-18
  -4.20625019         5.21947989E-18
  -4.08750010         5.21947699E-18
  -3.96875000         5.21947410E-18
  -3.84999990         5.21947161E-18
  -3.73125005         5.21946872E-18
  -3.61249995         5.21946582E-18
  -3.49375010         5.21946293E-18
  -3.37500000         5.21945921E-18
  -3.25624990         5.21945507E-18
  -3.13750005         5.21945094E-18
  -3.01874995         5.21944597E-18
  -2.90000010         5.21944101E-18
  -2.78125000         5.21943522E-18
  -2.66249990         5.21942984E-18
  -2.54375005         5.21942447E-18
  -2.42499995         5.21941909E-18
  -2.30625010         5.21941371E-18
  -2.18750000         5.21940916E-18
  -2.06874990         5.21940461E-18
  -1.95000005         5.21940048E-18
  -1.83124995         5.21939676E-18
  -1.71249998         5.21939303E-18
  -1.59375000         5.21938890E-18
  -1.47500002         5.21938393E-18
  -1.35625005         5.21937814E-18
  -1.23749995         5.21937194E-18
  -1.11874998         5.21936532E-18
  -1.00000000         5.21935829E-18
 -0.881250024         5.21935085E-18
 -0.762499988         5.21934299E-18
 -0.643750012         5.21933513E-18
 -0.524999976         5.21932686E-18
 -0.406250000         5.21931941E-18
 -0.287499994         5.21931238E-18
 -0.168750003         5.21930618E-18
  -5.00000007E-02     5.21929997E-18
   6.87500015E-02     5.21929418E-18
  0.187500000         5.21928881E-18
  0.306250006         5.21928302E-18
  0.425000012         5.21927723E-18
  0.543749988         5.21927102E-18
  0.662500024         5.21926358E-18
  0.781250000         5.21925613E-18
  0.899999976         5.21924745E-18
   1.01874995         5.21923835E-18
   1.13750005         5.21922842E-18
   1.25625002         5.21921808E-18
   1.37500000         5.21920774E-18
   1.49374998         5.21919740E-18
   1.61249995         5.21918748E-18
   1.73125005         5.21917838E-18
   1.85000002         5.21916969E-18
   1.96875000         5.21916142E-18
   2.08750010         5.21915356E-18
   2.20624995         5.21914529E-18
   2.32500005         5.21913785E-18
   2.44374990         5.21912999E-18
   2.56250000         5.21912172E-18
   2.68125010         5.21911262E-18
   2.79999995         5.21910311E-18
   2.91875005         5.21909235E-18
   3.03749990         5.21908077E-18
   3.15625000         5.21906836E-18
   3.27500010         5.21905596E-18
   3.39374995         5.21904272E-18
   3.51250005         5.21903031E-18
   3.63124990         5.21901832E-18
   3.75000000         5.21900674E-18
   3.86875010         5.21899599E-18
   3.98749995         5.21898606E-18
   4.10624981         5.21897696E-18
   4.22499990         5.21896786E-18
   4.34375000         5.21895876E-18
   4.46250010         5.21894925E-18
   4.58125019         5.21893891E-18
   4.69999981         5.21892816E-18
   4.81874990         5.21891658E-18
   4.93750000         5.21890417E-18
   5.05625010         5.21889093E-18
   5.17500019         5.21887687E-18
   5.29374981         5.21886198E-18
   5.41249990         5.21884709E-18
   5.53125000         5.21883179E-18
   5.65000010         5.21881649E-18
   5.76875019         5.21880201E-18
   5.88749981         5.21878671E-18
   6.00624990         5.21877141E-18
   6.12500000         5.21875734E-18
   6.24375010         5.21874328E-18
   6.36250019         5.21873005E-18
   6.48124981         5.21871888E-18
   6.59999990         5.21870895E-18
   6.71875000         5.21870110E-18
   6.83750010         5.21869655E-18
   6.95625019         5.21869407E-18
   7.07499981         5.21869365E-18
   7.19374990         5.21869448E-18
   7.31250000         5.21869407E-18
   7.43125010         5.21869034E-18
   7.55000019         5.21867835E-18
   7.66874981         5.21865560E-18
   7.78749990         5.21861796E-18
   7.90625000         5.21856213E-18
   8.02499962         5.21848727E-18
   8.14375019         5.21839504E-18
   8.26249981         5.21829040E-18
   8.38125038         5.21818245E-18
   8.50000000         5.21808567E-18
   8.61874962         5.21801619E-18
   8.73750019         5.21799427E-18
   8.85624981         5.21803770E-18
   8.97500038         5.21816343E-18
   9.09375000         5.21838180E-18
   9.21249962         5.21869034E-18
   9.33125019         5.21907622E-18
   9.44999981         5.21950760E-18
   9.56875038         5.21993566E-18
   9.68750000         5.22029466E-18
   9.80624962         5.22050766E-18
   9.92500019         5.22049153E-18
   10.0437498         5.22016645E-18
   10.1625004         5.21947203E-18
   10.2812500         5.21837808E-18
   10.3999996         5.21689950E-18
   10.5187502         5.21510782E-18
   10.6374998         5.21314079E-18
   10.7562504         5.21120146E-18
   10.8750000         5.20955248E-18
   10.9937496         5.20849700E-18
   11.1125002         5.20835513E-18
   11.2312498         5.20942096E-18
   11.3500004         5.21192318E-18
   11.4687500         5.21597388E-18
   11.5874996         5.22152344E-18
   11.7062502         5.22831997E-18
   11.8249998         5.23588784E-18
   11.9437504         5.24352148E-18
   12.0625000         5.25031553E-18
   12.1812496         5.25521492E-18
   12.3000002         5.25710833E-18
   12.4187498         5.25494195E-18
   12.5375004         5.24786087E-18
   12.6562500         5.23535845E-18
   12.7749996         5.21742145E-18
   12.8937502         5.19465620E-18
   13.0124998         5.16836757E-18
   13.1312504         5.14058381E-18
   13.2500000         5.11399947E-18
   13.3687496         5.09183310E-18
   13.4875002         5.07759649E-18
   13.6062498         5.07477787E-18
   13.7250004         5.08646139E-18
   13.8437500         5.11490482E-18
   13.9624996         5.16111899E-18
   14.0812502         5.22449219E-18
   14.1999998         5.30250276E-18
   14.3187504         5.39058054E-18
   14.4375000         5.48214861E-18
   14.5562496         5.56887519E-18
   14.6750002         5.64115795E-18
   14.7937498         5.68882547E-18
   14.9125004         5.70202686E-18
   15.0312500         5.67225084E-18
   15.1499996         5.59339820E-18
   15.2687502         5.46280623E-18
   15.3874998         5.28212310E-18
   15.5062504         5.05791621E-18
   15.6250000         4.80191622E-18
   15.7437496         4.53082142E-18
   15.8625002         4.26560829E-18
   15.9812498         4.03034613E-18
   16.1000004         3.85055429E-18
   16.2187500         3.75118880E-18
   16.3374996         3.75439744E-18
   16.4562492         3.87721846E-18
   16.5750008         4.12941797E-18
   16.6937504         4.51168749E-18
   16.8125000         5.01439328E-18
   16.9312496         5.61705970E-18
   17.0499992         6.28870802E-18
   17.1687508         6.98910625E-18
   17.2875004         7.67091566E-18
   17.4062500         8.28262813E-18
   17.5249996         8.77211308E-18
   17.6437492         9.09052303E-18
   17.7625008         9.19624663E-18
   17.8812504         9.05858641E-18
   18.0000000         8.66082999E-18
   18.1187496         8.00241408E-18
   18.2374992         7.09996251E-18
   18.3562508         5.98704973E-18
   18.4750004         4.71266798E-18
   18.5937500         3.33847593E-18
   18.7124996         1.93504160E-18
   18.8312492         5.77376772E-19
   18.9500008        -6.59857122E-19
   19.0687504        -1.70704994E-18
   19.1875000        -2.50383746E-18
   19.3062496        -3.00240692E-18
   19.4249992        -3.16962810E-18
   19.5437508        -2.98783200E-18
   19.6625004        -2.45419897E-18
   19.7812500        -1.57887407E-18
   19.8999996        -3.82062343E-19
   20.0187492         1.10952124E-18
   20.1375008         2.86638327E-18
   20.2562504         4.85968734E-18
   20.3750000         7.06389909E-18
   20.4937496         9.45825444E-18
   20.6124992         1.20267702E-17
   20.7312508         1.47566755E-17
   20.8500004         1.76353451E-17
   20.9687500         2.06460162E-17
   21.0874996         2.37626788E-17
   21.2062492         2.69448013E-17
   21.3250008         3.01325122E-17
   21.4437504         3.32429859E-17
   21.5625000         3.61686874E-17
   21.6812496         3.87780584E-17
   21.7999992         4.09190235E-17
   21.9187508         4.24255278E-17
   22.0375004         4.31270233E-17
   22.1562500         4.28605884E-17
   22.2749996         4.14851393E-17
   22.3937492         3.88969606E-17
   22.5125008         3.50456672E-17
   22.6312504         2.99495266E-17
   22.7500000         2.37091437E-17
   22.8687496         1.65185040E-17
   22.9874992         8.67239315E-18
   23.1062508         5.69486606E-19
   23.2250004        -7.28956968E-18
   23.3437500        -1.43094603E-17
   23.4624996        -1.98131743E-17
   23.5812492        -2.30606010E-17
   23.7000008        -2.32726091E-17
   23.8187504        -1.96602253E-17
   23.9375000        -1.14583126E-17
   24.0562496         2.03711279E-18
   24.1749992         2.14290022E-17
   24.2937508         4.71781768E-17
   24.4125004         7.95628635E-17
   24.5312500         1.18640715E-16
   24.6499996         1.64215945E-16
   24.7687492         2.15814016E-16
   24.8875008         2.72667370E-16
   25.0062504         3.33714729E-16
   25.1250000         3.97617674E-16
   25.2437496         4.62796885E-16
   25.3624992         5.27491303E-16
   25.4812508         5.89841187E-16
   25.6000004         6.47997039E-16
   25.7187500         7.00253149E-16
   25.8374996         7.45205134E-16
   25.9562492         7.81927771E-16
   26.0750008         8.10169809E-16
   26.1937504         8.30558739E-16
   26.3125000         8.44809221E-16
   26.4312496         8.55927587E-16
   26.5499992         8.68402847E-16
   26.6687508         8.88376096E-16
   26.7875004         9.23778897E-16
   26.9062500         9.84433973E-16
   27.0249996         1.08210841E-15
   27.1437492         1.23051547E-15
   27.2625008         1.44525918E-15
   27.3812504         1.74371918E-15
   27.5000000         2.14487229E-15
   27.6187496         2.66905397E-15
   27.7374992         3.33765434E-15
   27.8562508         4.17276043E-15
   27.9750004         5.19673517E-15
   28.0937500         6.43174902E-15
   28.2124996         7.89925817E-15
   28.3312492         9.61944317E-15
   28.4500008         1.16106033E-14
   28.5687504         1.38885223E-14
   28.6875000         1.64658089E-14
   28.8062496         1.93512266E-14
   28.9249992         2.25490030E-14
   29.0437508         2.60581606E-14
   29.1625004         2.98718637E-14
   29.2812500         3.39767887E-14
   29.3999996         3.83525778E-14
   29.5187492         4.29713096E-14
   29.6375008         4.77971070E-14
   29.7562504         5.27858295E-14
   29.8750000         5.78848628E-14
   29.9937496         6.30330477E-14
   30.1124992         6.81607751E-14
   30.2312508         7.31901519E-14
   30.3500004         7.80353700E-14
   30.4687500         8.26031545E-14
   30.5874996         8.67933451E-14
   30.7062492         9.04996022E-14
   30.8250008         9.36101104E-14
   30.9437504         9.60084199E-14
   31.0625000         9.75743059E-14
   31.1812496         9.81845695E-14
   31.2999992         9.77139376E-14
   31.4187508         9.60358637E-14
   31.5375004         9.30233470E-14
   31.6562500         8.85497052E-14
   31.7749996         8.24893742E-14
   31.8937492         7.47186804E-14
   32.0125008         6.51166268E-14
   32.1312485         5.35658113E-14
   32.2500000         3.99533820E-14
   32.3687515         2.41721367E-14
   32.4874992         6.12179341E-15
   32.6062508        -1.42895356E-14
   32.7249985        -3.71436856E-14
   32.8437500        -6.25105301E-14
   32.9625015        -9.04458800E-14
   33.0812492        -1.20989102E-13
   33.2000008        -1.54160647E-13
   33.3187485        -1.89959431E-13
   33.4375000        -2.28360055E-13
   33.5562515        -2.69310073E-13
   33.6749992        -3.12727491E-13
   33.7937508        -3.58498116E-13
   33.9124985        -4.06473330E-13
   34.0312500        -4.56468359E-13
   34.1500015        -5.08260751E-13
   34.2687492        -5.61589295E-13
   34.3875008        -6.16153884E-13
   34.5062485        -6.71615595E-13
   34.6250000        -7.27597724E-13
   34.7437515        -7.83687351E-13
   34.8624992        -8.39437298E-13
   34.9812508        -8.94369268E-13
   35.0999985        -9.47977265E-13
   35.2187500        -9.99731114E-13
   35.3375015        -1.04908096E-12
   35.4562492        -1.09546183E-12
   35.5750008        -1.13829811E-12
   35.6937485        -1.17700879E-12
   35.8125000        -1.21101187E-12
   35.9312515        -1.23972881E-12
   36.0499992        -1.26258943E-12
   36.1687508        -1.27903569E-12
   36.2874985        -1.28852538E-12
   36.4062500        -1.29053593E-12
   36.5250015        -1.28456675E-12
   36.6437492        -1.27014295E-12
   36.7625008        -1.24681699E-12
   36.8812485        -1.21417156E-12
   37.0000000        -1.17182165E-12
   37.1187515        -1.11941652E-12
   37.2374992        -1.05664251E-12
   37.3562508        -9.83225762E-13
   37.4749985        -8.98934735E-13
   37.5937500        -8.03583979E-13
   37.7125015        -6.97037968E-13
   37.8312492        -5.79215495E-13
   37.9500008        -4.50094524E-13
   38.0687485        -3.09717421E-13
   38.1875000        -1.58196752E-13
   38.3062515         4.27896439E-15
   38.4249992         1.77439470E-13
   38.5437508         3.60927027E-13
   38.6624985         5.54291097E-13
   38.7812500         7.56984156E-13
   38.9000015         9.68357556E-13
   39.0187492         1.18765978E-12
   39.1375008         1.41403523E-12
   39.2562485         1.64652461E-12
   39.3750000         1.88406842E-12
   39.4937515         2.12551092E-12
   39.6124992         2.36960690E-12
   39.7312508         2.61502994E-12
   39.8499985         2.86038315E-12
   39.9687500         3.10421155E-12
   40.0875015         3.34501415E-12
   40.2062492         3.58126051E-12
   40.3250008         3.81140388E-12
   40.4437485         4.03389778E-12
   40.5625000         4.24720979E-12
   40.6812515         4.44983763E-12
   40.7999992         4.64031981E-12
   40.9187508         4.81724860E-12
   41.0374985         4.97927741E-12
   41.1562500         5.12512949E-12
   41.2750015         5.25360007E-12
   41.3937492         5.36356116E-12
   41.5125008         5.45395760E-12
   41.6312485         5.52380797E-12
   41.7500000         5.57219765E-12
   41.8687515         5.59827228E-12
   41.9874992         5.60123562E-12
   42.1062508         5.58033784E-12
   42.2249985         5.53487464E-12
   42.3437500         5.46417902E-12
   42.4625015         5.36761998E-12
   42.5812492         5.24460250E-12
   42.7000008         5.09457060E-12
   42.8187485         4.91701081E-12
   42.9375000         4.71146386E-12
   43.0562515         4.47753683E-12
   43.1749992         4.21491618E-12
   43.2937508         3.92338766E-12
   43.4124985         3.60285564E-12
   43.5312500         3.25336286E-12
   43.6500015         2.87511399E-12
   43.7687492         2.46849416E-12
   43.8875008         2.03408926E-12
   44.0062485         1.57270204E-12
   44.1250000         1.08536530E-12
   44.2437515         5.73350720E-13
   44.3624992         3.81718379E-14
   44.4812508        -5.18416852E-13
   44.5999985        -1.09442858E-12
   44.7187500        -1.68765750E-12
   44.8375015        -2.29569857E-12
   44.9562492        -2.91597193E-12
   45.0750008        -3.54575353E-12
   45.1937485        -4.18220710E-12
   45.3125000        -4.82242111E-12
   45.4312515        -5.46344740E-12
   45.5499992        -6.10233825E-12
   45.6687508        -6.73618192E-12
   45.7874985        -7.36213694E-12
   45.9062500        -7.97746418E-12
   46.0250015        -8.57954593E-12
   46.1437492        -9.16590848E-12
   46.2625008        -9.73422905E-12
   46.3812485        -1.02823375E-11
   46.5000000        -1.08082111E-11
   46.6187515        -1.13099599E-11
   46.7374992        -1.17858050E-11
   46.8562508        -1.22340506E-11
   46.9749985        -1.26530461E-11
   47.0937500        -1.30411498E-11
   47.2125015        -1.33966926E-11
   47.3312492        -1.37179348E-11
   47.4500008        -1.40030305E-11
   47.5687485        -1.42499918E-11
   47.6875000        -1.44566694E-11
   47.8062515        -1.46207317E-11
   47.9249992        -1.47396626E-11
   48.0437508        -1.48107620E-11
   48.1624985        -1.48311780E-11
   48.2812500        -1.47979233E-11
   48.4000015        -1.47079345E-11
   48.5187492        -1.45581273E-11
   48.6375008        -1.43454632E-11
   48.7562485        -1.40670323E-11
   48.8750000        -1.37201370E-11
   48.9937515        -1.33023852E-11
   49.1124992        -1.28117777E-11
   49.2312508        -1.22467999E-11
   49.3499985        -1.16065040E-11
   49.4687500        -1.08905836E-11
   49.5875015        -1.00994378E-11
   49.7062492        -9.23421842E-12
   49.8250008        -8.29686233E-12
   49.9437485        -7.29010775E-12
   50.0625000        -6.21748573E-12
   50.1812515        -5.08329793E-12
   50.2999992        -3.89257290E-12
   50.4187508        -2.65100507E-12
   50.5374985        -1.36487685E-12
   50.6562500        -4.09697029E-14
   50.7750015         1.31353804E-12
   50.8937492         2.69117823E-12
   51.0125008         4.08430408E-12
   51.1312485         5.48520084E-12
   51.2500000         6.88619170E-12
   51.3687515         8.27973367E-12
   51.4874992         9.65850750E-12
   51.6062508         1.10154828E-11
   51.7249985         1.23439765E-11
   51.8437500         1.36376891E-11
   51.9625015         1.48907154E-11
   52.0812492         1.60975452E-11
   52.2000008         1.72530427E-11
   52.3187485         1.83524081E-11
   52.4375000         1.93911224E-11
   52.5562515         2.03648955E-11
   52.6749992         2.12695868E-11
   52.7937508         2.21011508E-11
   52.9124985         2.28555647E-11
   53.0312500         2.35287814E-11
   53.1500015         2.41166791E-11
   53.2687492         2.46150478E-11
   53.3875008         2.50195784E-11
   53.5062485         2.53258942E-11
   53.6250000         2.55295923E-11
   53.7437515         2.56263205E-11
   53.8624992         2.56118737E-11
   53.9812508         2.54823211E-11
   54.0999985         2.52341360E-11
   54.2187500         2.48643658E-11
   54.3375015         2.43707780E-11
   54.4562492         2.37520333E-11
   54.5750008         2.30078474E-11
   54.6937485         2.21391273E-11
   54.8125000         2.11480989E-11
   54.9312515         2.00384084E-11
   55.0499992         1.88151751E-11
   55.1687508         1.74850238E-11
   55.2874985         1.60560627E-11
   55.4062500         1.45378163E-11
   55.5250015         1.29411247E-11
   55.6437492         1.12779864E-11
   55.7625008         9.56136732E-12
   55.8812485         7.80497281E-12
   56.0000000         6.02300024E-12
   56.1187515         4.22985952E-12
   56.2374992         2.43989247E-12
   56.3562508         6.67090190E-13
   56.4749985        -1.07517955E-12
   56.5937500        -2.77442132E-12
   56.7125015        -4.41923321E-12
   56.8312492        -5.99948563E-12
   56.9500008        -7.50645379E-12
   57.0687485        -8.93289956E-12
   57.1875000        -1.02730897E-11
   57.3062515        -1.15227671E-11
   57.4249992        -1.26790609E-11
   57.5437508        -1.37403387E-11
   57.6624985        -1.47060263E-11
   57.7812500        -1.55763770E-11
   57.9000015        -1.63522269E-11
   58.0187492        -1.70347209E-11
   58.1375008        -1.76250490E-11
   58.2562485        -1.81241966E-11
   58.3750000        -1.85327066E-11
   58.4937515        -1.88504993E-11
   58.6124992        -1.90767228E-11
   58.7312508        -1.92096911E-11
   58.8499985        -1.92468610E-11
   58.9687500        -1.91849037E-11
   59.0875015        -1.90198378E-11
   59.2062492        -1.87472451E-11
   59.3250008        -1.83625459E-11
   59.4437485        -1.78613253E-11
   59.5625000        -1.72397270E-11
   59.6812515        -1.64948489E-11
   59.7999992        -1.56251765E-11
   59.9187508        -1.46309891E-11
   60.0374985        -1.35147588E-11
   60.1562500        -1.22814875E-11
   60.2750015        -1.09389867E-11
   60.3937492        -9.49807247E-12
   60.5125008        -7.97266246E-12
   60.6312485        -6.37976000E-12
   60.7500000        -4.73932178E-12
   60.8687515        -3.07400134E-12
   60.9874992        -1.40877251E-12
   61.1062508         2.29561379E-13
   61.2249985         1.81296764E-12
   61.3437500         3.31286864E-12
   61.4625015         4.70090026E-12
   61.5812492         5.94971164E-12
   61.7000008         7.03378675E-12
   61.8187485         7.93025888E-12
   61.9375000         8.61968136E-12
   62.0562515         9.08673397E-12
   62.1749992         9.32083490E-12
   62.2937508         9.31662386E-12
   62.4124985         9.07430815E-12
   62.5312500         8.59984133E-12
   62.6500015         7.90492758E-12
   62.7687492         7.00684823E-12
   62.8875008         5.92810306E-12
   63.0062485         4.69587260E-12
   63.1250000         3.34132656E-12
   63.2437515         1.89877931E-12
   63.3624992         4.04733620E-13
   63.4812508        -1.10316649E-12
   63.5999985        -2.58723880E-12
   63.7187500        -4.01088190E-12
   63.8375015        -5.33967618E-12
   63.9562492        -6.54242676E-12
   64.0749969        -7.59211270E-12
   64.1937485        -8.46670650E-12
   64.3125000        -9.14983887E-12
   64.4312515        -9.63128795E-12
   64.5500031        -9.90726078E-12
   64.6687469        -9.98047825E-12
   64.7874985        -9.86004420E-12
   64.9062500        -9.56111232E-12
   65.0250015        -9.10436136E-12
   65.1437531        -8.51530044E-12
   65.2624969        -7.82342680E-12
   65.3812485        -7.06127561E-12
   65.5000000        -6.26338651E-12
   65.6187515        -5.46523504E-12
   65.7375031        -4.70216140E-12
   65.8562469        -4.00833967E-12
   65.9749985        -3.41581711E-12
   66.0937500        -2.95366617E-12
   66.2125015        -2.64726262E-12
   66.3312531        -2.51772648E-12
   66.4499969        -2.58152657E-12
   66.5687485        -2.85026451E-12
   66.6875000        -3.33063113E-12
   66.8062515        -4.02452941E-12
   66.9250031        -4.92934556E-12
   67.0437469        -6.03835168E-12
   67.1624985        -7.34119883E-12
   67.2812500        -8.82448628E-12
   67.4000015        -1.04723522E-11
   67.5187531        -1.22670771E-11
   67.6374969        -1.41896278E-11
   67.7562485        -1.62201537E-11
   67.8750000        -1.83383621E-11
   67.9937515        -2.05237910E-11
   68.1125031        -2.27559412E-11
   68.2312469        -2.50142615E-11
   68.3499985        -2.72779906E-11
   68.4687500        -2.95258783E-11
   68.5875015        -3.17357841E-11
   68.7062531        -3.38841871E-11
   68.8249969        -3.59456562E-11
   68.9437485        -3.78922865E-11
   69.0625000        -3.96931862E-11
   69.1812515        -4.13140321E-11
   69.3000031        -4.27167225E-11
   69.4187469        -4.38592496E-11
   69.5374985        -4.46957055E-11
   69.6562500        -4.51765673E-11
   69.7750015        -4.52492384E-11
   69.8937531        -4.48588215E-11
   70.0124969        -4.39492227E-11
   70.1312485        -4.24644486E-11
   70.2500000        -4.03502128E-11
   70.3687515        -3.75556773E-11
   70.4875031        -3.40354064E-11
   70.6062469        -2.97513854E-11
   70.7249985        -2.46750832E-11
   70.8437500        -1.87894977E-11
   70.9625015        -1.20910556E-11
   71.0812531        -4.59135074E-12
   71.1999969         3.68138766E-12
   71.3187485         1.26811634E-11
   71.4375000         2.23434621E-11
   71.5562515         3.25849764E-11
   71.6750031         4.33037738E-11
   71.7937469         5.43800248E-11
   71.9124985         6.56772137E-11
   72.0312500         7.70439199E-11
   72.1500015         8.83160212E-11
   72.2687531         9.93194416E-11
   72.3874969         1.09873229E-10
   72.5062485         1.19793023E-10
   72.6250000         1.28894756E-10
   72.7437515         1.36998468E-10
   72.8625031         1.43932311E-10
   72.9812469         1.49536383E-10
   73.0999985         1.53666524E-10
   73.2187500         1.56197763E-10
   73.3375015         1.57027558E-10
   73.4562531         1.56078567E-10
   73.5749969         1.53300816E-10
   73.6937485         1.48673518E-10
   73.8125000         1.42206052E-10
   73.9312515         1.33938541E-10
   74.0500031         1.23941621E-10
   74.1687469         1.12315643E-10
   74.2874985         9.91893026E-11
   74.4062500         8.47176287E-11
   74.5250015         6.90794991E-11
   74.6437531         5.24747364E-11
   74.7624969         3.51208160E-11
   74.8812485         1.72492871E-11
   75.0000000        -8.97973319E-13
   75.1187515        -1.90726462E-11
   75.2375031        -3.70238493E-11
   75.3562469        -5.45019689E-11
