  -7.65000010         9.21783026E-18
  -7.53125000         9.21783026E-18
  -7.41249990         9.21783109E-18
  -7.29374981         9.21783109E-18
  -7.17500019         9.21783191E-18
  -7.05625010         9.21783274E-18
  -6.93750000         9.21783274E-18
  -6.81874990         9.21783274E-18
  -6.69999981         9.21783274E-18
  -6.58125019         9.21783357E-18
  -6.46250010         9.21783522E-18
  -6.34375000         9.21783770E-18
  -6.22499990         9.21783936E-18
  -6.10624981         9.21784184E-18
  -5.98750019         9.21784267E-18
  -5.86875010         9.21784432E-18
  -5.75000000         9.21784515E-18
  -5.63124990         9.21784597E-18
  -5.51249981         9.21784680E-18
  -5.39375019         9.21784928E-18
  -5.27500010         9.21785259E-18
  -5.15625000         9.21785590E-18
  -5.03749990         9.21785921E-18
  -4.91874981         9.21786252E-18
  -4.80000019         9.21786417E-18
  -4.68125010         9.21786500E-18
  -4.56250000         9.21786583E-18
  -4.44374990         9.21786748E-18
  -4.32499981         9.21787079E-18
  -4.20625019         9.21787575E-18
  -4.08750010         9.21788072E-18
  -3.96875000         9.21788651E-18
  -3.84999990         9.21789147E-18
  -3.73125005         9.21789561E-18
  -3.61249995         9.21789726E-18
  -3.49375010         9.21789891E-18
  -3.37500000         9.21789974E-18
  -3.25624990         9.21790222E-18
  -3.13750005         9.21790636E-18
  -3.01874995         9.21791132E-18
  -2.90000010         9.21791711E-18
  -2.78125000         9.21792373E-18
  -2.66249990         9.21792869E-18
  -2.54375005         9.21793283E-18
  -2.42499995         9.21793448E-18
  -2.30625010         9.21793366E-18
  -2.18750000         9.21793366E-18
  -2.06874990         9.21793531E-18
  -1.95000005         9.21793862E-18
  -1.83124995         9.21794358E-18
  -1.71249998         9.21795103E-18
  -1.59375000         9.21795764E-18
  -1.47500002         9.21796343E-18
  -1.35625005         9.21796674E-18
  -1.23749995         9.21796840E-18
  -1.11874998         9.21796757E-18
  -1.00000000         9.21796674E-18
 -0.881250024         9.21796840E-18
 -0.762499988         9.21797253E-18
 -0.643750012         9.21797998E-18
 -0.524999976         9.21798990E-18
 -0.406250000         9.21799900E-18
 -0.287499994         9.21800562E-18
 -0.168750003         9.21801058E-18
  -5.00000007E-02     9.21801224E-18
   6.87500015E-02     9.21801224E-18
  0.187500000         9.21801224E-18
  0.306250006         9.21801389E-18
  0.425000012         9.21801886E-18
  0.543749988         9.21802713E-18
  0.662500024         9.21803540E-18
  0.781250000         9.21804284E-18
  0.899999976         9.21804781E-18
   1.01874995         9.21804863E-18
   1.13750005         9.21804781E-18
   1.25625002         9.21804533E-18
   1.37500000         9.21804450E-18
   1.49374998         9.21804698E-18
   1.61249995         9.21805442E-18
   1.73125005         9.21806435E-18
   1.85000002         9.21807593E-18
   1.96875000         9.21808586E-18
   2.08750010         9.21809165E-18
   2.20624995         9.21809496E-18
   2.32500005         9.21809496E-18
   2.44374990         9.21809413E-18
   2.56250000         9.21809413E-18
   2.68125010         9.21809826E-18
   2.79999995         9.21810406E-18
   2.91875005         9.21811315E-18
   3.03749990         9.21812225E-18
   3.15625000         9.21812887E-18
   3.27500010         9.21813301E-18
   3.39374995         9.21813301E-18
   3.51250005         9.21813218E-18
   3.63124990         9.21813218E-18
   3.75000000         9.21813549E-18
   3.86875010         9.21814211E-18
   3.98749995         9.21815369E-18
   4.10624981         9.21816609E-18
   4.22499990         9.21817850E-18
   4.34375000         9.21818760E-18
   4.46250010         9.21819339E-18
   4.58125019         9.21819670E-18
   4.69999981         9.21819753E-18
   4.81874990         9.21820001E-18
   4.93750000         9.21820414E-18
   5.05625010         9.21821076E-18
   5.17500019         9.21821738E-18
   5.29374981         9.21822234E-18
   5.41249990         9.21822234E-18
   5.53125000         9.21821655E-18
   5.65000010         9.21820414E-18
   5.76875019         9.21819091E-18
   5.88749981         9.21817850E-18
   6.00624990         9.21817354E-18
   6.12500000         9.21818016E-18
   6.24375010         9.21820249E-18
   6.36250019         9.21824302E-18
   6.48124981         9.21830010E-18
   6.59999990         9.21836958E-18
   6.71875000         9.21844568E-18
   6.83750010         9.21852013E-18
   6.95625019         9.21857968E-18
   7.07499981         9.21861277E-18
   7.19374990         9.21860202E-18
   7.31250000         9.21853419E-18
   7.43125010         9.21839605E-18
   7.55000019         9.21818429E-18
   7.66874981         9.21790636E-18
   7.78749990         9.21758376E-18
   7.90625000         9.21725868E-18
   8.02499962         9.21698902E-18
   8.14375019         9.21684509E-18
   8.26249981         9.21690133E-18
   8.38125038         9.21722393E-18
   8.50000000         9.21786169E-18
   8.61874962         9.21882287E-18
   8.73750019         9.22007274E-18
   8.85624981         9.22151287E-18
   8.97500038         9.22298359E-18
   9.09375000         9.22426738E-18
   9.21249962         9.22509704E-18
   9.33125019         9.22518886E-18
   9.44999981         9.22427151E-18
   9.56875038         9.22213242E-18
   9.68750000         9.21867316E-18
   9.80624962         9.21395492E-18
   9.92500019         9.20824654E-18
   10.0437498         9.20205096E-18
   10.1625004         9.19610105E-18
   10.2812500         9.19133235E-18
   10.3999996         9.18881276E-18
   10.5187502         9.18962754E-18
   10.6374998         9.19474282E-18
   10.7562504         9.20482781E-18
   10.8750000         9.22008515E-18
   10.9937496         9.24008059E-18
   11.1125002         9.26362132E-18
   11.2312498         9.28869069E-18
   11.3500004         9.31247709E-18
   11.4687500         9.33150969E-18
   11.5874996         9.34191810E-18
   11.7062502         9.33981127E-18
   11.8249998         9.32175144E-18
   11.9437504         9.28531413E-18
   12.0625000         9.22965398E-18
   12.1812496         9.15602911E-18
   12.3000002         9.06820983E-18
   12.4187498         8.97268701E-18
   12.5375004         8.87860845E-18
   12.6562500         8.79739007E-18
   12.7749996         8.74197228E-18
   12.8937502         8.72571818E-18
   13.0124998         8.76100488E-18
   13.1312504         8.85759227E-18
   13.2500000         9.02090999E-18
   13.3687496         9.25042035E-18
   13.4875002         9.53826927E-18
   13.6062498         9.86841608E-18
   13.7250004         1.02164606E-17
   13.8437500         1.05502991E-17
   13.9624996         1.08317481E-17
   14.0812502         1.10191318E-17
   14.1999998         1.10707769E-17
   14.3187504         1.09492243E-17
   14.4375000         1.06258745E-17
   14.5562496         1.00856742E-17
   14.6750002         9.33138644E-18
   14.7937498         8.38695049E-18
   14.9125004         7.29942554E-18
   15.0312500         6.13908925E-18
   15.1499996         4.99735377E-18
   15.2687502         3.98232747E-18
   15.3874998         3.21204427E-18
   15.5062504         2.80561300E-18
   15.6250000         2.87276725E-18
   15.7437496         3.50252466E-18
   15.8625002         4.75184574E-18
   15.9812498         6.63531035E-18
   16.1000004         9.11688279E-18
   16.2187500         1.21047857E-17
   16.3374996         1.54503624E-17
   16.4562492         1.89515598E-17
   16.5750008         2.23613356E-17
   16.6937504         2.54009200E-17
   16.8125000         2.77773569E-17
   16.9312496         2.92044420E-17
   17.0499992         2.94256632E-17
   17.1687508         2.82375043E-17
   17.2875004         2.55113023E-17
   17.4062500         2.12117035E-17
   17.5249996         1.54100059E-17
   17.6437492         8.29081060E-18
   17.7625008         1.50957799E-19
   17.8812504        -8.60982852E-18
   18.0000000        -1.75064885E-17
   18.1187496        -2.59935750E-17
   18.2374992        -3.34962653E-17
   18.3562508        -3.94454244E-17
   18.4750004        -4.33143896E-17
   18.5937500        -4.46548491E-17
   18.7124996        -4.31291938E-17
   18.8312492        -3.85369021E-17
   18.9500008        -3.08328959E-17
   19.0687504        -2.01364630E-17
   19.1875000        -6.72997207E-18
   19.3062496         8.95255426E-18
   19.4249992         2.63461326E-17
   19.5437508         4.47832440E-17
   19.6625004         6.35278416E-17
   19.7812500         8.18123779E-17
   19.8999996         9.88751618E-17
   20.0187492         1.13995507E-16
   20.1375008         1.26524263E-16
   20.2562504         1.35908117E-16
   20.3750000         1.41706534E-16
   20.4937496         1.43600990E-16
   20.6124992         1.41397195E-16
   20.7312508         1.35021340E-16
   20.8500004         1.24512123E-16
   20.9687500         1.10010998E-16
   21.0874996         9.17526272E-17
   21.2062492         7.00578304E-17
   21.3250008         4.53309170E-17
   21.4437504         1.80624151E-17
   21.5625000        -1.11622118E-17
   21.6812496        -4.16484313E-17
   21.7999992        -7.25743123E-17
   21.9187508        -1.02970295E-16
   22.0375004        -1.31699846E-16
   22.1562500        -1.57444473E-16
   22.2749996        -1.78696794E-16
   22.3937492        -1.93765404E-16
   22.5125008        -2.00794944E-16
   22.6312504        -1.97804362E-16
   22.7500000        -1.82745413E-16
   22.8687496        -1.53582505E-16
   22.9874992        -1.08393503E-16
   23.1062508        -4.54901625E-17
   23.2250004         3.64453363E-17
   23.3437500         1.38212206E-16
   23.4624996         2.59937921E-16
   23.5812492         4.00927984E-16
   23.7000008         5.59528207E-16
   23.8187504         7.33010242E-16
   23.9375000         9.17492007E-16
   24.0562496         1.10790607E-15
   24.1749992         1.29802706E-15
   24.2937508         1.48057188E-15
   24.4125004         1.64738114E-15
   24.5312500         1.78969253E-15
   24.6499996         1.89850852E-15
   24.7687492         1.96506265E-15
   24.8875008         1.98137735E-15
   25.0062504         1.94090760E-15
   25.1250000         1.83925031E-15
   25.2437496         1.67490146E-15
   25.3624992         1.45003115E-15
   25.4812508         1.17123989E-15
   25.6000004         8.50261255E-16
   25.7187500         5.04563657E-16
   25.8374996         1.57810907E-16
   25.9562492        -1.59865796E-16
   26.0750008        -4.11825698E-16
   26.1937504        -5.55141476E-16
   26.3125000        -5.41118687E-16
   26.4312496        -3.16131675E-16
   26.5499992         1.77215624E-16
   26.6687508         9.98606952E-16
   26.7875004         2.20822506E-15
   26.9062500         3.86468481E-15
   27.0249996         6.02273587E-15
   27.1437492         8.73078279E-15
   27.2625008         1.20282914E-14
   27.3812504         1.59431455E-14
   27.5000000         2.04890426E-14
   27.6187496         2.56629994E-14
   27.7374992         3.14430387E-14
   27.8562508         3.77861804E-14
   27.9750004         4.46267169E-14
   28.0937500         5.18749641E-14
   28.2124996         5.94164339E-14
   28.3312492         6.71115317E-14
   28.4500008         7.47958553E-14
   28.5687504         8.22810041E-14
   28.6875000         8.93560535E-14
   28.8062496         9.57896143E-14
   28.9249992         1.01332476E-13
   29.0437508         1.05720852E-13
   29.1625004         1.08680148E-13
   29.2812500         1.09929183E-13
   29.3999996         1.09184898E-13
   29.5187492         1.06167320E-13
   29.6375008         1.00604854E-13
   29.7562504         9.22396382E-14
   29.8750000         8.08329640E-14
   29.9937496         6.61705188E-14
   30.1124992         4.80674833E-14
   30.2312508         2.63731162E-14
   30.3500004         9.74934816E-16
   30.4687500        -2.81977641E-14
   30.5874996        -6.11710864E-14
   30.7062492        -9.79245236E-14
   30.8250008        -1.38389693E-13
   30.9437504        -1.82449975E-13
   31.0625000        -2.29940795E-13
   31.1812496        -2.80650774E-13
   31.2999992        -3.34323200E-13
   31.4187508        -3.90658263E-13
   31.5375004        -4.49315037E-13
   31.6562500        -5.09913943E-13
   31.7749996        -5.72038673E-13
   31.8937492        -6.35238173E-13
   32.0125008        -6.99027424E-13
   32.1312485        -7.62888125E-13
   32.2500000        -8.26268361E-13
   32.3687515        -8.88581363E-13
   32.4874992        -9.49203823E-13
   32.6062508        -1.00747340E-12
   32.7249985        -1.06268586E-12
   32.8437500        -1.11409254E-12
   32.9625015        -1.16089777E-12
   33.0812492        -1.20225715E-12
   33.2000008        -1.23727699E-12
   33.3187485        -1.26501587E-12
   33.4375000        -1.28448771E-12
   33.5562515        -1.29466815E-12
   33.6749992        -1.29450292E-12
   33.7937508        -1.28292006E-12
   33.9124985        -1.25884470E-12
   34.0312500        -1.22121735E-12
   34.1500015        -1.16901432E-12
   34.2687492        -1.10127109E-12
   34.3875008        -1.01710665E-12
   34.5062485        -9.15750115E-13
   34.6250000        -7.96565884E-13
   34.7437515        -6.59079020E-13
   34.8624992        -5.02998793E-13
   34.9812508        -3.28238874E-13
   35.0999985        -1.34934246E-13
   35.2187500         7.65464081E-14
   35.3375015         3.05593495E-13
   35.4562492         5.51355023E-13
   35.5750008         8.12740391E-13
   35.6937485         1.08843056E-12
   35.8125000         1.37689263E-12
   35.9312515         1.67640012E-12
   36.0499992         1.98505665E-12
   36.1687508         2.30082164E-12
   36.2874985         2.62153992E-12
   36.4062500         2.94496827E-12
   36.5250015         3.26880471E-12
   36.6437492         3.59071128E-12
   36.7625008         3.90833763E-12
   36.8812485         4.21933495E-12
   37.0000000         4.52137112E-12
   37.1187515         4.81213463E-12
   37.2374992         5.08933434E-12
   37.3562508         5.35069515E-12
   37.4749985         5.59395022E-12
   37.5937500         5.81682532E-12
   37.7125015         6.01702412E-12
   37.8312492         6.19221601E-12
   37.9500008         6.34001705E-12
   38.0687485         6.45798432E-12
   38.1875000         6.54360767E-12
   38.3062515         6.59431537E-12
   38.4249992         6.60748366E-12
   38.5437508         6.58045840E-12
   38.6624985         6.51058894E-12
   38.7812500         6.39527103E-12
   38.9000015         6.23200146E-12
   39.0187492         6.01844052E-12
   39.1375008         5.75248833E-12
   39.2562485         5.43235899E-12
   39.3750000         5.05666429E-12
   39.4937515         4.62449306E-12
   39.6124992         4.13549013E-12
   39.7312508         3.58992328E-12
   39.8499985         2.98874402E-12
   39.9687500         2.33362938E-12
   40.0875015         1.62700701E-12
   40.2062492         8.72061863E-13
   40.3250008         7.27178598E-14
   40.4437485        -7.66400940E-13
   40.5625000        -1.64003316E-12
   40.6812515        -2.54236367E-12
   40.7999992        -3.46712589E-12
   40.9187508        -4.40772028E-12
   41.0374985        -5.35734087E-12
   41.1562500        -6.30911252E-12
   41.2750015        -7.25622253E-12
   41.3937492        -8.19205034E-12
   41.5125008        -9.11028197E-12
   41.6312485        -1.00050098E-11
   41.7500000        -1.08708043E-11
   41.8687515        -1.17027672E-11
   41.9874992        -1.24965463E-11
   42.1062508        -1.32483234E-11
   42.2249985        -1.39547774E-11
   42.3437500        -1.46130018E-11
   42.4625015        -1.52204169E-11
   42.5812492        -1.57746542E-11
   42.7000008        -1.62734201E-11
   42.8187485        -1.67143660E-11
   42.9375000        -1.70949591E-11
   43.0562515        -1.74123650E-11
   43.1749992        -1.76633413E-11
   43.2937508        -1.78441775E-11
   43.4124985        -1.79506670E-11
   43.5312500        -1.79781051E-11
   43.6500015        -1.79213519E-11
   43.7687492        -1.77749395E-11
   43.8875008        -1.75332127E-11
   44.0062485        -1.71905320E-11
   44.1250000        -1.67414884E-11
   44.2437515        -1.61811762E-11
   44.3624992        -1.55054546E-11
   44.4812508        -1.47112374E-11
   44.5999985        -1.37967667E-11
   44.7187500        -1.27618645E-11
   44.8375015        -1.16081537E-11
   44.9562492        -1.03392295E-11
   45.0750008        -8.96077743E-12
   45.1937485        -7.48061075E-12
   45.3125000        -5.90865161E-12
   45.4312515        -4.25681625E-12
   45.5499992        -2.53883156E-12
   45.6687508        -7.69971435E-13
   45.7874985         1.03327221E-12
   45.9062500         2.85358109E-12
   46.0250015         4.67324356E-12
   46.1437492         6.47462119E-12
   46.2625008         8.24062086E-12
   46.3812485         9.95516516E-12
   46.5000000         1.16036304E-11
   46.6187515         1.31732403E-11
   46.7374992         1.46533896E-11
   46.8562508         1.60358966E-11
   46.9749985         1.73151476E-11
   47.0937500         1.84881537E-11
   47.2125015         1.95544813E-11
   47.3312492         2.05160992E-11
   47.4500008         2.13770980E-11
   47.5687485         2.21433340E-11
   47.6875000         2.28219856E-11
   47.8062515         2.34210550E-11
   47.9249992         2.39488169E-11
   48.0437508         2.44132752E-11
   48.1624985         2.48215979E-11
   48.2812500         2.51796292E-11
   48.4000015         2.54914267E-11
   48.5187492         2.57589020E-11
   48.6375008         2.59815711E-11
   48.7562485         2.61564121E-11
   48.8750000         2.62778584E-11
   48.9937515         2.63379336E-11
   49.1124992         2.63265278E-11
   49.2312508         2.62317841E-11
   49.3499985         2.60406158E-11
   49.4687500         2.57393221E-11
   49.5875015         2.53142542E-11
   49.7062492         2.47525472E-11
   49.8250008         2.40428493E-11
   49.9437485         2.31760323E-11
   50.0625000         2.21458511E-11
   50.1812515         2.09495025E-11
   50.2999992         1.95880846E-11
   50.4187508         1.80668848E-11
   50.5374985         1.63955429E-11
   50.6562500         1.45880027E-11
   50.7750015         1.26623061E-11
   50.8937492         1.06401893E-11
   51.0125008         8.54651679E-12
   51.1312485         6.40856465E-12
   51.2500000         4.25516697E-12
   51.3687515         2.11577153E-12
   51.4874992         1.94293603E-14
   51.6062508        -2.00623025E-12
   51.7249985        -3.93600560E-12
   51.8437500        -5.74806045E-12
   51.9625015        -7.42475352E-12
   52.0812492        -8.95332593E-12
   52.2000008        -1.03263986E-11
   52.3187485        -1.15422723E-11
   52.4375000        -1.26049917E-11
   52.5562515        -1.35241783E-11
   52.6749992        -1.43146172E-11
   52.7937508        -1.49956228E-11
   52.9124985        -1.55901923E-11
   53.0312500        -1.61239702E-11
   53.1500015        -1.66240823E-11
   53.2687492        -1.71178679E-11
   53.3875008        -1.76315681E-11
   53.5062485        -1.81890111E-11
   53.6250000        -1.88103786E-11
   53.7437515        -1.95110803E-11
   53.8624992        -2.03008079E-11
   53.9812508        -2.11828038E-11
   54.0999985        -2.21533868E-11
   54.2187500        -2.32017617E-11
   54.3375015        -2.43101581E-11
   54.4562492        -2.54542377E-11
   54.5750008        -2.66038441E-11
   54.6937485        -2.77240158E-11
   54.8125000        -2.87762401E-11
   54.9312515        -2.97199348E-11
   55.0499992        -3.05140392E-11
   55.1687508        -3.11187187E-11
   55.2874985        -3.14970550E-11
   55.4062500        -3.16166919E-11
   55.5250015        -3.14513277E-11
   55.6437492        -3.09820086E-11
   55.7625008        -3.01981565E-11
   55.8812485        -2.90982655E-11
   56.0000000        -2.76902286E-11
   56.1187515        -2.59912890E-11
   56.2374992        -2.40275768E-11
   56.3562508        -2.18332435E-11
   56.4749985        -1.94492547E-11
   56.5937500        -1.69218337E-11
   56.7125015        -1.43006440E-11
   56.8312492        -1.16367766E-11
   56.9500008        -8.98062874E-12
   57.0687485        -6.37976000E-12
   57.1875000        -3.87683548E-12
   57.3062515        -1.50773719E-12
   57.4249992         7.00049502E-13
   57.5437508         2.72870051E-12
   57.6624985         4.57088837E-12
   57.7812500         6.23014054E-12
   57.9000015         7.72068173E-12
   58.0187492         9.06674475E-12
   58.1375008         1.03013665E-11
   58.2562485         1.14646912E-11
   58.3750000         1.26018519E-11
   58.4937515         1.37604945E-11
   58.6124992         1.49880525E-11
   58.7312508         1.63288862E-11
   58.8499985         1.78213954E-11
   58.9687500         1.94952752E-11
   59.0875015         2.13689882E-11
   59.2062492         2.34476449E-11
   59.3250008         2.57213521E-11
   59.4437485         2.81641724E-11
   59.5625000         3.07337419E-11
   59.6812515         3.33716041E-11
   59.7999992         3.60043176E-11
   59.9187508         3.85452642E-11
   60.0374985         4.08971884E-11
   60.1562500         4.29553511E-11
   60.2750015         4.46112036E-11
   60.3937492         4.57564923E-11
   60.5125008         4.62875710E-11
   60.6312485         4.61098451E-11
   60.7500000         4.51420706E-11
   60.8687515         4.33204271E-11
   60.9874992         4.06021224E-11
   61.1062508         3.69683693E-11
   61.2249985         3.24266447E-11
   61.3437500         2.70120263E-11
   61.4625015         2.07875783E-11
   61.5812492         1.38437170E-11
   61.7000008         6.29654185E-12
   61.8187485        -1.71486339E-12
   61.9375000        -1.00320498E-11
   62.0562515        -1.84816745E-11
   62.1749992        -2.68806609E-11
   62.2937508        -3.50418583E-11
   62.4124985        -4.27800330E-11
   62.5312500        -4.99179413E-11
   62.6500015        -5.62922729E-11
   62.7687492        -6.17592297E-11
   62.8875008        -6.61994834E-11
   63.0062485        -6.95224087E-11
   63.1250000        -7.16692469E-11
   63.2437515        -7.26152680E-11
   63.3624992        -7.23706026E-11
   63.4812508        -7.09798539E-11
   63.5999985        -6.85204601E-11
   63.7187500        -6.50997381E-11
   63.8375015        -6.08508313E-11
   63.9562492        -5.59276792E-11
   64.0749969        -5.04990980E-11
   64.1937485        -4.47423348E-11
   64.3125000        -3.88362328E-11
   64.4312515        -3.29543476E-11
   64.5500031        -2.72582582E-11
   64.6687469        -2.18913308E-11
   64.7874985        -1.69732405E-11
   64.9062500        -1.25954351E-11
   65.0250015        -8.81778331E-12
   65.1437531        -5.66650459E-12
   65.2624969        -3.13354377E-12
   65.3812485        -1.17737710E-12
   65.5000000         2.74718535E-13
   65.6187515         1.32305104E-12
   65.7375031         2.09065426E-12
   65.8562469         2.71739272E-12
   65.9749985         3.35326038E-12
   66.0937500         4.15114514E-12
   66.2125015         5.25935545E-12
   66.3312531         6.81423190E-12
   66.4499969         8.93314676E-12
   66.5687485         1.17082117E-11
   66.6875000         1.52009516E-11
   66.8062515         1.94382063E-11
   66.9250031         2.44094640E-11
   67.0437469         3.00657207E-11
   67.1624985         3.63200095E-11
   67.2812500         4.30495431E-11
   67.4000015         5.00994558E-11
   67.5187531         5.72880042E-11
   67.6374969         6.44130166E-11
   67.7562485         7.12593665E-11
   67.8750000         7.76071707E-11
   67.9937515         8.32403937E-11
   68.1125031         8.79554762E-11
   68.2312469         9.15696755E-11
   68.3499985         9.39287398E-11
   68.4687500         9.49136394E-11
   68.5875015         9.44459441E-11
   68.7062531         9.24917920E-11
   68.8249969         8.90641033E-11
   68.9437485         8.42230105E-11
   69.0625000         7.80744427E-11
   69.1812515         7.07669201E-11
   69.3000031         6.24866409E-11
   69.4187469         5.34510596E-11
   69.5374985         4.39012091E-11
   69.6562500         3.40930270E-11
   69.7750015         2.42880941E-11
   69.8937531         1.47440688E-11
   70.0124969         5.70527610E-12
   70.1312485        -2.60624096E-12
   70.2500000        -9.99880560E-12
   70.3687515        -1.63180216E-11
   70.4875031        -2.14522549E-11
   70.6062469        -2.53364291E-11
   70.7249985        -2.79540332E-11
   70.8437500        -2.93372202E-11
   70.9625015        -2.95650344E-11
   71.0812531        -2.87598435E-11
   71.1999969        -2.70820692E-11
   71.3187485        -2.47235322E-11
   71.4375000        -2.18995932E-11
   71.5562515        -1.88404466E-11
   71.6750031        -1.57819331E-11
   71.7937469        -1.29561830E-11
   71.9124985        -1.05825175E-11
   72.0312500        -8.85892314E-12
   72.1500015        -7.95443225E-12
   72.2687531        -8.00271134E-12
   72.3874969        -9.09707466E-12
   72.5062485        -1.12871049E-11
   72.6250000        -1.45769733E-11
   72.7437515        -1.89255191E-11
   72.8625031        -2.42480203E-11
   72.9812469        -3.04195731E-11
   73.0999985        -3.72799083E-11
   73.2187500        -4.46394345E-11
   73.3375015        -5.22861893E-11
   73.4562531        -5.99935032E-11
   73.5749969        -6.75279485E-11
   73.6937485        -7.46573428E-11
   73.8125000        -8.11584133E-11
   73.9312515        -8.68238953E-11
   74.0500031        -9.14687770E-11
   74.1687469        -9.49354276E-11
   74.2874985        -9.70975800E-11
   74.4062500        -9.78629122E-11
   74.5250015        -9.71742478E-11
   74.6437531        -9.50094725E-11
   74.7624969        -9.13800494E-11
   74.8812485        -8.63284999E-11
   75.0000000        -7.99248515E-11
   75.1187515        -7.22623072E-11
   75.2375031        -6.34524586E-11
   75.3562469        -5.36201986E-11
