  -7.19999981         9.21783026E-18
  -7.01949978         9.21783026E-18
  -6.83900023         9.21783109E-18
  -6.65850019         9.21783191E-18
  -6.47800016         9.21783357E-18
  -6.29750013         9.21783439E-18
  -6.11700010         9.21783605E-18
  -5.93650007         9.21783605E-18
  -5.75600004         9.21783770E-18
  -5.57550001         9.21784018E-18
  -5.39499998         9.21784432E-18
  -5.21449995         9.21784680E-18
  -5.03399992         9.21785094E-18
  -4.85349989         9.21785425E-18
  -4.67299986         9.21785756E-18
  -4.49249983         9.21786086E-18
  -4.31199980         9.21786335E-18
  -4.13149977         9.21786748E-18
  -3.95099998         9.21787244E-18
  -3.77049994         9.21787741E-18
  -3.58999991         9.21788485E-18
  -3.40949988         9.21789312E-18
  -3.22900009         9.21789809E-18
  -3.04850006         9.21789561E-18
  -2.86800003         9.21788568E-18
  -2.68750000         9.21788733E-18
  -2.50699997         9.21792538E-18
  -2.32649994         9.21800397E-18
  -2.14599991         9.21806352E-18
  -1.96550000         9.21799239E-18
  -1.78499997         9.21772521E-18
  -1.60450006         9.21738358E-18
  -1.42400002         9.21733560E-18
  -1.24349999         9.21800893E-18
  -1.06299996         9.21946890E-18
 -0.882499993         9.22100084E-18
 -0.702000022         9.22105461E-18
 -0.521499991         9.21790553E-18
 -0.340999991         9.21108046E-18
 -0.160500005         9.20313291E-18
   1.99999996E-02     9.20065551E-18
  0.200499997         9.21274641E-18
  0.381000012         9.24524137E-18
  0.561500013         9.29109695E-18
  0.741999984         9.32182010E-18
  0.922500014         9.28974865E-18
   1.10300004         9.15131667E-18
   1.28349996         8.91191488E-18
   1.46399999         8.67348669E-18
   1.64450002         8.64568928E-18
   1.82500005         9.07723023E-18
   2.00550008         1.00916117E-17
   2.18600011         1.14725716E-17
   2.36649990         1.25177457E-17
   2.54699993         1.21217040E-17
   2.72749996         9.21275633E-18
   2.90799999         3.52286834E-18
   3.08850002        -3.56308380E-18
   3.26900005        -8.56687799E-18
   3.44950008        -6.46563368E-18
   3.63000011         7.38951626E-18
   3.81049991         3.41645809E-17
   3.99099994         6.82461262E-17
   4.17150021         9.55330676E-17
   4.35200024         9.53495592E-17
   4.53249979         4.72969202E-17
   4.71299982        -5.75083160E-17
   4.89349985        -2.04056643E-16
   5.07399988        -3.45729044E-16
   5.25449991        -4.08033929E-16
   5.43499994        -3.08629425E-16
   5.61549997         7.04594845E-18
   5.79600000         5.23349841E-16
   5.97650003         1.12206063E-15
   6.15700006         1.58074750E-15
   6.33750010         1.61833416E-15
   6.51800013         9.90174421E-16
   6.69850016        -3.86792487E-16
   6.87900019        -2.32069176E-15
   7.05950022        -4.29798536E-15
   7.23999977        -5.55174955E-15
   7.42049980        -5.26286092E-15
   7.60099983        -2.86218235E-15
   7.78149986         1.65208324E-15
   7.96199989         7.50356164E-15
   8.14249992         1.31516570E-14
   8.32299995         1.65955811E-14
   8.50349998         1.59395134E-14
   8.68400002         1.00824127E-14
   8.86450005        -6.84564828E-16
   9.04500008        -1.44057773E-14
   9.22550011        -2.76782771E-14
   9.40600014        -3.63816338E-14
   9.58650017        -3.67713469E-14
   9.76700020        -2.66441515E-14
   9.94750023        -6.22643501E-15
   10.1280003         2.15043691E-14
   10.3085003         5.11941631E-14
   10.4890003         7.60999065E-14
   10.6695004         8.94239245E-14
   10.8500004         8.56405333E-14
   11.0305004         6.15034011E-14
   11.2110004         1.65762772E-14
   11.3915005        -4.66748358E-14
   11.5719995        -1.23044424E-13
   11.7524996        -2.04800722E-13
   11.9329996        -2.81868360E-13
   12.1134996        -3.42111132E-13
   12.2939997        -3.72031968E-13
   12.4744997        -3.58239913E-13
   12.6549997        -2.89833885E-13
   12.8354998        -1.61442704E-13
   13.0159998         2.38277398E-14
   13.1964998         2.52642660E-13
   13.3769999         5.02002628E-13
   13.5574999         7.42820302E-13
   13.7379999         9.46398992E-13
   13.9184999         1.09273875E-12
   14.0990000         1.17880000E-12
   14.2795000         1.22453350E-12
   14.4600000         1.27481131E-12
   14.6405001         1.39632522E-12
   14.8210001         1.66980134E-12
   15.0015001         2.17912429E-12
   15.1820002         2.99977708E-12
   15.3625002         4.18911347E-12
   15.5430002         5.78034365E-12
   15.7235003         7.78090873E-12
   15.9040003         1.01745374E-11
   16.0844994         1.29251184E-11
   16.2649994         1.59800177E-11
   16.4454994         1.92707083E-11
   16.6259995         2.27096033E-11
   16.8064995         2.61833420E-11
   16.9869995         2.95441727E-11
   17.1674995         3.26019385E-11
   17.3479996         3.51192131E-11
   17.5284996         3.68114428E-11
   17.7089996         3.73525239E-11
   17.8894997         3.63848743E-11
   18.0699997         3.35318474E-11
   18.2504997         2.84099896E-11
   18.4309998         2.06392421E-11
   18.6114998         9.85034450E-12
   18.7919998        -4.30966721E-12
   18.9724998        -2.21717523E-11
   19.1529999        -4.40363232E-11
   19.3334999        -7.01598224E-11
   19.5139999        -1.00735878E-10
   19.6945000        -1.35872563E-10
   19.8750000        -1.75569226E-10
   20.0555000        -2.19697122E-10
   20.2360001        -2.67988409E-10
   20.4165001        -3.20035720E-10
   20.5970001        -3.75303316E-10
   20.7775002        -4.33146935E-10
   20.9580002        -4.92839436E-10
   21.1385002        -5.53596724E-10
   21.3190002        -6.14601425E-10
   21.4995003        -6.75020539E-10
   21.6800003        -7.34017735E-10
   21.8605003        -7.90760180E-10
   22.0410004        -8.44421200E-10
   22.2215004        -8.94180729E-10
   22.4020004        -9.39222922E-10
   22.5825005        -9.78731540E-10
   22.7630005        -1.01188247E-09
   22.9435005        -1.03783226E-09
   23.1240005        -1.05570397E-09
   23.3045006        -1.06457176E-09
   23.4850006        -1.06344666E-09
   23.6655006        -1.05127040E-09
   23.8460007        -1.02691966E-09
   24.0265007        -9.89227700E-10
   24.2070007        -9.37026123E-10
   24.3875008        -8.69206429E-10
   24.5680008        -7.84798837E-10
   24.7485008        -6.83061940E-10
   24.9290009        -5.63573410E-10
   25.1095009        -4.26313568E-10
   25.2900009        -2.71733136E-10
   25.4705009        -1.00800465E-10
   25.6509991         8.49733964E-11
   25.8314991         2.83529922E-10
   26.0119991         4.92275443E-10
   26.1924992         7.08108683E-10
   26.3729992         9.27462884E-10
   26.5534992         1.14636600E-09
   26.7339993         1.36052425E-09
   26.9144993         1.56543356E-09
   27.0949993         1.75652171E-09
   27.2754993         1.92931626E-09
   27.4559994         2.07963047E-09
   27.6364994         2.20374785E-09
   27.8169994         2.29859110E-09
   27.9974995         2.36185693E-09
   28.1779995         2.39210651E-09
   28.3584995         2.38881204E-09
   28.5389996         2.35236053E-09
   28.7194996         2.28402808E-09
   28.8999996         2.18593388E-09
   29.0804996         2.06097872E-09
   29.2609997         1.91276972E-09
   29.4414997         1.74552517E-09
   29.6219997         1.56394975E-09
   29.8024998         1.37307588E-09
   29.9829998         1.17806709E-09
   30.1634998         9.83994664E-10
   30.3439999         7.95604749E-10
   30.5244999         6.17096152E-10
   30.7049999         4.51936460E-10
   30.8855000         3.02732450E-10
   31.0660000         1.71163111E-10
   31.2465000         5.79744482E-11
   31.4270000        -3.69789512E-11
   31.6075001        -1.14658887E-10
   31.7880001        -1.76754278E-10
   31.9685001        -2.25583219E-10
   32.1489983        -2.63987388E-10
   32.3294983        -2.95210578E-10
   32.5099983        -3.22749549E-10
   32.6904984        -3.50168949E-10
   32.8709984        -3.80880300E-10
   33.0514984        -4.17894969E-10
   33.2319984        -4.63573485E-10
   33.4124985        -5.19397636E-10
   33.5929985        -5.85792193E-10
   33.7734985        -6.62018718E-10
   33.9539986        -7.46153028E-10
   34.1344986        -8.35147285E-10
   34.3149986        -9.24967269E-10
   34.4954987        -1.01078912E-09
   34.6759987        -1.08723763E-09
   34.8564987        -1.14864696E-09
   35.0369987        -1.18933352E-09
   35.2174988        -1.20386867E-09
   35.3979988        -1.18734922E-09
   35.5784988        -1.13566001E-09
   35.7589989        -1.04572317E-09
   35.9394989        -9.15722498E-10
   36.1199989        -7.45289330E-10
   36.3004990        -5.35626210E-10
   36.4809990        -2.89555019E-10
   36.6614990        -1.14692405E-11
   36.8419991         2.92805807E-10
   37.0224991         6.16244000E-10
   37.2029991         9.50914680E-10
   37.3834991         1.28831779E-09
   37.5639992         1.61973213E-09
   37.7444992         1.93653804E-09
   37.9249992         2.23050778E-09
   38.1054993         2.49404053E-09
   38.2859993         2.72034706E-09
   38.4664993         2.90358981E-09
   38.6469994         3.03898928E-09
   38.8274994         3.12290327E-09
   39.0079994         3.15289239E-09
   39.1884995         3.12776804E-09
   39.3689995         3.04761816E-09
   39.5494995         2.91379898E-09
   39.7299995         2.72889022E-09
   39.9104996         2.49660226E-09
   40.0909996         2.22164465E-09
   40.2714996         1.90956695E-09
   40.4519997         1.56657864E-09
   40.6324997         1.19936971E-09
   40.8129997         8.14927681E-10
   40.9934998         4.20354113E-10
   41.1739998         2.26731914E-11
   41.3544998        -3.71372905E-10
   41.5349998        -7.55539076E-10
   41.7154999        -1.12429399E-09
   41.8959999        -1.47301815E-09
   42.0764999        -1.79816040E-09
   42.2570000        -2.09733098E-09
   42.4375000        -2.36931941E-09
   42.6180000        -2.61402366E-09
   42.7985001        -2.83230084E-09
   42.9790001        -3.02574787E-09
   43.1595001        -3.19643201E-09
   43.3400002        -3.34660011E-09
   43.5205002        -3.47838891E-09
   43.7010002        -3.59354990E-09
   43.8815002        -3.69321618E-09
   44.0620003        -3.77771903E-09
   44.2425003        -3.84645560E-09
   44.4230003        -3.89781007E-09
   44.6035004        -3.92914545E-09
   44.7840004        -3.93686106E-09
   44.9645004        -3.91651511E-09
   45.1450005        -3.86302901E-09
   45.3255005        -3.77093468E-09
   45.5060005        -3.63467145E-09
   45.6865005        -3.44890028E-09
   45.8670006        -3.20882321E-09
   46.0475006        -2.91048474E-09
   46.2280006        -2.55104982E-09
   46.4085007        -2.12904916E-09
   46.5890007        -1.64458291E-09
   46.7695007        -1.09948428E-09
   46.9500008        -4.97433483E-10
   47.1305008         1.55972887E-10
   47.3110008         8.53212834E-10
   47.4915009         1.58487445E-09
   47.6720009         2.33976261E-09
   47.8525009         3.10506665E-09
   48.0330009         3.86659282E-09
   48.2135010         4.60906424E-09
   48.3940010         5.31646949E-09
   48.5745010         5.97244254E-09
   48.7550011         6.56065513E-09
   48.9355011         7.06520975E-09
   49.1160011         7.47100781E-09
   49.2965012         7.76412179E-09
   49.4770012         7.93214650E-09
   49.6575012         7.96453659E-09
   49.8380013         7.85293341E-09
   50.0185013         7.59145280E-09
   50.1990013         7.17693238E-09
   50.3795013         6.60910748E-09
   50.5600014         5.89071814E-09
   50.7405014         5.02752906E-09
   50.9210014         4.02825240E-09
   51.1015015         2.90438917E-09
   51.2820015         1.66996672E-09
   51.4625015         3.41192768E-10
   51.6430016        -1.06397113E-09
   51.8235016        -2.52629273E-09
   52.0040016        -4.02578548E-09
   52.1845016        -5.54223334E-09
   52.3650017        -7.05569114E-09
   52.5455017        -8.54694626E-09
   52.7260017        -9.99792693E-09
   52.9065018        -1.13920429E-08
   53.0870018        -1.27144615E-08
   53.2675018        -1.39523229E-08
   53.4480019        -1.50948836E-08
   53.6285019        -1.61335869E-08
   53.8089981        -1.70620620E-08
   53.9894981        -1.78760278E-08
   54.1699982        -1.85731004E-08
   54.3504982        -1.91525231E-08
   54.5309982        -1.96148218E-08
   54.7114983        -1.99614423E-08
   54.8919983        -2.01943937E-08
   55.0724983        -2.03159534E-08
   55.2529984        -2.03284429E-08
   55.4334984        -2.02341077E-08
   55.6139984        -2.00350438E-08
   55.7944984        -1.97331644E-08
   55.9749985        -1.93301481E-08
   56.1554985        -1.88273521E-08
   56.3359985        -1.82257054E-08
   56.5164986        -1.75255437E-08
   56.6969986        -1.67265153E-08
   56.8774986        -1.58275313E-08
   57.0579987        -1.48268304E-08
   57.2384987        -1.37221896E-08
   57.4189987        -1.25112276E-08
   57.5994987        -1.11917915E-08
   57.7799988        -9.76237402E-09
   57.9604988        -8.22251156E-09
   58.1409988        -6.57312027E-09
   58.3214989        -4.81678297E-09
   58.5019989        -2.95795521E-09
   58.6824989        -1.00313302E-09
   58.8629990         1.03902276E-09
   59.0434990         3.15758775E-09
   59.2239990         5.33930722E-09
   59.4044991         7.56856711E-09
   59.5849991         9.82741977E-09
   59.7654991         1.20957067E-08
   59.9459991         1.43512722E-08
   60.1264992         1.65702794E-08
   60.3069992         1.87276434E-08
   60.4874992         2.07975450E-08
   60.6679993         2.27539694E-08
   60.8484993         2.45713370E-08
   61.0289993         2.62250719E-08
   61.2094994         2.76921934E-08
   61.3899994         2.89518862E-08
   61.5704994         2.99860368E-08
   61.7509995         3.07797414E-08
   61.9314995         3.13217896E-08
   62.1119995         3.16050830E-08
   62.2924995         3.16269855E-08
   62.4729996         3.13896003E-08
   62.6534996         3.08999510E-08
   62.8339996         3.01700318E-08
   63.0144997         2.92167357E-08
   63.1949997         2.80616046E-08
   63.3754997         2.67304401E-08
   63.5559998         2.52527297E-08
   63.7364998         2.36609665E-08
   63.9169998         2.19898340E-08
   64.0975037         2.02753352E-08
   64.2779999         1.85538571E-08
   64.4585037         1.68612200E-08
   64.6389999         1.52317039E-08
   64.8195038         1.36970915E-08
   65.0000000         1.22857644E-08
   65.1804962         1.10218918E-08
   65.3610001         9.92475346E-09
   65.5414963         9.00824393E-09
   65.7220001         8.28055580E-09
   65.9024963         7.74405606E-09
   66.0830002         7.39532746E-09
   66.2634964         7.22535365E-09
   66.4440002         7.21981763E-09
   66.6244965         7.35950501E-09
   66.8050003         7.62078667E-09
   66.9854965         7.97620192E-09
   67.1660004         8.39516279E-09
   67.3464966         8.84476492E-09
   67.5270004         9.29075483E-09
   67.7074966         9.69858682E-09
   67.8880005         1.00345563E-08
   68.0684967         1.02669144E-08
   68.2490005         1.03668443E-08
   68.4294968         1.03092948E-08
   68.6100006         1.00735473E-08
   68.7904968         9.64360236E-09
   68.9710007         9.00837716E-09
   69.1514969         8.16182233E-09
   69.3320007         7.10297465E-09
   69.5124969         5.83600013E-09
   69.6930008         4.37021130E-09
   69.8734970         2.72001421E-09
   70.0540009         9.04732123E-10
   70.2344971        -1.05174136E-09
   70.4150009        -3.12147064E-09
   70.5954971        -5.27321253E-09
   70.7760010        -7.47329665E-09
   70.9564972        -9.68658664E-09
   71.1370010        -1.18774937E-08
   71.3174973        -1.40109151E-08
   71.4980011        -1.60530664E-08
   71.6784973        -1.79721855E-08
   71.8590012        -1.97391277E-08
   72.0394974        -2.13278266E-08
   72.2200012        -2.27156942E-08
   72.4004974        -2.38839561E-08
   72.5810013        -2.48179077E-08
   72.7614975        -2.55071448E-08
   72.9420013        -2.59457007E-08
   73.1224976        -2.61321169E-08
   73.3030014        -2.60694026E-08
   73.4834976        -2.57649120E-08
   73.6640015        -2.52301025E-08
   73.8444977        -2.44801779E-08
   74.0250015        -2.35336390E-08
   74.2054977        -2.24117223E-08
   74.3860016        -2.11377760E-08
   74.5664978        -1.97365466E-08
   74.7470016        -1.82334734E-08
   74.9274979        -1.66539493E-08
   75.1080017        -1.50226107E-08
   75.2884979        -1.33626701E-08
   75.4690018        -1.16952643E-08
   75.6494980        -1.00388817E-08
   75.8300018        -8.40882830E-09
   76.0104980        -6.81675028E-09
   76.1910019        -5.27023758E-09
   76.3714981        -3.77252984E-09
   76.5520020        -2.32235631E-09
   76.7324982        -9.13943810E-10
   76.9130020         4.62777233E-10
   77.0934982         1.82174886E-09
   77.2740021         3.18016657E-09
   77.4544983         4.55766758E-09
   77.6350021         5.97542593E-09
   77.8154984         7.45517870E-09
   77.9960022         9.01828745E-09
   78.1764984         1.06848859E-08
   78.3570023         1.24731745E-08
   78.5374985         1.43988812E-08
   78.7180023         1.64748588E-08
   78.8984985         1.87108053E-08
   79.0790024         2.11129976E-08
   79.2594986         2.36840378E-08
   79.4400024         2.64225477E-08
   79.6204987         2.93228535E-08
   79.8010025         3.23747038E-08
   79.9814987         3.55630583E-08
   80.1620026         3.88680270E-08
   80.3424988         4.22649507E-08
   80.5230026         4.57246365E-08
   80.7034988         4.92136500E-08
   80.8840027         5.26946486E-08
   81.0644989         5.61267548E-08
   81.2450027         5.94658083E-08
   81.4254990         6.26646539E-08
   81.6060028         6.56733903E-08
   81.7864990         6.84396468E-08
   81.9670029         7.09089605E-08
   82.1474991         7.30253049E-08
   82.3280029         7.47317728E-08
   82.5084991         7.59714851E-08
   82.6890030         7.66886856E-08
   82.8694992         7.68299984E-08
