  -7.19999981       0.00000000    
  -7.01999998       0.00000000    
  -6.84000015       0.00000000    
  -6.65999985       0.00000000    
  -6.48000002       0.00000000    
  -6.30000019       0.00000000    
  -6.11999989       2.01723544E-32
  -5.94000006       2.86540207E-32
  -5.76000023       3.54993802E-30
  -5.57999992       2.80028860E-30
  -5.40000010      -3.35332329E-29
  -5.21999979      -6.51181590E-29
  -5.03999996      -5.64432770E-29
  -4.86000013      -4.51326082E-28
  -4.67999983      -1.45294312E-27
  -4.50000000      -1.34883062E-27
  -4.32000017      -2.84782234E-27
  -4.13999987      -2.76437384E-26
  -3.96000004      -9.50077635E-26
  -3.77999997      -1.25235761E-25
  -3.59999990       9.48387994E-26
  -3.42000008       5.79179162E-25
  -3.24000001       5.24736913E-25
  -3.05999994      -1.51726183E-24
  -2.88000011      -5.43976037E-24
  -2.70000005      -6.57693058E-24
  -2.51999998       3.03600594E-24
  -2.33999991       2.46961237E-23
  -2.16000009       3.97273728E-23
  -1.98000002       1.11467805E-23
  -1.79999995      -8.30605910E-23
  -1.62000000      -1.97104054E-22
  -1.44000006      -1.96999293E-22
  -1.25999999       6.74345754E-23
  -1.08000004       5.96040631E-22
 -0.899999976       1.07770698E-21
 -0.720000029       9.06444649E-22
 -0.540000021      -4.94791988E-22
 -0.360000014      -3.07745782E-21
 -0.180000007      -5.57137323E-21
   4.44089210E-16  -5.38455926E-21
  0.180000007       4.26335471E-22
  0.360000014       1.28156239E-20
  0.540000021       2.76177189E-20
  0.720000029       3.36434970E-20
  0.899999976       1.52024391E-20
   1.08000004      -3.84498429E-20
   1.25999999      -1.18212730E-19
   1.44000006      -1.82810315E-19
   1.62000000      -1.62182265E-19
   1.79999995       1.24096301E-20
   1.98000002       3.53520760E-19
   2.16000009       7.60198111E-19
   2.33999991       9.97127144E-19
   2.51999998       7.48791239E-19
   2.70000005      -2.37244499E-19
   2.88000011      -1.94714428E-18
   3.05999994      -3.91370084E-18
   3.24000001      -5.15328765E-18
   3.42000008      -4.33696089E-18
   3.59999990      -2.65617776E-19
   3.77999997       7.37628385E-18
   3.96000004       1.71712140E-17
   4.13999987       2.54019606E-17
   4.32000017       2.62996037E-17
   4.50000000       1.36061252E-17
   4.67999983      -1.64107968E-17
   4.86000013      -6.10862692E-17
   5.03999996      -1.08148571E-16
   5.21999979      -1.35373295E-16
   5.40000010      -1.15189665E-16
   5.57999992      -2.50010791E-17
   5.76000023       1.38518249E-16
   5.94000006       3.45883575E-16
   6.11999989       5.28986157E-16
   6.30000019       5.90007682E-16
   6.48000002       4.28848678E-16
   6.65999985      -1.36382123E-17
   6.84000015      -7.07692851E-16
   7.01999998      -1.50049187E-15
   7.19999981      -2.11716372E-15
   7.38000011      -2.21329751E-15
   7.55999994      -1.48094701E-15
   7.73999977       2.11379362E-16
   7.92000008       2.68677665E-15
   8.10000038       5.39231212E-15
   8.27999973       7.44846384E-15
   8.46000004       7.84182510E-15
   8.64000034       5.74052990E-15
   8.81999969       8.57528903E-16
   9.00000000      -6.25527860E-15
   9.18000031      -1.41085103E-14
   9.35999966      -2.04632894E-14
   9.53999996      -2.28189981E-14
   9.72000027      -1.91144640E-14
   9.89999962      -8.46717173E-15
   10.0799999       8.26915152E-15
   10.2600002       2.83254255E-14
   10.4399996       4.73230667E-14
   10.6199999       6.00378986E-14
   10.8000002       6.14617068E-14
   10.9799995       4.79142415E-14
   11.1599998       1.79500546E-14
   11.3400002      -2.71209226E-14
   11.5200005      -8.31536717E-14
   11.6999998      -1.43457769E-13
   11.8800001      -1.99314672E-13
   12.0600004      -2.40596714E-13
   12.2399998      -2.56451544E-13
   12.4200001      -2.36122482E-13
   12.6000004      -1.70022972E-13
   12.7799997      -5.11125159E-14
   12.9600000       1.23572132E-13
   13.1400003       3.51626687E-13
   13.3199997       6.24813948E-13
   13.5000000       9.30008024E-13
   13.6800003       1.25188304E-12
   13.8599997       1.57720852E-12
   14.0400000       1.90005542E-12
   14.2200003       2.22676847E-12
   14.3999996       2.57939850E-12
   14.5799999       2.99650170E-12
   14.7600002       3.53078916E-12
   14.9399996       4.24385136E-12
   15.1199999       5.19890077E-12
   15.3000002       6.45291719E-12
   15.4799995       8.04959918E-12
   15.6599998       1.00141293E-11
   15.8400002       1.23500082E-11
   16.0200005       1.50374470E-11
   16.2000008       1.80321348E-11
   16.3799992       2.12630677E-11
   16.5599995       2.46284208E-11
   16.7399998       2.79892654E-11
   16.9200001       3.11619584E-11
   17.1000004       3.39109019E-11
   17.2800007       3.59437931E-11
   17.4599991       3.69112831E-11
   17.6399994       3.64120852E-11
   17.8199997       3.40034736E-11
   18.0000000       2.92159422E-11
   18.1800003       2.15702248E-11
   18.3600006       1.05948722E-11
   18.5400009      -4.15670319E-12
   18.7199993      -2.30896864E-11
   18.8999996      -4.65508500E-11
   19.0799999      -7.48095405E-11
   19.2600002      -1.08035518E-10
   19.4400005      -1.46273507E-10
   19.6200008      -1.89415997E-10
   19.7999992      -2.37177528E-10
   19.9799995      -2.89074292E-10
   20.1599998      -3.44413165E-10
   20.3400002      -4.02293171E-10
   20.5200005      -4.61620270E-10
   20.7000008      -5.21134302E-10
   20.8799992      -5.79445880E-10
   21.0599995      -6.35079767E-10
   21.2399998      -6.86522672E-10
   21.4200001      -7.32272798E-10
   21.6000004      -7.70891018E-10
   21.7800007      -8.01052502E-10
   21.9599991      -8.21597679E-10
   22.1399994      -8.31580860E-10
   22.3199997      -8.30312374E-10
   22.5000000      -8.17390933E-10
   22.6800003      -7.92721944E-10
   22.8600006      -7.56519736E-10
   23.0400009      -7.09291792E-10
   23.2199993      -6.51807441E-10
   23.3999996      -5.85052784E-10
   23.5799999      -5.10177400E-10
   23.7600002      -4.28436675E-10
   23.9400005      -3.41135648E-10
   24.1200008      -2.49577636E-10
   24.2999992      -1.55020941E-10
   24.4799995      -5.86450333E-11
   24.6599998       3.84728673E-11
   24.8400002       1.35371381E-10
   25.0200005       2.31209440E-10
   25.2000008       3.25262595E-10
   25.3799992       4.16912282E-10
   25.5599995       5.05628428E-10
   25.7399998       5.90946458E-10
   25.9200001       6.72438383E-10
   26.1000004       7.49679263E-10
   26.2800007       8.22210189E-10
   26.4599991       8.89501584E-10
   26.6399994       9.50920676E-10
   26.8199997       1.00571107E-09
   27.0000000       1.05298947E-09
   27.1800003       1.09176279E-09
   27.3600006       1.12096898E-09
   27.5400009       1.13953313E-09
   27.7199993       1.14643428E-09
   27.8999996       1.14077103E-09
   28.0799999       1.12181853E-09
   28.2600002       1.08906983E-09
   28.4400005       1.04226416E-09
   28.6200008       9.81403625E-10
   28.7999992       9.06766051E-10
   28.9799995       8.18917989E-10
   29.1599998       7.18729964E-10
   29.3400002       6.07390693E-10
   29.5200005       4.86411411E-10
   29.7000008       3.57611746E-10
   29.8799992       2.23079680E-10
   30.0599995       8.51021267E-11
   30.2399998      -5.39280703E-11
   30.4200001      -1.91617833E-10
   30.6000004      -3.25677180E-10
   30.7800007      -4.54004695E-10
   30.9599991      -5.74745973E-10
   31.1399994      -6.86321611E-10
   31.3199997      -7.87431731E-10
   31.5000000      -8.77046269E-10
   31.6800003      -9.54392787E-10
   31.8600006      -1.01895048E-09
   32.0400009      -1.07044884E-09
   32.2200012      -1.10886877E-09
   32.4000015      -1.13443210E-09
   32.5800018      -1.14756982E-09
   32.7599983      -1.14886300E-09
   32.9399986      -1.13895393E-09
   33.1199989      -1.11843756E-09
   33.2999992      -1.08774589E-09
   33.4799995      -1.04704401E-09
   33.6599998      -9.96152827E-10
   33.8400002      -9.34510691E-10
   34.0200005      -8.61176797E-10
   34.2000008      -7.74873832E-10
   34.3800011      -6.74062750E-10
   34.5600014      -5.57039526E-10
   34.7400017      -4.22044538E-10
   34.9199982      -2.67378619E-10
   35.0999985      -9.15211726E-11
   35.2799988       1.06751857E-10
   35.4599991       3.28251676E-10
   35.6399994       5.73262937E-10
   35.8199997       8.41437309E-10
   36.0000000       1.13169774E-09
   36.1800003       1.44216150E-09
   36.3600006       1.77009185E-09
   36.5400009       2.11188755E-09
   36.7200012       2.46312037E-09
   36.9000015       2.81862067E-09
   37.0800018       3.17261417E-09
   37.2599983       3.51889518E-09
   37.4399986       3.85102128E-09
   37.6199989       4.16251922E-09
   37.7999992       4.44707116E-09
   37.9799995       4.69869033E-09
   38.1599998       4.91185581E-09
   38.3400002       5.08162845E-09
   38.5200005       5.20372945E-09
   38.7000008       5.27460964E-09
   38.8800011       5.29149657E-09
   39.0600014       5.25244204E-09
   39.2400017       5.15635934E-09
   39.4199982       5.00306063E-09
   39.5999985       4.79328133E-09
   39.7799988       4.52867921E-09
   39.9599991       4.21181312E-09
   40.1399994       3.84608123E-09
   40.3199997       3.43564133E-09
   40.5000000       2.98530378E-09
   40.6800003       2.50042120E-09
   40.8600006       1.98677297E-09
   41.0400009       1.45045331E-09
   41.2200012       8.97754870E-10
   41.4000015       3.35051209E-10
   41.5800018      -2.31327263E-10
   41.7599983      -7.95221555E-10
   41.9399986      -1.35077016E-09
   42.1199989      -1.89251859E-09
   42.2999992      -2.41551490E-09
   42.4799995      -2.91536573E-09
   42.6599998      -3.38825856E-09
   42.8400002      -3.83093468E-09
   43.0200005      -4.24061941E-09
   43.2000008      -4.61491956E-09
   43.3800011      -4.95169772E-09
   43.5600014      -5.24895150E-09
   43.7400017      -5.50471224E-09
   43.9199982      -5.71698555E-09
   44.0999985      -5.88372995E-09
   44.2799988      -6.00287864E-09
   44.4599991      -6.07239503E-09
   44.6399994      -6.09035000E-09
   44.8199997      -6.05502581E-09
   45.0000000      -5.96503291E-09
   45.1800003      -5.81944759E-09
   45.3600006      -5.61795410E-09
   45.5400009      -5.36098943E-09
   45.7200012      -5.04987385E-09
   45.9000015      -4.68691619E-09
   46.0800018      -4.27548441E-09
   46.2599983      -3.82004073E-09
   46.4399986      -3.32613714E-09
   46.6199989      -2.80037304E-09
   46.7999992      -2.25032304E-09
   46.9799995      -1.68442948E-09
   47.1599998      -1.11188025E-09
   47.3400002      -5.42464684E-10
   47.5200005       1.35819056E-11
   47.7000008       5.45749779E-10
   47.8800011       1.04344078E-09
   48.0600014       1.49617818E-09
   48.2400017       1.89383553E-09
   48.4199982       2.22687468E-09
   48.5999985       2.48657139E-09
   48.7799988       2.66523026E-09
   48.9599991       2.75635426E-09
   49.1399994       2.75479195E-09
   49.3199997       2.65685207E-09
   49.5000000       2.46040766E-09
   49.6800003       2.16499063E-09
   49.8600006       1.77187298E-09
   50.0400009       1.28413258E-09
   50.2200012       7.06677994E-10
   50.4000015       4.62310780E-11
   50.5800018      -6.88751500E-10
   50.7599983      -1.48821278E-09
   50.9399986      -2.34068365E-09
   51.1199989      -3.23351901E-09
   51.2999992      -4.15317380E-09
   51.4799995      -5.08550579E-09
   51.6599998      -6.01609740E-09
   51.8400002      -6.93058810E-09
   52.0200005      -7.81499665E-09
   52.2000008      -8.65603322E-09
   52.3800011      -9.44138101E-09
   52.5600014      -1.01599387E-08
   52.7400017      -1.08020162E-08
   52.9199982      -1.13594760E-08
   53.0999985      -1.18258177E-08
   53.2799988      -1.21962156E-08
   53.4599991      -1.24675141E-08
   53.6399994      -1.26381945E-08
   53.8199997      -1.27082975E-08
   54.0000000      -1.26793260E-08
   54.1800003      -1.25540920E-08
   54.3600006      -1.23365327E-08
   54.5400009      -1.20314736E-08
   54.7200012      -1.16443797E-08
   54.9000015      -1.11811040E-08
   55.0800018      -1.06476676E-08
   55.2599983      -1.00500959E-08
   55.4399986      -9.39431111E-09
   55.6199989      -8.68608296E-09
   55.7999992      -7.93100519E-09
   55.9799995      -7.13447301E-09
   56.1599998      -6.30163655E-09
   56.3400002      -5.43730794E-09
   56.5200005      -4.54583082E-09
   56.7000008      -3.63094066E-09
   56.8800011      -2.69564504E-09
   57.0600014      -1.74217551E-09
   57.2400017      -7.72015507E-10
   57.4199982       2.13969301E-10
   57.5999985       1.21533250E-09
   57.7799988       2.23181451E-09
   57.9599991       3.26310512E-09
   58.1399994       4.30864677E-09
   58.3199997       5.36747313E-09
   58.5000000       6.43809583E-09
   58.6800003       7.51842144E-09
   58.8600006       8.60570282E-09
   59.0400009       9.69649250E-09
   59.2200012       1.07866178E-08
   59.4000015       1.18711547E-08
   59.5800018       1.29444313E-08
   59.7599983       1.40000358E-08
   59.9399986       1.50308690E-08
   60.1199989       1.60292402E-08
   60.2999992       1.69869772E-08
   60.4799995       1.78955979E-08
   60.6599998       1.87464710E-08
   60.8400002       1.95310133E-08
   61.0200005       2.02408419E-08
   61.2000008       2.08679527E-08
   61.3800011       2.14048637E-08
   61.5600014       2.18447784E-08
   61.7400017       2.21817178E-08
   61.9199982       2.24106653E-08
   62.0999985       2.25276811E-08
   62.2799988       2.25299921E-08
   62.4599991       2.24160992E-08
   62.6399994       2.21858798E-08
   62.8199997       2.18406999E-08
   63.0000000       2.13835634E-08
   63.1800003       2.08192219E-08
   63.3600006       2.01542569E-08
   63.5400009       1.93970724E-08
   63.7200012       1.85577953E-08
   63.9000015       1.76480857E-08
   64.0800018       1.66808736E-08
   64.2600021       1.56700342E-08
   64.4400024       1.46300296E-08
   64.6200027       1.35755416E-08
   64.8000031       1.25211113E-08
   64.9800034       1.14807852E-08
   65.1600037       1.04677911E-08
   65.3399963       9.49425161E-09
   65.5199966       8.57091109E-09
   65.6999969       7.70689557E-09
   65.8799973       6.90948276E-09
   66.0599976       6.18389784E-09
   66.2399979       5.53312995E-09
   66.4199982       4.95780528E-09
   66.5999985       4.45611681E-09
   66.7799988       4.02380973E-09
   66.9599991       3.65424202E-09
   67.1399994       3.33848038E-09
   67.3199997       3.06546144E-09
   67.5000000       2.82221713E-09
   67.6800003       2.59418997E-09
   67.8600006       2.36562947E-09
   68.0400009       2.12006190E-09
   68.2200012       1.84080207E-09
   68.4000015       1.51145552E-09
   68.5800018       1.11637022E-09
   68.7600021       6.41025344E-10
   68.9400024       7.23719695E-11
   69.1200027      -6.00875238E-10
   69.3000031      -1.38795753E-09
   69.4800034      -2.29578623E-09
   69.6600037      -3.32866423E-09
   69.8399963      -4.48800552E-09
   70.0199966      -5.77209081E-09
   70.1999969      -7.17587767E-09
   70.3799973      -8.69091377E-09
   70.5599976      -1.03053708E-08
   70.7399979      -1.20042198E-08
   70.9199982      -1.37695793E-08
   71.0999985      -1.55811648E-08
   71.2799988      -1.74168147E-08
   71.4599991      -1.92530383E-08
   71.6399994      -2.10655404E-08
   71.8199997      -2.28296848E-08
   72.0000000      -2.45209044E-08
   72.1800003      -2.61150639E-08
   72.3600006      -2.75888024E-08
   72.5400009      -2.89198390E-08
   72.7200012      -3.00872856E-08
   72.9000015      -3.10719237E-08
   73.0800018      -3.18564979E-08
   73.2600021      -3.24259872E-08
   73.4400024      -3.27678435E-08
   73.6200027      -3.28722187E-08
   73.8000031      -3.27320961E-08
   73.9800034      -3.23433582E-08
   74.1600037      -3.17047508E-08
   74.3399963      -3.08177555E-08
   74.5199966      -2.96864062E-08
   74.6999969      -2.83170269E-08
   74.8799973      -2.67179878E-08
   75.0599976      -2.48994336E-08
   75.2399979      -2.28730386E-08
   75.4199982      -2.06517559E-08
   75.5999985      -1.82495778E-08
   75.7799988      -1.56812856E-08
   75.9599991      -1.29621931E-08
   76.1399994      -1.01078257E-08
   76.3199997      -7.13360349E-09
   76.5000000      -4.05450029E-09
   76.6800003      -8.84766649E-10
   76.8600006       2.36226616E-09
   77.0400009       5.67422909E-09
   77.2200012       9.03957798E-09
   77.4000015       1.24473472E-08
   77.5800018       1.58867888E-08
   77.7600021       1.93469845E-08
   77.9400024       2.28164936E-08
   78.1200027       2.62830948E-08
   78.3000031       2.97336342E-08
   78.4800034       3.31539987E-08
   78.6600037       3.65291974E-08
   78.8399963       3.98435098E-08
   79.0199966       4.30806431E-08
   79.1999969       4.62238532E-08
   79.3799973       4.92559842E-08
   79.5599976       5.21594679E-08
   79.7399979       5.49162600E-08
   79.9199982       5.75078225E-08
   80.0999985       5.99151448E-08
   80.2799988       6.21188860E-08
   80.4599991       6.40996163E-08
   80.6399994       6.58380017E-08
   80.8199997       6.73150495E-08
   81.0000000       6.85123354E-08
   81.1800003       6.94120743E-08
   81.3600006       6.99972915E-08
   81.5400009       7.02518861E-08
   81.7200012       7.01606524E-08
   81.9000015       6.97094507E-08
   82.0800018       6.88852424E-08
   82.2600021       6.76763179E-08
   82.4400024       6.60725377E-08
   82.6200027       6.40657021E-08
   82.8000031       6.16499634E-08
   82.9800034       5.88222520E-08
   83.1600037       5.55827491E-08
   83.3399963       5.19352277E-08
   83.5199966       4.78873048E-08
   83.6999969       4.34506653E-08
   83.8799973       3.86411578E-08
   84.0599976       3.34787913E-08
   84.2399979       2.79877117E-08
   84.4199982       2.21959553E-08
   84.5999985       1.61352549E-08
   84.7799988       9.84069537E-09
   84.9599991       3.35044947E-09
   85.1399994      -3.29453220E-09
   85.3199997      -1.00507762E-08
   85.5000000      -1.68725744E-08
   85.6800003      -2.37123228E-08
   85.8600006      -3.05209760E-08
   86.0400009      -3.72486113E-08
   86.2200012      -4.38451302E-08
   86.4000015      -5.02610185E-08
   86.5800018      -5.64482256E-08
   86.7600021      -6.23610887E-08
   86.9400024      -6.79572238E-08
   87.1200027      -7.31984713E-08
   87.3000031      -7.80517340E-08
   87.4800034      -8.24896986E-08
   87.6600037      -8.64913403E-08
   87.8399963      -9.00423061E-08
   88.0199966      -9.31350854E-08
   88.1999969      -9.57690176E-08
   88.3799973      -9.79501209E-08
   88.5599976      -9.96908511E-08
   88.7399979      -1.01009647E-07
   88.9199982      -1.01930382E-07
   89.0999985      -1.02481657E-07
   89.2799988      -1.02696042E-07
   89.4599991      -1.02609199E-07
   89.6399994      -1.02258902E-07
   89.8199997      -1.01684059E-07
   90.0000000      -1.00923636E-07
   90.1800003      -1.00015647E-07
   90.3600006      -9.89962814E-08
   90.5400009      -9.78991324E-08
   90.7200012      -9.67547180E-08
   90.9000015      -9.55901527E-08
   91.0800018      -9.44290122E-08
   91.2600021      -9.32911846E-08
   91.4400024      -9.21927992E-08
   91.6200027      -9.11461129E-08
   91.8000031      -9.01593964E-08
   91.9800034      -8.92368703E-08
   92.1600037      -8.83788047E-08
   92.3399963      -8.75818245E-08
   92.5199966      -8.68394068E-08
   92.6999969      -8.61426059E-08
   92.8799973      -8.54808988E-08
   93.0599976      -8.48431370E-08
   93.2399979      -8.42184491E-08
   93.4199982      -8.35969658E-08
   93.5999985      -8.29703808E-08
   93.7799988      -8.23321926E-08
   93.9599991      -8.16776762E-08
   94.1399994      -8.10037122E-08
   94.3199997      -8.03084177E-08
   94.5000000      -7.95907766E-08
   94.6800003      -7.88501353E-08
   94.8600006      -7.80858969E-08
   95.0400009      -7.72970594E-08
   95.2200012      -7.64819461E-08
   95.4000015      -7.56378569E-08
   95.5800018      -7.47607771E-08
   95.7600021      -7.38450723E-08
   95.9400024      -7.28830756E-08
   96.1200027      -7.18647470E-08
   96.3000031      -7.07772472E-08
   96.4800034      -6.96045888E-08
   96.6600037      -6.83274237E-08
   96.8399963      -6.69230431E-08
   97.0199966      -6.53656755E-08
   97.1999969      -6.36270130E-08
   97.3799973      -6.16770066E-08
   97.5599976      -5.94848402E-08
   97.7399979      -5.70200420E-08
   97.9199982      -5.42535581E-08
   98.0999985      -5.11588034E-08
   98.2799988      -4.77124082E-08
   98.4599991      -4.38948717E-08
   98.6399994      -3.96908924E-08
   98.8199997      -3.50895846E-08
   99.0000000      -3.00845109E-08
   99.1800003      -2.46736818E-08
   99.3600006      -1.88594775E-08
   99.5400009      -1.26484885E-08
   99.7200012      -6.05132344E-09
   99.9000015       9.17704412E-10
   100.080002       8.24094926E-09
   100.260002       1.58978466E-08
   100.440002       2.38654163E-08
   100.620003       3.21188054E-08
