  -7.19999981         5.21952786E-18
  -7.01949978         5.21952786E-18
  -6.83900023         5.21952704E-18
  -6.65850019         5.21952662E-18
  -6.47800016         5.21952580E-18
  -6.29750013         5.21952455E-18
  -6.11700010         5.21952331E-18
  -5.93650007         5.21952166E-18
  -5.75600004         5.21951959E-18
  -5.57550001         5.21951752E-18
  -5.39499998         5.21951463E-18
  -5.21449995         5.21951173E-18
  -5.03399992         5.21950801E-18
  -4.85349989         5.21950470E-18
  -4.67299986         5.21950139E-18
  -4.49249983         5.21949767E-18
  -4.31199980         5.21949395E-18
  -4.13149977         5.21948981E-18
  -3.95099998         5.21948526E-18
  -3.77049994         5.21948071E-18
  -3.58999991         5.21947534E-18
  -3.40949988         5.21946955E-18
  -3.22900009         5.21946376E-18
  -3.04850006         5.21945755E-18
  -2.86800003         5.21944928E-18
  -2.68750000         5.21943646E-18
  -2.50699997         5.21942281E-18
  -2.32649994         5.21941289E-18
  -2.14599991         5.21941495E-18
  -1.96550000         5.21942736E-18
  -1.78499997         5.21943026E-18
  -1.60450006         5.21939014E-18
  -1.42400002         5.21928012E-18
  -1.24349999         5.21911882E-18
  -1.06299996         5.21899268E-18
 -0.882499993         5.21903900E-18
 -0.702000022         5.21936987E-18
 -0.521499991         5.21994187E-18
 -0.340999991         5.22042411E-18
 -0.160500005         5.22018795E-18
   1.99999996E-02     5.21855841E-18
  0.200499997         5.21542877E-18
  0.381000012         5.21201706E-18
  0.561500013         5.21119402E-18
  0.741999984         5.21652189E-18
  0.922500014         5.22957769E-18
   1.10300004         5.24635168E-18
   1.28349996         5.25517190E-18
   1.46399999         5.23945588E-18
   1.64450002         5.18729842E-18
   1.82500005         5.10588731E-18
   2.00550008         5.03330965E-18
   2.18600011         5.03655758E-18
   2.36649990         5.18616850E-18
   2.54699993         5.50731310E-18
   2.72749996         5.92297384E-18
   2.90799999         6.22136270E-18
   3.08850002         6.08715761E-18
   3.26900005         5.22427174E-18
   3.44950008         3.56123588E-18
   3.63000011         1.47408538E-18
   3.81049991        -9.41120154E-20
   3.99099994         2.38971884E-19
   4.17150021         3.81984397E-18
   4.35200024         1.11657695E-17
   4.53249979         2.10777449E-17
   4.71299982         3.00807737E-17
   4.89349985         3.27026715E-17
   5.07399988         2.29759143E-17
   5.25449991        -2.85559312E-18
   5.43499994        -4.30670759E-17
   5.61549997        -8.79096387E-17
   5.79600000        -1.19435973E-16
   5.97650003        -1.15073343E-16
   6.15700006        -5.52627059E-17
   6.33750010         6.62415234E-17
   6.51800013         2.32697579E-16
   6.69850016         3.99851882E-16
   6.87900019         5.00852064E-16
   7.05950022         4.62687777E-16
   7.23999977         2.32299527E-16
   7.42049980        -1.94165879E-16
   7.60099983        -7.49151408E-16
   7.78149986        -1.28960491E-15
   7.96199989        -1.61893502E-15
   8.14249992        -1.53581833E-15
   8.32299995        -9.01210763E-16
   8.50349998         2.93993992E-16
   8.68400002         1.88322974E-15
   8.86450005         3.52151513E-15
   9.04500008         4.73790378E-15
   9.22550011         5.04066342E-15
   9.40600014         4.05598847E-15
   9.58650017         1.66721739E-15
   9.76700020        -1.88477409E-15
   9.94750023        -5.97524104E-15
   10.1280003        -9.66421733E-15
   10.3085003        -1.18595726E-14
   10.4890003        -1.15506868E-14
   10.6695004        -8.06982858E-15
   10.8500004        -1.32804898E-15
   11.0305004         8.02695262E-15
   11.2110004         1.85728101E-14
   11.3915005         2.82182809E-14
   11.5719995         3.44555723E-14
   11.7524996         3.47399789E-14
   11.9329996         2.69565000E-14
   12.1134996         9.91297820E-15
   12.2939997        -1.62185549E-14
   12.4744997        -4.96032184E-14
   12.6549997        -8.66793819E-14
   12.8354998        -1.22404203E-13
   13.0159998        -1.50841796E-13
   13.1964998        -1.66062043E-13
   13.3769999        -1.63237086E-13
   13.5574999        -1.39743008E-13
   13.7379999        -9.60176898E-14
   13.9184999        -3.59140005E-14
   14.0990000         3.36647417E-14
   14.2795000         1.03950750E-13
   14.4600000         1.66264788E-13
   14.6405001         2.14504900E-13
   14.8210001         2.47782318E-13
   15.0015001         2.72722546E-13
   15.1820002         3.04952651E-13
   15.3625002         3.69413728E-13
   15.5430002         4.99350886E-13
   15.7235003         7.34111936E-13
   15.9040003         1.11615350E-12
   16.0844994         1.68785146E-12
   16.2649994         2.48878414E-12
   16.4454994         3.55406178E-12
   16.6259995         4.91405701E-12
   16.8064995         6.59555570E-12
   16.9869995         8.62401903E-12
   17.1674995         1.10263682E-11
   17.3479996         1.38335463E-11
   17.5284996         1.70821465E-11
   17.7089996         2.08145359E-11
   17.8894997         2.50772302E-11
   18.0699997         2.99175719E-11
   18.2504997         3.53790851E-11
   18.4309998         4.14961607E-11
   18.6114998         4.82886717E-11
   18.7919998         5.57572738E-11
   18.9724998         6.38798181E-11
   19.1529999         7.26092381E-11
   19.3334999         8.18729806E-11
   19.5139999         9.15739221E-11
   19.6945000         1.01592540E-10
   19.8750000         1.11789931E-10
   20.0555000         1.22011429E-10
   20.2360001         1.32090131E-10
   20.4165001         1.41850129E-10
   20.5970001         1.51108653E-10
   20.7775002         1.59677216E-10
   20.9580002         1.67361153E-10
   21.1385002         1.73957834E-10
   21.3190002         1.79253806E-10
   21.4995003         1.83021348E-10
   21.6800003         1.85015142E-10
   21.8605003         1.84970067E-10
   22.0410004         1.82600712E-10
   22.2215004         1.77603668E-10
   22.4020004         1.69662701E-10
   22.5825005         1.58456970E-10
   22.7630005         1.43672060E-10
   22.9435005         1.25012778E-10
   23.1240005         1.02217096E-10
   23.3045006         7.50701307E-11
   23.4850006         4.34173496E-11
   23.6655006         7.17666725E-12
   23.8460007        -3.36510611E-11
   24.0265007        -7.89729462E-11
   24.2070007        -1.28596397E-10
   24.3875008        -1.82222917E-10
   24.5680008        -2.39443354E-10
   24.7485008        -2.99735042E-10
   24.9290009        -3.62461422E-10
   25.1095009        -4.26874092E-10
   25.2900009        -4.92118624E-10
   25.4705009        -5.57243307E-10
   25.6509991        -6.21211582E-10
   25.8314991        -6.82917944E-10
   26.0119991        -7.41206541E-10
   26.1924992        -7.94892485E-10
   26.3729992        -8.42785119E-10
   26.5534992        -8.83713658E-10
   26.7339993        -9.16553500E-10
   26.9144993        -9.40253875E-10
   27.0949993        -9.53865431E-10
   27.2754993        -9.56566493E-10
   27.4559994        -9.47686707E-10
   27.6364994        -9.26727417E-10
   27.8169994        -8.93375818E-10
   27.9974995        -8.47513726E-10
   28.1779995        -7.89220134E-10
   28.3584995        -7.18768656E-10
   28.5389996        -6.36621089E-10
   28.7194996        -5.43418810E-10
   28.8999996        -4.39974113E-10
   29.0804996        -3.27262523E-10
   29.2609997        -2.06416925E-10
   29.4414997        -7.87229518E-11
   29.6219997         5.43847016E-11
   29.8024998         1.91326927E-10
   29.9829998         3.30386524E-10
   30.1634998         4.69717709E-10
   30.3439999         6.07358830E-10
   30.5244999         7.41247841E-10
   30.7049999         8.69240901E-10
   30.8855000         9.89132332E-10
   31.0660000         1.09867671E-09
   31.2465000         1.19561283E-09
   31.4270000         1.27769006E-09
   31.6075001         1.34269917E-09
   31.7880001         1.38850742E-09
   31.9685001         1.41309975E-09
   32.1489983         1.41462420E-09
   32.3294983         1.39144318E-09
   32.5099983         1.34218625E-09
   32.6904984         1.26580513E-09
   32.8709984         1.16162657E-09
   33.0514984         1.02940501E-09
   33.2319984         8.69370242E-10
   33.4124985         6.82273738E-10
   33.5929985         4.69430050E-10
   33.7734985         2.32754857E-10
   33.9539986        -2.52030966E-11
   34.1344986        -3.01239061E-10
   34.3149986        -5.91482530E-10
   34.4954987        -8.91406449E-10
   34.6759987        -1.19586052E-09
   34.8564987        -1.49913459E-09
   35.0369987        -1.79505422E-09
   35.2174988        -2.07711071E-09
   35.3979988        -2.33862152E-09
   35.5784988        -2.57291832E-09
   35.7589989        -2.77355583E-09
   35.9394989        -2.93452818E-09
   36.1199989        -3.05048897E-09
   36.3004990        -3.11696224E-09
   36.4809990        -3.13053206E-09
   36.6614990        -3.08900949E-09
   36.8419991        -2.99156278E-09
   37.0224991        -2.83881008E-09
   37.2029991        -2.63286681E-09
   37.3834991        -2.37734565E-09
   37.5639992        -2.07730833E-09
   37.7444992        -1.73916526E-09
   37.9249992        -1.37052691E-09
   38.1054993        -9.80008963E-10
   38.2859993        -5.76993953E-10
   38.4664993        -1.71360773E-10
   38.6469994         2.26813568E-10
   38.8274994         6.07567829E-10
   39.0079994         9.61377089E-10
   39.1884995         1.27946831E-09
   39.3689995         1.55412361E-09
   39.5494995         1.77895898E-09
   39.7299995         1.94917260E-09
   39.9104996         2.06175299E-09
   40.0909996         2.11564055E-09
   40.2714996         2.11183249E-09
   40.4519997         2.05343209E-09
   40.6324997         1.94562877E-09
   40.8129997         1.79561166E-09
   40.9934998         1.61241376E-09
   41.1739998         1.40668421E-09
   41.3544998         1.19039556E-09
   41.5349998         9.76488557E-10
   41.7154999         7.78465015E-10
   41.8959999         6.09940043E-10
   42.0764999         4.84165985E-10
   42.2570000         4.13545365E-10
   42.4375000         4.09145967E-10
   42.6180000         4.80237572E-10
   42.7985001         6.33866737E-10
   42.9790001         8.74485040E-10
   43.1595001         1.20364940E-09
   43.3400002         1.61980274E-09
   43.5205002         2.11815410E-09
   43.7010002         2.69065970E-09
   43.8815002         3.32611183E-09
   44.0620003         4.01033740E-09
   44.2425003         4.72649919E-09
   44.4230003         5.45549694E-09
   44.6035004         6.17645268E-09
   44.7840004         6.86726631E-09
   44.9645004         7.50522489E-09
   45.1450005         8.06764255E-09
   45.3255005         8.53251336E-09
   45.5060005         8.87914720E-09
   45.6865005         9.08878484E-09
   45.8670006         9.14515219E-09
   46.0475006         9.03496566E-09
   46.2280006         8.74834161E-09
   46.4085007         8.27913560E-09
   46.5890007         7.62518404E-09
   46.7695007         6.78845735E-09
   46.9500008         5.77511461E-09
   47.1305008         4.59547200E-09
   47.3110008         3.26388316E-09
   47.4915009         1.79852877E-09
   47.6720009         2.21128296E-10
   47.8525009        -1.44342838E-09
   48.0330009        -3.16752291E-09
   48.2135010        -4.92131669E-09
   48.3940010        -6.67331790E-09
   48.5745010        -8.39099723E-09
   48.7550011        -1.00414397E-08
   48.9355011        -1.15920233E-08
   49.1160011        -1.30111024E-08
   49.2965012        -1.42686805E-08
   49.4770012        -1.53370596E-08
   49.6575012        -1.61914482E-08
   49.8380013        -1.68105014E-08
   50.0185013        -1.71768022E-08
   50.1990013        -1.72772427E-08
   50.3795013        -1.71033303E-08
   50.5600014        -1.66513860E-08
   50.7405014        -1.59226321E-08
   50.9210014        -1.49231987E-08
   51.1015015        -1.36639953E-08
   51.2820015        -1.21605179E-08
   51.4625015        -1.04325411E-08
   51.6430016        -8.50373461E-09
   51.8235016        -6.40121112E-09
   52.0040016        -4.15502077E-09
   52.1845016        -1.79759252E-09
   52.3650017         6.36841357E-10
   52.5455017         3.11284043E-09
   52.7260017         5.59435254E-09
   52.9065018         8.04530043E-09
   53.0870018         1.04301607E-08
   53.2675018         1.27145166E-08
   53.4480019         1.48655923E-08
   53.6285019         1.68527503E-08
   53.8089981         1.86479667E-08
   53.9894981         2.02262527E-08
   54.1699982         2.15660378E-08
   54.3504982         2.26494929E-08
   54.5309982         2.34628033E-08
   54.7114983         2.39963569E-08
   54.8919983         2.42448692E-08
   55.0724983         2.42074396E-08
   55.2529984         2.38875106E-08
   55.4334984         2.32927899E-08
   55.6139984         2.24350600E-08
   55.7944984         2.13299547E-08
   55.9749985         1.99966586E-08
   56.1554985         1.84575413E-08
   56.3359985         1.67377525E-08
   56.5164986         1.48647556E-08
   56.6969986         1.28678490E-08
   56.8774986         1.07776446E-08
   57.0579987         8.62553495E-09
   57.2384987         6.44317488E-09
   57.4189987         4.26195479E-09
   57.5994987         2.11250839E-09
   57.7799988         2.42473923E-11
   57.9604988        -1.97506544E-09
   58.1409988        -3.85970189E-09
   58.3214989        -5.60630653E-09
   58.5019989        -7.19419324E-09
   58.6824989        -8.60559091E-09
   58.8629990        -9.82585036E-09
   59.0434990        -1.08435900E-08
   59.2239990        -1.16508057E-08
   59.4044991        -1.22429080E-08
   59.5849991        -1.26187292E-08
   59.7654991        -1.27804594E-08
   59.9459991        -1.27335529E-08
   60.1264992        -1.24865860E-08
   60.3069992        -1.20510855E-08
   60.4874992        -1.14413092E-08
   60.6679993        -1.06740039E-08
   60.8484993        -9.76813830E-09
   61.0289993        -8.74461481E-09
   61.2094994        -7.62593633E-09
   61.3899994        -6.43586917E-09
   61.5704994        -5.19905674E-09
   61.7509995        -3.94060296E-09
   61.9314995        -2.68563372E-09
   62.1119995        -1.45882317E-09
   62.2924995        -2.83920665E-10
   62.4729996         8.16724799E-10
   62.6534996         1.82261384E-09
   62.8339996         2.71551026E-09
   63.0144997         3.47979934E-09
   63.1949997         4.10277767E-09
   63.3754997         4.57486626E-09
   63.5559998         4.88973795E-09
   63.7364998         5.04435871E-09
   63.9169998         5.03895192E-09
   64.0975037         4.87689000E-09
   64.2779999         4.56452831E-09
   64.4585037         4.11098355E-09
   64.6389999         3.52786955E-09
   64.8195038         2.82898438E-09
   65.0000000         2.02996109E-09
   65.1804962         1.14787613E-09
   65.3610001         2.00821526E-10
   65.5414963        -7.92560795E-10
   65.7220001        -1.81357251E-09
   65.9024963        -2.84398083E-09
   66.0830002        -3.86656307E-09
   66.2634964        -4.86564700E-09
   66.4440002        -5.82765081E-09
   66.6244965        -6.74158374E-09
   66.8050003        -7.59949703E-09
   66.9854965        -8.39686898E-09
   67.1660004        -9.13289977E-09
   67.3464966        -9.81069981E-09
   67.5270004        -1.04373745E-08
   67.7074966        -1.10239649E-08
   67.8880005        -1.15852723E-08
   68.0684967        -1.21395303E-08
   68.2490005        -1.27079511E-08
   68.4294968        -1.33141533E-08
   68.6100006        -1.39834837E-08
   68.7904968        -1.47422652E-08
   68.9710007        -1.56169797E-08
   69.1514969        -1.66334466E-08
   69.3320007        -1.78159816E-08
   69.5124969        -1.91866008E-08
   69.6930008        -2.07642668E-08
   69.8734970        -2.25641976E-08
   70.0540009        -2.45972682E-08
   70.2344971        -2.68694773E-08
   70.4150009        -2.93815035E-08
   70.5954971        -3.21283586E-08
   70.7760010        -3.50991165E-08
   70.9564972        -3.82767702E-08
   71.1370010        -4.16381845E-08
   71.3174973        -4.51541489E-08
   71.4980011        -4.87896159E-08
   71.6784973        -5.25040527E-08
   71.8590012        -5.62519098E-08
   72.0394974        -5.99832859E-08
   72.2200012        -6.36446913E-08
   72.4004974        -6.71798901E-08
   72.5810013        -7.05308949E-08
   72.7614975        -7.36389794E-08
   72.9420013        -7.64456800E-08
   73.1224976        -7.88938692E-08
   73.3030014        -8.09287997E-08
   73.4834976        -8.24990352E-08
   73.6640015        -8.35574383E-08
   73.8444977        -8.40620231E-08
   74.0250015        -8.39767793E-08
   74.2054977        -8.32724183E-08
   74.3860016        -8.19270127E-08
   74.5664978        -7.99266289E-08
   74.7470016        -7.72657174E-08
   74.9274979        -7.39475112E-08
   75.1080017        -6.99841962E-08
   75.2884979        -6.53969252E-08
   75.4690018        -6.02156831E-08
   75.6494980        -5.44789565E-08
   75.8300018        -4.82332325E-08
   76.0104980        -4.15323029E-08
   76.1910019        -3.44364324E-08
   76.3714981        -2.70113816E-08
   76.5520020        -1.93273078E-08
   76.7324982        -1.14575593E-08
   76.9130020        -3.47739526E-09
   77.0934982         4.53734561E-09
   77.2740021         1.25115998E-08
   77.4544983         2.03724433E-08
   77.6350021         2.80504207E-08
   77.8154984         3.54807987E-08
   77.9960022         4.26047357E-08
   78.1764984         4.93703176E-08
   78.3570023         5.57334197E-08
   78.5374985         6.16584330E-08
   78.7180023         6.71187763E-08
   78.8984985         7.20972224E-08
   79.0790024         7.65860833E-08
   79.2594986         8.05871778E-08
   79.4400024         8.41116332E-08
   79.6204987         8.71794867E-08
   79.8010025         8.98191388E-08
   79.9814987         9.20665855E-08
   80.1620026         9.39644806E-08
   80.3424988         9.55610275E-08
   80.5230026         9.69087068E-08
   80.7034988         9.80628982E-08
   80.8840027         9.90803457E-08
   81.0644989         1.00017722E-07
   81.2450027         1.00930045E-07
   81.4254990         1.01869333E-07
   81.6060028         1.02883234E-07
   81.7864990         1.04013992E-07
   81.9670029         1.05297424E-07
   82.1474991         1.06762251E-07
   82.3280029         1.08429525E-07
   82.5084991         1.10312357E-07
   82.6890030         1.12415734E-07
   82.8694992         1.14736565E-07
