  -7.65000010        -3.09144961E-18
  -7.53125000        -3.09144961E-18
  -7.41249990        -3.09144940E-18
  -7.29374981        -3.09144961E-18
  -7.17500019        -3.09144961E-18
  -7.05625010        -3.09144919E-18
  -6.93750000        -3.09144919E-18
  -6.81874990        -3.09144878E-18
  -6.69999981        -3.09144795E-18
  -6.58125019        -3.09144733E-18
  -6.46250010        -3.09144609E-18
  -6.34375000        -3.09144547E-18
  -6.22499990        -3.09144444E-18
  -6.10624981        -3.09144361E-18
  -5.98750019        -3.09144258E-18
  -5.86875010        -3.09144154E-18
  -5.75000000        -3.09144009E-18
  -5.63124990        -3.09143885E-18
  -5.51249981        -3.09143761E-18
  -5.39375019        -3.09143658E-18
  -5.27500010        -3.09143554E-18
  -5.15625000        -3.09143410E-18
  -5.03749990        -3.09143306E-18
  -4.91874981        -3.09143162E-18
  -4.80000019        -3.09143038E-18
  -4.68125010        -3.09142872E-18
  -4.56250000        -3.09142686E-18
  -4.44374990        -3.09142500E-18
  -4.32499981        -3.09142231E-18
  -4.20625019        -3.09142004E-18
  -4.08750010        -3.09141755E-18
  -3.96875000        -3.09141487E-18
  -3.84999990        -3.09141280E-18
  -3.73125005        -3.09141032E-18
  -3.61249995        -3.09140804E-18
  -3.49375010        -3.09140639E-18
  -3.37500000        -3.09140494E-18
  -3.25624990        -3.09140328E-18
  -3.13750005        -3.09140204E-18
  -3.01874995        -3.09140060E-18
  -2.90000010        -3.09139832E-18
  -2.78125000        -3.09139584E-18
  -2.66249990        -3.09139274E-18
  -2.54375005        -3.09138964E-18
  -2.42499995        -3.09138591E-18
  -2.30625010        -3.09138240E-18
  -2.18750000        -3.09137847E-18
  -2.06874990        -3.09137454E-18
  -1.95000005        -3.09137020E-18
  -1.83124995        -3.09136648E-18
  -1.71249998        -3.09136317E-18
  -1.59375000        -3.09135986E-18
  -1.47500002        -3.09135717E-18
  -1.35625005        -3.09135469E-18
  -1.23749995        -3.09135241E-18
  -1.11874998        -3.09135055E-18
  -1.00000000        -3.09134869E-18
 -0.881250024        -3.09134662E-18
 -0.762499988        -3.09134393E-18
 -0.643750012        -3.09134104E-18
 -0.524999976        -3.09133773E-18
 -0.406250000        -3.09133359E-18
 -0.287499994        -3.09132925E-18
 -0.168750003        -3.09132470E-18
  -5.00000007E-02    -3.09131953E-18
   6.87500015E-02    -3.09131457E-18
  0.187500000        -3.09130940E-18
  0.306250006        -3.09130485E-18
  0.425000012        -3.09130030E-18
  0.543749988        -3.09129658E-18
  0.662500024        -3.09129327E-18
  0.781250000        -3.09128975E-18
  0.899999976        -3.09128624E-18
   1.01874995        -3.09128210E-18
   1.13750005        -3.09127797E-18
   1.25625002        -3.09127321E-18
   1.37500000        -3.09126845E-18
   1.49374998        -3.09126308E-18
   1.61249995        -3.09125687E-18
   1.73125005        -3.09125005E-18
   1.85000002        -3.09124281E-18
   1.96875000        -3.09123557E-18
   2.08750010        -3.09122792E-18
   2.20624995        -3.09122110E-18
   2.32500005        -3.09121448E-18
   2.44374990        -3.09120869E-18
   2.56250000        -3.09120290E-18
   2.68125010        -3.09119814E-18
   2.79999995        -3.09119339E-18
   2.91875005        -3.09118925E-18
   3.03749990        -3.09118512E-18
   3.15625000        -3.09118077E-18
   3.27500010        -3.09117684E-18
   3.39374995        -3.09117167E-18
   3.51250005        -3.09116609E-18
   3.63124990        -3.09116009E-18
   3.75000000        -3.09115286E-18
   3.86875010        -3.09114603E-18
   3.98749995        -3.09113859E-18
   4.10624981        -3.09113094E-18
   4.22499990        -3.09112308E-18
   4.34375000        -3.09111522E-18
   4.46250010        -3.09110777E-18
   4.58125019        -3.09110074E-18
   4.69999981        -3.09109454E-18
   4.81874990        -3.09108834E-18
   4.93750000        -3.09108296E-18
   5.05625010        -3.09107758E-18
   5.17500019        -3.09107200E-18
   5.29374981        -3.09106600E-18
   5.41249990        -3.09105959E-18
   5.53125000        -3.09105235E-18
   5.65000010        -3.09104450E-18
   5.76875019        -3.09103581E-18
   5.88749981        -3.09102630E-18
   6.00624990        -3.09101575E-18
   6.12500000        -3.09100438E-18
   6.24375010        -3.09099259E-18
   6.36250019        -3.09098039E-18
   6.48124981        -3.09096902E-18
   6.59999990        -3.09095785E-18
   6.71875000        -3.09094792E-18
   6.83750010        -3.09093944E-18
   6.95625019        -3.09093365E-18
   7.07499981        -3.09093055E-18
   7.19374990        -3.09093055E-18
   7.31250000        -3.09093324E-18
   7.43125010        -3.09093862E-18
   7.55000019        -3.09094482E-18
   7.66874981        -3.09095061E-18
   7.78749990        -3.09095371E-18
   7.90625000        -3.09095123E-18
   8.02499962        -3.09094006E-18
   8.14375019        -3.09091690E-18
   8.26249981        -3.09087947E-18
   8.38125038        -3.09082612E-18
   8.50000000        -3.09075726E-18
   8.61874962        -3.09067599E-18
   8.73750019        -3.09058665E-18
   8.85624981        -3.09049959E-18
   8.97500038        -3.09042721E-18
   9.09375000        -3.09038399E-18
   9.21249962        -3.09038565E-18
   9.33125019        -3.09044810E-18
   9.44999981        -3.09058314E-18
   9.56875038        -3.09079738E-18
   9.68750000        -3.09108689E-18
   9.80624962        -3.09143782E-18
   9.92500019        -3.09182060E-18
   10.0437498        -3.09219076E-18
   10.1625004        -3.09249061E-18
   10.2812500        -3.09265336E-18
   10.3999996        -3.09260787E-18
   10.5187502        -3.09228713E-18
   10.6374998        -3.09164089E-18
   10.7562504        -3.09064559E-18
   10.8750000        -3.08931838E-18
   10.9937496        -3.08772543E-18
   11.1125002        -3.08599166E-18
   11.2312498        -3.08429884E-18
   11.3500004        -3.08288188E-18
   11.4687500        -3.08201210E-18
   11.5874996        -3.08197446E-18
   11.7062502        -3.08303180E-18
   11.8249998        -3.08538844E-18
   11.9437504        -3.08914157E-18
   12.0625000        -3.09424155E-18
   12.1812496        -3.10045347E-18
   12.3000002        -3.10733561E-18
   12.4187498        -3.11423326E-18
   12.5375004        -3.12030043E-18
   12.6562500        -3.12455213E-18
   12.7749996        -3.12594490E-18
   12.8937502        -3.12348838E-18
   13.0124998        -3.11637711E-18
   13.1312504        -3.10413732E-18
   13.2500000        -3.08677045E-18
   13.3687496        -3.06487808E-18
   13.4875002        -3.03974751E-18
   13.6062498        -3.01337968E-18
   13.7250004        -2.98843977E-18
   13.8437500        -2.96812422E-18
   13.9624996        -2.95593013E-18
   14.0812502        -2.95533973E-18
   14.1999998        -2.96942971E-18
   14.3187504        -3.00043782E-18
   14.4375000        -3.04931923E-18
   14.5562496        -3.11534396E-18
   14.6750002        -3.19578789E-18
   14.7937498        -3.28576715E-18
   14.9125004        -3.37826745E-18
   15.0312500        -3.46440756E-18
   15.1499996        -3.53394967E-18
   15.2687502        -3.57605771E-18
   15.3874998        -3.58027551E-18
   15.5062504        -3.53765833E-18
   15.6250000        -3.44197732E-18
   15.7437496        -3.29088223E-18
   15.8625002        -3.08689949E-18
   15.9812498        -2.83813154E-18
   16.1000004        -2.55853622E-18
   16.2187500        -2.26768215E-18
   16.3374996        -1.98991676E-18
   16.4562492        -1.75292517E-18
   16.5750008        -1.58572974E-18
   16.6937504        -1.51622672E-18
   16.8125000        -1.56843195E-18
   16.9312496        -1.75965759E-18
   17.0499992        -2.09787748E-18
   17.1687508        -2.57956998E-18
   17.2875004        -3.18830998E-18
   17.4062500        -3.89435226E-18
   17.5249996        -4.65538572E-18
   17.6437492        -5.41854007E-18
   17.7625008        -6.12362841E-18
   17.8812504        -6.70746779E-18
   18.0000000        -7.10901518E-18
   18.1187496        -7.27491948E-18
   18.2374992        -7.16504343E-18
   18.3562508        -6.75738318E-18
   18.4750004        -6.05190689E-18
   18.5937500        -5.07278395E-18
   18.7124996        -3.86865217E-18
   18.8312492        -2.51067948E-18
   18.9500008        -1.08838068E-18
   19.0687504         2.96631362E-19
   19.1875000         1.53855315E-18
   19.3062496         2.53636923E-18
   19.4249992         3.20310203E-18
   19.5437508         3.47447083E-18
   19.6625004         3.31605499E-18
   19.7812500         2.72810432E-18
   19.8999996         1.74729683E-18
   20.0187492         4.45029373E-19
   20.1375008        -1.07795272E-18
   20.2562504        -2.70032883E-18
   20.3750000        -4.29181751E-18
   20.4937496        -5.72669380E-18
   20.6124992        -6.89798941E-18
   20.7312508        -7.73099048E-18
   20.8500004        -8.19453257E-18
   20.9687500        -8.30874057E-18
   21.0874996        -8.14806487E-18
   21.2062492        -7.83881761E-18
   21.3250008        -7.55094386E-18
   21.4437504        -7.48434011E-18
   21.5625000        -7.85057019E-18
   21.6812496        -8.85147114E-18
   21.7999992        -1.06565612E-17
   21.9187508        -1.33815266E-17
   22.0375004        -1.70701888E-17
   22.1562500        -2.16822137E-17
   22.2749996        -2.70886067E-17
   22.3937492        -3.30763090E-17
   22.5125008        -3.93626236E-17
   22.6312504        -4.56192622E-17
   22.7500000        -5.15047218E-17
   22.8687496        -5.67030920E-17
   22.9874992        -6.09661824E-17
   23.1062508        -6.41556982E-17
   23.2250004        -6.62813737E-17
   23.3437500        -6.75315678E-17
   23.4624996        -6.82925012E-17
   23.5812492        -6.91536293E-17
   23.7000008        -7.08971275E-17
   23.8187504        -7.44709514E-17
   23.9375000        -8.09462536E-17
   24.0562496        -9.14610361E-17
   24.1749992        -1.07153360E-16
   24.2937508        -1.29088443E-16
   24.4125004        -1.58184329E-16
   24.5312500        -1.95141250E-16
   24.6499996        -2.40379798E-16
   24.7687492        -2.93992113E-16
   24.8875008        -3.55708733E-16
   25.0062504        -4.24884114E-16
   25.1250000        -5.00500122E-16
   25.2437496        -5.81187210E-16
   25.3624992        -6.65259783E-16
   25.4812508        -7.50762729E-16
   25.6000004        -8.35524099E-16
   25.7187500        -9.17209945E-16
   25.8374996        -9.93375041E-16
   25.9562492        -1.06150709E-15
   26.0750008        -1.11906139E-15
   26.1937504        -1.16348414E-15
   26.3125000        -1.19222471E-15
   26.4312496        -1.20274073E-15
   26.5499992        -1.19249798E-15
   26.6687508        -1.15897072E-15
   26.7875004        -1.09964739E-15
   26.9062500        -1.01204968E-15
   27.0249996        -8.93767143E-16
   27.1437492        -7.42512152E-16
   27.2625008        -5.56200267E-16
   27.3812504        -3.33051370E-16
   27.5000000        -7.17103916E-17
   27.6187496         2.28613875E-16
   27.7374992         5.68001289E-16
   27.8562508         9.45679040E-16
   27.9750004         1.35988599E-15
   28.0937500         1.80775720E-15
   28.2124996         2.28524216E-15
   28.3312492         2.78706493E-15
   28.4500008         3.30672388E-15
   28.5687504         3.83653409E-15
   28.6875000         4.36773598E-15
   28.8062496         4.89062678E-15
   28.9249992         5.39475072E-15
   29.0437508         5.86909214E-15
   29.1625004         6.30229570E-15
   29.2812500         6.68288963E-15
   29.3999996         6.99948895E-15
   29.5187492         7.24098143E-15
   29.6375008         7.39666354E-15
   29.7562504         7.45633786E-15
   29.8750000         7.41036938E-15
   29.9937496         7.24968723E-15
   30.1124992         6.96574104E-15
   30.2312508         6.55043443E-15
   30.3500004         5.99602723E-15
   30.4687500         5.29504309E-15
   30.5874996         4.44019203E-15
   30.7062492         3.42431937E-15
   30.8250008         2.24041295E-15
   30.9437504         8.81688930E-16
   31.0625000        -6.58283884E-16
   31.1812496        -2.38529751E-15
   31.2999992        -4.30421825E-15
   31.4187508        -6.41855394E-15
   31.5375004        -8.72996286E-15
   31.6562500        -1.12376827E-14
   31.7749996        -1.39379619E-14
   31.8937492        -1.68234364E-14
   32.0125008        -1.98825856E-14
   32.1312485        -2.30991102E-14
   32.2500000        -2.64515447E-14
   32.3687515        -2.99128601E-14
   32.4874992        -3.34500866E-14
   32.6062508        -3.70244776E-14
   32.7249985        -4.05914045E-14
   32.8437500        -4.41006755E-14
   32.9625015        -4.74969727E-14
   33.0812492        -5.07204582E-14
   33.2000008        -5.37076453E-14
   33.3187485        -5.63922552E-14
   33.4375000        -5.87063425E-14
   33.5562515        -6.05815379E-14
   33.6749992        -6.19502821E-14
   33.7937508        -6.27471233E-14
   33.9124985        -6.29102144E-14
   34.0312500        -6.23822825E-14
   34.1500015        -6.11121668E-14
   34.2687492        -5.90556656E-14
   34.3875008        -5.61766311E-14
   34.5062485        -5.24476025E-14
   34.6250000        -4.78504328E-14
   34.7437515        -4.23765129E-14
   34.8624992        -3.60269099E-14
   34.9812508        -2.88120561E-14
   35.0999985        -2.07513602E-14
   35.2187500        -1.18724966E-14
   35.3375015        -2.21056922E-15
   35.4562492         8.19301936E-15
   35.5750008         1.92917683E-14
   35.6937485         3.10351449E-14
   35.8125000         4.33700825E-14
   35.9312515         5.62419509E-14
   36.0499992         6.95957777E-14
   36.1687508         8.33770241E-14
   36.2874985         9.75323677E-14
   36.4062500         1.12009848E-13
   36.5250015         1.26759321E-13
   36.6437492         1.41731841E-13
   36.7625008         1.56879514E-13
   36.8812485         1.72154202E-13
   37.0000000         1.87506816E-13
   37.1187515         2.02886509E-13
   37.2374992         2.18238500E-13
   37.3562508         2.33503809E-13
   37.4749985         2.48617479E-13
   37.5937500         2.63508128E-13
   37.7125015         2.78096610E-13
   37.8312492         2.92296840E-13
   37.9500008         3.06015142E-13
   38.0687485         3.19151173E-13
   38.1875000         3.31599250E-13
   38.3062515         3.43250087E-13
   38.4249992         3.53992633E-13
   38.5437508         3.63716761E-13
   38.6624985         3.72315460E-13
   38.7812500         3.79688604E-13
   38.9000015         3.85744415E-13
   39.0187492         3.90403665E-13
   39.1375008         3.93601357E-13
   39.2562485         3.95288294E-13
   39.3750000         3.95433225E-13
   39.4937515         3.94023356E-13
   39.6124992         3.91064514E-13
   39.7312508         3.86580660E-13
   39.8499985         3.80612181E-13
   39.9687500         3.73213667E-13
   40.0875015         3.64451850E-13
   40.2062492         3.54401621E-13
   40.3250008         3.43142534E-13
   40.4437485         3.30754602E-13
   40.5625000         3.17314453E-13
   40.6812515         3.02890905E-13
   40.7999992         2.87541529E-13
   40.9187508         2.71308963E-13
   41.0374985         2.54218765E-13
   41.1562500         2.36276602E-13
   41.2750015         2.17467930E-13
   41.3937492         1.97757189E-13
   41.5125008         1.77089924E-13
   41.6312485         1.55393805E-13
   41.7500000         1.32582435E-13
   41.8687515         1.08558311E-13
   41.9874992         8.32183985E-14
   42.1062508         5.64584017E-14
   42.2249985         2.81795359E-14
   42.3437500        -1.70636608E-15
   42.4625015        -3.32722199E-14
   42.5812492        -6.65703115E-14
   42.7000008        -1.01628287E-13
   42.8187485        -1.38449744E-13
   42.9375000        -1.77010235E-13
   43.0562515        -2.17257473E-13
   43.1749992        -2.59117435E-13
   43.2937508        -3.02495740E-13
   43.4124985        -3.47287466E-13
   43.5312500        -3.93382484E-13
   43.6500015        -4.40675057E-13
   43.7687492        -4.89076932E-13
   43.8875008        -5.38525387E-13
   44.0062485        -5.88996191E-13
   44.1250000        -6.40512003E-13
   44.2437515        -6.93154030E-13
   44.3624992        -7.47065875E-13
   44.4812508        -8.02459011E-13
   44.5999985        -8.59615113E-13
   44.7187500        -9.18881941E-13
   44.8375015        -9.80669213E-13
   44.9562492        -1.04543674E-12
   45.0750008        -1.11368347E-12
   45.1937485        -1.18592777E-12
   45.3125000        -1.26268906E-12
   45.4312515        -1.34446545E-12
   45.5499992        -1.43170924E-12
   45.6687508        -1.52480361E-12
   45.7874985        -1.62403771E-12
   45.9062500        -1.72958425E-12
   46.0250015        -1.84147944E-12
   46.1437492        -1.95960609E-12
   46.2625008        -2.08368067E-12
   46.3812485        -2.21324434E-12
   46.5000000        -2.34766265E-12
   46.6187515        -2.48612524E-12
   46.7374992        -2.62765569E-12
   46.8562508        -2.77112317E-12
   46.9749985        -2.91526157E-12
   47.0937500        -3.05869067E-12
   47.2125015        -3.19994031E-12
   47.3312492        -3.33747851E-12
   47.4500008        -3.46973969E-12
   47.5687485        -3.59515174E-12
   47.6875000        -3.71216079E-12
   47.8062515        -3.81925784E-12
   47.9249992        -3.91499810E-12
   48.0437508        -3.99801763E-12
   48.1624985        -4.06704228E-12
   48.2812500        -4.12089633E-12
   48.4000015        -4.15849820E-12
   48.5187492        -4.17886125E-12
   48.6375008        -4.18107693E-12
   48.7562485        -4.16429998E-12
   48.8750000        -4.12773114E-12
   48.9937515        -4.07059629E-12
   49.1124992        -3.99211783E-12
   49.2312508        -3.89149737E-12
   49.3499985        -3.76788878E-12
   49.4687500        -3.62038416E-12
   49.5875015        -3.44799710E-12
   49.7062492        -3.24965619E-12
   49.8250008        -3.02420415E-12
   49.9437485        -2.77040543E-12
   50.0625000        -2.48696658E-12
   50.1812515        -2.17255619E-12
   50.2999992        -1.82584850E-12
   50.4187508        -1.44556394E-12
   50.5374985        -1.03052246E-12
   50.6562500        -5.79703549E-13
   50.7750015        -9.23114260E-14
   50.8937492         4.32157863E-13
   51.0125008         9.93850510E-13
   51.1312485         1.59248688E-12
   51.2500000         2.22730211E-12
   51.3687515         2.89699471E-12
   51.4874992         3.59968349E-12
   51.6062508         4.33287781E-12
   51.7249985         5.09346385E-12
   51.8437500         5.87770674E-12
   51.9625015         6.68126795E-12
   52.0812492         7.49924515E-12
   52.2000008         8.32622686E-12
   52.3187485         9.15635883E-12
   52.4375000         9.98343942E-12
   52.5562515         1.08010111E-11
   52.6749992         1.16024707E-11
   52.7937508         1.23811864E-11
   52.9124985         1.31306147E-11
   53.0312500         1.38444109E-11
   53.1500015         1.45165477E-11
   53.2687492         1.51414072E-11
   53.3875008         1.57138729E-11
   53.5062485         1.62293998E-11
   53.6250000         1.66840639E-11
   53.7437515         1.70745865E-11
   53.8624992         1.73983571E-11
   53.9812508         1.76533978E-11
   54.0999985         1.78383419E-11
   54.2187500         1.79523705E-11
   54.3375015         1.79951418E-11
   54.4562492         1.79666976E-11
   54.5750008         1.78673690E-11
   54.6937485         1.76976767E-11
   54.8125000         1.74582258E-11
   54.9312515         1.71496116E-11
   55.0499992         1.67723353E-11
   55.1687508         1.63267334E-11
   55.2874985         1.58129343E-11
   55.4062500         1.52308288E-11
   55.5250015         1.45800750E-11
   55.6437492         1.38601283E-11
   55.7625008         1.30702974E-11
   55.8812485         1.22098295E-11
   56.0000000         1.12780202E-11
   56.1187515         1.02743413E-11
   56.2374992         9.19858200E-12
   56.3562508         8.05100257E-12
   56.4749985         6.83249030E-12
   56.5937500         5.54470836E-12
   56.7125015         4.19023410E-12
   56.8312492         2.77267423E-12
   56.9500008         1.29675827E-12
   57.0687485        -2.31604395E-13
   57.1875000        -1.80530330E-12
   57.3062515        -3.41604739E-12
   57.4249992        -5.05442780E-12
   57.5437508        -6.71002403E-12
   57.6624985        -8.37155172E-12
   57.7812500        -1.00270504E-11
   57.9000015        -1.16640994E-11
   58.0187492        -1.32700665E-11
   58.1375008        -1.48323714E-11
   58.2562485        -1.63387619E-11
   58.3750000        -1.77775815E-11
   58.4937515        -1.91380470E-11
   58.6124992        -2.04104754E-11
   58.7312508        -2.15865121E-11
   58.8499985        -2.26593015E-11
   58.9687500        -2.36236222E-11
   59.0875015        -2.44759629E-11
   59.2062492        -2.52145579E-11
   59.3250008        -2.58393411E-11
   59.4437485        -2.63518773E-11
   59.5625000        -2.67552126E-11
   59.6812515        -2.70536857E-11
   59.7999992        -2.72527053E-11
   59.9187508        -2.73584801E-11
   60.0374985        -2.73777407E-11
   60.1562500        -2.73174400E-11
   60.2750015        -2.71844578E-11
   60.3937492        -2.69853289E-11
   60.5125008        -2.67259756E-11
   60.6312485        -2.64114980E-11
   60.7500000        -2.60459970E-11
   60.8687515        -2.56324580E-11
   60.9874992        -2.51726869E-11
   61.1062508        -2.46673255E-11
   61.2249985        -2.41159141E-11
   61.3437500        -2.35170199E-11
   61.4625015        -2.28684294E-11
   61.5812492        -2.21673808E-11
   61.7000008        -2.14108436E-11
   61.8187485        -2.05958115E-11
   61.9375000        -1.97196270E-11
   62.0562515        -1.87802846E-11
   62.1749992        -1.77767315E-11
   62.2937508        -1.67091271E-11
   62.4124985        -1.55790606E-11
   62.5312500        -1.43897073E-11
   62.6500015        -1.31459219E-11
   62.7687492        -1.18542520E-11
   62.8875008        -1.05228708E-11
   63.0062485        -9.16143116E-12
   63.1250000        -7.78084368E-12
   63.2437515        -6.39298250E-12
   63.3624992        -5.01032289E-12
   63.4812508        -3.64554957E-12
   63.5999985        -2.31110964E-12
   63.7187500        -1.01878304E-12
   63.8375015         2.20775926E-13
   63.9562492         1.39843692E-12
   64.0749969         2.50696447E-12
   64.1937485         3.54131936E-12
   64.3125000         4.49886526E-12
   64.4312515         5.37949459E-12
   64.5500031         6.18563057E-12
   64.6687469         6.92212737E-12
   64.7874985         7.59604185E-12
   64.9062500         8.21630177E-12
   65.0250015         8.79326559E-12
   65.1437531         9.33818908E-12
   65.2624969         9.86262287E-12
   65.3812485         1.03777559E-11
   65.5000000         1.08937330E-11
   65.6187515         1.14189829E-11
   65.7375031         1.19595653E-11
   65.8562469         1.25185877E-11
   65.9749985         1.30957155E-11
   66.0937500         1.36867930E-11
   66.2125015         1.42836012E-11
   66.3312531         1.48737880E-11
   66.4499969         1.54409558E-11
   66.5687485         1.59649342E-11
   66.6875000         1.64222282E-11
   66.8062515         1.67866398E-11
   66.9250031         1.70300475E-11
   67.0437469         1.71233201E-11
   67.1624985         1.70373351E-11
   67.2812500         1.67440957E-11
   67.4000015         1.62178482E-11
   67.5187531         1.54362582E-11
   67.6374969         1.43814891E-11
   67.7562485         1.30412426E-11
   67.8750000         1.14096675E-11
   67.9937515         9.48810301E-12
   68.1125031         7.28566079E-12
   68.2312469         4.81957269E-12
   68.3499985         2.11531964E-12
   68.4687500        -7.93477914E-13
   68.5875015        -3.86542274E-12
   68.7062531        -7.05193412E-12
   68.8249969        -1.02980688E-11
   68.9437485        -1.35435396E-11
   69.0625000        -1.67239139E-11
   69.1812515        -1.97719670E-11
   69.3000031        -2.26190854E-11
   69.4187469        -2.51968047E-11
   69.5374985        -2.74382878E-11
   69.6562500        -2.92798182E-11
   69.7750015        -3.06622228E-11
   69.8937531        -3.15321380E-11
   70.0124969        -3.18431705E-11
   70.1312485        -3.15568821E-11
   70.2500000        -3.06435190E-11
   70.3687515        -2.90825940E-11
   70.4875031        -2.68631992E-11
   70.6062469        -2.39841098E-11
   70.7249985        -2.04536769E-11
   70.8437500        -1.62895097E-11
   70.9625015        -1.15179801E-11
   71.0812531        -6.17359419E-12
   71.1999969        -2.98222737E-13
   71.3187485         6.05973778E-12
   71.4375000         1.28462562E-11
   71.5562515         2.00025725E-11
   71.6750031         2.74660780E-11
   71.7937469         3.51711577E-11
   71.9124985         4.30499351E-11
   72.0312500         5.10329487E-11
   72.1500015         5.90496957E-11
   72.2687531         6.70290976E-11
   72.3874969         7.48998086E-11
   72.5062485         8.25904553E-11
   72.6250000         9.00297961E-11
   72.7437515         9.71468045E-11
   72.8625031         1.03870718E-10
   72.9812469         1.10131085E-10
   73.0999985         1.15857844E-10
   73.2187500         1.20981475E-10
   73.3375015         1.25433219E-10
   73.4562531         1.29145430E-10
   73.5749969         1.32052091E-10
   73.6937485         1.34089503E-10
   73.8125000         1.35197062E-10
   73.9312515         1.35318298E-10
   74.0500031         1.34402087E-10
   74.1687469         1.32403880E-10
   74.2874985         1.29287192E-10
   74.4062500         1.25025074E-10
   74.5250015         1.19601690E-10
   74.6437531         1.13013751E-10
   74.7624969         1.05272041E-10
   74.8812485         9.64026359E-11
   75.0000000         8.64480362E-11
   75.1187515         7.54679791E-11
   75.2375031         6.35399372E-11
   75.3562469         5.07593169E-11
