  -7.19999981         8.57846431E-18
  -7.01949978         8.57846431E-18
  -6.83900023         8.57846514E-18
  -6.65850019         8.57846597E-18
  -6.47800016         8.57846679E-18
  -6.29750013         8.57846762E-18
  -6.11700010         8.57846845E-18
  -5.93650007         8.57846928E-18
  -5.75600004         8.57847093E-18
  -5.57550001         8.57847341E-18
  -5.39499998         8.57847672E-18
  -5.21449995         8.57847920E-18
  -5.03399992         8.57848168E-18
  -4.85349989         8.57848251E-18
  -4.67299986         8.57848003E-18
  -4.49249983         8.57847341E-18
  -4.31199980         8.57845604E-18
  -4.13149977         8.57841716E-18
  -3.95099998         8.57834603E-18
  -3.77049994         8.57823187E-18
  -3.58999991         8.57806313E-18
  -3.40949988         8.57780588E-18
  -3.22900009         8.57738153E-18
  -3.04850006         8.57670242E-18
  -2.86800003         8.57579996E-18
  -2.68750000         8.57489255E-18
  -2.50699997         8.57416463E-18
  -2.32649994         8.57329030E-18
  -2.14599991         8.57123145E-18
  -1.96550000         8.56705915E-18
  -1.78499997         8.56161464E-18
  -1.60450006         8.55836134E-18
  -1.42400002         8.56139213E-18
  -1.24349999         8.57068137E-18
  -1.06299996         8.57810532E-18
 -0.882499993         8.56946872E-18
 -0.702000022         8.53523503E-18
 -0.521499991         8.48647852E-18
 -0.340999991         8.46512651E-18
 -0.160500005         8.53219431E-18
   1.99999996E-02     8.72134239E-18
  0.200499997         8.96848907E-18
  0.381000012         9.07228121E-18
  0.561500013         8.77319504E-18
  0.741999984         7.99672060E-18
  0.922500014         7.15138668E-18
   1.10300004         7.18411821E-18
   1.28349996         9.08249358E-18
   1.46399999         1.28595037E-17
   1.64450002         1.66627163E-17
   1.82500005         1.70329243E-17
   2.00550008         1.09204194E-17
   2.18600011        -1.23445312E-18
   2.36649990        -1.34547213E-17
   2.54699993        -1.55414829E-17
   2.72749996         1.59997793E-18
   2.90799999         3.88317556E-17
   3.08850002         8.41340687E-17
   3.26900005         1.14231737E-16
   3.44950008         1.03244700E-16
   3.63000011         3.54487656E-17
   3.81049991        -8.27427311E-17
   3.99099994        -2.16145140E-16
   4.17150021        -3.02954542E-16
   4.35200024        -2.68771177E-16
   4.53249979        -5.50457265E-17
   4.71299982         3.39935815E-16
   4.89349985         8.20534104E-16
   5.07399988         1.18085064E-15
   5.25449991         1.15176840E-15
   5.43499994         5.22281468E-16
   5.61549997        -6.95425591E-16
   5.79600000        -2.14142042E-15
   5.97650003        -3.13298852E-15
   6.15700006        -2.90664650E-15
   6.33750010        -1.03172266E-15
   6.51800013         2.18727116E-15
   6.69850016         5.57598952E-15
   6.87900019         7.41096400E-15
   7.05950022         6.16464904E-15
   7.23999977         1.37173322E-15
   7.42049980        -5.84627858E-15
   7.60099983        -1.29720148E-14
   7.78149986        -1.70299345E-14
   7.96199989        -1.58716678E-14
   8.14249992        -9.15101277E-15
   8.32299995         1.56373389E-15
   8.50349998         1.36389169E-14
   8.68400002         2.47325184E-14
   8.86450005         3.38974556E-14
   9.04500008         4.18228549E-14
   9.22550011         5.01465223E-14
   9.40600014         6.03663170E-14
   9.58650017         7.31322826E-14
   9.76700020         8.84371312E-14
   9.94750023         1.06604511E-13
   10.1280003         1.29415928E-13
   10.3085003         1.60592609E-13
   10.4890003         2.05244215E-13
   10.6695004         2.68539450E-13
   10.8500004         3.54311253E-13
   11.0305004         4.64304539E-13
   11.2110004         5.98359524E-13
   11.3915005         7.55331182E-13
   11.5719995         9.34315125E-13
   11.7524996         1.13583145E-12
   11.9329996         1.36283638E-12
   12.1134996         1.62145297E-12
   12.2939997         1.92112038E-12
   12.4744997         2.27366715E-12
   12.6549997         2.69101625E-12
   12.8354998         3.18185712E-12
   13.0159998         3.74844253E-12
   13.1964998         4.38498847E-12
   13.3769999         5.07859900E-12
   13.5574999         5.81241002E-12
   13.7379999         6.56948064E-12
   13.9184999         7.33557833E-12
   14.0990000         8.09976218E-12
   14.2795000         8.85303983E-12
   14.4600000         9.58633086E-12
   14.6405001         1.02888392E-11
   14.8210001         1.09471564E-11
   15.0015001         1.15440435E-11
   15.1820002         1.20557869E-11
   15.3625002         1.24475577E-11
   15.5430002         1.26675207E-11
   15.7235003         1.26411277E-11
   15.9040003         1.22667822E-11
   16.0844994         1.14131031E-11
   16.2649994         9.91688502E-12
   16.4454994         7.58089945E-12
   16.6259995         4.17087805E-12
   16.8064995        -5.87861140E-13
   16.9869995        -7.01350132E-12
   17.1674995        -1.54702570E-11
   17.3479996        -2.63698612E-11
   17.5284996        -4.01710193E-11
   17.7089996        -5.73755592E-11
   17.8894997        -7.85178311E-11
   18.0699997        -1.04144783E-10
   18.2504997        -1.34787348E-10
   18.4309998        -1.70925760E-10
   18.6114998        -2.12955514E-10
   18.7919998        -2.61156291E-10
   18.9724998        -3.15670240E-10
   19.1529999        -3.76483705E-10
   19.3334999        -4.43409975E-10
   19.5139999        -5.16069021E-10
   19.6945000        -5.93863514E-10
   19.8750000        -6.75951684E-10
   20.0555000        -7.61227026E-10
   20.2360001        -8.48299819E-10
   20.4165001        -9.35493460E-10
   20.5970001        -1.02085340E-09
   20.7775002        -1.10217424E-09
   20.9580002        -1.17704646E-09
   21.1385002        -1.24292454E-09
   21.3190002        -1.29720912E-09
   21.4995003        -1.33733657E-09
   21.6800003        -1.36086542E-09
   21.8605003        -1.36555678E-09
   22.0410004        -1.34944700E-09
   22.2215004        -1.31092082E-09
   22.4020004        -1.24878707E-09
   22.5825005        -1.16236298E-09
   22.7630005        -1.05155606E-09
   22.9435005        -9.16937193E-10
   23.1240005        -7.59793062E-10
   23.3045006        -5.82156434E-10
   23.4850006        -3.86808696E-10
   23.6655006        -1.77262913E-10
   23.8460007         4.22793120E-11
   24.0265007         2.66995481E-10
   24.2070007         4.91538921E-10
   24.3875008         7.10161263E-10
   24.5680008         9.16848653E-10
   24.7485008         1.10546372E-09
   24.9290009         1.26988553E-09
   25.1095009         1.40414347E-09
   25.2900009         1.50255164E-09
   25.4705009         1.55985858E-09
   25.6509991         1.57139968E-09
   25.8314991         1.53325752E-09
   26.0119991         1.44241175E-09
   26.1924992         1.29687194E-09
   26.3729992         1.09578657E-09
   26.5534992         8.39528613E-10
   26.7339993         5.29761734E-10
   26.9144993         1.69483483E-10
   27.0949993        -2.36956343E-10
   27.2754993        -6.83868739E-10
   27.4559994        -1.16426979E-09
   27.6364994        -1.66995651E-09
   27.8169994        -2.19161223E-09
   27.9974995        -2.71893885E-09
   28.1779995        -3.24082383E-09
   28.3584995        -3.74553943E-09
   28.5389996        -4.22098001E-09
   28.7194996        -4.65492311E-09
   28.8999996        -5.03530639E-09
   29.0804996        -5.35051115E-09
   29.2609997        -5.58964830E-09
   29.4414997        -5.74284575E-09
   29.6219997        -5.80154325E-09
   29.8024998        -5.75878367E-09
   29.9829998        -5.60948754E-09
   30.1634998        -5.35068434E-09
   30.3439999        -4.98169195E-09
   30.5244999        -4.50422899E-09
   30.7049999        -3.92246591E-09
   30.8855000        -3.24301586E-09
   31.0660000        -2.47486587E-09
   31.2465000        -1.62924541E-09
   31.4270000        -7.19426074E-10
   31.6075001         2.39539028E-10
   31.7880001         1.23112986E-09
   31.9685001         2.23771357E-09
   32.1489983         3.24092819E-09
   32.3294983         4.22209911E-09
   32.5099983         5.16268051E-09
   32.6904984         6.04472872E-09
   32.8709984         6.85137813E-09
   33.0514984         7.56730589E-09
   33.2319984         8.17914980E-09
   33.4124985         8.67586625E-09
   33.5929985         9.04903441E-09
   33.7734985         9.29309429E-09
   33.9539986         9.40552880E-09
   34.1344986         9.38697120E-09
   34.3149986         9.24121668E-09
   34.4954987         8.97513708E-09
   34.6759987         8.59848637E-09
   34.8564987         8.12363510E-09
   35.0369987         7.56524354E-09
   35.2174988         6.93989000E-09
   35.3979988         6.26564400E-09
   35.5784988         5.56158364E-09
   35.7589989         4.84724527E-09
   35.9394989         4.14202939E-09
   36.1199989         3.46458440E-09
   36.3004990         2.83222623E-09
   36.4809990         2.26039720E-09
   36.6614990         1.76218895E-09
   36.8419991         1.34793310E-09
   37.0224991         1.02485409E-09
   37.2029991         7.96813893E-10
   37.3834991         6.64165389E-10
   37.5639992         6.23734175E-10
   37.7444992         6.68925193E-10
   37.9249992         7.89945331E-10
   38.1054993         9.74108350E-10
   38.2859993         1.20622490E-09
   38.4664993         1.46906254E-09
   38.6469994         1.74389869E-09
   38.8274994         2.01114347E-09
   39.0079994         2.25103136E-09
   39.1884995         2.44432319E-09
   39.3689995         2.57300314E-09
   39.5494995         2.62092903E-09
   39.7299995         2.57445132E-09
   39.9104996         2.42297848E-09
   40.0909996         2.15949369E-09
   40.2714996         1.78098958E-09
   40.4519997         1.28878064E-09
   40.6324997         6.88667734E-10
   40.8129997        -9.06180513E-12
   40.9934998        -7.89782184E-10
   41.1739998        -1.63480363E-09
   41.3544998        -2.52173593E-09
   41.5349998        -3.42493589E-09
   41.7154999        -4.31601688E-09
   41.8959999        -5.16443022E-09
   42.0764999        -5.93808691E-09
   42.2570000        -6.60404176E-09
   42.4375000        -7.12920523E-09
   42.6180000        -7.48109930E-09
   42.7985001        -7.62866481E-09
   42.9790001        -7.54310392E-09
   43.1595001        -7.19874382E-09
   43.3400002        -6.57386989E-09
   43.5205002        -5.65145442E-09
   43.7010002        -4.41977122E-09
   43.8815002        -2.87284307E-09
   44.0620003        -1.01074549E-09
   44.2425003         1.16019916E-09
   44.4230003         3.62730845E-09
   44.6035004         6.37147801E-09
   44.7840004         9.36717282E-09
   44.9645004         1.25824693E-08
   45.1450005         1.59791789E-08
   45.3255005         1.95130916E-08
   45.5060005         2.31343673E-08
   45.6865005         2.67880758E-08
   45.8670006         3.04149239E-08
   46.0475006         3.39521193E-08
   46.2280006         3.73343418E-08
   46.4085007         4.04947826E-08
   46.5890007         4.33662279E-08
   46.7695007         4.58821781E-08
   46.9500008         4.79780091E-08
   47.1305008         4.95922023E-08
   47.3110008         5.06676301E-08
   47.4915009         5.11528775E-08
   47.6720009         5.10035854E-08
   47.8525009         5.01837008E-08
   48.0330009         4.86666671E-08
   48.2135010         4.64364511E-08
   48.3940010         4.34883738E-08
   48.5745010         3.98297395E-08
   48.7550011         3.54802481E-08
   48.9355011         3.04721297E-08
   49.1160011         2.48500438E-08
   49.2965012         1.86706934E-08
   49.4770012         1.20021308E-08
   49.6575012         4.92275776E-09
   49.8380013        -2.47998244E-09
   50.0185013        -1.01112292E-08
   50.1990013        -1.78705761E-08
   50.3795013        -2.56541739E-08
   50.5600014        -3.33569830E-08
   50.7405014        -4.08750935E-08
   50.9210014        -4.81080953E-08
   51.1015015        -5.49613901E-08
   51.2820015        -6.13484019E-08
   51.4625015        -6.71926799E-08
   51.6430016        -7.24297280E-08
   51.8235016        -7.70086075E-08
   52.0040016        -8.08931233E-08
   52.1845016        -8.40627123E-08
   52.3650017        -8.65128627E-08
   52.5455017        -8.82550637E-08
   52.7260017        -8.93163161E-08
   52.9065018        -8.97381653E-08
   53.0870018        -8.95752947E-08
   53.2675018        -8.88937208E-08
   53.4480019        -8.77686759E-08
   53.6285019        -8.62821992E-08
   53.8089981        -8.45205577E-08
   53.9894981        -8.25715887E-08
   54.1699982        -8.05219500E-08
   54.3504982        -7.84545051E-08
   54.5309982        -7.64457582E-08
   54.7114983        -7.45634878E-08
   54.8919983        -7.28645659E-08
   55.0724983        -7.13930817E-08
   55.2529984        -7.01787215E-08
   55.4334984        -6.92355897E-08
   55.6139984        -6.85615547E-08
   55.7944984        -6.81380428E-08
   55.9749985        -6.79305217E-08
   56.1554985        -6.78894736E-08
   56.3359985        -6.79519019E-08
   56.5164986        -6.80432706E-08
   56.6969986        -6.80798351E-08
   56.8774986        -6.79711505E-08
   57.0579987        -6.76229064E-08
   57.2384987        -6.69397835E-08
   57.4189987        -6.58285444E-08
   57.5994987        -6.42009965E-08
   57.7799988        -6.19770759E-08
   57.9604988        -5.90876930E-08
   58.1409988        -5.54774893E-08
   58.3214989        -5.11071896E-08
   58.5019989        -4.59557015E-08
   58.6824989        -4.00215932E-08
   58.8629990        -3.33241275E-08
   59.0434990        -2.59036348E-08
   59.2239990        -1.78213035E-08
   59.4044991        -9.15842602E-09
   59.5849991        -1.50136587E-11
   59.7654991         9.49204448E-09
   59.9459991         1.92313063E-08
   60.1264992         2.90595139E-08
   60.3069992         3.88246519E-08
   60.4874992         4.83693370E-08
   60.6679993         5.75343613E-08
   60.8484993         6.61623929E-08
   61.0289993         7.41017061E-08
   61.2094994         8.12097625E-08
   61.3899994         8.73566890E-08
   61.5704994         9.24284578E-08
   61.7509995         9.63297353E-08
   61.9314995         9.89865470E-08
   62.1119995         1.00348451E-07
   62.2924995         1.00390437E-07
   62.4729996         9.91143168E-08
   62.6534996         9.65495417E-08
   62.8339996         9.27533748E-08
   63.0144997         8.78104842E-08
   63.1949997         8.18318782E-08
   63.3754997         7.49532418E-08
   63.5559998         6.73327918E-08
   63.7364998         5.91486291E-08
   63.9169998         5.05955811E-08
   64.0975037         4.18816946E-08
   64.2779999         3.32242287E-08
   64.4585037         2.48454057E-08
   64.6389999         1.69678334E-08
   64.8195038         9.80973702E-09
   65.0000000         3.58000207E-09
   65.1804962        -1.52683688E-09
   65.3610001        -5.33554712E-09
   65.5414963        -7.69487141E-09
   65.7220001        -8.48180015E-09
   65.9024963        -7.60524532E-09
   66.0830002        -5.00905051E-09
   66.2634964        -6.74315270E-10
   66.4440002         5.37914957E-09
   66.6244965         1.30920288E-08
   66.8050003         2.23658230E-08
   66.9854965         3.30640901E-08
   67.1660004         4.50147084E-08
   67.3464966         5.80131498E-08
   67.5270004         7.18267188E-08
   67.7074966         8.61993783E-08
   67.8880005         1.00857449E-07
   68.0684967         1.15515654E-07
   68.2490005         1.29883830E-07
   68.4294968         1.43673859E-07
   68.6100006         1.56606660E-07
   68.7904968         1.68419191E-07
   68.9710007         1.78871090E-07
   69.1514969         1.87750729E-07
   69.3320007         1.94880727E-07
   69.5124969         2.00122656E-07
   69.6930008         2.03380907E-07
   69.8734970         2.04605499E-07
   70.0540009         2.03793846E-07
   70.2344971         2.00991252E-07
   70.4150009         1.96290202E-07
   70.5954971         1.89828356E-07
   70.7760010         1.81785467E-07
   70.9564972         1.72379103E-07
   71.1370010         1.61859276E-07
   71.3174973         1.50502359E-07
   71.4980011         1.38603909E-07
   71.6784973         1.26471193E-07
   71.8590012         1.14415165E-07
   72.0394974         1.02742469E-07
   72.2200012         9.17474239E-08
   72.4004974         8.17043286E-08
   72.5810013         7.28602814E-08
   72.7614975         6.54286723E-08
   72.9420013         5.95835559E-08
   73.1224976         5.54551605E-08
   73.3030014         5.31266835E-08
   73.4834976         5.26322914E-08
   73.6640015         5.39566507E-08
   73.8444977         5.70356242E-08
   74.0250015         6.17582785E-08
   74.2054977         6.79702339E-08
   74.3860016         7.54780913E-08
   74.5664978         8.40549603E-08
   74.7470016         9.34468218E-08
   74.9274979         1.03379413E-07
   75.1080017         1.13565662E-07
   75.2884979         1.23713178E-07
   75.4690018         1.33531898E-07
   75.6494980         1.42741456E-07
   75.8300018         1.51078268E-07
   76.0104980         1.58302015E-07
   76.1910019         1.64201424E-07
   76.3714981         1.68599158E-07
   76.5520020         1.71355580E-07
   76.7324982         1.72371514E-07
   76.9130020         1.71589690E-07
   77.0934982         1.68995200E-07
   77.2740021         1.64614463E-07
   77.4544983         1.58513416E-07
   77.6350021         1.50794406E-07
   77.8154984         1.41592409E-07
   77.9960022         1.31070323E-07
   78.1764984         1.19413968E-07
   78.3570023         1.06826292E-07
   78.5374985         9.35215425E-08
   78.7180023         7.97189657E-08
   78.8984985         6.56366552E-08
   79.0790024         5.14852125E-08
   79.2594986         3.74619624E-08
   79.4400024         2.37453754E-08
   79.6204987         1.04900479E-08
   79.8010025        -2.17765317E-09
   79.9814987        -1.41631595E-08
   80.1620026        -2.54064183E-08
   80.3424988        -3.58833923E-08
   80.5230026        -4.56065052E-08
   80.7034988        -5.46239178E-08
   80.8840027        -6.30176586E-08
   81.0644989        -7.09010095E-08
   81.2450027        -7.84148000E-08
   81.4254990        -8.57229097E-08
   81.6060028        -9.30070954E-08
   81.7864990        -1.00460817E-07
   81.9670029        -1.08282734E-07
   82.1474991        -1.16669618E-07
   82.3280029        -1.25809095E-07
   82.5084991        -1.35872526E-07
   82.6890030        -1.47008151E-07
   82.8694992        -1.59334817E-07
