  -7.19999981       0.00000000    
  -7.01999998       0.00000000    
  -6.84000015       0.00000000    
  -6.65999985       0.00000000    
  -6.48000002       0.00000000    
  -6.30000019       0.00000000    
  -6.11999989       1.65287894E-28
  -5.94000006       1.94345398E-27
  -5.76000023       1.21199596E-26
  -5.57999992       5.30588153E-26
  -5.40000010       1.82577542E-25
  -5.21999979       5.24319408E-25
  -5.03999996       1.30021425E-24
  -4.86000013       2.83662904E-24
  -4.67999983       5.49372398E-24
  -4.50000000       9.46714023E-24
  -4.32000017       1.44143000E-23
  -4.13999987       1.87477953E-23
  -3.96000004       1.82140962E-23
  -3.77999997       3.59155591E-24
  -3.59999990      -4.13029679E-23
  -3.42000008      -1.38818075E-22
  -3.24000001      -3.14203172E-22
  -3.05999994      -5.98690800E-22
  -2.88000011      -1.05208912E-21
  -2.70000005      -1.79981880E-21
  -2.51999998      -3.03804314E-21
  -2.33999991      -4.94185809E-21
  -2.16000009      -7.48471308E-21
  -1.98000002      -1.03427756E-20
  -1.79999995      -1.31652717E-20
  -1.62000000      -1.63078884E-20
  -1.44000006      -2.15920119E-20
  -1.25999999      -3.21261990E-20
  -1.08000004      -5.03762202E-20
 -0.899999976      -7.48968812E-20
 -0.720000029      -9.79325106E-20
 -0.540000021      -1.07052868E-19
 -0.360000014      -9.27911566E-20
 -0.180000007      -6.08031711E-20
   4.44089210E-16  -4.26854406E-20
  0.180000007      -9.60666302E-20
  0.360000014      -2.83722200E-19
  0.540000021      -6.26210569E-19
  0.720000029      -1.03756780E-18
  0.899999976      -1.28064775E-18
   1.08000004      -1.00607310E-18
   1.25999999       6.46605792E-20
   1.44000006       1.82147032E-18
   1.62000000       3.46080167E-18
   1.79999995       3.47496011E-18
   1.98000002       2.12964990E-19
   2.16000009      -6.96145939E-18
   2.33999991      -1.63500801E-17
   2.51999998      -2.32994660E-17
   2.70000005      -2.11794997E-17
   2.88000011      -4.29366874E-18
   3.05999994       2.79916166E-17
   3.24000001       6.76493584E-17
   3.42000008       9.71256218E-17
   3.59999990       9.29346881E-17
   3.77999997       3.41422173E-17
   3.96000004      -8.56384853E-17
   4.13999987      -2.46099123E-16
   4.32000017      -3.93205426E-16
   4.50000000      -4.43757649E-16
   4.67999983      -3.07160961E-16
   4.86000013       7.46765488E-17
   5.03999996       6.77642610E-16
   5.21999979       1.35567740E-15
   5.40000010       1.83829506E-15
   5.57999992       1.78864072E-15
   5.76000023       9.25354696E-16
   5.94000006      -8.20514040E-16
   6.11999989      -3.17288971E-15
   6.30000019      -5.47300047E-15
   6.48000002      -6.78700438E-15
   6.65999985      -6.15964350E-15
   6.84000015      -2.95451085E-15
   7.01999998       2.82242368E-15
   7.19999981       1.03265658E-14
   7.38000011       1.78844163E-14
   7.55999994       2.32334073E-14
   7.73999977       2.39627637E-14
   7.92000008       1.80899116E-14
   8.10000038       4.68566344E-15
   8.27999973      -1.55580589E-14
   8.46000004      -3.99512407E-14
   8.64000034      -6.37768172E-14
   8.81999969      -8.07589198E-14
   9.00000000      -8.41056079E-14
   9.18000031      -6.80607372E-14
   9.35999966      -2.97172463E-14
   9.53999996       2.93144754E-14
   9.72000027       1.01857975E-13
   9.89999962       1.75156561E-13
   10.0799999       2.32126764E-13
   10.2600002       2.53854392E-13
   10.4399996       2.23032679E-13
   10.6199999       1.27804451E-13
   10.8000002      -3.46923452E-14
   10.9799995      -2.55828561E-13
   11.1599998      -5.14704707E-13
   11.3400002      -7.79516751E-13
   11.5200005      -1.01110960E-12
   11.6999998      -1.16830287E-12
   11.8800001      -1.21413133E-12
   12.0600004      -1.12183722E-12
   12.2399998      -8.79354315E-13
   12.4200001      -4.91161528E-13
   12.6000004       2.32906684E-14
   12.7799997       6.34895131E-13
   12.9600000       1.31370847E-12
   13.1400003       2.04044420E-12
   13.3199997       2.81928907E-12
   13.5000000       3.69031541E-12
   13.6800003       4.73969518E-12
   13.8599997       6.10623357E-12
   14.0400000       7.98334836E-12
   14.2200003       1.06165285E-11
   14.3999996       1.42971112E-11
   14.5799999       1.93538172E-11
   14.7600002       2.61437868E-11
   14.9399996       3.50446998E-11
   15.1199999       4.64492889E-11
   15.3000002       6.07626519E-11
   15.4799995       7.84022222E-11
   15.6599998       9.97990787E-11
   15.8400002       1.25398802E-10
   16.0200005       1.55659222E-10
   16.2000008       1.91042723E-10
   16.3799992       2.32001390E-10
   16.5599995       2.78954165E-10
   16.7399998       3.32256500E-10
   16.9200001       3.92164495E-10
   17.1000004       4.58795890E-10
   17.2800007       5.32090871E-10
   17.4599991       6.11776185E-10
   17.6399994       6.97335634E-10
   17.8199997       7.87989618E-10
   18.0000000       8.82687423E-10
   18.1800003       9.80112325E-10
   18.3600006       1.07870168E-09
   18.5400009       1.17668053E-09
   18.7199993       1.27210698E-09
   18.8999996       1.36292766E-09
   19.0799999       1.44703971E-09
   19.2600002       1.52235524E-09
   19.4400005       1.58686608E-09
   19.6200008       1.63870406E-09
   19.7999992       1.67619330E-09
   19.9799995       1.69789438E-09
   20.1599998       1.70263637E-09
   20.3400002       1.68954006E-09
   20.5200005       1.65803338E-09
   20.7000008       1.60786018E-09
   20.8799992       1.53908353E-09
   21.0599995       1.45208623E-09
   21.2399998       1.34756672E-09
   21.4200001       1.22652877E-09
   21.6000004       1.09026677E-09
   21.7800007       9.40339251E-10
   21.9599991       7.78533793E-10
   22.1399994       6.06821093E-10
   22.3199997       4.27296337E-10
   22.5000000       2.42113357E-10
   22.6800003       5.34147032E-11
   22.8600006      -1.36740050E-10
   23.0400009      -3.26437155E-10
   23.2199993      -5.13962206E-10
   23.3999996      -6.97839508E-10
   23.5799999      -8.76856032E-10
   23.7600002      -1.05007336E-09
   23.9400005      -1.21682675E-09
   24.1200008      -1.37671508E-09
   24.2999992      -1.52958679E-09
   24.4799995      -1.67552416E-09
   24.6599998      -1.81482473E-09
   24.8400002      -1.94798755E-09
   25.0200005      -2.07569517E-09
   25.2000008      -2.19879226E-09
   25.3799992      -2.31825847E-09
   25.5599995      -2.43517473E-09
   25.7399998      -2.55068011E-09
   25.9200001      -2.66592681E-09
   26.1000004      -2.78203216E-09
   26.2800007      -2.90003421E-09
   26.4599991      -3.02085290E-09
   26.6399994      -3.14526205E-09
   26.8199997      -3.27387117E-09
   27.0000000      -3.40711837E-09
   27.1800003      -3.54527341E-09
   27.3600006      -3.68844688E-09
   27.5400009      -3.83659771E-09
   27.7199993      -3.98953626E-09
   27.8999996      -4.14692192E-09
   28.0799999      -4.30824931E-09
   28.2600002      -4.47282344E-09
   28.4400005      -4.63973659E-09
   28.6200008      -4.80782969E-09
   28.7999992      -4.97566033E-09
   28.9799995      -5.14146858E-09
   29.1599998      -5.30314592E-09
   29.3400002      -5.45821477E-09
   29.5200005      -5.60381830E-09
   29.7000008      -5.73671910E-09
   29.8799992      -5.85332005E-09
   30.0599995      -5.94969274E-09
   30.2399998      -6.02162498E-09
   30.4200001      -6.06468564E-09
   30.6000004      -6.07430994E-09
   30.7800007      -6.04590955E-09
   30.9599991      -5.97500049E-09
   31.1399994      -5.85735016E-09
   31.3199997      -5.68912961E-09
   31.5000000      -5.46707302E-09
   31.6800003      -5.18863175E-09
   31.8600006      -4.85211737E-09
   32.0400009      -4.45683401E-09
   32.2200012      -4.00318845E-09
   32.4000015      -3.49277673E-09
   32.5800018      -2.92843993E-09
   32.7599983      -2.31428743E-09
   32.9399986      -1.65568925E-09
   33.1199989      -9.59237467E-10
   33.2999992      -2.32673047E-10
   33.4799995       5.15222032E-10
   33.6599998       1.27477384E-09
   33.8400002       2.03561212E-09
   34.0200005       2.78690671E-09
   34.2000008       3.51764551E-09
   34.3800011       4.21694191E-09
   34.5600014       4.87436491E-09
   34.7400017       5.48027623E-09
   34.9199982       6.02617023E-09
   35.0999985       6.50499299E-09
   35.2799988       6.91143320E-09
   35.4599991       7.24216198E-09
   35.6399994       7.49600471E-09
   35.8199997       7.67404718E-09
   36.0000000       7.77966402E-09
   36.1800003       7.81847298E-09
   36.3600006       7.79822518E-09
   36.5400009       7.72861597E-09
   36.7200012       7.62103980E-09
   36.9000015       7.48826778E-09
   37.0800018       7.34406669E-09
   37.2599983       7.20277171E-09
   37.4399986       7.07881931E-09
   37.6199989       6.98626046E-09
   37.7999992       6.93825530E-09
   37.9799995       6.94658020E-09
   38.1599998       7.02115566E-09
   38.3400002       7.16962134E-09
   38.5200005       7.39698258E-09
   38.7000008       7.70535191E-09
   38.8800011       8.09378164E-09
   39.0600014       8.55822258E-09
   39.2400017       9.09156217E-09
   39.4199982       9.68377112E-09
   39.5999985       1.03221289E-08
   39.7799988       1.09915383E-08
   39.9599991       1.16749046E-08
   40.1399994       1.23535875E-08
   40.3199997       1.30078917E-08
   40.5000000       1.36175995E-08
   40.6800003       1.41625387E-08
   40.8600006       1.46231507E-08
   41.0400009       1.49810901E-08
   41.2200012       1.52197881E-08
   41.4000015       1.53250124E-08
   41.5800018       1.52853481E-08
   41.7599983       1.50925903E-08
   41.9399986       1.47420396E-08
   42.1199989       1.42326844E-08
   42.2999992       1.35672664E-08
   42.4799995       1.27522517E-08
   42.6599998       1.17976775E-08
   42.8400002       1.07169367E-08
   43.0200005       9.52646229E-09
   43.2000008       8.24536528E-09
   43.3800011       6.89498325E-09
   43.5600014       5.49844081E-09
   43.7400017       4.08013445E-09
   43.9199982       2.66521671E-09
   44.0999985       1.27904132E-09
   44.2799988      -5.33962215E-11
   44.4599991      -1.30801536E-09
   44.6399994      -2.46217047E-09
   44.8199997      -3.49511686E-09
   45.0000000      -4.38841008E-09
   45.1800003      -5.12621900E-09
   45.3600006      -5.69556624E-09
   45.5400009      -6.08648554E-09
   45.7200012      -6.29212327E-09
   45.9000015      -6.30876817E-09
   46.0800018      -6.13583406E-09
   46.2599983      -5.77581316E-09
   46.4399986      -5.23419219E-09
   46.6199989      -4.51936089E-09
   46.7999992      -3.64247588E-09
   46.9799995      -2.61731881E-09
   47.1599998      -1.46008250E-09
   47.3400002      -1.89114419E-10
   47.5200005       1.17537236E-09
   47.7000008       2.61165067E-09
   47.8800011       4.09682555E-09
   48.0600014       5.60719027E-09
   48.2400017       7.11857462E-09
   48.4199982       8.60667448E-09
   48.5999985       1.00473558E-08
   48.7799988       1.14169216E-08
   48.9599991       1.26923707E-08
   49.1399994       1.38516283E-08
   49.3199997       1.48737893E-08
   49.5000000       1.57393636E-08
   49.6800003       1.64305654E-08
   49.8600006       1.69316241E-08
   50.0400009       1.72290928E-08
   50.2200012       1.73121872E-08
   50.4000015       1.71730505E-08
   50.5800018       1.68069949E-08
   50.7599983       1.62126792E-08
   50.9399986       1.53921889E-08
   51.1199989       1.43510590E-08
   51.2999992       1.30981919E-08
   51.4799995       1.16456951E-08
   51.6599998       1.00086446E-08
   51.8400002       8.20477641E-09
   52.0200005       6.25412522E-09
   52.2000008       4.17858637E-09
   52.3800011       2.00145278E-09
   52.5600014      -2.53156107E-10
   52.7400017      -2.56088328E-09
   52.9199982      -4.89783725E-09
   53.0999985      -7.24130578E-09
   53.2799988      -9.57052126E-09
   53.4599991      -1.18673782E-08
   53.6399994      -1.41171403E-08
   53.8199997      -1.63090021E-08
   54.0000000      -1.84365714E-08
   54.1800003      -2.04981507E-08
   54.3600006      -2.24968222E-08
   54.5400009      -2.44403537E-08
   54.7200012      -2.63408637E-08
   54.9000015      -2.82142700E-08
   55.0800018      -3.00796472E-08
   55.2599983      -3.19583755E-08
   55.4399986      -3.38731887E-08
   55.6199989      -3.58471617E-08
   55.7999992      -3.79026766E-08
   55.9799995      -4.00603000E-08
   56.1599998      -4.23376925E-08
   56.3400002      -4.47485107E-08
   56.5200005      -4.73014126E-08
   56.7000008      -4.99990627E-08
   56.8800011      -5.28372652E-08
   57.0600014      -5.58042750E-08
   57.2400017      -5.88802145E-08
   57.4199982      -6.20367331E-08
   57.5999985      -6.52368968E-08
   57.7799988      -6.84353694E-08
   57.9599991      -7.15787962E-08
   58.1399994      -7.46065538E-08
   58.3199997      -7.74517943E-08
   58.5000000      -8.00426889E-08
   58.6800003      -8.23039912E-08
   58.8600006      -8.41587706E-08
   59.0400009      -8.55303313E-08
   59.2200012      -8.63442295E-08
   59.4000015      -8.65304628E-08
   59.5800018      -8.60254801E-08
   59.7599983      -8.47743351E-08
   59.9399986      -8.27325408E-08
   60.1199989      -7.98678172E-08
   60.2999992      -7.61615837E-08
   60.4799995      -7.16101098E-08
   60.6599998      -6.62254394E-08
   60.8400002      -6.00359229E-08
   61.0200005      -5.30864313E-08
   61.2000008      -4.54381919E-08
   61.3800011      -3.71682631E-08
   61.5600014      -2.83687367E-08
   61.7400017      -1.91454621E-08
   61.9199982      -9.61657154E-09
   62.0999985       8.93787613E-11
   62.2799988       9.83560078E-09
   62.4599991       1.94795167E-08
   62.6399994       2.88754549E-08
   62.8199997       3.78774558E-08
   63.0000000       4.63422438E-08
   63.1800003       5.41320695E-08
   63.3600006       6.11174684E-08
   63.5400009       6.71798475E-08
   63.7200012       7.22137159E-08
   63.9000015       7.61286643E-08
   64.0800018       7.88509169E-08
   64.2600021       8.03244689E-08
   64.4400024       8.05119811E-08
   64.6200027       7.93951713E-08
   64.8000031       7.69750841E-08
   64.9800034       7.32719130E-08
   65.1600037       6.83246455E-08
   65.3399963       6.21904306E-08
   65.5199966       5.49435448E-08
   65.6999969       4.66741561E-08
   65.8799973       3.74867426E-08
   66.0599976       2.74982259E-08
   66.2399979       1.68358891E-08
   66.4199982       5.63500091E-09
   66.5999985      -5.96361893E-09
   66.7799988      -1.78162143E-08
   66.9599991      -2.97785938E-08
   67.1399994      -4.17086454E-08
   67.3199997      -5.34685896E-08
   67.5000000      -6.49270575E-08
   67.6800003      -7.59609406E-08
   67.8600006      -8.64569003E-08
   68.0400009      -9.63127249E-08
   68.2200012      -1.05438311E-07
   68.4000015      -1.13756371E-07
   68.5800018      -1.21202916E-07
   68.7600021      -1.27727404E-07
   68.9400024      -1.33292701E-07
   69.1200027      -1.37874778E-07
   69.3000031      -1.41462181E-07
   69.4800034      -1.44055349E-07
   69.6600037      -1.45665680E-07
   69.8399963      -1.46314434E-07
   70.0199966      -1.46031525E-07
   70.1999969      -1.44854255E-07
   70.3799973      -1.42825897E-07
   70.5599976      -1.39994427E-07
   70.7399979      -1.36411145E-07
   70.9199982      -1.32129330E-07
   71.0999985      -1.27202910E-07
   71.2799988      -1.21685289E-07
   71.4599991      -1.15628239E-07
   71.6399994      -1.09080879E-07
   71.8199997      -1.02088833E-07
   72.0000000      -9.46935685E-08
   72.1800003      -8.69317134E-08
   72.3600006      -7.88347165E-08
   72.5400009      -7.04286123E-08
   72.7200012      -6.17337932E-08
   72.9000015      -5.27652197E-08
   73.0800018      -4.35325553E-08
   73.2600021      -3.40404860E-08
   73.4400024      -2.42891787E-08
   73.6200027      -1.42747183E-08
   73.8000031      -3.98988087E-09
   73.9800034       6.57515686E-09
   74.1600037       1.74318355E-08
   74.3399963       2.85922042E-08
   74.5199966       4.00676932E-08
   74.6999969       5.18678966E-08
   74.8799973       6.39992876E-08
   75.0599976       7.64638344E-08
   75.2399979       8.92577816E-08
   75.4199982       1.02370521E-07
   75.5999985       1.15783514E-07
   75.7799988       1.29469669E-07
   75.9599991       1.43392825E-07
   76.1399994       1.57507770E-07
   76.3199997       1.71760220E-07
   76.5000000       1.86087405E-07
   76.6800003       2.00418683E-07
   76.8600006       2.14676305E-07
   77.0400009       2.28776500E-07
   77.2200012       2.42630961E-07
   77.4000015       2.56148041E-07
   77.5800018       2.69234420E-07
   77.7600021       2.81796702E-07
   77.9400024       2.93743398E-07
   78.1200027       3.04986798E-07
   78.3000031       3.15444936E-07
   78.4800034       3.25043771E-07
   78.6600037       3.33719186E-07
   78.8399963       3.41418684E-07
   79.0199966       3.48103100E-07
   79.1999969       3.53747936E-07
   79.3799973       3.58344153E-07
   79.5599976       3.61898941E-07
   79.7399979       3.64435863E-07
   79.9199982       3.65994595E-07
   80.0999985       3.66630331E-07
   80.2799988       3.66412735E-07
   80.4599991       3.65424512E-07
   80.6399994       3.63759881E-07
   80.8199997       3.61522524E-07
   81.0000000       3.58823343E-07
   81.1800003       3.55778127E-07
   81.3600006       3.52504799E-07
   81.5400009       3.49120654E-07
   81.7200012       3.45739494E-07
   81.9000015       3.42468667E-07
   82.0800018       3.39406199E-07
   82.2600021       3.36638124E-07
   82.4400024       3.34235921E-07
   82.6200027       3.32254132E-07
   82.8000031       3.30728540E-07
   82.9800034       3.29674521E-07
   83.1600037       3.29086191E-07
   83.3399963       3.28935812E-07
   83.5199966       3.29174043E-07
   83.6999969       3.29730710E-07
   83.8799973       3.30516201E-07
   84.0599976       3.31423507E-07
   84.2399979       3.32330757E-07
   84.4199982       3.33104538E-07
   84.5999985       3.33603339E-07
   84.7799988       3.33681442E-07
   84.9599991       3.33192759E-07
   85.1399994       3.31994869E-07
   85.3199997       3.29952599E-07
   85.5000000       3.26941631E-07
   85.6800003       3.22851548E-07
   85.8600006       3.17588757E-07
   86.0400009       3.11078367E-07
   86.2200012       3.03266035E-07
   86.4000015       2.94119189E-07
   86.5800018       2.83627543E-07
   86.7600021       2.71803344E-07
   86.9400024       2.58680842E-07
   87.1200027       2.44315316E-07
   87.3000031       2.28781474E-07
   87.4800034       2.12171287E-07
   87.6600037       1.94591351E-07
   87.8399963       1.76159674E-07
   88.0199966       1.57002418E-07
   88.1999969       1.37250183E-07
   88.3799973       1.17034553E-07
   88.5599976       9.64846194E-08
   88.7399979       7.57239249E-08
   88.9199982       5.48677619E-08
   89.0999985       3.40211557E-08
   89.2799988       1.32771074E-08
   89.4599991      -7.28420169E-09
   89.6399994      -2.75962382E-08
   89.8199997      -4.76060826E-08
   90.0000000      -6.72743994E-08
   90.1800003      -8.65752554E-08
   90.3600006      -1.05495559E-07
   90.5400009      -1.24034599E-07
   90.7200012      -1.42203262E-07
   90.9000015      -1.60023120E-07
   91.0800018      -1.77525720E-07
   91.2600021      -1.94751252E-07
   91.4400024      -2.11747320E-07
   91.6200027      -2.28567643E-07
   91.8000031      -2.45270087E-07
   91.9800034      -2.61915261E-07
   92.1600037      -2.78564642E-07
   92.3399963      -2.95279449E-07
   92.5199966      -3.12118715E-07
   92.6999969      -3.29138629E-07
   92.8799973      -3.46391090E-07
   93.0599976      -3.63923306E-07
   93.2399979      -3.81776857E-07
   93.4199982      -3.99987300E-07
   93.5999985      -4.18583397E-07
   93.7799988      -4.37586749E-07
   93.9599991      -4.57010771E-07
   94.1399994      -4.76860180E-07
   94.3199997      -4.97129690E-07
   94.5000000      -5.17803130E-07
   94.6800003      -5.38852419E-07
   94.8600006      -5.60236572E-07
   95.0400009      -5.81900736E-07
   95.2200012      -6.03775788E-07
   95.4000015      -6.25777716E-07
   95.5800018      -6.47807894E-07
   95.7600021      -6.69753263E-07
   95.9400024      -6.91487458E-07
   96.1200027      -7.12872122E-07
   96.3000031      -7.33758554E-07
   96.4800034      -7.53990378E-07
   96.6600037      -7.73406327E-07
   96.8399963      -7.91843206E-07
   97.0199966      -8.09139351E-07
   97.1999969      -8.25138727E-07
   97.3799973      -8.39694508E-07
   97.5599976      -8.52673338E-07
   97.7399979      -8.63958803E-07
   97.9199982      -8.73455804E-07
   98.0999985      -8.81093740E-07
   98.2799988      -8.86829412E-07
   98.4599991      -8.90650085E-07
   98.6399994      -8.92575088E-07
   98.8199997      -8.92657624E-07
   99.0000000      -8.90984552E-07
   99.1800003      -8.87675981E-07
   99.3600006      -8.82883114E-07
   99.5400009      -8.76785577E-07
   99.7200012      -8.69587097E-07
   99.9000015      -8.61510443E-07
   100.080002      -8.52790947E-07
   100.260002      -8.43670705E-07
   100.440002      -8.34390789E-07
   100.620003      -8.25184486E-07
