  -7.19999981       0.00000000    
  -7.01999998       0.00000000    
  -6.84000015       0.00000000    
  -6.65999985       0.00000000    
  -6.48000002       0.00000000    
  -6.30000019       0.00000000    
  -6.11999989      -6.10859426E-30
  -5.94000006      -8.44780763E-29
  -5.76000023      -6.13902207E-28
  -5.57999992      -3.24331957E-27
  -5.40000010      -1.26912975E-26
  -5.21999979      -4.13256711E-26
  -5.03999996      -1.23628962E-25
  -4.86000013      -3.33806936E-25
  -4.67999983      -7.76637062E-25
  -4.50000000      -1.58784447E-24
  -4.32000017      -3.08435443E-24
  -4.13999987      -5.98745979E-24
  -3.96000004      -1.11725392E-23
  -3.77999997      -1.87466389E-23
  -3.59999990      -2.77733218E-23
  -3.42000008      -3.82389406E-23
  -3.24000001      -5.34204804E-23
  -3.05999994      -7.71456425E-23
  -2.88000011      -1.04908592E-22
  -2.70000005      -1.20665540E-22
  -2.51999998      -1.13960904E-22
  -2.33999991      -1.04943479E-22
  -2.16000009      -1.28102946E-22
  -1.98000002      -1.45359966E-22
  -1.79999995       3.51981500E-23
  -1.62000000       6.68954653E-22
  -1.44000006       1.74040235E-21
  -1.25999999       2.60049994E-21
  -1.08000004       2.03342987E-21
 -0.899999976      -8.66325481E-22
 -0.720000029      -5.08074406E-21
 -0.540000021      -6.15618872E-21
 -0.360000014       3.41455674E-21
 -0.180000007       2.96392417E-20
   4.44089210E-16   6.77449419E-20
  0.180000007       9.29911986E-20
  0.360000014       6.31345926E-20
  0.540000021      -5.56618623E-20
  0.720000029      -2.42155211E-19
  0.899999976      -3.81800463E-19
   1.08000004      -2.84775356E-19
   1.25999999       2.08176235E-19
   1.44000006       1.05966986E-18
   1.62000000       1.90889690E-18
   1.79999995       2.11114277E-18
   1.98000002       1.01109916E-18
   2.16000009      -1.61489685E-18
   2.33999991      -5.14634926E-18
   2.51999998      -7.98808897E-18
   2.70000005      -7.91088241E-18
   2.88000011      -2.89958693E-18
   3.05999994       7.64912110E-18
   3.24000001       2.17434267E-17
   3.42000008       3.41885526E-17
   3.59999990       3.72254834E-17
   3.77999997       2.29330481E-17
   3.96000004      -1.26949460E-17
   4.13999987      -6.51297067E-17
   4.32000017      -1.18370459E-16
   4.50000000      -1.46334947E-16
   4.67999983      -1.20284277E-16
   4.86000013      -2.15601947E-17
   5.03999996       1.44274262E-16
   5.21999979       3.38247573E-16
   5.40000010       4.90238212E-16
   5.57999992       5.16115333E-16
   5.76000023       3.47497040E-16
   5.94000006      -3.45285139E-17
   6.11999989      -5.74661456E-16
   6.30000019      -1.14014775E-15
   6.48000002      -1.54570162E-15
   6.65999985      -1.60333480E-15
   6.84000015      -1.18373426E-15
   7.01999998      -2.69941459E-16
   7.19999981       1.01461175E-15
   7.38000011       2.41377264E-15
   7.55999994       3.58114095E-15
   7.73999977       4.14776788E-15
   7.92000008       3.80195990E-15
   8.10000038       2.36894363E-15
   8.27999973      -1.20632871E-16
   8.46000004      -3.38604936E-15
   8.64000034      -6.89296185E-15
   8.81999969      -9.90861598E-15
   9.00000000      -1.16238069E-14
   9.18000031      -1.13272403E-14
   9.35999966      -8.59027696E-15
   9.53999996      -3.40288626E-15
   9.72000027       3.79361705E-15
   9.89999962       1.21997224E-14
   10.0799999       2.08571140E-14
   10.2600002       2.89008082E-14
   10.4399996       3.58022361E-14
   10.6199999       4.15577844E-14
   10.8000002       4.68015722E-14
   10.9799995       5.28376239E-14
   11.1599998       6.15797289E-14
   11.3400002       7.53892120E-14
   11.5200005       9.68115968E-14
   11.6999998       1.28259342E-13
   11.8800001       1.71744441E-13
   12.0600004       2.28786255E-13
   12.2399998       3.00583533E-13
   12.4200001       3.88446653E-13
   12.6000004       4.94366321E-13
   12.7799997       6.21541393E-13
   12.9600000       7.74682239E-13
   13.1400003       9.60010391E-13
   13.3199997       1.18495708E-12
   13.5000000       1.45766071E-12
   13.6800003       1.78638029E-12
   13.8599997       2.17893086E-12
   14.0400000       2.64226575E-12
   14.2200003       3.18233959E-12
   14.3999996       3.80434703E-12
   14.5799999       4.51338793E-12
   14.7600002       5.31553490E-12
   14.9399996       6.21910856E-12
   15.1199999       7.23582652E-12
   15.3000002       8.38172847E-12
   15.4799995       9.67761288E-12
   15.6599998       1.11490001E-11
   15.8400002       1.28257309E-11
   16.0200005       1.47410140E-11
   16.2000008       1.69303373E-11
   16.3799992       1.94300721E-11
   16.5599995       2.22760525E-11
   16.7399998       2.55025289E-11
   16.9200001       2.91417793E-11
   17.1000004       3.32238473E-11
   17.2800007       3.77767088E-11
   17.4599991       4.28254723E-11
   17.6399994       4.83904722E-11
   17.8199997       5.44840076E-11
   18.0000000       6.11051418E-11
   18.1800003       6.82340434E-11
   18.3600006       7.58260676E-11
   18.5400009       8.38062467E-11
   18.7199993       9.20648419E-11
   18.8999996       1.00454270E-10
   19.0799999       1.08787493E-10
   19.2600002       1.16838691E-10
   19.4400005       1.24344632E-10
   19.6200008       1.31007830E-10
   19.7999992       1.36500589E-10
   19.9799995       1.40468623E-10
   20.1599998       1.42534914E-10
   20.3400002       1.42304460E-10
   20.5200005       1.39370113E-10
   20.7000008       1.33320466E-10
   20.8799992       1.23749913E-10
   21.0599995       1.10269051E-10
   21.2399998       9.25180002E-11
   21.4200001       7.01775235E-11
   21.6000004       4.29809972E-11
   21.7800007       1.07254162E-11
   21.9599991      -2.67186447E-11
   22.1399994      -6.93989241E-11
   22.3199997      -1.17275231E-10
   22.5000000      -1.70215370E-10
   22.6800003      -2.27993485E-10
   22.8600006      -2.90289764E-10
   23.0400009      -3.56691593E-10
   23.2199993      -4.26696317E-10
   23.3999996      -4.99716934E-10
   23.5799999      -5.75091752E-10
   23.7600002      -6.52097987E-10
   23.9400005      -7.29969973E-10
   24.1200008      -8.07921618E-10
   24.2999992      -8.85166440E-10
   24.4799995      -9.60941660E-10
   24.6599998      -1.03452813E-09
   24.8400002      -1.10527010E-09
   25.0200005      -1.17259014E-09
   25.2000008      -1.23600208E-09
   25.3799992      -1.29511835E-09
   25.5599995      -1.34965572E-09
   25.7399998      -1.39943723E-09
   25.9200001      -1.44439682E-09
   26.1000004      -1.48458101E-09
   26.2800007      -1.52015545E-09
   26.4599991      -1.55140745E-09
   26.6399994      -1.57874425E-09
   26.8199997      -1.60268654E-09
   27.0000000      -1.62385294E-09
   27.1800003      -1.64293523E-09
   27.3600006      -1.66066749E-09
   27.5400009      -1.67778658E-09
   27.7199993      -1.69498648E-09
   27.8999996      -1.71287096E-09
   28.0799999      -1.73190451E-09
   28.2600002      -1.75237080E-09
   28.4400005      -1.77433723E-09
   28.6200008      -1.79763415E-09
   28.7999992      -1.82184468E-09
   28.9799995      -1.84630355E-09
   29.1599998      -1.87010407E-09
   29.3400002      -1.89210914E-09
   29.5200005      -1.91096916E-09
   29.7000008      -1.92514316E-09
   29.8799992      -1.93292293E-09
   30.0599995      -1.93246152E-09
   30.2399998      -1.92180538E-09
   30.4200001      -1.89892546E-09
   30.6000004      -1.86176108E-09
   30.7800007      -1.80826731E-09
   30.9599991      -1.73647308E-09
   31.1399994      -1.64454894E-09
   31.3199997      -1.53087776E-09
   31.5000000      -1.39413092E-09
   31.6800003      -1.23333654E-09
   31.8600006      -1.04794617E-09
   32.0400009      -8.37896641E-10
   32.2200012      -6.03658457E-10
   32.4000015      -3.46277951E-10
   32.5800018      -6.74008974E-11
   32.7599983       2.30720734E-10
   32.9399986       5.45240186E-10
   33.1199989       8.72745431E-10
   33.2999992       1.20930133E-09
   33.4799995       1.55050961E-09
   33.6599998       1.89158089E-09
   33.8400002       2.22742336E-09
   34.0200005       2.55274268E-09
   34.2000008       2.86215029E-09
   34.3800011       3.15027782E-09
   34.5600014       3.41188389E-09
   34.7400017       3.64195918E-09
   34.9199982       3.83582366E-09
   35.0999985       3.98921696E-09
   35.2799988       4.09838918E-09
   35.4599991       4.16017931E-09
   35.6399994       4.17209423E-09
   35.8199997       4.13238110E-09
   36.0000000       4.04008915E-09
   36.1800003       3.89513088E-09
   36.3600006       3.69833697E-09
   36.5400009       3.45149886E-09
   36.7200012       3.15739346E-09
   36.9000015       2.81979018E-09
   37.0800018       2.44342369E-09
   37.2599983       2.03394257E-09
   37.4399986       1.59783542E-09
   37.6199989       1.14233489E-09
   37.7999992       6.75308809E-10
   37.9799995       2.05143694E-10
   38.1599998      -2.59380684E-10
   38.3400002      -7.09219072E-10
   38.5200005      -1.13518339E-09
   38.7000008      -1.52806767E-09
   38.8800011      -1.87876181E-09
   39.0600014      -2.17837770E-09
   39.2400017      -2.41837839E-09
   39.4199982      -2.59071675E-09
   39.5999985      -2.68799361E-09
   39.7799988      -2.70361333E-09
   39.9599991      -2.63194933E-09
   40.1399994      -2.46848830E-09
   40.3199997      -2.20997531E-09
   40.5000000      -1.85453430E-09
   40.6800003      -1.40177103E-09
   40.8600006      -8.52851401E-10
   41.0400009      -2.10559875E-10
   41.2200012       5.20673782E-10
   41.4000015       1.33475864E-09
   41.5800018       2.22395813E-09
   41.7599983       3.17890536E-09
   41.9399986       4.18865387E-09
   42.1199989       5.24073984E-09
   42.2999992       6.32128927E-09
   42.4799995       7.41516892E-09
   42.6599998       8.50618420E-09
   42.8400002       9.57733004E-09
   43.0200005       1.06110836E-08
   43.2000008       1.15897478E-08
   43.3800011       1.24958399E-08
   43.5600014       1.33125067E-08
   43.7400017       1.40239544E-08
   43.9199982       1.46158881E-08
   44.0999985       1.50759512E-08
   44.2799988       1.53941198E-08
   44.4599991       1.55630815E-08
   44.6399994       1.55785695E-08
   44.8199997       1.54396282E-08
   45.0000000       1.51488564E-08
   45.1800003       1.47125139E-08
   45.3600006       1.41405847E-08
   45.5400009       1.34467140E-08
   45.7200012       1.26480542E-08
   45.9000015       1.17650139E-08
   46.0800018       1.08209059E-08
   46.2599983       9.84150983E-09
   46.4399986       8.85456686E-09
   46.6199989       7.88919419E-09
   46.7999992       6.97525593E-09
   46.9799995       6.14269346E-09
   47.1599998       5.42083756E-09
   47.3400002       4.83769602E-09
   47.5200005       4.41923431E-09
   47.7000008       4.18866364E-09
   47.8800011       4.16573176E-09
   48.0600014       4.36605463E-09
   48.2400017       4.80050932E-09
   48.4199982       5.47471357E-09
   48.5999985       6.38862918E-09
   48.7799988       7.53630669E-09
   48.9599991       8.90577656E-09
   49.1399994       1.04791589E-08
   49.3199997       1.22329267E-08
   49.5000000       1.41383785E-08
   49.6800003       1.61622911E-08
   49.8600006       1.82676985E-08
   50.0400009       2.04147970E-08
   50.2200012       2.25619221E-08
   50.4000015       2.46665390E-08
   50.5800018       2.66862727E-08
   50.7599983       2.85798727E-08
   50.9399986       3.03081542E-08
   51.1199989       3.18348548E-08
   51.2999992       3.31274173E-08
   51.4799995       3.41576509E-08
   51.6599998       3.49023104E-08
   51.8400002       3.53435290E-08
   52.0200005       3.54691601E-08
   52.2000008       3.52729650E-08
   52.3800011       3.47546312E-08
   52.5600014       3.39196511E-08
   52.7400017       3.27790239E-08
   52.9199982       3.13488044E-08
   53.0999985       2.96495095E-08
   53.2799988       2.77054131E-08
   53.4599991       2.55437289E-08
   53.6399994       2.31937349E-08
   53.8199997       2.06858655E-08
   54.0000000       1.80507769E-08
   54.1800003       1.53184736E-08
   54.3600006       1.25174688E-08
   54.5400009       9.67403313E-09
   54.7200012       6.81155088E-09
   54.9000015       3.94997679E-09
   55.0800018       1.10542364E-09
   55.2599983      -1.71010728E-09
   55.4399986      -4.48883908E-09
   55.6199989      -7.22718907E-09
   55.7999992      -9.92558746E-09
   55.9799995      -1.25881323E-08
   56.1599998      -1.52221649E-08
   56.3400002      -1.78376922E-08
   56.5200005      -2.04467785E-08
   56.7000008      -2.30628441E-08
   56.8800011      -2.56999435E-08
   57.0600014      -2.83720407E-08
   57.2400017      -3.10923163E-08
   57.4199982      -3.38725421E-08
   57.5999985      -3.67224828E-08
   57.7799988      -3.96494215E-08
   57.9599991      -4.26577458E-08
   58.1399994      -4.57486280E-08
   58.3199997      -4.89198548E-08
   58.5000000      -5.21657313E-08
   58.6800003      -5.54771553E-08
   58.8600006      -5.88418132E-08
   59.0400009      -6.22444603E-08
   59.2200012      -6.56673222E-08
   59.4000015      -6.90905466E-08
   59.5800018      -7.24926679E-08
   59.7599983      -7.58511263E-08
   59.9399986      -7.91427155E-08
   60.1199989      -8.23439947E-08
   60.2999992      -8.54316369E-08
   60.4799995      -8.83827340E-08
   60.6599998      -9.11750035E-08
   60.8400002      -9.37869871E-08
   61.0200005      -9.61982494E-08
   61.2000008      -9.83895916E-08
   61.3800011      -1.00343279E-07
   61.5600014      -1.02043344E-07
   61.7400017      -1.03475848E-07
   61.9199982      -1.04629237E-07
   62.0999985      -1.05494628E-07
   62.2799988      -1.06066118E-07
   62.4599991      -1.06340977E-07
   62.6399994      -1.06319831E-07
   62.8199997      -1.06006695E-07
   63.0000000      -1.05408958E-07
   63.1800003      -1.04537349E-07
   63.3600006      -1.03405760E-07
   63.5400009      -1.02031166E-07
   63.7200012      -1.00433461E-07
   63.9000015      -9.86353754E-08
   64.0800018      -9.66623688E-08
   64.2600021      -9.45425427E-08
   64.4400024      -9.23065642E-08
   64.6200027      -8.99874237E-08
   64.8000031      -8.76203217E-08
   64.9800034      -8.52422488E-08
   65.1600037      -8.28915745E-08
   65.3399963      -8.06074780E-08
   65.5199966      -7.84292382E-08
   65.6999969      -7.63954233E-08
   65.8799973      -7.45430455E-08
   66.0599976      -7.29066159E-08
   66.2399979      -7.15172348E-08
   66.4199982      -7.04016330E-08
   66.5999985      -6.95813966E-08
   66.7799988      -6.90721862E-08
   66.9599991      -6.88831108E-08
   67.1399994      -6.90162025E-08
   67.3199997      -6.94660542E-08
   67.5000000      -7.02196843E-08
   67.6800003      -7.12564230E-08
   67.8600006      -7.25480263E-08
   68.0400009      -7.40590167E-08
   68.2200012      -7.57470531E-08
   68.4000015      -7.75635272E-08
   68.5800018      -7.94543169E-08
   68.7600021      -8.13606391E-08
   68.9400024      -8.32200939E-08
   69.1200027      -8.49677662E-08
   69.3000031      -8.65374119E-08
   69.4800034      -8.78628228E-08
   69.6600037      -8.88790765E-08
   69.8399963      -8.95238017E-08
   70.0199966      -8.97384851E-08
   70.1999969      -8.94695020E-08
   70.3799973      -8.86691325E-08
   70.5599976      -8.72963710E-08
   70.7399979      -8.53174811E-08
   70.9199982      -8.27063857E-08
   71.0999985      -7.94448241E-08
   71.2799988      -7.55222729E-08
   71.4599991      -7.09357479E-08
   71.6399994      -6.56893633E-08
   71.8199997      -5.97938197E-08
   72.0000000      -5.32657936E-08
   72.1800003      -4.61272158E-08
   72.3600006      -3.84044654E-08
   72.5400009      -3.01275875E-08
   72.7200012      -2.13294467E-08
   72.9000015      -1.20448291E-08
   73.0800018      -2.30963604E-09
   73.2600021       7.84003440E-09
   73.4400024       1.83686453E-08
   73.6200027       2.92419724E-08
   73.8000031       4.04277358E-08
   73.9800034       5.18961301E-08
   74.1600037       6.36200426E-08
   74.3399963       7.55752723E-08
   74.5199966       8.77403892E-08
   74.6999969       1.00096429E-07
   74.8799973       1.12626438E-07
   75.0599976       1.25314813E-07
   75.2399979       1.38146461E-07
   75.4199982       1.51105937E-07
   75.5999985       1.64176527E-07
   75.7799988       1.77339388E-07
   75.9599991       1.90572592E-07
   76.1399994       2.03850462E-07
   76.3199997       2.17142869E-07
   76.5000000       2.30414770E-07
   76.6800003       2.43625777E-07
   76.8600006       2.56730061E-07
   77.0400009       2.69676235E-07
   77.2200012       2.82407598E-07
   77.4000015       2.94862218E-07
   77.5800018       3.06973760E-07
   77.7600021       3.18671965E-07
   77.9400024       3.29883505E-07
   78.1200027       3.40533205E-07
   78.3000031       3.50545150E-07
   78.4800034       3.59844250E-07
   78.6600037       3.68357746E-07
   78.8399963       3.76016999E-07
   79.0199966       3.82759282E-07
   79.1999969       3.88529656E-07
   79.3799973       3.93282789E-07
   79.5599976       3.96984802E-07
   79.7399979       3.99614578E-07
   79.9199982       4.01165465E-07
   80.0999985       4.01646048E-07
   80.2799988       4.01080968E-07
   80.4599991       3.99511151E-07
   80.6399994       3.96993727E-07
   80.8199997       3.93601454E-07
   81.0000000       3.89421956E-07
   81.1800003       3.84556387E-07
   81.3600006       3.79117864E-07
   81.5400009       3.73229710E-07
   81.7200012       3.67023347E-07
   81.9000015       3.60636164E-07
   82.0800018       3.54208936E-07
   82.2600021       3.47883599E-07
   82.4400024       3.41800387E-07
   82.6200027       3.36095269E-07
   82.8000031       3.30897137E-07
   82.9800034       3.26325107E-07
   83.1600037       3.22485789E-07
   83.3399963       3.19470757E-07
   83.5199966       3.17354306E-07
   83.6999969       3.16191233E-07
   83.8799973       3.16015161E-07
   84.0599976       3.16837401E-07
   84.2399979       3.18645874E-07
   84.4199982       3.21405082E-07
   84.5999985       3.25056106E-07
   84.7799988       3.29517263E-07
   84.9599991       3.34685325E-07
   85.1399994       3.40436856E-07
   85.3199997       3.46630173E-07
   85.5000000       3.53107396E-07
   85.6800003       3.59696799E-07
   85.8600006       3.66215431E-07
   86.0400009       3.72471817E-07
   86.2200012       3.78268737E-07
   86.4000015       3.83406132E-07
   86.5800018       3.87684082E-07
   86.7600021       3.90905825E-07
   86.9400024       3.92880594E-07
   87.1200027       3.93426774E-07
   87.3000031       3.92374545E-07
   87.4800034       3.89568640E-07
   87.6600037       3.84870958E-07
   87.8399963       3.78162696E-07
   88.0199966       3.69346509E-07
   88.1999969       3.58348188E-07
   88.3799973       3.45118025E-07
   88.5599976       3.29631831E-07
   88.7399979       3.11891540E-07
   88.9199982       2.91925517E-07
   89.0999985       2.69788472E-07
   89.2799988       2.45560955E-07
   89.4599991       2.19348649E-07
   89.6399994       1.91281273E-07
   89.8199997       1.61511039E-07
   90.0000000       1.30211134E-07
   90.1800003       9.75735475E-08
   90.3600006       6.38067732E-08
   90.5400009       2.91330533E-08
   90.7200012      -6.21446627E-09
   90.9000015      -4.19952251E-08
   91.0800018      -7.79647564E-08
   91.2600021      -1.13878542E-07
   91.4400024      -1.49496074E-07
   91.6200027      -1.84584721E-07
   91.8000031      -2.18923930E-07
   91.9800034      -2.52308894E-07
   92.1600037      -2.84554233E-07
   92.3399963      -3.15497090E-07
   92.5199966      -3.44999648E-07
   92.6999969      -3.72951632E-07
   92.8799973      -3.99271613E-07
   93.0599976      -4.23908290E-07
   93.2399979      -4.46840829E-07
   93.4199982      -4.68079037E-07
   93.5999985      -4.87662760E-07
   93.7799988      -5.05661205E-07
   93.9599991      -5.22171490E-07
   94.1399994      -5.37317021E-07
   94.3199997      -5.51245250E-07
   94.5000000      -5.64125457E-07
   94.6800003      -5.76145567E-07
   94.8600006      -5.87509248E-07
   95.0400009      -5.98431996E-07
   95.2200012      -6.09137373E-07
   95.4000015      -6.19853154E-07
   95.5800018      -6.30806710E-07
   95.7600021      -6.42221153E-07
   95.9400024      -6.54310838E-07
   96.1200027      -6.67277561E-07
   96.3000031      -6.81306915E-07
   96.4800034      -6.96564996E-07
   96.6600037      -7.13195561E-07
   96.8399963      -7.31317868E-07
   97.0199966      -7.51024686E-07
   97.1999969      -7.72381213E-07
   97.3799973      -7.95424853E-07
   97.5599976      -8.20164360E-07
   97.7399979      -8.46580974E-07
   97.9199982      -8.74628256E-07
   98.0999985      -9.04233673E-07
   98.2799988      -9.35299624E-07
   98.4599991      -9.67704636E-07
   98.6399994      -1.00130558E-06
   98.8199997      -1.03593868E-06
   99.0000000      -1.07142193E-06
   99.1800003      -1.10755730E-06
   99.3600006      -1.14413206E-06
   99.5400009      -1.18092214E-06
   99.7200012      -1.21769381E-06
   99.9000015      -1.25420638E-06
   100.080002      -1.29021510E-06
   100.260002      -1.32547291E-06
   100.440002      -1.35973357E-06
   100.620003      -1.39275323E-06
