  -7.19999981         0.00000000    
  -7.01999998         0.00000000    
  -6.84000015         0.00000000    
  -6.65999985         0.00000000    
  -6.48000002         0.00000000    
  -6.30000019         0.00000000    
  -6.11999989         3.27150594E-28
  -5.94000006         3.85922696E-27
  -5.76000023         2.41641407E-26
  -5.57999992         1.06266442E-25
  -5.40000010         3.67842783E-25
  -5.21999979         1.06379451E-24
  -5.03999996         2.65802324E-24
  -4.86000013         5.85359325E-24
  -4.67999983         1.15031650E-23
  -4.50000000         2.02853073E-23
  -4.32000017         3.19371032E-23
  -4.13999987         4.37333316E-23
  -3.96000004         4.80777590E-23
  -3.77999997         2.96503595E-23
  -3.59999990        -3.71929931E-23
  -3.42000008        -1.91361853E-22
  -3.24000001        -4.91099159E-22
  -3.05999994        -1.02494817E-21
  -2.88000011        -1.92177260E-21
  -2.70000005        -3.34583047E-21
  -2.51999998        -5.47017689E-21
  -2.33999991        -8.45149011E-21
  -2.16000009        -1.24569450E-20
  -1.98000002        -1.77715457E-20
  -1.79999995        -2.49257517E-20
  -1.62000000        -3.46916221E-20
  -1.44000006        -4.78160736E-20
  -1.25999999        -6.45545644E-20
  -1.08000004        -8.43554330E-20
 -0.899999976        -1.06212265E-19
 -0.720000029        -1.30008662E-19
 -0.540000021        -1.58482506E-19
 -0.360000014        -1.98362305E-19
 -0.180000007        -2.58432782E-19
   0.00000000        -3.43038547E-19
  0.180000007        -4.42984428E-19
  0.360000014        -5.31168447E-19
  0.540000021        -5.73330101E-19
  0.720000029        -5.58593258E-19
  0.899999976        -5.37280898E-19
   1.08000004        -6.32866322E-19
   1.25999999        -9.90531413E-19
   1.44000006        -1.65548299E-18
   1.62000000        -2.43687925E-18
   1.79999995        -2.87038745E-18
   1.98000002        -2.38689583E-18
   2.16000009        -6.93028564E-19
   2.33999991         1.79690533E-18
   2.51999998         3.76793632E-18
   2.70000005         3.32306080E-18
   2.88000011        -1.12094988E-18
   3.05999994        -9.61695235E-18
   3.24000001        -1.96874660E-17
   3.42000008        -2.61741850E-17
   3.59999990        -2.24202938E-17
   3.77999997        -2.89696848E-18
   3.96000004         3.31666405E-17
   4.13999987         7.82839960E-17
   4.32000017         1.15180414E-16
   4.50000000         1.19408802E-16
   4.67999983         6.76378837E-17
   4.86000013        -4.90488788E-17
   5.03999996        -2.11042534E-16
   5.21999979        -3.62921987E-16
   5.40000010        -4.21456225E-16
   5.57999992        -3.03258018E-16
   5.76000023         3.27773527E-17
   5.94000006         5.44224016E-16
   6.11999989         1.08788613E-15
   6.30000019         1.44591457E-15
   6.48000002         1.39896152E-15
   6.65999985         8.27157319E-16
   6.84000015        -1.99734591E-16
   7.01999998        -1.38638509E-15
   7.19999981        -2.25856317E-15
   7.38000011        -2.29096006E-15
   7.55999994        -1.08324799E-15
   7.73999977         1.46762487E-15
   7.92000008         5.05070373E-15
   8.10000038         8.91607463E-15
   8.27999973         1.19577132E-14
   8.46000004         1.29042827E-14
   8.64000034         1.06065195E-14
   8.81999969         4.39396224E-15
   9.00000000        -5.55471967E-15
   9.18000031        -1.79224514E-14
   9.35999966        -3.01715812E-14
   9.53999996        -3.87932721E-14
   9.72000027        -3.99605072E-14
   9.89999962        -3.05574928E-14
   10.0799999        -9.44057946E-15
   10.2600002         2.13104409E-14
   10.4399996         5.54352198E-14
   10.6199999         8.20923258E-14
   10.8000002         8.62021297E-14
   10.9799995         4.96052005E-14
   11.1599998        -4.70271100E-14
   11.3400002        -2.21747398E-13
   11.5200005        -4.88724024E-13
   11.6999998        -8.55970297E-13
   11.8800001        -1.32396058E-12
   12.0600004        -1.88561363E-12
   12.2399998        -2.52790844E-12
   12.4200001        -3.23507692E-12
   12.6000004        -3.99297002E-12
   12.7799997        -4.79386669E-12
   12.9600000        -5.64081854E-12
   13.1400003        -6.55054223E-12
   13.3199997        -7.55394792E-12
   13.5000000        -8.69360920E-12
   13.6800003        -1.00177774E-11
   13.8599997        -1.15710228E-11
   14.0400000        -1.33820836E-11
   14.2200003        -1.54499243E-11
   14.3999996        -1.77293666E-11
   14.5799999        -2.01175986E-11
   14.7600002        -2.24426658E-11
   14.9399996        -2.44546050E-11
   15.1199999        -2.58193415E-11
   15.3000002        -2.61150771E-11
   15.4799995        -2.48306011E-11
   15.6599998        -2.13648266E-11
   15.8400002        -1.50269259E-11
   16.0200005        -5.03654236E-12
   16.2000008         9.47575959E-12
   16.3799992         2.94673973E-11
   16.5599995         5.59805084E-11
   16.7399998         9.01348648E-11
   16.9200001         1.33114977E-10
   17.1000004         1.86149735E-10
   17.2800007         2.50483356E-10
   17.4599991         3.27337935E-10
   17.6399994         4.17867602E-10
   17.8199997         5.23106114E-10
   18.0000000         6.43909537E-10
   18.1800003         7.80896237E-10
   18.3600006         9.34386901E-10
   18.5400009         1.10434784E-09
   18.7199993         1.29034150E-09
   18.8999996         1.49148605E-09
   19.0799999         1.70642722E-09
   19.2600002         1.93332594E-09
   19.4400005         2.16986096E-09
   19.6200008         2.41324805E-09
   19.7999992         2.66027667E-09
   19.9799995         2.90736057E-09
   20.1599998         3.15060289E-09
   20.3400002         3.38587025E-09
   20.5200005         3.60887364E-09
   20.7000008         3.81525167E-09
   20.8799992         4.00065314E-09
   21.0599995         4.16081702E-09
   21.2399998         4.29164881E-09
   21.4200001         4.38929115E-09
   21.6000004         4.45019577E-09
   21.7800007         4.47118120E-09
   21.9599991         4.44949455E-09
   22.1399994         4.38286518E-09
   22.3199997         4.26955182E-09
   22.5000000         4.10838030E-09
   22.6800003         3.89877952E-09
   22.8600006         3.64079766E-09
   23.0400009         3.33510952E-09
   23.2199993         2.98301051E-09
   23.3999996         2.58639465E-09
   23.5799999         2.14772355E-09
   23.7600002         1.66998204E-09
   23.9400005         1.15662813E-09
   24.1200008         6.11535378E-10
   24.2999992         3.89299287E-11
   24.4799995        -5.56677371E-10
   24.6599998        -1.17056220E-09
   24.8400002        -1.79786008E-09
   25.0200005        -2.43364195E-09
   25.2000008        -3.07299031E-09
   25.3799992        -3.71107589E-09
   25.5599995        -4.34323200E-09
   25.7399998        -4.96502084E-09
   25.9200001        -5.57229418E-09
   26.1000004        -6.16124041E-09
   26.2800007        -6.72841294E-09
   26.4599991        -7.27074978E-09
   26.6399994        -7.78557219E-09
   26.8199997        -8.27057001E-09
   27.0000000        -8.72378525E-09
   27.1800003        -9.14357745E-09
   27.3600006        -9.52859480E-09
   27.5400009        -9.87773774E-09
   27.7199993        -1.01901296E-08
   27.8999996        -1.04650866E-08
   28.0799999        -1.07020970E-08
   28.2600002        -1.09007896E-08
   28.4400005        -1.10609086E-08
   28.6200008        -1.11822818E-08
   28.7999992        -1.12647829E-08
   28.9799995        -1.13082894E-08
   29.1599998        -1.13126468E-08
   29.3400002        -1.12776242E-08
   29.5200005        -1.12028831E-08
   29.7000008        -1.10879474E-08
   29.8799992        -1.09321743E-08
   30.0599995        -1.07347526E-08
   30.2399998        -1.04946869E-08
   30.4200001        -1.02108100E-08
   30.6000004        -9.88179583E-09
   30.7800007        -9.50616652E-09
   30.9599991        -9.08232156E-09
   31.1399994        -8.60856808E-09
   31.3199997        -8.08315814E-09
   31.5000000        -7.50434914E-09
   31.6800003        -6.87047752E-09
   31.8600006        -6.18005513E-09
   32.0400009        -5.43188472E-09
   32.2200012        -4.62519001E-09
   32.4000015        -3.75976184E-09
   32.5800018        -2.83610757E-09
   32.7599983        -1.85560467E-09
   32.9399986        -8.20646051E-10
   33.1199989         2.65231753E-10
   33.2999992         1.39723988E-09
   33.4799995         2.56925392E-09
   33.6599998         3.77375997E-09
   33.8400002         5.00182562E-09
   34.0200005         6.24310692E-09
   34.2000008         7.48587858E-09
   34.3800011         8.71711681E-09
   34.5600014         9.92260230E-09
   34.7400017         1.10870850E-08
   34.9199982         1.21944890E-08
   35.0999985         1.32281617E-08
   35.2799988         1.41711771E-08
   35.4599991         1.50066803E-08
   35.6399994         1.57182765E-08
   35.8199997         1.62904481E-08
   36.0000000         1.67089933E-08
   36.1800003         1.69614633E-08
   36.3600006         1.70375980E-08
   36.5400009         1.69297234E-08
   36.7200012         1.66331215E-08
   36.9000015         1.61463269E-08
   37.0800018         1.54713948E-08
   37.2599983         1.46140575E-08
   37.4399986         1.35838203E-08
   37.6199989         1.23939463E-08
   37.7999992         1.10613572E-08
   37.9799995         9.60641966E-09
   38.1599998         8.05263145E-09
   38.3400002         6.42621334E-09
   38.5200005         4.75559991E-09
   38.7000008         3.07085402E-09
   38.8800011         1.40300549E-09
   39.0600014        -2.16644341E-10
   39.2400017        -1.75725579E-09
   39.4199982        -3.18916560E-09
   39.5999985        -4.48458692E-09
   39.7799988        -5.61827429E-09
   39.9599991        -6.56813137E-09
   40.1399994        -7.31576799E-09
   40.3199997        -7.84697018E-09
   40.5000000        -8.15211809E-09
   40.6800003        -8.22648172E-09
   40.8600006        -8.07045897E-09
   41.0400009        -7.68967023E-09
   41.2200012        -7.09497128E-09
   41.4000015        -6.30229335E-09
   41.5800018        -5.33237543E-09
   41.7599983        -4.21031343E-09
   41.9399986        -2.96498515E-09
   42.1199989        -1.62834302E-09
   42.2999992        -2.34593595E-10
   42.4799995         1.18069488E-09
   42.6599998         2.58152277E-09
   42.8400002         3.93240418E-09
   43.0200005         5.19929122E-09
   43.2000008         6.35045572E-09
   43.3800011         7.35730543E-09
   43.5600014         8.19512014E-09
   43.7400017         8.84369822E-09
   43.9199982         9.28789934E-09
   44.0999985         9.51807433E-09
   44.2799988         9.53038182E-09
   44.4599991         9.32695698E-09
   44.6399994         8.91594443E-09
   44.8199997         8.31137648E-09
   45.0000000         7.53288543E-09
   45.1800003         6.60527988E-09
   45.3600006         5.55797675E-09
   45.5400009         4.42431292E-09
   45.7200012         3.24075855E-09
   45.9000015         2.04607020E-09
   46.0800018         8.80371887E-10
   46.2599983        -2.15772414E-10
   46.4399986        -1.20229782E-09
   46.6199989        -2.04055484E-09
   46.7999992        -2.69419531E-09
   46.9799995        -3.13001691E-09
   47.1599998        -3.31872885E-09
   47.3400002        -3.23563443E-09
   47.5200005        -2.86121216E-09
   47.7000008        -2.18157936E-09
   47.8800011        -1.18881460E-09
   48.0600014         1.18855703E-10
   48.2400017         1.73701187E-09
   48.4199982         3.65513508E-09
   48.5999985         5.85682658E-09
   48.7799988         8.32013924E-09
   48.9599991         1.10180078E-08
   49.1399994         1.39187470E-08
   49.3199997         1.69866183E-08
   49.5000000         2.01824175E-08
   49.6800003         2.34641195E-08
   49.8600006         2.67875251E-08
   50.0400009         3.01069356E-08
   50.2200012         3.33758514E-08
   50.4000015         3.65476751E-08
   50.5800018         3.95764026E-08
   50.7599983         4.24173088E-08
   50.9399986         4.50275977E-08
   51.1199989         4.73669957E-08
   51.2999992         4.93982633E-08
   51.4799995         5.10876532E-08
   51.6599998         5.24052375E-08
   51.8400002         5.33251416E-08
   52.0200005         5.38257048E-08
   52.2000008         5.38895861E-08
   52.3800011         5.35037756E-08
   52.5600014         5.26596260E-08
   52.7400017         5.13528526E-08
   52.9199982         4.95835444E-08
   53.0999985         4.73561350E-08
   53.2799988         4.46793429E-08
   53.4599991         4.15661106E-08
   53.6399994         3.80333738E-08
   53.8199997         3.41018414E-08
   54.0000000         2.97955758E-08
   54.1800003         2.51415226E-08
   54.3600006         2.01689332E-08
   54.5400009         1.49087320E-08
   54.7200012         9.39287048E-09
   54.9000015         3.65370756E-09
   55.0800018        -2.27655406E-09
   55.2599983        -8.36631386E-09
   55.4399986        -1.45849413E-08
   55.6199989        -2.09030162E-08
   55.7999992        -2.72924368E-08
   55.9799995        -3.37264687E-08
   56.1599998        -4.01796960E-08
   56.3400002        -4.66278962E-08
   56.5200005        -5.30478665E-08
   56.7000008        -5.94172000E-08
   56.8800011        -6.57140191E-08
   57.0600014        -7.19166096E-08
   57.2400017        -7.80030760E-08
   57.4199982        -8.39508516E-08
   57.5999985        -8.97362185E-08
   57.7799988        -9.53337462E-08
   57.9599991        -1.00715795E-07
   58.1399994        -1.05851882E-07
   58.3199997        -1.10708264E-07
   58.5000000        -1.15247410E-07
   58.6800003        -1.19427725E-07
   58.8600006        -1.23203279E-07
   59.0400009        -1.26523844E-07
   59.2200012        -1.29335021E-07
   59.4000015        -1.31578645E-07
   59.5800018        -1.33193410E-07
   59.7599983        -1.34115737E-07
   59.9399986        -1.34281009E-07
   60.1199989        -1.33624852E-07
   60.2999992        -1.32084836E-07
   60.4799995        -1.29602256E-07
   60.6599998        -1.26124078E-07
   60.8400002        -1.21604941E-07
   61.0200005        -1.16009161E-07
   61.2000008        -1.09312801E-07
   61.3800011        -1.01505435E-07
   61.5600014        -9.25919750E-08
   61.7400017        -8.25940489E-08
   61.9199982        -7.15512840E-08
   62.0999985        -5.95222396E-08
   62.2799988        -4.65849617E-08
   62.4599991        -3.28372352E-08
   62.6399994        -1.83963831E-08
   62.8199997        -3.39865025E-09
   63.0000000         1.20018990E-08
   63.1800003         2.76349716E-08
   63.3600006         4.33161311E-08
   63.5400009         5.88493698E-08
   63.7200012         7.40301118E-08
   63.9000015         8.86486191E-08
   64.0800018         1.02493672E-07
   64.2600021         1.15356393E-07
   64.4400024         1.27034241E-07
   64.6200027         1.37334808E-07
   64.8000031         1.46079586E-07
   64.9800034         1.53107379E-07
   65.1600037         1.58277459E-07
   65.3399963         1.61472187E-07
   65.5199966         1.62599392E-07
   65.6999969         1.61594201E-07
   65.8799973         1.58420420E-07
   66.0599976         1.53071454E-07
   66.2399979         1.45570752E-07
   66.4199982         1.35971675E-07
   66.5999985         1.24356845E-07
   66.7799988         1.10837099E-07
   66.9599991         9.55496589E-08
   67.1399994         7.86559369E-08
   67.3199997         6.03387420E-08
   67.5000000         4.07990655E-08
   67.6800003         2.02524966E-08
   67.8600006        -1.07462217E-09
   68.0400009        -2.29491786E-08
   68.2200012        -4.51352733E-08
   68.4000015        -6.73981475E-08
   68.5800018        -8.95078145E-08
   68.7600021        -1.11242429E-07
   68.9400024        -1.32391236E-07
   69.1200027        -1.52757153E-07
   69.3000031        -1.72158806E-07
   69.4800034        -1.90432132E-07
   69.6600037        -2.07431697E-07
   69.8399963        -2.23031407E-07
   70.0199966        -2.37124937E-07
   70.1999969        -2.49625828E-07
   70.3799973        -2.60467289E-07
   70.5599976        -2.69601514E-07
   70.7399979        -2.76999032E-07
   70.9199982        -2.82647505E-07
   71.0999985        -2.86550346E-07
   71.2799988        -2.88725488E-07
   71.4599991        -2.89203513E-07
   71.6399994        -2.88025802E-07
   71.8199997        -2.85242919E-07
   72.0000000        -2.80912616E-07
   72.1800003        -2.75098131E-07
   72.3600006        -2.67866596E-07
   72.5400009        -2.59287674E-07
   72.7200012        -2.49432190E-07
   72.9000015        -2.38371214E-07
   73.0800018        -2.26175473E-07
   73.2600021        -2.12914600E-07
   73.4400024        -1.98656977E-07
   73.6200027        -1.83469353E-07
   73.8000031        -1.67416687E-07
   73.9800034        -1.50562087E-07
   74.1600037        -1.32966576E-07
   74.3399963        -1.14688888E-07
   74.5199966        -9.57852819E-08
   74.6999969        -7.63094050E-08
   74.8799973        -5.63121887E-08
   75.0599976        -3.58419534E-08
   75.2399979        -1.49446180E-08
   75.4199982         6.33583275E-09
   75.5999985         2.79566272E-08
   75.7799988         4.98752826E-08
   75.9599991         7.20485076E-08
   76.1399994         9.44310869E-08
   76.3199997         1.16974711E-07
   76.5000000         1.39626991E-07
   76.6800003         1.62330679E-07
   76.8600006         1.85023026E-07
   77.0400009         2.07635509E-07
   77.2200012         2.30093931E-07
   77.4000015         2.52318529E-07
   77.5800018         2.74224561E-07
   77.7600021         2.95722799E-07
   77.9400024         3.16720275E-07
   78.1200027         3.37121008E-07
   78.3000031         3.56827059E-07
   78.4800034         3.75739290E-07
   78.6600037         3.93758796E-07
   78.8399963         4.10787948E-07
   79.0199966         4.26732242E-07
   79.1999969         4.41502124E-07
   79.3799973         4.55015169E-07
   79.5599976         4.67198362E-07
   79.7399979         4.77990568E-07
   79.9199982         4.87344892E-07
   80.0999985         4.95231234E-07
   80.2799988         5.01637658E-07
   80.4599991         5.06572519E-07
   80.6399994         5.10064865E-07
   80.8199997         5.12164888E-07
   81.0000000         5.12943416E-07
   81.1800003         5.12490942E-07
   81.3600006         5.10915982E-07
   81.5400009         5.08342907E-07
   81.7200012         5.04909281E-07
   81.9000015         5.00763235E-07
   82.0800018         4.96059840E-07
   82.2600021         4.90958314E-07
   82.4400024         4.85617875E-07
   82.6200027         4.80194274E-07
   82.8000031         4.74835844E-07
   82.9800034         4.69679577E-07
   83.1600037         4.64846778E-07
   83.3399963         4.60439196E-07
   83.5199966         4.56535105E-07
   83.6999969         4.53185777E-07
   83.8799973         4.50412443E-07
   84.0599976         4.48203906E-07
   84.2399979         4.46515173E-07
   84.4199982         4.45266636E-07
   84.5999985         4.44345119E-07
   84.7799988         4.43605188E-07
   84.9599991         4.42872363E-07
   85.1399994         4.41946810E-07
   85.3199997         4.40608005E-07
   85.5000000         4.38620503E-07
   85.6800003         4.35739878E-07
   85.8600006         4.31718917E-07
   86.0400009         4.26314273E-07
   86.2200012         4.19292519E-07
   86.4000015         4.10436485E-07
   86.5800018         3.99550942E-07
   86.7600021         3.86467747E-07
   86.9400024         3.71050646E-07
   87.1200027         3.53199397E-07
   87.3000031         3.32853034E-07
   87.4800034         3.09992657E-07
   87.6600037         2.84643392E-07
   87.8399963         2.56875126E-07
   88.0199966         2.26802669E-07
   88.1999969         1.94584558E-07
   88.3799973         1.60420939E-07
   88.5599976         1.24550198E-07
   88.7399979         8.72444659E-08
   88.9199982         4.88043419E-08
   89.0999985         9.55257917E-09
   89.2799988        -3.01727887E-08
   89.4599991        -7.00257345E-08
   89.6399994        -1.09659624E-07
   89.8199997        -1.48734401E-07
   90.0000000        -1.86923458E-07
   90.1800003        -2.23920011E-07
   90.3600006        -2.59442459E-07
   90.5400009        -2.93239196E-07
   90.7200012        -3.25092287E-07
   90.9000015        -3.54820571E-07
   91.0800018        -3.82281655E-07
   91.2600021        -4.07373278E-07
   91.4400024        -4.30033964E-07
   91.6200027        -4.50242851E-07
   91.8000031        -4.68018953E-07
   91.9800034        -4.83419399E-07
   92.1600037        -4.96537439E-07
   92.3399963        -5.07499351E-07
   92.5199966        -5.16460602E-07
   92.6999969        -5.23601329E-07
   92.8799973        -5.29121621E-07
   93.0599976        -5.33235720E-07
   93.2399979        -5.36166283E-07
   93.4199982        -5.38138977E-07
   93.5999985        -5.39376288E-07
   93.7799988        -5.40092685E-07
   93.9599991        -5.40489680E-07
   94.1399994        -5.40751955E-07
   94.3199997        -5.41044074E-07
   94.5000000        -5.41507973E-07
   94.6800003        -5.42261660E-07
   94.8600006        -5.43397960E-07
   95.0400009        -5.44984687E-07
   95.2200012        -5.47064701E-07
   95.4000015        -5.49657557E-07
   95.5800018        -5.52760525E-07
   95.7600021        -5.56351040E-07
   95.9400024        -5.60389083E-07
   96.1200027        -5.64819914E-07
   96.3000031        -5.69577765E-07
   96.4800034        -5.74589251E-07
   96.6600037        -5.79777350E-07
   96.8399963        -5.85065834E-07
   97.0199966        -5.90383365E-07
   97.1999969        -5.95667871E-07
   97.3799973        -6.00870464E-07
   97.5599976        -6.05959201E-07
   97.7399979        -6.10922314E-07
   97.9199982        -6.15770261E-07
   98.0999985        -6.20537207E-07
   98.2799988        -6.25281871E-07
   98.4599991        -6.30086276E-07
   98.6399994        -6.35054278E-07
   98.8199997        -6.40309054E-07
   99.0000000        -6.45989076E-07
   99.1800003        -6.52243955E-07
   99.3600006        -6.59229272E-07
   99.5400009        -6.67101290E-07
   99.7200012        -6.76010814E-07
   99.9000015        -6.86097735E-07
   100.080002        -6.97484495E-07
   100.260002        -7.10270399E-07
   100.440002        -7.24525421E-07
   100.620003        -7.40284861E-07
