  -7.19999981         0.00000000    
  -7.01999998         0.00000000    
  -6.84000015         0.00000000    
  -6.65999985         0.00000000    
  -6.48000002         0.00000000    
  -6.30000019         0.00000000    
  -6.11999989         5.12376509E-29
  -5.94000006         3.86717585E-28
  -5.76000023         8.62240666E-28
  -5.57999992        -4.37467206E-27
  -5.40000010        -4.57920351E-26
  -5.21999979        -2.33891736E-25
  -5.03999996        -8.97537835E-25
  -4.86000013        -2.81014520E-24
  -4.67999983        -7.44826453E-24
  -4.50000000        -1.75223472E-23
  -4.32000017        -3.83905912E-23
  -4.13999987        -7.96808521E-23
  -3.96000004        -1.53883248E-22
  -3.77999997        -2.71294768E-22
  -3.59999990        -4.41802497E-22
  -3.42000008        -6.96542167E-22
  -3.24000001        -1.11173266E-21
  -3.05999994        -1.77501872E-21
  -2.88000011        -2.66803875E-21
  -2.70000005        -3.58787087E-21
  -2.51999998        -4.33508920E-21
  -2.33999991        -5.18022222E-21
  -2.16000009        -7.10281251E-21
  -1.98000002        -1.10815933E-20
  -1.79999995        -1.64903383E-20
  -1.62000000        -2.01104684E-20
  -1.44000006        -1.77948199E-20
  -1.25999999        -8.98363786E-21
  -1.08000004        -8.95227830E-22
 -0.899999976        -7.28340850E-21
 -0.720000029        -3.86896703E-20
 -0.540000021        -8.69143097E-20
 -0.360000014        -1.13726038E-19
 -0.180000007        -5.94395315E-20
   0.00000000         1.15267386E-19
  0.180000007         3.61249238E-19
  0.360000014         4.94797677E-19
  0.540000021         2.57665675E-19
  0.720000029        -4.62211724E-19
  0.899999976        -1.33300249E-18
   1.08000004        -1.47562879E-18
   1.25999999         1.27310257E-19
   1.44000006         3.68092808E-18
   1.62000000         7.63181566E-18
   1.79999995         8.71033262E-18
   1.98000002         3.66999896E-18
   2.16000009        -7.73809844E-18
   2.33999991        -2.04462487E-17
   2.51999998        -2.47612132E-17
   2.70000005        -1.10621444E-17
   2.88000011         2.32145989E-17
   3.05999994         6.83091706E-17
   3.24000001         1.02584875E-16
   3.42000008         1.00024724E-16
   3.59999990         4.24562427E-17
   3.77999997        -6.81478571E-17
   3.96000004        -2.01969659E-16
   4.13999987        -3.01797971E-16
   4.32000017        -2.94631623E-16
   4.50000000        -1.17108512E-16
   4.67999983         2.45925799E-16
   4.86000013         7.20014639E-16
   5.03999996         1.12096923E-15
   5.21999979         1.18791691E-15
   5.40000010         6.88975435E-16
   5.57999992        -4.20179720E-16
   5.76000023        -1.85761165E-15
   5.94000006        -3.00205565E-15
   6.11999989        -3.08584246E-15
   6.30000019        -1.57653785E-15
   6.48000002         1.40496709E-15
   6.65999985         4.87486604E-15
   6.84000015         7.19700517E-15
   7.01999998         6.73964761E-15
   7.19999981         2.73816190E-15
   7.38000011        -4.07175938E-15
   7.55999994        -1.14605184E-14
   7.73999977        -1.64753634E-14
   7.92000008        -1.66788885E-14
   8.10000038        -1.12438448E-14
   8.27999973        -1.30235138E-15
   8.46000004         1.06780734E-14
   8.64000034         2.21722444E-14
   8.81999969         3.18204325E-14
   9.00000000         3.99180336E-14
   9.18000031         4.79478721E-14
   9.35999966         5.75375115E-14
   9.53999996         6.95905600E-14
   9.72000027         8.42152072E-14
   9.89999962         1.01529625E-13
   10.0799999         1.22816742E-13
   10.2600002         1.51239860E-13
   10.4399996         1.91588553E-13
   10.6199999         2.49125942E-13
   10.8000002         3.28148912E-13
   10.9799995         4.31008988E-13
   11.1599998         5.58024818E-13
   11.3400002         7.08221134E-13
   11.5200005         8.80501021E-13
   11.6999998         1.07485407E-12
   11.8800001         1.29341199E-12
   12.0600004         1.54126267E-12
   12.2399998         1.82680347E-12
   12.4200001         2.16120091E-12
   12.6000004         2.55654178E-12
   12.7799997         3.02280033E-12
   12.9600000         3.56449267E-12
   13.1400003         4.17845619E-12
   13.3199997         4.85391328E-12
   13.5000000         5.57496887E-12
   13.6800003         6.32441105E-12
   13.8599997         7.08700546E-12
   14.0400000         7.85084931E-12
   14.2200003         8.60660761E-12
   14.3999996         9.34553216E-12
   14.5799999         1.00576440E-11
   14.7600002         1.07305944E-11
   14.9399996         1.13487136E-11
   15.1199999         1.18910099E-11
   15.3000002         1.23273032E-11
   15.4799995         1.26127138E-11
   15.6599998         1.26817853E-11
   15.8400002         1.24436095E-11
   16.0200005         1.17786041E-11
   16.2000008         1.05363713E-11
   16.3799992         8.53369372E-12
   16.5599995         5.55185932E-12
   16.7399998         1.33350145E-12
   16.9200001        -4.42075369E-12
   17.1000004        -1.20548719E-11
   17.2800007        -2.19593805E-11
   17.4599991        -3.45717066E-11
   17.6399994        -5.03740660E-11
   17.8199997        -6.98857361E-11
   18.0000000        -9.36471942E-11
   18.1800003        -1.22194907E-10
   18.3600006        -1.56028857E-10
   18.5400009        -1.95577984E-10
   18.7199993        -2.41168197E-10
   18.8999996        -2.92997765E-10
   19.0799999        -3.51116747E-10
   19.2600002        -4.15410956E-10
   19.4400005        -4.85584073E-10
   19.6200008        -5.61135027E-10
   19.7999992        -6.41331988E-10
   19.9799995        -7.25189075E-10
   20.1599998        -8.11445855E-10
   20.3400002        -8.98560615E-10
   20.5200005        -9.84709869E-10
   20.7000008        -1.06780851E-09
   20.8799992        -1.14554777E-09
   21.0599995        -1.21545252E-09
   21.2399998        -1.27495714E-09
   21.4200001        -1.32149280E-09
   21.6000004        -1.35257416E-09
   21.7800007        -1.36588318E-09
   21.9599991        -1.35934286E-09
   22.1399994        -1.33118805E-09
   22.3199997        -1.28003874E-09
   22.5000000        -1.20497956E-09
   22.6800003        -1.10564136E-09
   22.8600006        -9.82280146E-10
   23.0400009        -8.35839120E-10
   23.2199993        -6.67987665E-10
   23.3999996        -4.81137907E-10
   23.5799999        -2.78436385E-10
   23.7600002        -6.37336295E-11
   23.9400005         1.58470376E-10
   24.1200008         3.83109905E-10
   24.2999992         6.04659045E-10
   24.4799995         8.17265089E-10
   24.6599998         1.01488451E-09
   24.8400002         1.19142207E-09
   25.0200005         1.34086608E-09
   25.2000008         1.45742129E-09
   25.3799992         1.53564739E-09
   25.5599995         1.57060842E-09
   25.7399998         1.55802771E-09
   25.9200001         1.49444368E-09
   26.1000004         1.37734879E-09
   26.2800007         1.20530907E-09
   26.4599991         9.78060521E-10
   26.6399994         6.96583902E-10
   26.8199997         3.63159947E-10
   27.0000000        -1.85994345E-11
   27.1800003        -4.43746345E-10
   27.3600006        -9.06024644E-10
   27.5400009        -1.39792911E-09
   27.7199993        -1.91079375E-09
   27.8999996        -2.43490961E-09
   28.0799999        -2.95966962E-09
   28.2600002        -3.47374773E-09
   28.4400005        -3.96531430E-09
   28.6200008        -4.42227854E-09
   28.7999992        -4.83255747E-09
   28.9799995        -5.18435117E-09
   29.1599998        -5.46642376E-09
   29.3400002        -5.66838532E-09
   29.5200005        -5.78098103E-09
   29.7000008        -5.79638071E-09
   29.8799992        -5.70846037E-09
   30.0599995        -5.51305668E-09
   30.2399998        -5.20817478E-09
   30.4200001        -4.79413886E-09
   30.6000004        -4.27367519E-09
   30.7800007        -3.65193964E-09
   30.9599991        -2.93648172E-09
   31.1399994        -2.13715445E-09
   31.3199997        -1.26595479E-09
   31.5000000        -3.36801781E-10
   31.6800003         6.34744979E-10
   31.8600006         1.63181446E-09
   32.0400009         2.63658562E-09
   32.2200012         3.63067620E-09
   32.4000015         4.59556393E-09
   32.5800018         5.51303359E-09
   32.7599983         6.36564490E-09
   32.9399986         7.13720594E-09
   33.1199989         7.81321319E-09
   33.2999992         8.38124681E-09
   33.4799995         8.83130458E-09
   33.6599998         9.15607412E-09
   33.8400002         9.35114919E-09
   34.0200005         9.41517975E-09
   34.2000008         9.34994038E-09
   34.3800011         9.16031428E-09
   34.5600014         8.85416984E-09
   34.7400017         8.44213943E-09
   34.9199982         7.93733701E-09
   35.0999985         7.35501748E-09
   35.2799988         6.71219169E-09
   35.4599991         6.02718631E-09
   35.6399994         5.31914246E-09
   35.8199997         4.60745664E-09
   36.0000000         3.91118427E-09
   36.1800003         3.24844018E-09
   36.3600006         2.63583422E-09
   36.5400009         2.08796513E-09
   36.7200012         1.61696856E-09
   36.9000015         1.23213040E-09
   37.0800018         9.39575195E-10
   37.2599983         7.42041539E-10
   37.4399986         6.38778141E-10
   37.6199989         6.25562213E-10
   37.7999992         6.94842628E-10
   37.9799995         8.35988001E-10
   38.1599998         1.03561870E-09
   38.3400002         1.27801003E-09
   38.5200005         1.54557889E-09
   38.7000008         1.81944204E-09
   38.8800011         2.08005746E-09
   39.0600014         2.30791097E-09
   39.2400017         2.48420529E-09
   39.4199982         2.59154120E-09
   39.5999985         2.61454947E-09
   39.7799988         2.54048604E-09
   39.9599991         2.35978170E-09
   40.1399994         2.06653050E-09
   40.3199997         1.65888669E-09
   40.5000000         1.13933929E-09
   40.6800003         5.14828236E-10
   40.8600006        -2.03295755E-10
   41.0400009        -9.99451299E-10
   41.2200012        -1.85411841E-09
   41.4000015        -2.74422707E-09
   41.5800018        -3.64361386E-09
   41.7599983        -4.52354643E-09
   41.9399986        -5.35330136E-09
   42.1199989        -6.10080164E-09
   42.2999992        -6.73328593E-09
   42.4799995        -7.21802440E-09
   42.6599998        -7.52307905E-09
   42.8400002        -7.61810171E-09
   43.0200005        -7.47518047E-09
   43.2000008        -7.06968395E-09
   43.3800011        -6.38106723E-09
   43.5600014        -5.39357403E-09
   43.7400017        -4.09679757E-09
   43.9199982        -2.48609533E-09
   44.0999985        -5.62862867E-10
   44.2799988         1.66529734E-09
   44.4599991         4.18447765E-09
   44.6399994         6.97441616E-09
   44.8199997         1.00084927E-08
   45.0000000         1.32537901E-08
   45.1800003         1.66712404E-08
   45.3600006         2.02158876E-08
   45.5400009         2.38372930E-08
   45.7200012         2.74801213E-08
   45.9000015         3.10848627E-08
   46.0800018         3.45887230E-08
   46.2599983         3.79265721E-08
   46.4399986         4.10320133E-08
   46.6199989         4.38384369E-08
   46.7999992         4.62801459E-08
   46.9799995         4.82935008E-08
   47.1599998         4.98181478E-08
   47.3400002         5.07983025E-08
   47.5200005         5.11840312E-08
   47.7000008         5.09325702E-08
   47.8800011         5.00095645E-08
   48.0600014         4.83902021E-08
   48.2400017         4.60602259E-08
   48.4199982         4.30166942E-08
   48.5999985         3.92686132E-08
   48.7799988         3.48372744E-08
   48.9599991         2.97563769E-08
   49.1399994         2.40718734E-08
   49.3199997         1.78415398E-08
   49.5000000         1.11342473E-08
   49.6800003         4.02894340E-09
   49.8600006        -3.38667205E-09
   50.0400009        -1.10177814E-08
   50.2200012        -1.87643021E-08
   50.4000015        -2.65229883E-08
   50.5800018        -3.41896609E-08
   50.7599983        -4.16615364E-08
   50.9399986        -4.88395457E-08
   51.1199989        -5.56306148E-08
   51.2999992        -6.19498621E-08
   51.4799995        -6.77226097E-08
   51.6599998        -7.28861451E-08
   51.8400002        -7.73912703E-08
   52.0200005        -8.12034884E-08
   52.2000008        -8.43037711E-08
   52.3800011        -8.66889920E-08
   52.5600014        -8.83718343E-08
   52.7400017        -8.93802579E-08
   52.9199982        -8.97565329E-08
   53.0999985        -8.95558045E-08
   53.2799988        -8.88442671E-08
   53.4599991        -8.76970887E-08
   53.6399994        -8.61959890E-08
   53.8199997        -8.44267092E-08
   54.0000000        -8.24763333E-08
   54.1800003        -8.04306381E-08
   54.3600006        -7.83714924E-08
   54.5400009        -7.63743699E-08
   54.7200012        -7.45059836E-08
   54.9000015        -7.28222105E-08
   55.0800018        -7.13661663E-08
   55.2599983        -7.01666849E-08
   55.4399986        -6.92371458E-08
   55.6199989        -6.85748276E-08
   55.7999992        -6.81607730E-08
   55.9799995        -6.79602650E-08
   56.1599998        -6.79237928E-08
   56.3400002        -6.79885872E-08
   56.5200005        -6.80805101E-08
   56.7000008        -6.81163144E-08
   56.8800011        -6.80062371E-08
   57.0600014        -6.76566785E-08
   57.2400017        -6.69731435E-08
   57.4199982        -6.58631691E-08
   57.5999985        -6.42393516E-08
   57.7799988        -6.20222664E-08
   57.9599991        -5.91434066E-08
   58.1399994        -5.55477868E-08
   58.3199997        -5.11963769E-08
   58.5000000        -4.60680774E-08
   58.6800003        -4.01612716E-08
   58.8600006        -3.34947643E-08
   59.0400009        -2.61082072E-08
   59.2200012        -1.80618844E-08
   59.4000015        -9.43598089E-09
   59.5800018        -3.29224287E-10
   59.7599983         9.14289977E-09
   59.9399986         1.88504394E-08
   60.1199989         2.86516446E-08
   60.2999992         3.83960241E-08
   60.4799995         4.79276174E-08
   60.6599998         5.70885419E-08
   60.8400002         6.57225954E-08
   61.0200005         7.36789403E-08
   61.2000008         8.08156528E-08
   61.3800011         8.70031869E-08
   61.5600014         9.21274648E-08
   61.7400017         9.60928048E-08
   61.9199982         9.88244722E-08
   62.0999985         1.00270881E-07
   62.2799988         1.00405529E-07
   62.4599991         9.92282949E-08
   62.6399994         9.67663851E-08
   62.8199997         9.30745330E-08
   63.0000000         8.82346427E-08
   63.1800003         8.23547168E-08
   63.3600006         7.55673284E-08
   63.5400009         6.80275321E-08
   63.7200012         5.99102847E-08
   63.9000015         5.14073975E-08
   64.0800018         4.27241034E-08
   64.2600021         3.40751498E-08
   64.4400024         2.56806025E-08
   64.6200027         1.77613710E-08
   64.8000031         1.05345164E-08
   64.9800034         4.20838742E-09
   65.1600037        -1.02229158E-09
   65.3399963        -4.98132202E-09
   65.5199966        -7.51567431E-09
   65.6999969        -8.49978044E-09
   65.8799973        -7.83923859E-09
   66.0599976        -5.47390844E-09
   66.2399979        -1.38024614E-09
   66.4199982         4.42713999E-09
   66.5999985         1.18946870E-08
   66.7799988         2.09300097E-08
   66.9599991         3.14029869E-08
   67.1399994         4.31478497E-08
   67.3199997         5.59662894E-08
   67.5000000         6.96313904E-08
   67.6800003         8.38924379E-08
   67.8600006         9.84803350E-08
   68.0400009         1.13113614E-07
   68.2200012         1.27504904E-07
   68.4000015         1.41367707E-07
   68.5800018         1.54423404E-07
   68.7600021         1.66408086E-07
   68.9400024         1.77079158E-07
   69.1200027         1.86221484E-07
   69.3000031         1.93652966E-07
   69.4800034         1.99229191E-07
   69.6600037         2.02847502E-07
   69.8399963         2.04449933E-07
   70.0199966         2.04025142E-07
   70.1999969         2.01609126E-07
   70.3799973         1.97284749E-07
   70.5599976         1.91180021E-07
   70.7399979         1.83465275E-07
   70.9199982         1.74349140E-07
   71.0999985         1.64073469E-07
   71.2799988         1.52907518E-07
   71.4599991         1.41141015E-07
   71.6399994         1.29076852E-07
   71.8199997         1.17023298E-07
   72.0000000         1.05286020E-07
   72.1800003         9.41601854E-08
   72.3600006         8.39228207E-08
   72.5400009         7.48255857E-08
   72.7200012         6.70882017E-08
   72.9000015         6.08926385E-08
   73.0800018         5.63784646E-08
   73.2600021         5.36393472E-08
   73.4400024         5.27208250E-08
   73.6200027         5.36194378E-08
   73.8000031         5.62831843E-08
   73.9800034         6.06131749E-08
   74.1600037         6.64666473E-08
   74.3399963         7.36610559E-08
   74.5199966         8.19792518E-08
   74.6999969         9.11755578E-08
   74.8799973         1.00982440E-07
   75.0599976         1.11117735E-07
   75.2399979         1.21292004E-07
   75.4199982         1.31216083E-07
   75.5999985         1.40608435E-07
   75.7799988         1.49202322E-07
   75.9599991         1.56752293E-07
   76.1399994         1.63040184E-07
   76.3199997         1.67880160E-07
   76.5000000         1.71122707E-07
   76.6800003         1.72657622E-07
   76.8600006         1.72415881E-07
   77.0400009         1.70370285E-07
   77.2200012         1.66534974E-07
   77.4000015         1.60963822E-07
   77.5800018         1.53747791E-07
   77.7600021         1.45011356E-07
   77.9400024         1.34908120E-07
   78.1200027         1.23615919E-07
   78.3000031         1.11331346E-07
   78.4800034         9.82640174E-08
   78.6600037         8.46304928E-08
   78.8399963         7.06481202E-08
   79.0199966         5.65289078E-08
   79.1999969         4.24735873E-08
   79.3799973         2.86659585E-08
   79.5599976         1.52678297E-08
   79.7399979         2.41443066E-09
   79.9199982        -9.78938797E-09
   80.0999985        -2.12720792E-08
   80.2799988        -3.19972564E-08
   80.4599991        -4.19646149E-08
   80.6399994        -5.12095042E-08
   80.8199997        -5.98016001E-08
   81.0000000        -6.78425209E-08
   81.1800003        -7.54625020E-08
   81.3600006        -8.28162499E-08
   81.5400009        -9.00781458E-08
   81.7200012        -9.74364696E-08
   81.9000015        -1.05087032E-07
   82.0800018        -1.13226470E-07
   82.2600021        -1.22045051E-07
   82.4400024        -1.31719560E-07
   82.6200027        -1.42406492E-07
   82.8000031        -1.54235579E-07
   82.9800034        -1.67303924E-07
   83.1600037        -1.81670956E-07
   83.3399963        -1.97354325E-07
   83.5199966        -2.14326818E-07
   83.6999969        -2.32514466E-07
   83.8799973        -2.51795797E-07
   84.0599976        -2.72002637E-07
   84.2399979        -2.92921811E-07
   84.4199982        -3.14298489E-07
   84.5999985        -3.35840468E-07
   84.7799988        -3.57223882E-07
   84.9599991        -3.78099941E-07
   85.1399994        -3.98102969E-07
   85.3199997        -4.16858683E-07
   85.5000000        -4.33993250E-07
   85.6800003        -4.49142618E-07
   85.8600006        -4.61961775E-07
   86.0400009        -4.72134047E-07
   86.2200012        -4.79380276E-07
   86.4000015        -4.83467545E-07
   86.5800018        -4.84217082E-07
   86.7600021        -4.81511449E-07
   86.9400024        -4.75300340E-07
   87.1200027        -4.65605211E-07
   87.3000031        -4.52522357E-07
   87.4800034        -4.36224269E-07
   87.6600037        -4.16959182E-07
   87.8399963        -3.95048716E-07
   88.0199966        -3.70884038E-07
   88.1999969        -3.44919954E-07
   88.3799973        -3.17667599E-07
   88.5599976        -2.89685744E-07
   88.7399979        -2.61570705E-07
   88.9199982        -2.33945372E-07
   89.0999985        -2.07447144E-07
   89.2799988        -1.82715382E-07
   89.4599991        -1.60378562E-07
   89.6399994        -1.41041099E-07
   89.8199997        -1.25270873E-07
   90.0000000        -1.13586971E-07
   90.1800003        -1.06448525E-07
   90.3600006        -1.04244492E-07
   90.5400009        -1.07284862E-07
   90.7200012        -1.15793405E-07
   90.9000015        -1.29902176E-07
   91.0800018        -1.49647960E-07
   91.2600021        -1.74970651E-07
   91.4400024        -2.05713405E-07
   91.6200027        -2.41624775E-07
   91.8000031        -2.82362180E-07
   91.9800034        -3.27497304E-07
   92.1600037        -3.76522735E-07
   92.3399963        -4.28860204E-07
   92.5199966        -4.83869769E-07
   92.6999969        -5.40859958E-07
   92.8799973        -5.99098769E-07
   93.0599976        -6.57825296E-07
   93.2399979        -7.16261695E-07
   93.4199982        -7.73625857E-07
   93.5999985        -8.29143744E-07
   93.7799988        -8.82062011E-07
   93.9599991        -9.31659770E-07
   94.1399994        -9.77259901E-07
   94.3199997        -1.01823923E-06
   94.5000000        -1.05403774E-06
   94.6800003        -1.08416612E-06
   94.8600006        -1.10821213E-06
   95.0400009        -1.12584451E-06
   95.2200012        -1.13681654E-06
   95.4000015        -1.14096588E-06
   95.5800018        -1.13821409E-06
   95.7600021        -1.12856378E-06
   95.9400024        -1.11209499E-06
   96.1200027        -1.08895949E-06
   96.3000031        -1.05937397E-06
   96.4800034        -1.02361309E-06
   96.6600037        -9.81999392E-07
   96.8399963        -9.34894842E-07
   97.0199966        -8.82690756E-07
   97.1999969        -8.25797486E-07
   97.3799973        -7.64635502E-07
   97.5599976        -6.99626241E-07
   97.7399979        -6.31183980E-07
   97.9199982        -5.59708837E-07
   98.0999985        -4.85580699E-07
   98.2799988        -4.09154808E-07
   98.4599991        -3.30758581E-07
   98.6399994        -2.50689965E-07
   98.8199997        -1.69217614E-07
   99.0000000        -8.65822045E-08
   99.1800003        -2.99931502E-09
   99.3600006         8.13372552E-08
   99.5400009         1.66250459E-07
   99.7200012         2.51574619E-07
   99.9000015         3.37149544E-07
   100.080002         4.22814395E-07
   100.260002         5.08401797E-07
   100.440002         5.93732409E-07
   100.620003         6.78609013E-07
