  -7.19999981       0.00000000    
  -7.01999998      -5.31227796E-12
  -6.84000015      -1.52244398E-11
  -6.65999985      -2.70390307E-11
  -6.48000002      -3.70002397E-11
  -6.30000019      -4.15617124E-11
  -6.11999989      -3.84364623E-11
  -5.94000006      -2.69299912E-11
  -5.76000023      -7.35876984E-12
  -5.57999992       2.02135027E-11
  -5.40000010       5.73388871E-11
  -5.21999979       1.07996584E-10
  -5.03999996       1.78488530E-10
  -4.86000013       2.76568601E-10
  -4.67999983       4.10418421E-10
  -4.50000000       5.88225191E-10
  -4.32000017       8.18834500E-10
  -4.13999987       1.11339182E-09
  -3.96000004       1.48735535E-09
  -3.77999997       1.96206051E-09
  -3.59999990       2.56524624E-09
  -3.42000008       3.33048988E-09
  -3.24000001       4.29601421E-09
  -3.05999994       5.50359092E-09
  -2.88000011       6.99811764E-09
  -2.70000005       8.82802542E-09
  -2.51999998       1.10462048E-08
  -2.33999991       1.37108458E-08
  -2.16000009       1.68855756E-08
  -1.98000002       2.06385327E-08
  -1.79999995       2.50403698E-08
  -1.62000000       3.01615017E-08
  -1.44000006       3.60691566E-08
  -1.25999999       4.28247162E-08
  -1.08000004       5.04816491E-08
 -0.899999976       5.90840195E-08
 -0.720000029       6.86652442E-08
 -0.540000021       7.92465613E-08
 -0.360000014       9.08348028E-08
 -0.180000007       1.03419531E-07
   4.44089210E-16   1.16969922E-07
  0.180000007       1.31432216E-07
  0.360000014       1.46728482E-07
  0.540000021       1.62757104E-07
  0.720000029       1.79394860E-07
  0.899999976       1.96499926E-07
   1.08000004       2.13914902E-07
   1.25999999       2.31469713E-07
   1.44000006       2.48984094E-07
   1.62000000       2.66270320E-07
   1.79999995       2.83136870E-07
   1.98000002       2.99393037E-07
   2.16000009       3.14854674E-07
   2.33999991       3.29350257E-07
   2.51999998       3.42726707E-07
   2.70000005       3.54853967E-07
   2.88000011       3.65628324E-07
   3.05999994       3.74974263E-07
   3.24000001       3.82845400E-07
   3.42000008       3.89224709E-07
   3.59999990       3.94124783E-07
   3.77999997       3.97587513E-07
   3.96000004       3.99683842E-07
   4.13999987       4.00512334E-07
   4.32000017       4.00196598E-07
   4.50000000       3.98881610E-07
   4.67999983       3.96728637E-07
   4.86000013       3.93910057E-07
   5.03999996       3.90604555E-07
   5.21999979       3.86993264E-07
   5.40000010       3.83257714E-07
   5.57999992       3.79578353E-07
   5.76000023       3.76133130E-07
   5.94000006       3.73096213E-07
   6.11999989       3.70634893E-07
   6.30000019       3.68907024E-07
   6.48000002       3.68057641E-07
   6.65999985       3.68217115E-07
   6.84000015       3.69500526E-07
   7.01999998       3.72007548E-07
   7.19999981       3.75823191E-07
   7.38000011       3.81017571E-07
   7.55999994       3.87645287E-07
   7.73999977       3.95743882E-07
   7.92000008       4.05332599E-07
   8.10000038       4.16411041E-07
   8.27999973       4.28958259E-07
   8.46000004       4.42934237E-07
   8.64000034       4.58281562E-07
   8.81999969       4.74928100E-07
   9.00000000       4.92790264E-07
   9.18000031       5.11775852E-07
   9.35999966       5.31786668E-07
   9.53999996       5.52721247E-07
   9.72000027       5.74477440E-07
   9.89999962       5.96954465E-07
   10.0799999       6.20057790E-07
   10.2600002       6.43703288E-07
   10.4399996       6.67822007E-07
   10.6199999       6.92362960E-07
   10.8000002       7.17296416E-07
   10.9799995       7.42613565E-07
   11.1599998       7.68325833E-07
   11.3400002       7.94462608E-07
   11.5200005       8.21070728E-07
   11.6999998       8.48212551E-07
   11.8800001       8.75964076E-07
   12.0600004       9.04411650E-07
   12.2399998       9.33646049E-07
   12.4200001       9.63754360E-07
   12.6000004       9.94809170E-07
   12.7799997       1.02685703E-06
   12.9600000       1.05990682E-06
   13.1400003       1.09392010E-06
   13.3199997       1.12880241E-06
   13.5000000       1.16439799E-06
   13.6800003       1.20048333E-06
   13.8599997       1.23676841E-06
   14.0400000       1.27289798E-06
   14.2200003       1.30845513E-06
   14.3999996       1.34296965E-06
   14.5799999       1.37593054E-06
   14.7600002       1.40679902E-06
   14.9399996       1.43502928E-06
   15.1199999       1.46008563E-06
   15.3000002       1.48146444E-06
   15.4799995       1.49871300E-06
   15.6599998       1.51144673E-06
   15.8400002       1.51936126E-06
   16.0200005       1.52224345E-06
   16.2000008       1.51997608E-06
   16.3799992       1.51254028E-06
   16.5599995       1.50001472E-06
   16.7399998       1.48256970E-06
   16.9200001       1.46045545E-06
   17.1000004       1.43398461E-06
   17.2800007       1.40350915E-06
   17.4599991       1.36939343E-06
   17.6399994       1.33198171E-06
   17.8199997       1.29156660E-06
   18.0000000       1.24835719E-06
   18.1800003       1.20244692E-06
   18.3600006       1.15378748E-06
   18.5400009       1.10216399E-06
   18.7199993       1.04717742E-06
   18.8999996       9.88236366E-07
   19.0799999       9.24557355E-07
   19.2600002       8.55178428E-07
   19.4400005       7.78986760E-07
   19.6200008       6.94763571E-07
   19.7999992       6.01237105E-07
   19.9799995       4.97151518E-07
   20.1599998       3.81343938E-07
   20.3400002       2.52822730E-07
   20.5200005       1.10845320E-07
   20.7000008      -4.50025652E-08
   20.8799992      -2.14743395E-07
   21.0599995      -3.97951339E-07
   21.2399998      -5.93712571E-07
   21.4200001      -8.00599082E-07
   21.6000004      -1.01666535E-06
   21.7800007      -1.23946143E-06
   21.9599991      -1.46606465E-06
   22.1399994      -1.69312807E-06
   22.3199997      -1.91694494E-06
   22.5000000      -2.13352791E-06
   22.6800003      -2.33869105E-06
   22.8600006      -2.52814220E-06
   23.0400009      -2.69757902E-06
   23.2199993      -2.84278121E-06
   23.3999996      -2.95971154E-06
   23.5799999      -3.04460536E-06
   23.7600002      -3.09406164E-06
   23.9400005      -3.10511609E-06
   24.1200008      -3.07531423E-06
   24.2999992      -3.00275974E-06
   24.4799995      -2.88614888E-06
   24.6599998      -2.72478906E-06
   24.8400002      -2.51860001E-06
   25.0200005      -2.26809834E-06
   25.2000008      -1.97437407E-06
   25.3799992      -1.63904213E-06
   25.5599995      -1.26420855E-06
   25.7399998      -8.52422716E-07
   25.9200001      -4.06626839E-07
   26.1000004       6.98833205E-08
   26.2800007       5.73501040E-07
   26.4599991       1.10033307E-06
   26.6399994       1.64623304E-06
   26.8199997       2.20680772E-06
   27.0000000       2.77742038E-06
   27.1800003       3.35319191E-06
   27.3600006       3.92897937E-06
   27.5400009       4.49938034E-06
   27.7199993       5.05870912E-06
   27.8999996       5.60100034E-06
   28.0799999       6.12000440E-06
   28.2600002       6.60920705E-06
   28.4400005       7.06184483E-06
   28.6200008       7.47095464E-06
   28.7999992       7.82943425E-06
   28.9799995       8.13013139E-06
   29.1599998       8.36594791E-06
   29.3400002       8.52997346E-06
   29.5200005       8.61562694E-06
   29.7000008       8.61681474E-06
   29.8799992       8.52810990E-06
   30.0599995       8.34490857E-06
   30.2399998       8.06359913E-06
   30.4200001       7.68170685E-06
   30.6000004       7.19802210E-06
   30.7800007       6.61271542E-06
   30.9599991       5.92741435E-06
   31.1399994       5.14524754E-06
   31.3199997       4.27086570E-06
   31.5000000       3.31041178E-06
   31.6800003       2.27145665E-06
   31.8600006       1.16287731E-06
   32.0400009      -5.29553335E-09
   32.2200012      -1.22206211E-06
   32.4000015      -2.47566686E-06
   32.5800018      -3.75385184E-06
   32.7599983      -5.04410855E-06
   32.9399986      -6.33394211E-06
   33.1199989      -7.61113597E-06
   33.2999992      -8.86400176E-06
   33.4799995      -1.00816033E-05
   33.6599998      -1.12539492E-05
   33.8400002      -1.23721493E-05
   34.0200005      -1.34285201E-05
   34.2000008      -1.44166324E-05
   34.3800011      -1.53313213E-05
   34.5600014      -1.61686385E-05
   34.7400017      -1.69257582E-05
   34.9199982      -1.76008507E-05
   35.0999985      -1.81929354E-05
   35.2799988      -1.87016685E-05
   35.4599991      -1.91271574E-05
   35.6399994      -1.94697204E-05
   35.8199997      -1.97296777E-05
   36.0000000      -1.99071328E-05
   36.1800003      -2.00017621E-05
   36.3600006      -2.00126760E-05
   36.5400009      -1.99382794E-05
   36.7200012      -1.97761892E-05
   36.9000015      -1.95231969E-05
   37.0800018      -1.91752788E-05
   37.2599983      -1.87276473E-05
   37.4399986      -1.81748255E-05
   37.6199989      -1.75107889E-05
   37.7999992      -1.67290982E-05
   37.9799995      -1.58230923E-05
   38.1599998      -1.47860774E-05
   38.3400002      -1.36115241E-05
   38.5200005      -1.22932934E-05
   38.7000008      -1.08258191E-05
   38.8800011      -9.20426737E-06
   39.0600014      -7.42470957E-06
   39.2400017      -5.48423668E-06
   39.4199982      -3.38108180E-06
   39.5999985      -1.11467034E-06
   39.7799988       1.31435411E-06
   39.9599991       3.90411606E-06
   40.1399994       6.65155085E-06
   40.3199997       9.55246560E-06
   40.5000000       1.26015957E-05
   40.6800003       1.57927243E-05
   40.8600006       1.91188556E-05
   41.0400009       2.25722797E-05
   41.2200012       2.61447694E-05
   41.4000015       2.98276736E-05
   41.5800018       3.36120829E-05
   41.7599983       3.74889605E-05
   41.9399986       4.14492024E-05
   42.1199989       4.54838009E-05
   42.2999992       4.95839340E-05
   42.4799995       5.37410961E-05
   42.6599998       5.79471634E-05
   42.8400002       6.21944855E-05
   43.0200005       6.64759791E-05
   43.2000008       7.07851359E-05
   43.3800011       7.51161424E-05
   43.5600014       7.94638545E-05
   43.7400017       8.38239066E-05
   43.9199982       8.81926826E-05
   44.0999985       9.25673958E-05
   44.2799988       9.69460671E-05
   44.4599991       1.01327583E-04
   44.6399994       1.05711661E-04
   44.8199997       1.10098823E-04
   45.0000000       1.14490322E-04
   45.1800003       1.18888085E-04
   45.3600006       1.23294638E-04
   45.5400009       1.27712890E-04
   45.7200012       1.32146073E-04
   45.9000015       1.36597489E-04
   46.0800018       1.41070326E-04
   46.2599983       1.45567421E-04
   46.4399986       1.50090942E-04
   46.6199989       1.54642170E-04
   46.7999992       1.59221046E-04
   46.9799995       1.63826102E-04
   47.1599998       1.68453917E-04
   47.3400002       1.73099092E-04
   47.5200005       1.77753813E-04
   47.7000008       1.82407806E-04
   47.8800011       1.87048150E-04
   48.0600014       1.91659157E-04
   48.2400017       1.96222391E-04
   48.4199982       2.00716677E-04
   48.5999985       2.05118267E-04
   48.7799988       2.09401042E-04
   48.9599991       2.13536870E-04
   49.1399994       2.17495923E-04
   49.3199997       2.21247072E-04
   49.5000000       2.24758449E-04
   49.6800003       2.27997909E-04
   49.8600006       2.30933569E-04
   50.0400009       2.33534345E-04
   50.2200012       2.35770509E-04
   50.4000015       2.37614207E-04
   50.5800018       2.39039990E-04
   50.7599983       2.40025300E-04
   50.9399986       2.40550828E-04
   51.1199989       2.40600915E-04
   51.2999992       2.40163819E-04
   51.4799995       2.39232002E-04
   51.6599998       2.37802044E-04
   51.8400002       2.35874861E-04
   52.0200005       2.33455459E-04
   52.2000008       2.30553051E-04
   52.3800011       2.27180644E-04
   52.5600014       2.23354917E-04
   52.7400017       2.19095833E-04
   52.9199982       2.14426225E-04
   53.0999985       2.09371297E-04
   53.2799988       2.03958174E-04
   53.4599991       1.98215275E-04
   53.6399994       1.92171952E-04
   53.8199997       1.85857891E-04
   54.0000000       1.79302791E-04
   54.1800003       1.72535787E-04
   54.3600006       1.65585079E-04
   54.5400009       1.58477618E-04
   54.7200012       1.51238855E-04
   54.9000015       1.43892466E-04
   55.0800018       1.36460163E-04
   55.2599983       1.28961765E-04
   55.4399986       1.21415185E-04
   55.6199989       1.13836359E-04
   55.7999992       1.06239575E-04
   55.9799995       9.86373852E-05
   56.1599998       9.10409581E-05
   56.3400002       8.34603052E-05
   56.5200005       7.59044706E-05
   56.7000008       6.83817489E-05
   56.8800011       6.08999908E-05
   57.0600014       5.34668070E-05
   57.2400017       4.60897609E-05
   57.4199982       3.87764630E-05
   57.5999985       3.15346297E-05
   57.7799988       2.43722734E-05
   57.9599991       1.72975324E-05
   58.1399994       1.03187785E-05
   58.3199997       3.44439468E-06
   58.5000000      -3.31727006E-06
   58.6800003      -9.95808477E-06
   58.8600006      -1.64703251E-05
   59.0400009      -2.28468725E-05
   59.2200012      -2.90815424E-05
   59.4000015      -3.51691961E-05
   59.5800018      -4.11061228E-05
   59.7599983      -4.68901198E-05
   59.9399986      -5.25207834E-05
   60.1199989      -5.79995940E-05
   60.2999992      -6.33301606E-05
   60.4799995      -6.85182822E-05
   60.6599998      -7.35719295E-05
   60.8400002      -7.85013035E-05
   61.0200005      -8.33187660E-05
   61.2000008      -8.80388761E-05
   61.3800011      -9.26781868E-05
   61.5600014      -9.72551643E-05
   61.7400017      -1.01789963E-04
   61.9199982      -1.06304258E-04
   62.0999985      -1.10820896E-04
   62.2799988      -1.15363822E-04
   62.4599991      -1.19957680E-04
   62.6399994      -1.24627652E-04
   62.8199997      -1.29399181E-04
   63.0000000      -1.34297588E-04
   63.1800003      -1.39347962E-04
   63.3600006      -1.44574631E-04
   63.5400009      -1.50001055E-04
   63.7200012      -1.55649279E-04
   63.9000015      -1.61539836E-04
   64.0800018      -1.67691294E-04
   64.2600021      -1.74119967E-04
   64.4400024      -1.80839648E-04
   64.6200027      -1.87861195E-04
   64.8000031      -1.95192173E-04
   64.9800034      -2.02836658E-04
   65.1600037      -2.10795013E-04
   65.3399963      -2.19063513E-04
   65.5199966      -2.27634198E-04
   65.6999969      -2.36494801E-04
   65.8799973      -2.45628675E-04
   66.0599976      -2.55014776E-04
   66.2399979      -2.64627830E-04
   66.4199982      -2.74438353E-04
   66.5999985      -2.84412934E-04
   66.7799988      -2.94514437E-04
   66.9599991      -3.04702378E-04
   67.1399994      -3.14933422E-04
   67.3199997      -3.25161789E-04
   67.5000000      -3.35339806E-04
   67.6800003      -3.45418433E-04
   67.8600006      -3.55347904E-04
   68.0400009      -3.65078216E-04
   68.2200012      -3.74559837E-04
   68.4000015      -3.83744045E-04
   68.5800018      -3.92583665E-04
   68.7600021      -4.01033525E-04
   68.9400024      -4.09051048E-04
   69.1200027      -4.16596537E-04
   69.3000031      -4.23633697E-04
   69.4800034      -4.30130051E-04
   69.6600037      -4.36056929E-04
   69.8399963      -4.41389799E-04
   70.0199966      -4.46108490E-04
   70.1999969      -4.50196967E-04
   70.3799973      -4.53643443E-04
   70.5599976      -4.56440233E-04
   70.7399979      -4.58583789E-04
   70.9199982      -4.60074225E-04
   71.0999985      -4.60915209E-04
   71.2799988      -4.61113756E-04
   71.4599991      -4.60679759E-04
   71.6399994      -4.59625589E-04
   71.8199997      -4.57966002E-04
   72.0000000      -4.55717469E-04
   72.1800003      -4.52898152E-04
   72.3600006      -4.49527579E-04
   72.5400009      -4.45626385E-04
   72.7200012      -4.41216107E-04
   72.9000015      -4.36318980E-04
   73.0800018      -4.30957822E-04
   73.2600021      -4.25156002E-04
   73.4400024      -4.18937387E-04
   73.6200027      -4.12326248E-04
   73.8000031      -4.05347440E-04
   73.9800034      -3.98026459E-04
   74.1600037      -3.90389498E-04
   74.3399963      -3.82463360E-04
   74.5199966      -3.74275754E-04
   74.6999969      -3.65854998E-04
   74.8799973      -3.57230048E-04
   75.0599976      -3.48430534E-04
   75.2399979      -3.39486665E-04
   75.4199982      -3.30429117E-04
   75.5999985      -3.21288942E-04
   75.7799988      -3.12097400E-04
   75.9599991      -3.02885659E-04
   76.1399994      -2.93684599E-04
   76.3199997      -2.84524518E-04
   76.5000000      -2.75434810E-04
   76.6800003      -2.66443647E-04
   76.8600006      -2.57577747E-04
   77.0400009      -2.48862081E-04
   77.2200012      -2.40319569E-04
   77.4000015      -2.31970858E-04
   77.5800018      -2.23833980E-04
   77.7600021      -2.15924170E-04
   77.9400024      -2.08253696E-04
   78.1200027      -2.00831695E-04
   78.3000031      -1.93664207E-04
   78.4800034      -1.86754056E-04
   78.6600037      -1.80101051E-04
   78.8399963      -1.73702050E-04
   79.0199966      -1.67551247E-04
   79.1999969      -1.61640215E-04
   79.3799973      -1.55958260E-04
   79.5599976      -1.50492677E-04
   79.7399979      -1.45229104E-04
   79.9199982      -1.40151998E-04
   80.0999985      -1.35244933E-04
   80.2799988      -1.30491113E-04
   80.4599991      -1.25873805E-04
   80.6399994      -1.21376710E-04
   80.8199997      -1.16984353E-04
   81.0000000      -1.12682384E-04
   81.1800003      -1.08458022E-04
   81.3600006      -1.04300198E-04
   81.5400009      -1.00199897E-04
   81.7200012      -9.61504920E-05
   81.9000015      -9.21478204E-05
   82.0800018      -8.81904562E-05
   82.2600021      -8.42796799E-05
   82.4400024      -8.04196316E-05
   82.6200027      -7.66171652E-05
   82.8000031      -7.28818413E-05
   82.9800034      -6.92257672E-05
   83.1600037      -6.56635602E-05
   83.3399963      -6.22121806E-05
   83.5199966      -5.88906732E-05
   83.6999969      -5.57200910E-05
   83.8799973      -5.27231168E-05
   84.0599976      -4.99237722E-05
   84.2399979      -4.73471591E-05
   84.4199982      -4.50189109E-05
   84.5999985      -4.29648717E-05
   84.7799988      -4.12108639E-05
   84.9599991      -3.97821314E-05
   85.1399994      -3.87030996E-05
   85.3199997      -3.79969315E-05
   85.5000000      -3.76850767E-05
   85.6800003      -3.77869874E-05
   85.8600006      -3.83196711E-05
   86.0400009      -3.92973598E-05
   86.2200012      -4.07314474E-05
   86.4000015      -4.26301231E-05
   86.5800018      -4.49983527E-05
   86.7600021      -4.78378497E-05
   86.9400024      -5.11469661E-05
   87.1200027      -5.49207070E-05
   87.3000031      -5.91506687E-05
   87.4800034      -6.38251659E-05
   87.6600037      -6.89293520E-05
   87.8399963      -7.44453791E-05
   88.0199966      -8.03526127E-05
   88.1999969      -8.66280388E-05
   88.3799973      -9.32465045E-05
   88.5599976      -1.00181096E-04
   88.7399979      -1.07403488E-04
   88.9199982      -1.14884228E-04
   89.0999985      -1.22593221E-04
   89.2799988      -1.30499917E-04
   89.4599991      -1.38573872E-04
   89.6399994      -1.46785067E-04
   89.8199997      -1.55104179E-04
   90.0000000      -1.63502860E-04
   90.1800003      -1.71953914E-04
   90.3600006      -1.80431394E-04
   90.5400009      -1.88910621E-04
   90.7200012      -1.97368165E-04
   90.9000015      -2.05781820E-04
   91.0800018      -2.14130516E-04
   91.2600021      -2.22394257E-04
   91.4400024      -2.30553967E-04
   91.6200027      -2.38591281E-04
   91.8000031      -2.46488489E-04
   91.9800034      -2.54228304E-04
   92.1600037      -2.61793699E-04
   92.3399963      -2.69167736E-04
   92.5199966      -2.76333594E-04
   92.6999969      -2.83274392E-04
   92.8799973      -2.89973454E-04
   93.0599976      -2.96414190E-04
   93.2399979      -3.02580243E-04
   93.4199982      -3.08455754E-04
   93.5999985      -3.14025383E-04
   93.7799988      -3.19274608E-04
   93.9599991      -3.24189808E-04
   94.1399994      -3.28758673E-04
   94.3199997      -3.32970434E-04
   94.5000000      -3.36816040E-04
   94.6800003      -3.40288476E-04
   94.8600006      -3.43382970E-04
   95.0400009      -3.46097077E-04
   95.2200012      -3.48430825E-04
   95.4000015      -3.50386777E-04
   95.5800018      -3.51969968E-04
   95.7600021      -3.53187846E-04
   95.9400024      -3.54050339E-04
   96.1200027      -3.54569609E-04
   96.3000031      -3.54759861E-04
   96.4800034      -3.54637275E-04
   96.6600037      -3.54219432E-04
   96.8399963      -3.53525043E-04
   97.0199966      -3.52573494E-04
   97.1999969      -3.51384282E-04
   97.3799973      -3.49976646E-04
   97.5599976      -3.48369009E-04
   97.7399979      -3.46578629E-04
   97.9199982      -3.44621192E-04
   98.0999985      -3.42510495E-04
   98.2799988      -3.40258033E-04
   98.4599991      -3.37872800E-04
   98.6399994      -3.35360965E-04
   98.8199997      -3.32725846E-04
   99.0000000      -3.29967879E-04
   99.1800003      -3.27084650E-04
   99.3600006      -3.24071269E-04
   99.5400009      -3.20920633E-04
   99.7200012      -3.17623781E-04
   99.9000015      -3.14170204E-04
   100.080002      -3.10548319E-04
   100.260002      -3.06745700E-04
   100.440002      -3.02749715E-04
   100.620003      -2.98547966E-04
