  -7.19999981        -1.05148852E-18
  -7.01949978         3.51955905E-13
  -6.83900023         1.39229589E-12
  -6.65850019         3.55647543E-12
  -6.47800016         7.08286685E-12
  -6.29750013         1.16735597E-11
  -6.11700010         1.62125504E-11
  -5.93650007         1.85757139E-11
  -5.75600004         1.55096266E-11
  -5.57550001         2.55440872E-12
  -5.39499998        -2.59701531E-11
  -5.21449995        -7.68616421E-11
  -5.03399992        -1.57793528E-10
  -4.85349989        -2.77015105E-10
  -4.67299986        -4.43183878E-10
  -4.49249983        -6.65557276E-10
  -4.31199980        -9.54690105E-10
  -4.13149977        -1.32361899E-09
  -3.95099998        -1.78935000E-09
  -3.77049994        -2.37439091E-09
  -3.58999991        -3.10811532E-09
  -3.40949988        -4.02784162E-09
  -3.22900009        -5.17962118E-09
  -3.04850006        -6.61873534E-09
  -2.86800003        -8.40988790E-09
  -2.68750000        -1.06270432E-08
  -2.50699997        -1.33528983E-08
  -2.32649994        -1.66779888E-08
  -2.14599991        -2.06995878E-08
  -1.96550000        -2.55205013E-08
  -1.78499997        -3.12478150E-08
  -1.60450006        -3.79915157E-08
  -1.42400002        -4.58629081E-08
  -1.24349999        -5.49724710E-08
  -1.06299996        -6.54272583E-08
 -0.882499993        -7.73276199E-08
 -0.702000022        -9.07632369E-08
 -0.521499991        -1.05808788E-07
 -0.340999991        -1.22518856E-07
 -0.160500005        -1.40922907E-07
   1.99999996E-02    -1.61019884E-07
  0.200499997        -1.82773420E-07
  0.381000012        -2.06107970E-07
  0.561500013        -2.30906352E-07
  0.741999984        -2.57008764E-07
  0.922500014        -2.84213741E-07
   1.10300004        -3.12280605E-07
   1.28349996        -3.40933724E-07
   1.46399999        -3.69868502E-07
   1.64450002        -3.98758459E-07
   1.82500005        -4.27263558E-07
   2.00550008        -4.55040066E-07
   2.18600011        -4.81750476E-07
   2.36649990        -5.07074333E-07
   2.54699993        -5.30718523E-07
   2.72749996        -5.52427821E-07
   2.90799999        -5.71994292E-07
   3.08850002        -5.89267188E-07
   3.26900005        -6.04159993E-07
   3.44950008        -6.16657985E-07
   3.63000011        -6.26822612E-07
   3.81049991        -6.34794503E-07
   3.99099994        -6.40794212E-07
   4.17150021        -6.45118973E-07
   4.35200024        -6.48139633E-07
   4.53249979        -6.50291895E-07
   4.71299982        -6.52067911E-07
   4.89349985        -6.54003031E-07
   5.07399988        -6.56663872E-07
   5.25449991        -6.60633418E-07
   5.43499994        -6.66496476E-07
   5.61549997        -6.74827504E-07
   5.79600000        -6.86175326E-07
   5.97650003        -7.01051817E-07
   6.15700006        -7.19921218E-07
   6.33750010        -7.43188707E-07
   6.51800013        -7.71192447E-07
   6.69850016        -8.04193746E-07
   6.87900019        -8.42370923E-07
   7.05950022        -8.85812028E-07
   7.23999977        -9.34508080E-07
   7.42049980        -9.88349370E-07
   7.60099983        -1.04712080E-06
   7.78149986        -1.11050144E-06
   7.96199989        -1.17806644E-06
   8.14249992        -1.24928954E-06
   8.32299995        -1.32355024E-06
   8.50349998        -1.40014401E-06
   8.68400002        -1.47829246E-06
   8.86450005        -1.55715577E-06
   9.04500008        -1.63584582E-06
   9.22550011        -1.71343743E-06
   9.40600014        -1.78898051E-06
   9.58650017        -1.86150783E-06
   9.76700020        -1.93004507E-06
   9.94750023        -1.99361557E-06
   10.1280003        -2.05124843E-06
   10.3085003        -2.10198550E-06
   10.4890003        -2.14488932E-06
   10.6695004        -2.17905426E-06
   10.8500004        -2.20361585E-06
   11.0305004        -2.21776509E-06
   11.2110004        -2.22075982E-06
   11.3915005        -2.21193773E-06
   11.5719995        -2.19072467E-06
   11.7524996        -2.15664113E-06
   11.9329996        -2.10930557E-06
   12.1134996        -2.04843036E-06
   12.2939997        -1.97381496E-06
   12.4744997        -1.88533545E-06
   12.6549997        -1.78293124E-06
   12.8354998        -1.66659311E-06
   13.0159998        -1.53635074E-06
   13.1964998        -1.39226722E-06
   13.3769999        -1.23443408E-06
   13.5574999        -1.06297364E-06
   13.7379999        -8.78044716E-07
   13.9184999        -6.79851667E-07
   14.0990000        -4.68657220E-07
   14.2795000        -2.44794705E-07
   14.4600000        -8.68030980E-09
   14.6405001         2.39175534E-07
   14.8210001         4.98162422E-07
   15.0015001         7.67560664E-07
   15.1820002         1.04653930E-06
   15.3625002         1.33414960E-06
   15.5430002         1.62932088E-06
   15.7235003         1.93085543E-06
   15.9040003         2.23742109E-06
   16.0844994         2.54754036E-06
   16.2649994         2.85958390E-06
   16.4454994         3.17176409E-06
   16.6259995         3.48212961E-06
   16.8064995         3.78857226E-06
   16.9869995         4.08883352E-06
   17.1674995         4.38052757E-06
   17.3479996         4.66117035E-06
   17.5284996         4.92821800E-06
   17.7089996         5.17910939E-06
   17.8894997         5.41131794E-06
   18.0699997         5.62239302E-06
   18.2504997         5.81001223E-06
   18.4309998         5.97201642E-06
   18.6114998         6.10643656E-06
   18.7919998         6.21151685E-06
   18.9724998         6.28571661E-06
   19.1529999         6.32770707E-06
   19.3334999         6.33635682E-06
   19.5139999         6.31070588E-06
   19.6945000         6.24993299E-06
   19.8750000         6.15332556E-06
   20.0555000         6.02023556E-06
   20.2360001         5.85004318E-06
   20.4165001         5.64211905E-06
   20.5970001         5.39578605E-06
   20.7775002         5.11028929E-06
   20.9580002         4.78476750E-06
   21.1385002         4.41823067E-06
   21.3190002         4.00954968E-06
   21.4995003         3.55744965E-06
   21.6800003         3.06051857E-06
   21.8605003         2.51722963E-06
   22.0410004         1.92597190E-06
   22.2215004         1.28510362E-06
   22.4020004         5.93008167E-07
   22.5825005        -1.51824906E-07
   22.7630005        -9.50719368E-07
   22.9435005        -1.80471750E-06
   23.1240005        -2.71448744E-06
   23.3045006        -3.68022506E-06
   23.4850006        -4.70156192E-06
   23.6655006        -5.77747414E-06
   23.8460007        -6.90621800E-06
   24.0265007        -8.08525601E-06
   24.2070007        -9.31121758E-06
   24.3875008        -1.05798681E-05
   24.5680008        -1.18860989E-05
   24.7485008        -1.32239338E-05
   24.9290009        -1.45865642E-05
   25.1095009        -1.59663887E-05
   25.2900009        -1.73550834E-05
   25.4705009        -1.87436890E-05
   25.6509991        -2.01227012E-05
   25.8314991        -2.14821866E-05
   26.0119991        -2.28119097E-05
   26.1924992        -2.41014386E-05
   26.3729992        -2.53402904E-05
   26.5534992        -2.65180406E-05
   26.7339993        -2.76244446E-05
   26.9144993        -2.86495360E-05
   27.0949993        -2.95837126E-05
   27.2754993        -3.04178084E-05
   27.4559994        -3.11431395E-05
   27.6364994        -3.17515151E-05
   27.8169994        -3.22352607E-05
   27.9974995        -3.25871915E-05
   28.1779995        -3.28005663E-05
   28.3584995        -3.28690330E-05
   28.5389996        -3.27865855E-05
   28.7194996        -3.25474684E-05
   28.8999996        -3.21461121E-05
   29.0804996        -3.15770703E-05
   29.2609997        -3.08349699E-05
   29.4414997        -2.99144631E-05
   29.6219997        -2.88102055E-05
   29.8024998        -2.75168786E-05
   29.9829998        -2.60292036E-05
   30.1634998        -2.43420091E-05
   30.3439999        -2.24503146E-05
   30.5244999        -2.03494292E-05
   30.7049999        -1.80350999E-05
   30.8855000        -1.55036450E-05
   31.0660000        -1.27521398E-05
   31.2465000        -9.77857962E-06
   31.4270000        -6.58208137E-06
   31.6075001        -3.16306910E-06
   31.7880001         4.76535149E-07
   31.9685001         4.33312835E-06
   32.1489983         8.40124994E-06
   32.3294983         1.26734276E-05
   32.5099983         1.71400479E-05
   32.6904984         2.17892484E-05
   32.8709984         2.66068473E-05
   33.0514984         3.15763027E-05
   33.2319984         3.66787390E-05
   33.4124985         4.18929594E-05
   33.5929985         4.71955609E-05
   33.7734985         5.25610121E-05
   33.9539986         5.79618500E-05
   34.1344986         6.33688323E-05
   34.3149986         6.87511711E-05
   34.4954987         7.40767282E-05
   34.6759987         7.93122963E-05
   34.8564987         8.44238311E-05
   35.0369987         8.93767137E-05
   35.2174988         9.41360413E-05
   35.3979988         9.86668820E-05
   35.5784988         1.02934551E-04
   35.7589989         1.06904896E-04
   35.9394989         1.10544512E-04
   36.1199989         1.13821035E-04
   36.3004990         1.16703355E-04
   36.4809990         1.19161858E-04
   36.6614990         1.21168632E-04
   36.8419991         1.22697675E-04
   37.0224991         1.23725069E-04
   37.2029991         1.24229162E-04
   37.3834991         1.24190730E-04
   37.5639992         1.23593083E-04
   37.7444992         1.22422323E-04
   37.9249992         1.20667341E-04
   38.1054993         1.18320080E-04
   38.2859993         1.15375566E-04
   38.4664993         1.11832087E-04
   38.6469994         1.07691274E-04
   38.8274994         1.02958176E-04
   39.0079994         9.76414012E-05
   39.1884995         9.17530706E-05
   39.3689995         8.53089296E-05
   39.5494995         7.83283031E-05
   39.7299995         7.08340813E-05
   39.9104996         6.28526032E-05
   40.0909996         5.44136383E-05
   40.2714996         4.55502159E-05
   40.4519997         3.62984283E-05
   40.6324997         2.66973166E-05
   40.8129997         1.67886046E-05
   40.9934998         6.61646618E-06
   41.1739998        -3.77273000E-06
   41.3544998        -1.43307470E-05
   41.5349998        -2.50077883E-05
   41.7154999        -3.57528224E-05
   41.8959999        -4.65139965E-05
   42.0764999        -5.72389763E-05
   42.2570000        -6.78754004E-05
   42.4375000        -7.83712458E-05
   42.6180000        -8.86752896E-05
   42.7985001        -9.87374879E-05
   42.9790001        -1.08509397E-04
   43.1595001        -1.17944539E-04
   43.3400002        -1.26998755E-04
   43.5205002        -1.35630515E-04
   43.7010002        -1.43801182E-04
   43.8815002        -1.51475251E-04
   44.0620003        -1.58620547E-04
   44.2425003        -1.65208316E-04
   44.4230003        -1.71213382E-04
   44.6035004        -1.76614267E-04
   44.7840004        -1.81393130E-04
   44.9645004        -1.85535901E-04
   45.1450005        -1.89032231E-04
   45.3255005        -1.91875515E-04
   45.5060005        -1.94062770E-04
   45.6865005        -1.95594752E-04
   45.8670006        -1.96475710E-04
   46.0475006        -1.96713401E-04
   46.2280006        -1.96318913E-04
   46.4085007        -1.95306537E-04
   46.5890007        -1.93693602E-04
   46.7695007        -1.91500192E-04
   46.9500008        -1.88748963E-04
   47.1305008        -1.85464873E-04
   47.3110008        -1.81674855E-04
   47.4915009        -1.77407535E-04
   47.6720009        -1.72692831E-04
   47.8525009        -1.67561666E-04
   48.0330009        -1.62045559E-04
   48.2135010        -1.56176247E-04
   48.3940010        -1.49985281E-04
   48.5745010        -1.43503756E-04
   48.7550011        -1.36761781E-04
   48.9355011        -1.29788168E-04
   49.1160011        -1.22610043E-04
   49.2965012        -1.15252493E-04
   49.4770012        -1.07738197E-04
   49.6575012        -1.00087105E-04
   49.8380013        -9.23161788E-05
   50.0185013        -8.44390524E-05
   50.1990013        -7.64658107E-05
   50.3795013        -6.84028637E-05
   50.5600014        -6.02527507E-05
   50.7405014        -5.20140566E-05
   50.9210014        -4.36814189E-05
   51.1015015        -3.52456045E-05
   51.2820015        -2.66936895E-05
   51.4625015        -1.80091884E-05
   51.6430016        -9.17245961E-06
   51.8235016        -1.61013560E-07
   52.0040016         9.05000161E-06
   52.1845016         1.84872624E-05
   52.3650017         2.81786815E-05
   52.5455017         3.81528007E-05
   52.7260017         4.84380871E-05
   52.9065018         5.90622476E-05
   53.0870018         7.00515302E-05
   53.2675018         8.14300001E-05
   53.4480019         9.32188996E-05
   53.6285019         1.05436018E-04
   53.8089981         1.18095028E-04
   53.9894981         1.31204899E-04
   54.1699982         1.44769539E-04
   54.3504982         1.58787312E-04
   54.5309982         1.73250708E-04
   54.7114983         1.88146121E-04
   54.8919983         2.03453688E-04
   55.0724983         2.19147187E-04
   55.2529984         2.35194151E-04
   55.4334984         2.51555961E-04
   55.6139984         2.68188131E-04
   55.7944984         2.85040645E-04
   55.9749985         3.02058324E-04
   56.1554985         3.19181418E-04
   56.3359985         3.36346158E-04
   56.5164986         3.53485404E-04
   56.6969986         3.70529335E-04
   56.8774986         3.87406180E-04
   57.0579987         4.04042949E-04
   57.2384987         4.20366210E-04
   57.4189987         4.36302886E-04
   57.5994987         4.51780710E-04
   57.7799988         4.66729281E-04
   57.9604988         4.81080584E-04
   58.1409988         4.94769542E-04
   58.3214989         5.07734716E-04
   58.5019989         5.19918685E-04
   58.6824989         5.31268655E-04
   58.8629990         5.41736837E-04
   59.0434990         5.51280507E-04
   59.2239990         5.59862703E-04
   59.4044991         5.67451993E-04
   59.5849991         5.74022764E-04
   59.7654991         5.79555344E-04
   59.9459991         5.84035704E-04
   60.1264992         5.87455637E-04
   60.3069992         5.89812465E-04
   60.4874992         5.91109041E-04
   60.6679993         5.91353397E-04
   60.8484993         5.90558455E-04
   61.0289993         5.88742085E-04
   61.2094994         5.85926638E-04
   61.3899994         5.82138542E-04
   61.5704994         5.77408238E-04
   61.7509995         5.71769837E-04
   61.9314995         5.65260532E-04
   62.1119995         5.57920663E-04
   62.2924995         5.49793011E-04
   62.4729996         5.40922687E-04
   62.6534996         5.31356724E-04
   62.8339996         5.21143724E-04
   63.0144997         5.10333630E-04
   63.1949997         4.98977257E-04
   63.3754997         4.87126468E-04
   63.5559998         4.74833476E-04
   63.7364998         4.62150929E-04
   63.9169998         4.49131738E-04
   64.0975037         4.35828901E-04
   64.2779999         4.22295445E-04
   64.4585037         4.08584223E-04
   64.6389999         3.94748087E-04
   64.8195038         3.80839425E-04
   65.0000000         3.66910390E-04
   65.1804962         3.53012612E-04
   65.3610001         3.39197286E-04
   65.5414963         3.25514819E-04
   65.7220001         3.12014861E-04
   65.9024963         2.98746134E-04
   66.0830002         2.85756279E-04
   66.2634964         2.73091631E-04
   66.4440002         2.60797038E-04
   66.6244965         2.48915778E-04
   66.8050003         2.37489148E-04
   66.9854965         2.26556294E-04
   67.1660004         2.16153829E-04
   67.3464966         2.06315613E-04
   67.5270004         1.97072251E-04
   67.7074966         1.88450780E-04
   67.8880005         1.80474206E-04
   68.0684967         1.73161083E-04
   68.2490005         1.66525031E-04
   68.4294968         1.60574360E-04
   68.6100006         1.55311733E-04
   68.7904968         1.50733904E-04
   68.9710007         1.46831240E-04
   69.1514969         1.43587822E-04
   69.3320007         1.40981225E-04
   69.5124969         1.38982534E-04
   69.6930008         1.37556621E-04
   69.8734970         1.36662245E-04
   70.0540009         1.36252391E-04
   70.2344971         1.36274830E-04
   70.4150009         1.36672592E-04
   70.5954971         1.37384544E-04
   70.7760010         1.38346266E-04
   70.9564972         1.39490759E-04
   71.1370010         1.40749340E-04
   71.3174973         1.42052508E-04
   71.4980011         1.43331024E-04
   71.6784973         1.44516758E-04
   71.8590012         1.45543745E-04
   72.0394974         1.46349063E-04
   72.2200012         1.46873790E-04
   72.4004974         1.47063736E-04
   72.5810013         1.46870312E-04
   72.7614975         1.46251012E-04
   72.9420013         1.45170081E-04
   73.1224976         1.43598809E-04
   73.3030014         1.41515848E-04
   73.4834976         1.38907388E-04
   73.6640015         1.35767041E-04
   73.8444977         1.32095840E-04
   74.0250015         1.27901920E-04
   74.2054977         1.23200167E-04
   74.3860016         1.18011689E-04
   74.5664978         1.12363290E-04
   74.7470016         1.06286723E-04
   74.9274979         9.98179166E-05
   75.1080017         9.29961752E-05
   75.2884979         8.58632629E-05
   75.4690018         7.84625372E-05
   75.6494980         7.08380321E-05
   75.8300018         6.30335708E-05
   76.0104980         5.50919904E-05
   76.1910019         4.70543273E-05
   76.3714981         3.89592678E-05
   76.5520020         3.08425333E-05
   76.7324982         2.27365272E-05
   76.9130020         1.46699495E-05
   77.0934982         6.66778124E-06
   77.2740021        -1.24895018E-06
   77.4544983        -9.06293371E-06
   77.6350021        -1.67605376E-05
   77.8154984        -2.43315608E-05
   77.9960022        -3.17688791E-05
   78.1764984        -3.90681089E-05
   78.3570023        -4.62271964E-05
   78.5374985        -5.32459599E-05
   78.7180023        -6.01256288E-05
   78.8984985        -6.68683570E-05
   79.0790024        -7.34766727E-05
   79.2594986        -7.99531335E-05
   79.4400024        -8.62997331E-05
   79.6204987        -9.25176064E-05
   79.8010025        -9.86066079E-05
   79.9814987        -1.04565086E-04
   80.1620026        -1.10389628E-04
   80.3424988        -1.16075091E-04
   80.5230026        -1.21614430E-04
   80.7034988        -1.26998973E-04
   80.8840027        -1.32218542E-04
   81.0644989        -1.37261683E-04
   81.2450027        -1.42116114E-04
   81.4254990        -1.46768987E-04
   81.6060028        -1.51207365E-04
   81.7864990        -1.55418616E-04
   81.9670029        -1.59390751E-04
   82.1474991        -1.63112825E-04
   82.3280029        -1.66575206E-04
   82.5084991        -1.69769788E-04
   82.6890030        -1.72690256E-04
   82.8694992        -1.75332025E-04
