  -7.19999981         1.01482331E-17
  -7.01949978        -1.93659099E-11
  -6.83900023        -5.58189571E-11
  -6.65850019        -1.00066185E-10
  -6.47800016        -1.38959344E-10
  -6.29750013        -1.59843722E-10
  -6.11700010        -1.54162239E-10
  -5.93650007        -1.18576718E-10
  -5.75600004        -5.29102456E-11
  -5.57550001         4.42847738E-11
  -5.39499998         1.80505694E-10
  -5.21449995         3.72176873E-10
  -5.03399992         6.44400588E-10
  -4.85349989         1.02816200E-09
  -4.67299986         1.55716517E-09
  -4.49249983         2.26690555E-09
  -4.31199980         3.19753912E-09
  -4.13149977         4.40012737E-09
  -3.95099998         5.94403016E-09
  -3.77049994         7.92265187E-09
  -3.58999991         1.04556452E-08
  -3.40949988         1.36875817E-08
  -3.22900009         1.77848438E-08
  -3.04850006         2.29332056E-08
  -2.86800003         2.93378957E-08
  -2.68750000         3.72264104E-08
  -2.50699997         4.68527830E-08
  -2.32649994         5.85011222E-08
  -2.14599991         7.24863867E-08
  -1.96550000         8.91513423E-08
  -1.78499997         1.08859801E-07
  -1.60450006         1.31987377E-07
  -1.42400002         1.58911575E-07
  -1.24349999         1.90002623E-07
  -1.06299996         2.25615779E-07
 -0.882499993         2.66085124E-07
 -0.702000022         3.11716775E-07
 -0.521499991         3.62780753E-07
 -0.340999991         4.19499401E-07
 -0.160500005         4.82033442E-07
   1.99999996E-02     5.50467121E-07
  0.200499997         6.24795234E-07
  0.381000012         7.04915465E-07
  0.561500013         7.90625620E-07
  0.741999984         8.81625965E-07
  0.922500014         9.77523882E-07
   1.10300004         1.07783887E-06
   1.28349996         1.18200637E-06
   1.46399999         1.28938166E-06
   1.64450002         1.39924521E-06
   1.82500005         1.51081372E-06
   2.00550008         1.62325421E-06
   2.18600011         1.73570390E-06
   2.36649990         1.84729095E-06
   2.54699993         1.95715552E-06
   2.72749996         2.06446680E-06
   2.90799999         2.16843659E-06
   3.08850002         2.26832890E-06
   3.26900005         2.36346796E-06
   3.44950008         2.45324486E-06
   3.63000011         2.53712483E-06
   3.81049991         2.61465334E-06
   3.99099994         2.68546182E-06
   4.17150021         2.74926924E-06
   4.35200024         2.80587892E-06
   4.53249979         2.85517308E-06
   4.71299982         2.89710238E-06
   4.89349985         2.93167363E-06
   5.07399988         2.95894324E-06
   5.25449991         2.97901056E-06
   5.43499994         2.99201656E-06
   5.61549997         2.99814451E-06
   5.79600000         2.99761700E-06
   5.97650003         2.99069188E-06
   6.15700006         2.97765405E-06
   6.33750010         2.95880636E-06
   6.51800013         2.93446146E-06
   6.69850016         2.90493745E-06
   6.87900019         2.87055764E-06
   7.05950022         2.83165355E-06
   7.23999977         2.78856578E-06
   7.42049980         2.74164540E-06
   7.60099983         2.69124757E-06
   7.78149986         2.63772677E-06
   7.96199989         2.58143109E-06
   8.14249992         2.52269615E-06
   8.32299995         2.46184322E-06
   8.50349998         2.39918268E-06
   8.68400002         2.33501373E-06
   8.86450005         2.26963061E-06
   9.04500008         2.20332458E-06
   9.22550011         2.13638577E-06
   9.40600014         2.06910295E-06
   9.58650017         2.00176441E-06
   9.76700020         1.93465826E-06
   9.94750023         1.86807836E-06
   10.1280003         1.80233212E-06
   10.3085003         1.73775231E-06
   10.4890003         1.67470500E-06
   10.6695004         1.61359628E-06
   10.8500004         1.55487339E-06
   11.0305004         1.49901973E-06
   11.2110004         1.44655178E-06
   11.3915005         1.39801546E-06
   11.5719995         1.35398409E-06
   11.7524996         1.31505794E-06
   11.9329996         1.28186343E-06
   12.1134996         1.25504687E-06
   12.2939997         1.23525979E-06
   12.4744997         1.22314009E-06
   12.6549997         1.21928474E-06
   12.8354998         1.22422387E-06
   13.0159998         1.23839595E-06
   13.1964998         1.26212433E-06
   13.3769999         1.29559646E-06
   13.5574999         1.33884691E-06
   13.7379999         1.39174062E-06
   13.9184999         1.45395666E-06
   14.0990000         1.52497694E-06
   14.2795000         1.60408172E-06
   14.4600000         1.69034934E-06
   14.6405001         1.78267044E-06
   14.8210001         1.87976786E-06
   15.0015001         1.98023031E-06
   15.1820002         2.08254892E-06
   15.3625002         2.18516288E-06
   15.5430002         2.28650038E-06
   15.7235003         2.38501889E-06
   15.9040003         2.47925277E-06
   16.0844994         2.56785438E-06
   16.2649994         2.64964297E-06
   16.4454994         2.72365060E-06
   16.6259995         2.78916923E-06
   16.8064995         2.84578732E-06
   16.9869995         2.89341688E-06
   17.1674995         2.93230573E-06
   17.3479996         2.96303506E-06
   17.5284996         2.98650980E-06
   17.7089996         3.00393253E-06
   17.8894997         3.01677051E-06
   18.0699997         3.02671856E-06
   18.2504997         3.03564366E-06
   18.4309998         3.04552577E-06
   18.6114998         3.05838739E-06
   18.7919998         3.07621076E-06
   18.9724998         3.10086216E-06
   19.1529999         3.13400960E-06
   19.3334999         3.17705940E-06
   19.5139999         3.23109953E-06
   19.6945000         3.29686532E-06
   19.8750000         3.37471056E-06
   20.0555000         3.46460229E-06
   20.2360001         3.56612577E-06
   20.4165001         3.67849952E-06
   20.5970001         3.80060646E-06
   20.7775002         3.93103119E-06
   20.9580002         4.06811478E-06
   21.1385002         4.21001096E-06
   21.3190002         4.35476113E-06
   21.4995003         4.50036259E-06
   21.6800003         4.64483128E-06
   21.8605003         4.78626453E-06
   22.0410004         4.92288791E-06
   22.2215004         5.05309436E-06
   22.4020004         5.17547869E-06
   22.5825005         5.28886585E-06
   22.7630005         5.39233270E-06
   22.9435005         5.48521984E-06
   23.1240005         5.56713803E-06
   23.3045006         5.63795902E-06
   23.4850006         5.69779377E-06
   23.6655006         5.74696833E-06
   23.8460007         5.78598519E-06
   24.0265007         5.81549011E-06
   24.2070007         5.83623478E-06
   24.3875008         5.84904774E-06
   24.5680008         5.85480802E-06
   24.7485008         5.85442240E-06
   24.9290009         5.84880945E-06
   25.1095009         5.83888141E-06
   25.2900009         5.82552730E-06
   25.4705009         5.80960113E-06
   25.6509991         5.79192283E-06
   25.8314991         5.77326273E-06
   26.0119991         5.75435661E-06
   26.1924992         5.73590341E-06
   26.3729992         5.71856572E-06
   26.5534992         5.70296515E-06
   26.7339993         5.68966243E-06
   26.9144993         5.67913730E-06
   27.0949993         5.67176176E-06
   27.2754993         5.66776134E-06
   27.4559994         5.66719382E-06
   27.6364994         5.66992048E-06
   27.8169994         5.67557709E-06
   27.9974995         5.68354108E-06
   28.1779995         5.69290432E-06
   28.3584995         5.70243719E-06
   28.5389996         5.71055534E-06
   28.7194996         5.71530154E-06
   28.8999996         5.71434975E-06
   29.0804996         5.70501425E-06
   29.2609997         5.68427276E-06
   29.4414997         5.64882203E-06
   29.6219997         5.59513865E-06
   29.8024998         5.51954281E-06
   29.9829998         5.41828786E-06
   30.1634998         5.28763621E-06
   30.3439999         5.12395582E-06
   30.5244999         4.92382560E-06
   30.7049999         4.68413600E-06
   30.8855000         4.40217855E-06
   31.0660000         4.07575862E-06
   31.2465000         3.70326165E-06
   31.4270000         3.28371630E-06
   31.6075001         2.81683742E-06
   31.7880001         2.30302862E-06
   31.9685001         1.74338106E-06
   32.1489983         1.13963802E-06
   32.3294983         4.94149901E-07
   32.5099983        -1.90185801E-07
   32.6904984        -9.10035396E-07
   32.8709984        -1.66171606E-06
   33.0514984        -2.44136231E-06
   33.2319984        -3.24504276E-06
   33.4124985        -4.06890831E-06
   33.5929985        -4.90930825E-06
   33.7734985        -5.76289494E-06
   33.9539986        -6.62668708E-06
   34.1344986        -7.49812716E-06
   34.3149986        -8.37507105E-06
   34.4954987        -9.25576296E-06
   34.6759987        -1.01388005E-05
   34.8564987        -1.10230239E-05
   35.0369987        -1.19074102E-05
   35.2174988        -1.27909170E-05
   35.3979988        -1.36723011E-05
   35.5784988        -1.45499680E-05
   35.7589989        -1.54217341E-05
   35.9394989        -1.62846754E-05
   36.1199989        -1.71349602E-05
   36.3004990        -1.79677227E-05
   36.4809990        -1.87769638E-05
   36.6614990        -1.95555203E-05
   36.8419991        -2.02950032E-05
   37.0224991        -2.09858717E-05
   37.2029991        -2.16174594E-05
   37.3834991        -2.21781156E-05
   37.5639992        -2.26553620E-05
   37.7444992        -2.30360674E-05
   37.9249992        -2.33067258E-05
   38.1054993        -2.34536601E-05
   38.2859993        -2.34633135E-05
   38.4664993        -2.33224946E-05
   38.6469994        -2.30186361E-05
   38.8274994        -2.25400345E-05
   39.0079994        -2.18760724E-05
   39.1884995        -2.10174221E-05
   39.3689995        -1.99561600E-05
   39.5494995        -1.86859543E-05
   39.7299995        -1.72021082E-05
   39.9104996        -1.55016041E-05
   40.0909996        -1.35831324E-05
   40.2714996        -1.14470158E-05
   40.4519997        -9.09514620E-06
   40.6324997        -6.53088910E-06
   40.8129997        -3.75896002E-06
   40.9934998        -7.85295754E-07
   41.1739998         2.38303437E-06
   41.3544998         5.73801981E-06
   41.5349998         9.27085512E-06
   41.7154999         1.29720256E-05
   41.8959999         1.68314909E-05
   42.0764999         2.08388155E-05
   42.2570000         2.49832865E-05
   42.4375000         2.92540481E-05
   42.6180000         3.36401681E-05
   42.7985001         3.81308164E-05
   42.9790001         4.27152809E-05
   43.1595001         4.73831460E-05
   43.3400002         5.21243819E-05
   43.5205002         5.69293697E-05
   43.7010002         6.17890910E-05
   43.8815002         6.66951382E-05
   44.0620003         7.16397990E-05
   44.2425003         7.66161320E-05
   44.4230003         8.16180618E-05
   44.6035004         8.66403861E-05
   44.7840004         9.16788122E-05
   44.9645004         9.67300148E-05
   45.1450005         1.01791593E-04
   45.3255005         1.06862019E-04
   45.5060005         1.11940622E-04
   45.6865005         1.17027579E-04
   45.8670006         1.22123733E-04
   46.0475006         1.27230451E-04
   46.2280006         1.32349494E-04
   46.4085007         1.37482799E-04
   46.5890007         1.42632285E-04
   46.7695007         1.47799510E-04
   46.9500008         1.52985551E-04
   47.1305008         1.58190611E-04
   47.3110008         1.63413890E-04
   47.4915009         1.68653161E-04
   47.6720009         1.73904569E-04
   47.8525009         1.79162336E-04
   48.0330009         1.84418575E-04
   48.2135010         1.89663071E-04
   48.3940010         1.94883105E-04
   48.5745010         2.00063470E-04
   48.7550011         2.05186356E-04
   48.9355011         2.10231374E-04
   49.1160011         2.15175722E-04
   49.2965012         2.19994370E-04
   49.4770012         2.24660209E-04
   49.6575012         2.29144513E-04
   49.8380013         2.33417202E-04
   50.0185013         2.37447297E-04
   50.1990013         2.41203365E-04
   50.3795013         2.44654075E-04
   50.5600014         2.47768650E-04
   50.7405014         2.50517303E-04
   50.9210014         2.52871978E-04
   51.1015015         2.54806626E-04
   51.2820015         2.56297586E-04
   51.4625015         2.57324049E-04
   51.6430016         2.57868378E-04
   51.8235016         2.57916254E-04
   52.0040016         2.57456995E-04
   52.1845016         2.56483618E-04
   52.3650017         2.54992832E-04
   52.5455017         2.52985075E-04
   52.7260017         2.50464102E-04
   52.9065018         2.47437129E-04
   53.0870018         2.43914401E-04
   53.2675018         2.39908768E-04
   53.4480019         2.35435509E-04
   53.6285019         2.30511898E-04
   53.8089981         2.25156749E-04
   53.9894981         2.19390160E-04
   54.1699982         2.13232983E-04
   54.3504982         2.06706492E-04
   54.5309982         1.99832037E-04
   54.7114983         1.92630949E-04
   54.8919983         1.85124110E-04
   55.0724983         1.77332011E-04
   55.2529984         1.69274455E-04
   55.4334984         1.60970740E-04
   55.6139984         1.52439563E-04
   55.7944984         1.43699188E-04
   55.9749985         1.34767630E-04
   56.1554985         1.25662875E-04
   56.3359985         1.16403076E-04
   56.5164986         1.07006876E-04
   56.6969986         9.74935901E-05
   56.8774986         8.78834398E-05
   57.0579987         7.81979179E-05
   57.2384987         6.84599872E-05
   57.4189987         5.86940914E-05
   57.5994987         4.89264930E-05
   57.7799988         3.91851063E-05
   57.9604988         2.94994843E-05
   58.1409988         1.99006608E-05
   58.3214989         1.04209066E-05
   58.5019989         1.09356779E-06
   58.6824989        -8.04751835E-06
   58.8629990        -1.69682280E-05
   59.0434990        -2.56349813E-05
   59.2239990        -3.40151819E-05
   59.4044991        -4.20778997E-05
   59.5849991        -4.97944129E-05
   59.7654991        -5.71389428E-05
   59.9459991        -6.40892031E-05
   60.1264992        -7.06270803E-05
   60.3069992        -7.67390229E-05
   60.4874992        -8.24167000E-05
   60.6679993        -8.76572885E-05
   60.8484993        -9.24638443E-05
   61.0289993        -9.68454333E-05
   61.2094994        -1.00817342E-04
   61.3899994        -1.04400839E-04
   61.5704994        -1.07623157E-04
   61.7509995        -1.10517096E-04
   61.9314995        -1.13120768E-04
   62.1119995        -1.15477036E-04
   62.2924995        -1.17633033E-04
   62.4729996        -1.19639459E-04
   62.6534996        -1.21549892E-04
   62.8339996        -1.23419944E-04
   63.0144997        -1.25306629E-04
   63.1949997        -1.27267267E-04
   63.3754997        -1.29358887E-04
   63.5559998        -1.31637295E-04
   63.7364998        -1.34156217E-04
   63.9169998        -1.36966599E-04
   64.0975037        -1.40115793E-04
   64.2779999        -1.43646990E-04
   64.4585037        -1.47598417E-04
   64.6389999        -1.52002860E-04
   64.8195038        -1.56886992E-04
   65.0000000        -1.62271055E-04
   65.1804962        -1.68168524E-04
   65.3610001        -1.74585788E-04
   65.5414963        -1.81522089E-04
   65.7220001        -1.88969410E-04
   65.9024963        -1.96912544E-04
   66.0830002        -2.05329314E-04
   66.2634964        -2.14190746E-04
   66.4440002        -2.23461349E-04
   66.6244965        -2.33099767E-04
   66.8050003        -2.43059301E-04
   66.9854965        -2.53288454E-04
   67.1660004        -2.63731752E-04
   67.3464966        -2.74330640E-04
   67.5270004        -2.85024231E-04
   67.7074966        -2.95750127E-04
   67.8880005        -3.06445349E-04
   68.0684967        -3.17047263E-04
   68.2490005        -3.27494316E-04
   68.4294968        -3.37726960E-04
   68.6100006        -3.47688328E-04
   68.7904968        -3.57325072E-04
   68.9710007        -3.66588094E-04
   69.1514969        -3.75432923E-04
   69.3320007        -3.83820268E-04
   69.5124969        -3.91716225E-04
   69.6930008        -3.99092591E-04
   69.8734970        -4.05926694E-04
   70.0540009        -4.12201422E-04
   70.2344971        -4.17905248E-04
   70.4150009        -4.23031859E-04
   70.5954971        -4.27579798E-04
   70.7760010        -4.31552151E-04
   70.9564972        -4.34955902E-04
   71.1370010        -4.37801442E-04
   71.3174973        -4.40101954E-04
   71.4980011        -4.41872777E-04
   71.6784973        -4.43130848E-04
   71.8590012        -4.43894212E-04
   72.0394974        -4.44181467E-04
   72.2200012        -4.44011413E-04
   72.4004974        -4.43402532E-04
   72.5810013        -4.42372781E-04
   72.7614975        -4.40939184E-04
   72.9420013        -4.39117750E-04
   73.1224976        -4.36923350E-04
   73.3030014        -4.34369809E-04
   73.4834976        -4.31470049E-04
   73.6640015        -4.28236264E-04
   73.8444977        -4.24680446E-04
   74.0250015        -4.20814322E-04
   74.2054977        -4.16649913E-04
   74.3860016        -4.12199704E-04
   74.5664978        -4.07476968E-04
   74.7470016        -4.02496022E-04
   74.9274979        -3.97272554E-04
   75.1080017        -3.91823676E-04
   75.2884979        -3.86168220E-04
   75.4690018        -3.80326528E-04
   75.6494980        -3.74320603E-04
   75.8300018        -3.68173671E-04
   76.0104980        -3.61910003E-04
   76.1910019        -3.55554541E-04
   76.3714981        -3.49132461E-04
   76.5520020        -3.42668762E-04
   76.7324982        -3.36187833E-04
   76.9130020        -3.29712901E-04
   77.0934982        -3.23265442E-04
   77.2740021        -3.16864782E-04
   77.4544983        -3.10527452E-04
   77.6350021        -3.04266898E-04
   77.8154984        -2.98092986E-04
   77.9960022        -2.92011740E-04
   78.1764984        -2.86025228E-04
   78.3570023        -2.80131469E-04
   78.5374985        -2.74324499E-04
   78.7180023        -2.68594420E-04
   78.8984985        -2.62927846E-04
   79.0790024        -2.57307984E-04
   79.2594986        -2.51715188E-04
   79.4400024        -2.46127485E-04
   79.6204987        -2.40521142E-04
   79.8010025        -2.34871288E-04
   79.9814987        -2.29152763E-04
   80.1620026        -2.23340830E-04
   80.3424988        -2.17411885E-04
   80.5230026        -2.11344246E-04
   80.7034988        -2.05118733E-04
   80.8840027        -1.98719237E-04
   81.0644989        -1.92133375E-04
   81.2450027        -1.85352983E-04
   81.4254990        -1.78374496E-04
   81.6060028        -1.71199339E-04
   81.7864990        -1.63834135E-04
   81.9670029        -1.56290625E-04
   82.1474991        -1.48585750E-04
   82.3280029        -1.40741424E-04
   82.5084991        -1.32784189E-04
   82.6890030        -1.24744955E-04
   82.8694992        -1.16658535E-04
