  -7.19999981         0.00000000    
  -7.01999998        -1.92587751E-11
  -6.84000015        -5.55394931E-11
  -6.65999985        -9.96582122E-11
  -6.48000002        -1.38587836E-10
  -6.30000019        -1.59745120E-10
  -6.11999989        -1.54565000E-10
  -5.94000006        -1.19650692E-10
  -5.76000023        -5.47966221E-11
  -5.57999992         4.13517103E-11
  -5.40000010         1.76030301E-10
  -5.21999979         3.65266151E-10
  -5.03999996         6.33723629E-10
  -4.86000013         1.01200293E-09
  -4.67999983         1.53348723E-09
  -4.50000000         2.23330687E-09
  -4.32000017         3.15101101E-09
  -4.13999987         4.33661418E-09
  -3.96000004         5.85790305E-09
  -3.77999997         7.80623655E-09
  -3.59999990         1.02989217E-08
  -3.42000008         1.34780640E-08
  -3.24000001         1.75075368E-08
  -3.05999994         2.25704841E-08
  -2.88000011         2.88691986E-08
  -2.70000005         3.66277391E-08
  -2.51999998         4.60960976E-08
  -2.33999991         5.75538373E-08
  -2.16000009         7.13110850E-08
  -1.98000002         8.77058213E-08
  -1.79999995         1.07097506E-07
  -1.62000000         1.29858080E-07
  -1.44000006         1.56362148E-07
  -1.25999999         1.86977829E-07
  -1.08000004         2.22059114E-07
 -0.899999976         2.61939419E-07
 -0.720000029         3.06925330E-07
 -0.540000021         3.57288542E-07
 -0.360000014         4.13254867E-07
 -0.180000007         4.74990742E-07
   0.00000000         5.42588452E-07
  0.180000007         6.16053114E-07
  0.360000014         6.95294318E-07
  0.540000021         7.80122889E-07
  0.720000029         8.70252450E-07
  0.899999976         9.65304594E-07
   1.08000004         1.06481343E-06
   1.25999999         1.16822912E-06
   1.44000006         1.27492206E-06
   1.62000000         1.38418829E-06
   1.79999995         1.49525852E-06
   1.98000002         1.60731202E-06
   2.16000009         1.71949648E-06
   2.33999991         1.83094733E-06
   2.51999998         1.94080894E-06
   2.70000005         2.04825187E-06
   2.88000011         2.15248724E-06
   3.05999994         2.25277654E-06
   3.24000001         2.34843969E-06
   3.42000008         2.43886211E-06
   3.59999990         2.52350128E-06
   3.77999997         2.60189267E-06
   3.96000004         2.67365635E-06
   4.13999987         2.73849855E-06
   4.32000017         2.79621099E-06
   4.50000000         2.84666294E-06
   4.67999983         2.88979390E-06
   4.86000013         2.92560230E-06
   5.03999996         2.95413452E-06
   5.21999979         2.97548240E-06
   5.40000010         2.98977852E-06
   5.57999992         2.99719613E-06
   5.76000023         2.99794874E-06
   5.94000006         2.99228554E-06
   6.11999989         2.98048440E-06
   6.30000019         2.96284179E-06
   6.48000002         2.93966673E-06
   6.65999985         2.91127435E-06
   6.84000015         2.87798480E-06
   7.01999998         2.84012503E-06
   7.19999981         2.79803135E-06
   7.38000011         2.75204934E-06
   7.55999994         2.70252917E-06
   7.73999977         2.64982418E-06
   7.92000008         2.59428089E-06
   8.10000038         2.53623602E-06
   8.27999973         2.47601201E-06
   8.46000004         2.41391967E-06
   8.64000034         2.35025800E-06
   8.81999969         2.28532099E-06
   9.00000000         2.21939717E-06
   9.18000031         2.15277373E-06
   9.35999966         2.08573647E-06
   9.53999996         2.01857142E-06
   9.72000027         1.95156463E-06
   9.89999962         1.88500633E-06
   10.0799999         1.81919802E-06
   10.2600002         1.75446269E-06
   10.4399996         1.69115390E-06
   10.6199999         1.62966296E-06
   10.8000002         1.57042052E-06
   10.9799995         1.51389634E-06
   11.1599998         1.46059381E-06
   11.3400002         1.41104681E-06
   11.5200005         1.36581673E-06
   11.6999998         1.32549292E-06
   11.8800001         1.29068997E-06
   12.0600004         1.26204407E-06
   12.2399998         1.24020016E-06
   12.4200001         1.22579593E-06
   12.6000004         1.21943742E-06
   12.7799997         1.22167307E-06
   12.9600000         1.23296900E-06
   13.1400003         1.25368422E-06
   13.3199997         1.28405054E-06
   13.5000000         1.32415141E-06
   13.6800003         1.37390691E-06
   13.8599997         1.43305761E-06
   14.0400000         1.50115272E-06
   14.2200003         1.57754289E-06
   14.3999996         1.66137863E-06
   14.5799999         1.75161983E-06
   14.7600002         1.84705436E-06
   14.9399996         1.94632457E-06
   15.1199999         2.04796220E-06
   15.3000002         2.15043110E-06
   15.4799995         2.25216900E-06
   15.6599998         2.35162838E-06
   15.8400002         2.44732360E-06
   16.0200005         2.53787198E-06
   16.2000008         2.62203866E-06
   16.3799992         2.69878433E-06
   16.5599995         2.76730952E-06
   16.7399998         2.82709357E-06
   16.9200001         2.87792727E-06
   17.1000004         2.91992933E-06
   17.2800007         2.95355198E-06
   17.4599991         2.97957445E-06
   17.6399994         2.99907947E-06
   17.8199997         3.01342811E-06
   18.0000000         3.02422086E-06
   18.1800003         3.03325101E-06
   18.3600006         3.04244577E-06
   18.5400009         3.05380127E-06
   18.7199993         3.06930451E-06
   18.8999996         3.09086022E-06
   19.0799999         3.12021007E-06
   19.2600002         3.15886109E-06
   19.4400005         3.20802837E-06
   19.6200008         3.26859004E-06
   19.7999992         3.34105471E-06
   19.9799995         3.42554858E-06
   20.1599998         3.52181496E-06
   20.3400002         3.62922719E-06
   20.5200005         3.74681190E-06
   20.7000008         3.87328510E-06
   20.8799992         4.00709996E-06
   21.0599995         4.14650094E-06
   21.2399998         4.28958765E-06
   21.4200001         4.43438648E-06
   21.6000004         4.57891247E-06
   21.7800007         4.72123475E-06
   21.9599991         4.85953024E-06
   22.1399994         4.99212410E-06
   22.3199997         5.11753160E-06
   22.5000000         5.23448398E-06
   22.6800003         5.34195215E-06
   22.8600006         5.43916576E-06
   23.0400009         5.52561733E-06
   23.2199993         5.60106309E-06
   23.3999996         5.66550443E-06
   23.5799999         5.71916871E-06
   23.7600002         5.76247749E-06
   23.9400005         5.79600828E-06
   24.1200008         5.82046459E-06
   24.2999992         5.83663859E-06
   24.4799995         5.84538611E-06
   24.6599998         5.84760073E-06
   24.8400002         5.84419104E-06
   25.0200005         5.83606788E-06
   25.2000008         5.82412076E-06
   25.3799992         5.80921596E-06
   25.5599995         5.79218295E-06
   25.7399998         5.77381388E-06
   25.9200001         5.75486274E-06
   26.1000004         5.73604302E-06
   26.2800007         5.71802684E-06
   26.4599991         5.70145403E-06
   26.6399994         5.68690848E-06
   26.8199997         5.67490815E-06
   27.0000000         5.66587414E-06
   27.1800003         5.66010795E-06
   27.3600006         5.65775736E-06
   27.5400009         5.65879418E-06
   27.7199993         5.66297922E-06
   27.8999996         5.66983681E-06
   28.0799999         5.67861798E-06
   28.2600002         5.68827409E-06
   28.4400005         5.69741860E-06
   28.6200008         5.70430757E-06
   28.7999992         5.70683596E-06
   28.9799995         5.70252996E-06
   29.1599998         5.68857877E-06
   29.3400002         5.66185918E-06
   29.5200005         5.61899014E-06
   29.7000008         5.55639235E-06
   29.8799992         5.47037735E-06
   30.0599995         5.35720801E-06
   30.2399998         5.21320999E-06
   30.4200001         5.03485489E-06
   30.6000004         4.81887173E-06
   30.7800007         4.56233693E-06
   30.9599991         4.26277211E-06
   31.1399994         3.91823096E-06
   31.3199997         3.52736743E-06
   31.5000000         3.08948665E-06
   31.6800003         2.60457500E-06
   31.8600006         2.07331641E-06
   32.0400009         1.49705340E-06
   32.2200012         8.77775960E-07
   32.4000015         2.18056655E-07
   32.5800018        -4.79049277E-07
   32.7599983        -1.21008259E-06
   32.9399986        -1.97131635E-06
   33.1199989        -2.75886487E-06
   33.2999992        -3.56884198E-06
   33.4799995        -4.39748283E-06
   33.6599998        -5.24125608E-06
   33.8400002        -6.09695144E-06
   34.0200005        -6.96175948E-06
   34.2000008        -7.83327414E-06
   34.3800011        -8.70951590E-06
   34.5600014        -9.58886812E-06
   34.7400017        -1.04700321E-05
   34.9199982        -1.13519254E-05
   35.0999985        -1.22335423E-05
   35.2799988        -1.31137795E-05
   35.4599991        -1.39913027E-05
   35.6399994        -1.48643267E-05
   35.8199997        -1.57304567E-05
   36.0000000        -1.65865022E-05
   36.1800003        -1.74283468E-05
   36.3600006        -1.82507974E-05
   36.5400009        -1.90475330E-05
   36.7200012        -1.98110520E-05
   36.9000015        -2.05326542E-05
   37.0800018        -2.12025006E-05
   37.2599983        -2.18096939E-05
   37.4399986        -2.23424013E-05
   37.6199989        -2.27880500E-05
   37.7999992        -2.31334798E-05
   37.9799995        -2.33652081E-05
   38.1599998        -2.34697018E-05
   38.3400002        -2.34335839E-05
   38.5200005        -2.32439397E-05
   38.7000008        -2.28885656E-05
   38.8800011        -2.23561656E-05
   39.0600014        -2.16365734E-05
   39.2400017        -2.07209068E-05
   39.4199982        -1.96017609E-05
   39.5999985        -1.82733256E-05
   39.7799988        -1.67314211E-05
   39.9599991        -1.49735442E-05
   40.1399994        -1.29988393E-05
   40.3199997        -1.08080585E-05
   40.5000000        -8.40349367E-06
   40.6800003        -5.78886238E-06
   40.8600006        -2.96917756E-06
   41.0400009         4.93393060E-08
   41.2200012         3.25944575E-06
   41.4000015         6.65296102E-06
   41.5800018         1.02209351E-05
   41.7599983         1.39538051E-05
   41.9399986         1.78414975E-05
   42.1199989         2.18735950E-05
   42.2999992         2.60394318E-05
   42.4799995         3.03281904E-05
   42.6599998         3.47290443E-05
   42.8400002         3.92312322E-05
   43.0200005         4.38242532E-05
   43.2000008         4.84978482E-05
   43.3800011         5.32421182E-05
   43.5600014         5.80477063E-05
   43.7400017         6.29057467E-05
   43.9199982         6.78080833E-05
   44.0999985         7.27472507E-05
   44.2799988         7.77165260E-05
   44.4599991         8.27100448E-05
   44.6399994         8.77228595E-05
   44.8199997         9.27508954E-05
   45.0000000         9.77910458E-05
   45.1800003         1.02841092E-04
   45.3600006         1.07899745E-04
   45.5400009         1.12966518E-04
   45.7200012         1.18041702E-04
   45.9000015         1.23126214E-04
   46.0800018         1.28221494E-04
   46.2599983         1.33329348E-04
   46.4399986         1.38451651E-04
   46.6199989         1.43590296E-04
   46.7999992         1.48746840E-04
   46.9799995         1.53922185E-04
   47.1599998         1.59116418E-04
   47.3400002         1.64328478E-04
   47.5200005         1.69555919E-04
   47.7000008         1.74794579E-04
   47.8800011         1.80038449E-04
   48.0600014         1.85279336E-04
   48.2400017         1.90506791E-04
   48.4199982         1.95707849E-04
   48.5999985         2.00867071E-04
   48.7799988         2.05966368E-04
   48.9599991         2.10985163E-04
   49.1399994         2.15900538E-04
   49.3199997         2.20687289E-04
   49.5000000         2.25318392E-04
   49.6800003         2.29765152E-04
   49.8600006         2.33997562E-04
   50.0400009         2.37984874E-04
   50.2200012         2.41695889E-04
   50.4000015         2.45099538E-04
   50.5800018         2.48165394E-04
   50.7599983         2.50864046E-04
   50.9399986         2.53167877E-04
   51.1199989         2.55051214E-04
   51.2999992         2.56490923E-04
   51.4799995         2.57466687E-04
   51.6599998         2.57961306E-04
   51.8400002         2.57960928E-04
   52.0200005         2.57455307E-04
   52.2000008         2.56437808E-04
   52.3800011         2.54905433E-04
   52.5600014         2.52858881E-04
   52.7400017         2.50302197E-04
   52.9199982         2.47242802E-04
   53.0999985         2.43691087E-04
   53.2799988         2.39659959E-04
   53.4599991         2.35164785E-04
   53.6399994         2.30222737E-04
   53.8199997         2.24852643E-04
   54.0000000         2.19074398E-04
   54.1800003         2.12908650E-04
   54.3600006         2.06376601E-04
   54.5400009         1.99499482E-04
   54.7200012         1.92298408E-04
   54.9000015         1.84794189E-04
   55.0800018         1.77006965E-04
   55.2599983         1.68956452E-04
   55.4399986         1.60661730E-04
   55.6199989         1.52141307E-04
   55.7999992         1.43413316E-04
   55.9799995         1.34495625E-04
   56.1599998         1.25406048E-04
   56.3400002         1.16162606E-04
   56.5200005         1.06783882E-04
   56.7000008         9.72890412E-05
   56.8800011         8.76982376E-05
   57.0600014         7.80326736E-05
   57.2400017         6.83150720E-05
   57.4199982         5.85697599E-05
   57.5999985         4.88226215E-05
   57.7799988         3.91014510E-05
   57.9599991         2.94355432E-05
   58.1399994         1.98557191E-05
   58.3199997         1.03941084E-05
   58.5000000         1.08365020E-06
   58.6800003        -8.04210140E-06
   58.8600006        -1.69494197E-05
   59.0400009        -2.56050207E-05
   59.2200012        -3.39765320E-05
   59.4000015        -4.20332181E-05
   59.5800018        -4.97464789E-05
   59.7599983        -5.70905650E-05
   59.9399986        -6.40432481E-05
   60.1199989        -7.05864149E-05
   60.2999992        -7.67065867E-05
   60.4799995        -8.23953742E-05
   60.6599998        -8.76497434E-05
   60.8400002        -9.24724372E-05
   61.0200005        -9.68721361E-05
   61.2000008        -1.00863515E-04
   61.3800011        -1.04467355E-04
   61.5600014        -1.07710235E-04
   61.7400017        -1.10624467E-04
   61.9199982        -1.13247588E-04
   62.0999985        -1.15621900E-04
   62.2799988        -1.17793912E-04
   62.4599991        -1.19813645E-04
   62.6399994        -1.21733967E-04
   62.8199997        -1.23609803E-04
   63.0000000        -1.25497478E-04
   63.1800003        -1.27453925E-04
   63.3600006        -1.29535721E-04
   63.5400009        -1.31798442E-04
   63.7200012        -1.34295595E-04
   63.9000015        -1.37077965E-04
   64.0800018        -1.40192904E-04
   64.2600021        -1.43683501E-04
   64.4400024        -1.47588114E-04
   64.6200027        -1.51939705E-04
   64.8000031        -1.56765440E-04
   64.9800034        -1.62086159E-04
   65.1600037        -1.67915976E-04
   65.3399963        -1.74262124E-04
   65.5199966        -1.81124618E-04
   65.6999969        -1.88496284E-04
   65.8799973        -1.96362860E-04
   66.0599976        -2.04703072E-04
   66.2399979        -2.13488922E-04
   66.4199982        -2.22686125E-04
   66.5999985        -2.32254446E-04
   66.7799988        -2.42148264E-04
   66.9599991        -2.52317172E-04
   67.1399994        -2.62706715E-04
   67.3199997        -2.73259153E-04
   67.5000000        -2.83914269E-04
   67.6800003        -2.94610276E-04
   67.8600006        -3.05284746E-04
   68.0400009        -3.15875368E-04
   68.2200012        -3.26320995E-04
   68.4000015        -3.36562167E-04
   68.5800018        -3.46542161E-04
   68.7600021        -3.56207427E-04
   68.9400024        -3.65508546E-04
   69.1200027        -3.74400493E-04
   69.3000031        -3.82843311E-04
   69.4800034        -3.90802423E-04
   69.6600037        -3.98248754E-04
   69.8399963        -4.05158848E-04
   70.0199966        -4.11514950E-04
   70.1999969        -4.17304575E-04
   70.3799973        -4.22520534E-04
   70.5599976        -4.27160470E-04
   70.7399979        -4.31226625E-04
   70.9199982        -4.34725080E-04
   71.0999985        -4.37665498E-04
   71.2799988        -4.40060452E-04
   71.4599991        -4.41924843E-04
   71.6399994        -4.43275261E-04
   71.8199997        -4.44129488E-04
   72.0000000        -4.44505975E-04
   72.1800003        -4.44423349E-04
   72.3600006        -4.43900033E-04
   72.5400009        -4.42953926E-04
   72.7200012        -4.41602169E-04
   72.9000015        -4.39860858E-04
   73.0800018        -4.37745068E-04
   73.2600021        -4.35268885E-04
   73.4400024        -4.32445377E-04
   73.6200027        -4.29286883E-04
   73.8000031        -4.25805250E-04
   73.9800034        -4.22012119E-04
   74.1600037        -4.17919247E-04
   74.3399963        -4.13538888E-04
   74.5199966        -4.08883934E-04
   74.6999969        -4.03968472E-04
   74.8799973        -3.98807722E-04
   75.0599976        -3.93418391E-04
   75.2399979        -3.87818640E-04
   75.4199982        -3.82028258E-04
   75.5999985        -3.76068492E-04
   75.7799988        -3.69962043E-04
   75.9599991        -3.63732717E-04
   76.1399994        -3.57405137E-04
   76.3199997        -3.51004390E-04
   76.5000000        -3.44555447E-04
   76.6800003        -3.38082784E-04
   76.8600006        -3.31609743E-04
   77.0400009        -3.25158209E-04
   77.2200012        -3.18747916E-04
   77.4000015        -3.12396121E-04
   77.5800018        -3.06117145E-04
   77.7600021        -2.99921870E-04
   77.9400024        -2.93817691E-04
   78.1200027        -2.87807925E-04
   78.3000031        -2.81891931E-04
   78.4800034        -2.76064995E-04
   78.6600037        -2.70318531E-04
   78.8399963        -2.64640228E-04
   79.0199966        -2.59014516E-04
   79.1999969        -2.53422797E-04
   79.3799973        -2.47844058E-04
   79.5599976        -2.42255323E-04
   79.7399979        -2.36632346E-04
   79.9199982        -2.30950260E-04
   80.0999985        -2.25184296E-04
   80.2799988        -2.19310532E-04
   80.4599991        -2.13306615E-04
   80.6399994        -2.07152552E-04
   80.8199997        -2.00831259E-04
   81.0000000        -1.94329143E-04
   81.1800003        -1.87636717E-04
   81.3600006        -1.80748830E-04
   81.5400009        -1.73665117E-04
   81.7200012        -1.66390135E-04
   81.9000015        -1.58933573E-04
   82.0800018        -1.51310276E-04
   82.2600021        -1.43540092E-04
   82.4400024        -1.35647730E-04
   82.6200027        -1.27662322E-04
   82.8000031        -1.19617056E-04
   82.9800034        -1.11548681E-04
   83.1600037        -1.03496903E-04
   83.3399963        -9.55039577E-05
   83.5199966        -8.76139820E-05
   83.6999969        -7.98723049E-05
   83.8799973        -7.23249323E-05
   84.0599976        -6.50178554E-05
   84.2399979        -5.79963344E-05
   84.4199982        -5.13043706E-05
   84.5999985        -4.49840081E-05
   84.7799988        -3.90748501E-05
   84.9599991        -3.36135163E-05
   85.1399994        -2.86332634E-05
   85.3199997        -2.41635462E-05
   85.5000000        -2.02297088E-05
   85.6800003        -1.68524421E-05
   85.8600006        -1.40476623E-05
   86.0400009        -1.18262824E-05
   86.2200012        -1.01941096E-05
   86.4000015        -9.15178862E-06
   86.5800018        -8.69479209E-06
   86.7600021        -8.81364940E-06
   86.9400024        -9.49405512E-06
   87.1200027        -1.07171272E-05
   87.3000031        -1.24595954E-05
   87.4800034        -1.46942029E-05
   87.6600037        -1.73901226E-05
   87.8399963        -2.05133310E-05
   88.0199966        -2.40271220E-05
   88.1999969        -2.78926582E-05
   88.3799973        -3.20696381E-05
   88.5599976        -3.65167798E-05
   88.7399979        -4.11925139E-05
   88.9199982        -4.60556330E-05
   89.0999985        -5.10658683E-05
   89.2799988        -5.61845227E-05
   89.4599991        -6.13750381E-05
   89.6399994        -6.66035630E-05
   89.8199997        -7.18394440E-05
   90.0000000        -7.70555926E-05
   90.1800003        -8.22287911E-05
   90.3600006        -8.73399040E-05
   90.5400009        -9.23737971E-05
   90.7200012        -9.73193164E-05
   90.9000015        -1.02169150E-04
   91.0800018        -1.06919448E-04
   91.2600021        -1.11569614E-04
   91.4400024        -1.16121693E-04
   91.6200027        -1.20580014E-04
   91.8000031        -1.24950573E-04
   91.9800034        -1.29240507E-04
   92.1600037        -1.33457594E-04
   92.3399963        -1.37609619E-04
   92.5199966        -1.41704004E-04
   92.6999969        -1.45747385E-04
   92.8799973        -1.49745218E-04
   93.0599976        -1.53701738E-04
   93.2399979        -1.57619783E-04
   93.4199982        -1.61500939E-04
   93.5999985        -1.65345511E-04
   93.7799988        -1.69152903E-04
   93.9599991        -1.72921616E-04
   94.1399994        -1.76649686E-04
   94.3199997        -1.80335104E-04
   94.5000000        -1.83976095E-04
   94.6800003        -1.87571495E-04
   94.8600006        -1.91121202E-04
   95.0400009        -1.94626467E-04
   95.2200012        -1.98090100E-04
   95.4000015        -2.01516581E-04
   95.5800018        -2.04912212E-04
   95.7600021        -2.08284997E-04
   95.9400024        -2.11644467E-04
   96.1200027        -2.15001623E-04
   96.3000031        -2.18368587E-04
   96.4800034        -2.21758251E-04
   96.6600037        -2.25183860E-04
   96.8399963        -2.28658377E-04
   97.0199966        -2.32194012E-04
   97.1999969        -2.35801446E-04
   97.3799973        -2.39489294E-04
   97.5599976        -2.43263450E-04
   97.7399979        -2.47126445E-04
   97.9199982        -2.51077086E-04
   98.0999985        -2.55109800E-04
   98.2799988        -2.59214488E-04
   98.4599991        -2.63376016E-04
   98.6399994        -2.67574331E-04
   98.8199997        -2.71784142E-04
   99.0000000        -2.75975355E-04
   99.1800003        -2.80113047E-04
   99.3600006        -2.84158275E-04
   99.5400009        -2.88068550E-04
   99.7200012        -2.91798584E-04
   99.9000015        -2.95301201E-04
   100.080002        -2.98528292E-04
   100.260002        -3.01431719E-04
   100.440002        -3.03964247E-04
   100.620003        -3.06080648E-04
