  -7.19999981         0.00000000    
  -7.01999998        -4.59220465E-12
  -6.84000015        -1.42329004E-11
  -6.65999985        -2.87388550E-11
  -6.48000002        -4.78104292E-11
  -6.30000019        -7.17289630E-11
  -6.11999989        -1.02067937E-10
  -5.94000006        -1.42351117E-10
  -5.76000023        -1.98658104E-10
  -5.57999992        -2.80145046E-10
  -5.40000010        -3.99350497E-10
  -5.21999979        -5.72105141E-10
  -5.03999996        -8.16964829E-10
  -4.86000013        -1.15432919E-09
  -4.67999983        -1.60566560E-09
  -4.50000000        -2.19335528E-09
  -4.32000017        -2.94152502E-09
  -4.13999987        -3.87788202E-09
  -3.96000004        -5.03622610E-09
  -3.77999997        -6.45912879E-09
  -3.59999990        -8.20033197E-09
  -3.42000008        -1.03266249E-08
  -3.24000001        -1.29191395E-08
  -3.05999994        -1.60740790E-08
  -2.88000011        -1.99028527E-08
  -2.70000005        -2.45315004E-08
  -2.51999998        -3.00993541E-08
  -2.33999991        -3.67569903E-08
  -2.16000009        -4.46637394E-08
  -1.98000002        -5.39850156E-08
  -1.79999995        -6.48897682E-08
  -1.62000000        -7.75480657E-08
  -1.44000006        -9.21286798E-08
  -1.25999999        -1.08796527E-07
  -1.08000004        -1.27709740E-07
 -0.899999976        -1.49016174E-07
 -0.720000029        -1.72849255E-07
 -0.540000021        -1.99323054E-07
 -0.360000014        -2.28526403E-07
 -0.180000007        -2.60516231E-07
   0.00000000        -2.95310400E-07
  0.180000007        -3.32880774E-07
  0.360000014        -3.73147628E-07
  0.540000021        -4.15975336E-07
  0.720000029        -4.61170998E-07
  0.899999976        -5.08484902E-07
   1.08000004        -5.57613760E-07
   1.25999999        -6.08205426E-07
   1.44000006        -6.59866487E-07
   1.62000000        -7.12170390E-07
   1.79999995        -7.64668528E-07
   1.98000002        -8.16900695E-07
   2.16000009        -8.68406971E-07
   2.33999991        -9.18738522E-07
   2.51999998        -9.67467827E-07
   2.70000005        -1.01419801E-06
   2.88000011        -1.05856975E-06
   3.05999994        -1.10026929E-06
   3.24000001        -1.13903252E-06
   3.42000008        -1.17465061E-06
   3.59999990        -1.20697325E-06
   3.77999997        -1.23590928E-06
   3.96000004        -1.26142788E-06
   4.13999987        -1.28355714E-06
   4.32000017        -1.30238118E-06
   4.50000000        -1.31803483E-06
   4.67999983        -1.33069727E-06
   4.86000013        -1.34058371E-06
   5.03999996        -1.34793663E-06
   5.21999979        -1.35301730E-06
   5.40000010        -1.35609662E-06
   5.57999992        -1.35744904E-06
   5.76000023        -1.35734717E-06
   5.94000006        -1.35605717E-06
   6.11999989        -1.35383686E-06
   6.30000019        -1.35093433E-06
   6.48000002        -1.34758818E-06
   6.65999985        -1.34402865E-06
   6.84000015        -1.34047821E-06
   7.01999998        -1.33715366E-06
   7.19999981        -1.33426613E-06
   7.38000011        -1.33201911E-06
   7.55999994        -1.33060621E-06
   7.73999977        -1.33020865E-06
   7.92000008        -1.33099036E-06
   8.10000038        -1.33309493E-06
   8.27999973        -1.33664219E-06
   8.46000004        -1.34172626E-06
   8.64000034        -1.34841343E-06
   8.81999969        -1.35674145E-06
   9.00000000        -1.36671895E-06
   9.18000031        -1.37832546E-06
   9.35999966        -1.39151155E-06
   9.53999996        -1.40619966E-06
   9.72000027        -1.42228248E-06
   9.89999962        -1.43962416E-06
   10.0799999        -1.45805961E-06
   10.2600002        -1.47739627E-06
   10.4399996        -1.49741663E-06
   10.6199999        -1.51788322E-06
   10.8000002        -1.53854387E-06
   10.9799995        -1.55914017E-06
   11.1599998        -1.57941679E-06
   11.3400002        -1.59913293E-06
   11.5200005        -1.61807338E-06
   11.6999998        -1.63606205E-06
   11.8800001        -1.65297240E-06
   12.0600004        -1.66873781E-06
   12.2399998        -1.68335862E-06
   12.4200001        -1.69690577E-06
   12.6000004        -1.70952308E-06
   12.7799997        -1.72142632E-06
   12.9600000        -1.73290027E-06
   13.1400003        -1.74429420E-06
   13.3199997        -1.75601531E-06
   13.5000000        -1.76851995E-06
   13.6800003        -1.78230323E-06
   13.8599997        -1.79788447E-06
   14.0400000        -1.81579173E-06
   14.2200003        -1.83654072E-06
   14.3999996        -1.86061061E-06
   14.5799999        -1.88841705E-06
   14.7600002        -1.92028210E-06
   14.9399996        -1.95640405E-06
   15.1199999        -1.99682540E-06
   15.3000002        -2.04141020E-06
   15.4799995        -2.08981942E-06
   15.6599998        -2.14149895E-06
   15.8400002        -2.19567323E-06
   16.0200005        -2.25134954E-06
   16.2000008        -2.30732917E-06
   16.3799992        -2.36223127E-06
   16.5599995        -2.41451789E-06
   16.7399998        -2.46252762E-06
   16.9200001        -2.50450989E-06
   17.1000004        -2.53866051E-06
   17.2800007        -2.56315616E-06
   17.4599991        -2.57619013E-06
   17.6399994        -2.57600732E-06
   17.8199997        -2.56094268E-06
   18.0000000        -2.52946211E-06
   18.1800003        -2.48020979E-06
   18.3600006        -2.41205635E-06
   18.5400009        -2.32415459E-06
   18.7199993        -2.21599498E-06
   18.8999996        -2.08746224E-06
   19.0799999        -1.93888536E-06
   19.2600002        -1.77107972E-06
   19.4400005        -1.58537728E-06
   19.6200008        -1.38363544E-06
   19.7999992        -1.16823310E-06
   19.9799995        -9.42042050E-07
   20.1599998        -7.08378877E-07
   20.3400002        -4.70944286E-07
   20.5200005        -2.33744203E-07
   20.7000008        -1.00689612E-09
   20.8799992         2.22906678E-07
   21.0599995         4.33587417E-07
   21.2399998         6.26662427E-07
   21.4200001         7.97867983E-07
   21.6000004         9.43121051E-07
   21.7800007         1.05857850E-06
   21.9599991         1.14070110E-06
   22.1399994         1.18630430E-06
   22.3199997         1.19261517E-06
   22.5000000         1.15733008E-06
   22.6800003         1.07867413E-06
   22.8600006         9.55453515E-07
   23.0400009         7.87113379E-07
   23.2199993         5.73786281E-07
   23.3999996         3.16331239E-07
   23.5799999         1.63589888E-08
   23.7600002        -3.23758911E-07
   23.9400005        -7.00901580E-07
   24.1200008        -1.11123040E-06
   24.2999992        -1.55023895E-06
   24.4799995        -2.01281523E-06
   24.6599998        -2.49332061E-06
   24.8400002        -2.98567102E-06
   25.0200005        -3.48342428E-06
   25.2000008        -3.97985741E-06
   25.3799992        -4.46804870E-06
   25.5599995        -4.94094320E-06
   25.7399998        -5.39141320E-06
   25.9200001        -5.81231643E-06
   26.1000004        -6.19654429E-06
   26.2800007        -6.53706593E-06
   26.4599991        -6.82698692E-06
   26.6399994        -7.05959246E-06
   26.8199997        -7.22839468E-06
   27.0000000        -7.32718991E-06
   27.1800003        -7.35010053E-06
   27.3600006        -7.29162775E-06
   27.5400009        -7.14668477E-06
   27.7199993        -6.91062769E-06
   27.8999996        -6.57927785E-06
   28.0799999        -6.14893361E-06
   28.2600002        -5.61637307E-06
   28.4400005        -4.97885912E-06
   28.6200008        -4.23413894E-06
   28.7999992        -3.38044902E-06
   28.9799995        -2.41653925E-06
   29.1599998        -1.34169261E-06
   29.3400002        -1.55771716E-07
   29.5200005         1.14073521E-06
   29.7000008         2.54665292E-06
   29.8799992         4.06005984E-06
   30.0599995         5.67822781E-06
   30.2399998         7.39756706E-06
   30.4200001         9.21358787E-06
   30.6000004         1.11208828E-05
   30.7800007         1.31131119E-05
   30.9599991         1.51830227E-05
   31.1399994         1.73224707E-05
   31.3199997         1.95224693E-05
   31.5000000         2.17732413E-05
   31.6800003         2.40642858E-05
   31.8600006         2.63844486E-05
   32.0400009         2.87220046E-05
   32.2200012         3.10647229E-05
   32.4000015         3.33999633E-05
   32.5800018         3.57147692E-05
   32.7599983         3.79959529E-05
   32.9399986         4.02302321E-05
   33.1199989         4.24043101E-05
   33.2999992         4.45050282E-05
   33.4799995         4.65194717E-05
   33.6599998         4.84351112E-05
   33.8400002         5.02399198E-05
   34.0200005         5.19224923E-05
   34.2000008         5.34721330E-05
   34.3800011         5.48789576E-05
   34.5600014         5.61339293E-05
   34.7400017         5.72289173E-05
   34.9199982         5.81567001E-05
   35.0999985         5.89109659E-05
   35.2799988         5.94862795E-05
   35.4599991         5.98780534E-05
   35.6399994         6.00825115E-05
   35.8199997         6.00966414E-05
   36.0000000         5.99181440E-05
   36.1800003         5.95454076E-05
   36.3600006         5.89775009E-05
   36.5400009         5.82141220E-05
   36.7200012         5.72556310E-05
   36.9000015         5.61030247E-05
   37.0800018         5.47579584E-05
   37.2599983         5.32227496E-05
   37.4399986         5.15003849E-05
   37.6199989         4.95945278E-05
   37.7999992         4.75095476E-05
   37.9799995         4.52505046E-05
   38.1599998         4.28231833E-05
   38.3400002         4.02340811E-05
   38.5200005         3.74904230E-05
   38.7000008         3.46002016E-05
   38.8800011         3.15721445E-05
   39.0600014         2.84157341E-05
   39.2400017         2.51412112E-05
   39.4199982         2.17595516E-05
   39.5999985         1.82824569E-05
   39.7799988         1.47222918E-05
   39.9599991         1.10920537E-05
   40.1399994         7.40528003E-06
   40.3199997         3.67596704E-06
   40.5000000        -8.15002679E-08
   40.6800003        -3.85248450E-06
   40.8600006        -7.62217178E-06
   41.0400009        -1.13756696E-05
   41.2200012        -1.50981095E-05
   41.4000015        -1.87747119E-05
   41.5800018        -2.23908664E-05
   41.7599983        -2.59322078E-05
   41.9399986        -2.93846224E-05
   42.1199989        -3.27343223E-05
   42.2999992        -3.59678670E-05
   42.4799995        -3.90721871E-05
   42.6599998        -4.20346078E-05
   42.8400002        -4.48428618E-05
   43.0200005        -4.74851222E-05
   43.2000008        -4.99500093E-05
   43.3800011        -5.22265800E-05
   43.5600014        -5.43043752E-05
   43.7400017        -5.61734014E-05
   43.9199982        -5.78241634E-05
   44.0999985        -5.92476717E-05
   44.2799988        -6.04354282E-05
   44.4599991        -6.13794982E-05
   44.6399994        -6.20725259E-05
   44.8199997        -6.25077228E-05
   45.0000000        -6.26789915E-05
   45.1800003        -6.25809116E-05
   45.3600006        -6.22088410E-05
   45.5400009        -6.15589452E-05
   45.7200012        -6.06282374E-05
   45.9000015        -5.94146222E-05
   46.0800018        -5.79169209E-05
   46.2599983        -5.61348461E-05
   46.4399986        -5.40690089E-05
   46.6199989        -5.17207882E-05
   46.7999992        -4.90922903E-05
   46.9799995        -4.61862219E-05
   47.1599998        -4.30057626E-05
   47.3400002        -3.95543393E-05
   47.5200005        -3.58355683E-05
   47.7000008        -3.18530037E-05
   47.8800011        -2.76100018E-05
   48.0600014        -2.31095328E-05
   48.2400017        -1.83540997E-05
   48.4199982        -1.33455260E-05
   48.5999985        -8.08484856E-06
   48.7799988        -2.57224474E-06
   48.9599991         3.19304922E-06
   49.1399994         9.21280753E-06
   49.3199997         1.54898953E-05
   49.5000000         2.20282327E-05
   49.6800003         2.88327847E-05
   49.8600006         3.59094993E-05
   50.0400009         4.32652087E-05
   50.2200012         5.09075471E-05
   50.4000015         5.88445946E-05
   50.5800018         6.70848094E-05
   50.7599983         7.56366062E-05
   50.9399986         8.45081377E-05
   51.1199989         9.37068544E-05
   51.2999992         1.03239239E-04
   51.4799995         1.13110356E-04
   51.6599998         1.23323553E-04
   51.8400002         1.33880210E-04
   52.0200005         1.44779333E-04
   52.2000008         1.56017413E-04
   52.3800011         1.67588267E-04
   52.5600014         1.79482740E-04
   52.7400017         1.91688843E-04
   52.9199982         2.04191485E-04
   53.0999985         2.16972592E-04
   53.2799988         2.30011079E-04
   53.4599991         2.43283008E-04
   53.6399994         2.56761559E-04
   53.8199997         2.70417222E-04
   54.0000000         2.84217938E-04
   54.1800003         2.98129366E-04
   54.3600006         3.12115008E-04
   54.5400009         3.26136535E-04
   54.7200012         3.40154074E-04
   54.9000015         3.54126561E-04
   55.0800018         3.68011912E-04
   55.2599983         3.81767633E-04
   55.4399986         3.95350915E-04
   55.6199989         4.08719206E-04
   55.7999992         4.21830424E-04
   55.9799995         4.34643298E-04
   56.1599998         4.47117782E-04
   56.3400002         4.59215284E-04
   56.5200005         4.70898929E-04
   56.7000008         4.82133968E-04
   56.8800011         4.92888037E-04
   57.0600014         5.03131363E-04
   57.2400017         5.12837258E-04
   57.4199982         5.21982030E-04
   57.5999985         5.30545483E-04
   57.7799988         5.38511144E-04
   57.9599991         5.45866322E-04
   58.1399994         5.52602229E-04
   58.3199997         5.58714033E-04
   58.5000000         5.64200978E-04
   58.6800003         5.69066091E-04
   58.8600006         5.73316007E-04
   59.0400009         5.76961029E-04
   59.2200012         5.80014254E-04
   59.4000015         5.82491688E-04
   59.5800018         5.84411551E-04
   59.7599983         5.85793925E-04
   59.9399986         5.86659939E-04
   60.1199989         5.87031711E-04
   60.2999992         5.86931419E-04
   60.4799995         5.86380833E-04
   60.6599998         5.85400849E-04
   60.8400002         5.84010908E-04
   61.0200005         5.82228589E-04
   61.2000008         5.80068969E-04
   61.3800011         5.77544444E-04
   61.5600014         5.74664213E-04
   61.7400017         5.71434095E-04
   61.9199982         5.67856187E-04
   62.0999985         5.63929090E-04
   62.2799988         5.59647568E-04
   62.4599991         5.55002945E-04
   62.6399994         5.49983117E-04
   62.8199997         5.44573122E-04
   63.0000000         5.38755150E-04
   63.1800003         5.32509352E-04
   63.3600006         5.25814306E-04
   63.5400009         5.18647372E-04
   63.7200012         5.10985439E-04
   63.9000015         5.02805458E-04
   64.0800018         4.94084961E-04
   64.2600021         4.84802586E-04
   64.4400024         4.74938483E-04
   64.6200027         4.64474811E-04
   64.8000031         4.53396089E-04
   64.9800034         4.41689481E-04
   65.1600037         4.29345091E-04
   65.3399963         4.16356081E-04
   65.5199966         4.02718899E-04
   65.6999969         3.88433313E-04
   65.8799973         3.73502466E-04
   66.0599976         3.57932848E-04
   66.2399979         3.41734325E-04
   66.4199982         3.24919907E-04
   66.5999985         3.07505776E-04
   66.7799988         2.89511081E-04
   66.9599991         2.70957884E-04
   67.1399994         2.51870981E-04
   67.3199997         2.32277700E-04
   67.5000000         2.12207975E-04
   67.6800003         1.91694126E-04
   67.8600006         1.70770829E-04
   68.0400009         1.49475105E-04
   68.2200012         1.27846273E-04
   68.4000015         1.05925865E-04
   68.5800018         8.37576008E-05
   68.7600021         6.13873635E-05
   68.9400024         3.88630615E-05
   69.1200027         1.62345277E-05
   69.3000031        -6.44669717E-06
   69.4800034        -2.91275301E-05
   69.6600037        -5.17536573E-05
   69.8399963        -7.42698176E-05
   70.0199966        -9.66200823E-05
   70.1999969        -1.18748307E-04
   70.3799973        -1.40598408E-04
   70.5599976        -1.62114797E-04
   70.7399979        -1.83242752E-04
   70.9199982        -2.03928750E-04
   71.0999985        -2.24120828E-04
   71.2799988        -2.43768940E-04
   71.4599991        -2.62825284E-04
   71.6399994        -2.81244487E-04
   71.8199997        -2.98983941E-04
   72.0000000        -3.16003949E-04
   72.1800003        -3.32267868E-04
   72.3600006        -3.47742141E-04
   72.5400009        -3.62396415E-04
   72.7200012        -3.76203505E-04
   72.9000015        -3.89139139E-04
   73.0800018        -4.01182071E-04
   73.2600021        -4.12313617E-04
   73.4400024        -4.22517653E-04
   73.6200027        -4.31780209E-04
   73.8000031        -4.40089265E-04
   73.9800034        -4.47434548E-04
   74.1600037        -4.53807297E-04
   74.3399963        -4.59200004E-04
   74.5199966        -4.63606266E-04
   74.6999969        -4.67020785E-04
   74.8799973        -4.69439081E-04
   75.0599976        -4.70857776E-04
   75.2399979        -4.71274252E-04
   75.4199982        -4.70686966E-04
   75.5999985        -4.69095423E-04
   75.7799988        -4.66500322E-04
   75.9599991        -4.62903496E-04
   76.1399994        -4.58308263E-04
   76.3199997        -4.52719309E-04
   76.5000000        -4.46142978E-04
   76.6800003        -4.38587245E-04
   76.8600006        -4.30061889E-04
   77.0400009        -4.20578406E-04
   77.2200012        -4.10150213E-04
   77.4000015        -3.98792501E-04
   77.5800018        -3.86522210E-04
   77.7600021        -3.73357936E-04
   77.9400024        -3.59319849E-04
   78.1200027        -3.44429369E-04
   78.3000031        -3.28709109E-04
   78.4800034        -3.12182528E-04
   78.6600037        -2.94873724E-04
   78.8399963        -2.76807084E-04
   79.0199966        -2.58007116E-04
   79.1999969        -2.38498149E-04
   79.3799973        -2.18304209E-04
   79.5599976        -1.97448724E-04
   79.7399979        -1.75954614E-04
   79.9199982        -1.53844012E-04
   80.0999985        -1.31138440E-04
   80.2799988        -1.07858716E-04
   80.4599991        -8.40252178E-05
   80.6399994        -5.96578284E-05
   80.8199997        -3.47762179E-05
   81.0000000        -9.40002883E-06
   81.1800003         1.64509347E-05
   81.3600006         4.27564410E-05
   81.5400009         6.94956325E-05
   81.7200012         9.66466396E-05
   81.9000015         1.24186437E-04
   82.0800018         1.52090550E-04
   82.2600021         1.80332674E-04
   82.4400024         2.08884565E-04
   82.6200027         2.37715692E-04
   82.8000031         2.66793038E-04
   82.9800034         2.96080863E-04
   83.1600037         3.25540634E-04
   83.3399963         3.55130702E-04
   83.5199966         3.84806481E-04
   83.6999969         4.14520095E-04
   83.8799973         4.44220408E-04
   84.0599976         4.73853201E-04
   84.2399979         5.03360934E-04
   84.4199982         5.32682810E-04
   84.5999985         5.61754976E-04
   84.7799988         5.90510492E-04
   84.9599991         6.18879159E-04
   85.1399994         6.46788045E-04
   85.3199997         6.74161187E-04
   85.5000000         7.00920064E-04
   85.6800003         7.26983650E-04
   85.8600006         7.52268825E-04
   86.0400009         7.76690431E-04
   86.2200012         8.00162205E-04
   86.4000015         8.22596834E-04
   86.5800018         8.43906892E-04
   86.7600021         8.64005240E-04
   86.9400024         8.82805791E-04
   87.1200027         9.00224608E-04
   87.3000031         9.16180317E-04
   87.4800034         9.30595328E-04
   87.6600037         9.43396532E-04
   87.8399963         9.54516348E-04
   88.0199966         9.63893544E-04
   88.1999969         9.71474336E-04
   88.3799973         9.77212912E-04
   88.5599976         9.81072546E-04
   88.7399979         9.83025995E-04
   88.9199982         9.83056379E-04
   89.0999985         9.81157413E-04
   89.2799988         9.77333868E-04
   89.4599991         9.71601519E-04
   89.6399994         9.63987550E-04
   89.8199997         9.54529911E-04
   90.0000000         9.43277322E-04
   90.1800003         9.30288574E-04
   90.3600006         9.15631943E-04
   90.5400009         8.99384439E-04
   90.7200012         8.81631102E-04
   90.9000015         8.62463901E-04
   91.0800018         8.41980858E-04
   91.2600021         8.20285000E-04
   91.4400024         7.97483488E-04
   91.6200027         7.73686450E-04
   91.8000031         7.49006169E-04
   91.9800034         7.23556150E-04
   92.1600037         6.97450247E-04
   92.3399963         6.70802081E-04
   92.5199966         6.43724110E-04
   92.6999969         6.16327336E-04
   92.8799973         5.88720490E-04
   93.0599976         5.61010034E-04
   93.2399979         5.33299521E-04
   93.4199982         5.05689648E-04
   93.5999985         4.78277885E-04
   93.7799988         4.51158499E-04
   93.9599991         4.24422440E-04
   94.1399994         3.98157135E-04
   94.3199997         3.72446520E-04
   94.5000000         3.47370806E-04
   94.6800003         3.23006301E-04
   94.8600006         2.99425010E-04
   95.0400009         2.76694511E-04
   95.2200012         2.54877377E-04
   95.4000015         2.34030740E-04
   95.5800018         2.14205807E-04
   95.7600021         1.95447268E-04
   95.9400024         1.77792797E-04
   96.1200027         1.61272445E-04
   96.3000031         1.45908241E-04
   96.4800034         1.31713576E-04
   96.6600037         1.18692966E-04
   96.8399963         1.06841719E-04
   97.0199966         9.61458354E-05
   97.1999969         8.65819311E-05
   97.3799973         7.81174385E-05
   97.5599976         7.07108411E-05
   97.7399979         6.43121457E-05
   97.9199982         5.88634794E-05
   98.0999985         5.42998496E-05
   98.2799988         5.05500539E-05
   98.4599991         4.75377092E-05
   98.6399994         4.51823798E-05
   98.8199997         4.34007707E-05
   99.0000000         4.21080040E-05
   99.1800003         4.12189002E-05
   99.3600006         4.06492327E-05
   99.5400009         4.03170125E-05
   99.7200012         4.01436082E-05
   99.9000015         4.00548124E-05
   100.080002         3.99818964E-05
   100.260002         3.98624106E-05
   100.440002         3.96409414E-05
   100.620003         3.92696202E-05
