  -7.19999981         4.20436177E-18
  -7.01949978        -4.61774846E-12
  -6.83900023        -1.43105814E-11
  -6.65850019        -2.88909296E-11
  -6.47800016        -4.80582865E-11
  -6.29750013        -7.21067928E-11
  -6.11700010        -1.02645462E-10
  -5.93650007        -1.43264484E-10
  -5.75600004        -2.00148106E-10
  -5.57550001        -2.82600165E-10
  -5.39499998        -4.03347217E-10
  -5.21449995        -5.78434911E-10
  -5.03399992        -8.26640034E-10
  -4.85349989        -1.16857224E-09
  -4.67299986        -1.62590041E-09
  -4.49249983        -2.22122898E-09
  -4.31199980        -2.97898395E-09
  -4.13149977        -3.92731225E-09
  -3.95099998        -5.10064702E-09
  -3.77049994        -6.54241950E-09
  -3.58999991        -8.30746671E-09
  -3.40949988        -1.04639000E-08
  -3.22900009        -1.30943869E-08
  -3.04850006        -1.62968643E-08
  -2.86800003        -2.01846255E-08
  -2.68750000        -2.48856846E-08
  -2.50699997        -3.05413863E-08
  -2.32649994        -3.73042681E-08
  -2.14599991        -4.53355256E-08
  -1.96550000        -5.48023102E-08
  -1.78499997        -6.58751489E-08
  -1.60450006        -7.87254990E-08
  -1.42400002        -9.35233331E-08
  -1.24349999        -1.10434470E-07
  -1.06299996        -1.29617590E-07
 -0.882499993        -1.51220632E-07
 -0.702000022        -1.75376528E-07
 -0.521499991        -2.02198066E-07
 -0.340999991        -2.31771907E-07
 -0.160500005        -2.64151709E-07
   1.99999996E-02    -2.99350859E-07
  0.200499997        -3.37335536E-07
  0.381000012        -3.78019166E-07
  0.561500013        -4.21258392E-07
  0.741999984        -4.66851873E-07
  0.922500014        -5.14541171E-07
   1.10300004        -5.64013931E-07
   1.28349996        -6.14909595E-07
   1.46399999        -6.66826566E-07
   1.64450002        -7.19331410E-07
   1.82500005        -7.71969383E-07
   2.00550008        -8.24276071E-07
   2.18600011        -8.75788714E-07
   2.36649990        -9.26057339E-07
   2.54699993        -9.74654881E-07
   2.72749996        -1.02118634E-06
   2.90799999        -1.06529615E-06
   3.08850002        -1.10667509E-06
   3.26900005        -1.14506588E-06
   3.44950008        -1.18026708E-06
   3.63000011        -1.21213668E-06
   3.81049991        -1.24059306E-06
   3.99099994        -1.26561554E-06
   4.17150021        -1.28724241E-06
   4.35200024        -1.30556759E-06
   4.53249979        -1.32073546E-06
   4.71299982        -1.33293395E-06
   4.89349985        -1.34238576E-06
   5.07399988        -1.34933975E-06
   5.25449991        -1.35406140E-06
   5.43499994        -1.35682478E-06
   5.61549997        -1.35790685E-06
   5.79600000        -1.35758103E-06
   5.97650003        -1.35611413E-06
   6.15700006        -1.35376399E-06
   6.33750010        -1.35077880E-06
   6.51800013        -1.34739696E-06
   6.69850016        -1.34384868E-06
   6.87900019        -1.34035679E-06
   7.05950022        -1.33713888E-06
   7.23999977        -1.33440562E-06
   7.42049980        -1.33236040E-06
   7.60099983        -1.33119613E-06
   7.78149986        -1.33109108E-06
   7.96199989        -1.33220624E-06
   8.14249992        -1.33468097E-06
   8.32299995        -1.33862977E-06
   8.50349998        -1.34414108E-06
   8.68400002        -1.35127459E-06
   8.86450005        -1.36006088E-06
   9.04500008        -1.37050142E-06
   9.22550011        -1.38256848E-06
   9.40600014        -1.39620545E-06
   9.58650017        -1.41132625E-06
   9.76700020        -1.42781550E-06
   9.94750023        -1.44552860E-06
   10.1280003        -1.46429124E-06
   10.3085003        -1.48390222E-06
   10.4890003        -1.50413632E-06
   10.6695004        -1.52474911E-06
   10.8500004        -1.54548388E-06
   11.0305004        -1.56607950E-06
   11.2110004        -1.58628131E-06
   11.3915005        -1.60585239E-06
   11.5719995        -1.62458571E-06
   11.7524996        -1.64231653E-06
   11.9329996        -1.65893402E-06
   12.1134996        -1.67439032E-06
   12.2939997        -1.68870645E-06
   12.4744997        -1.70197575E-06
   12.6549997        -1.71436534E-06
   12.8354998        -1.72611408E-06
   13.0159998        -1.73752881E-06
   13.1964998        -1.74898059E-06
   13.3769999        -1.76089577E-06
   13.5574999        -1.77374818E-06
   13.7379999        -1.78804623E-06
   13.9184999        -1.80431834E-06
   14.0990000        -1.82309532E-06
   14.2795000        -1.84488795E-06
   14.4600000        -1.87016144E-06
   14.6405001        -1.89930756E-06
   14.8210001        -1.93261235E-06
   15.0015001        -1.97022632E-06
   15.1820002        -2.01213379E-06
   15.3625002        -2.05812921E-06
   15.5430002        -2.10779808E-06
   15.7235003        -2.16050307E-06
   15.9040003        -2.21538448E-06
   16.0844994        -2.27136570E-06
   16.2649994        -2.32717002E-06
   16.4454994        -2.38134453E-06
   16.6259995        -2.43228988E-06
   16.8064995        -2.47829462E-06
   16.9869995        -2.51757115E-06
   17.1674995        -2.54828910E-06
   17.3479996        -2.56861335E-06
   17.5284996        -2.57673832E-06
   17.7089996        -2.57092461E-06
   17.8894997        -2.54953943E-06
   18.0699997        -2.51110055E-06
   18.2504997        -2.45432307E-06
   18.4309998        -2.37817289E-06
   18.6114998        -2.28192425E-06
   18.7919998        -2.16521448E-06
   18.9724998        -2.02810065E-06
   19.1529999        -1.87110993E-06
   19.3334999        -1.69527243E-06
   19.5139999        -1.50214828E-06
   19.6945000        -1.29383000E-06
   19.8750000        -1.07292726E-06
   20.0555000        -8.42530369E-07
   20.2360001        -6.06154742E-07
   20.4165001        -3.67672442E-07
   20.5970001        -1.31229086E-07
   20.7775002         9.88434010E-08
   20.9580002         3.18115724E-07
   21.1385002         5.22149946E-07
   21.3190002         7.06575690E-07
   21.4995003         8.67165625E-07
   21.6800003         9.99903136E-07
   21.8605003         1.10104099E-06
   22.0410004         1.16716194E-06
   22.2215004         1.19523577E-06
   22.4020004         1.18267405E-06
   22.5825005         1.12738928E-06
   22.7630005         1.02785282E-06
   22.9435005         8.83152609E-07
   23.1240005         6.93045479E-07
   23.3045006         4.58005786E-07
   23.4850006         1.79254684E-07
   23.6655006        -1.41220440E-07
   23.8460007        -5.00665124E-07
   24.0265007        -8.95579660E-07
   24.2070007        -1.32176058E-06
   24.3875008        -1.77435834E-06
   24.5680008        -2.24794894E-06
   24.7485008        -2.73661658E-06
   24.9290009        -3.23403628E-06
   25.1095009        -3.73356102E-06
   25.2900009        -4.22830362E-06
   25.4705009        -4.71120666E-06
   25.6509991        -5.17511262E-06
   25.8314991        -5.61281831E-06
   26.0119991        -6.01713054E-06
   26.1924992        -6.38091524E-06
   26.3729992        -6.69714700E-06
   26.5534992        -6.95895778E-06
   26.7339993        -7.15968827E-06
   26.9144993        -7.29294061E-06
   27.0949993        -7.35262620E-06
   27.2754993        -7.33301340E-06
   27.4559994        -7.22877485E-06
   27.6364994        -7.03501564E-06
   27.8169994        -6.74730472E-06
   27.9974995        -6.36168670E-06
   28.1779995        -5.87469367E-06
   28.3584995        -5.28334476E-06
   28.5389996        -4.58514478E-06
   28.7194996        -3.77809306E-06
   28.8999996        -2.86069803E-06
   29.0804996        -1.83199188E-06
   29.2609997        -6.91572836E-07
   29.4414997         5.60349406E-07
   29.6219997         1.92289758E-06
   29.8024998         3.39446706E-06
   29.9829998         4.97265819E-06
   30.1634998         6.65422931E-06
   30.3439999         8.43503949E-06
   30.5244999         1.03100238E-05
   30.7049999         1.22731826E-05
   30.8855000         1.43175785E-05
   31.0660000         1.64353642E-05
   31.2465000         1.86178186E-05
   31.4270000         2.08553975E-05
   31.6075001         2.31377944E-05
   31.7880001         2.54540228E-05
   31.9685001         2.77924701E-05
   32.1489983         3.01409946E-05
   32.3294983         3.24870052E-05
   32.5099983         3.48175417E-05
   32.6904984         3.71193892E-05
   32.8709984         3.93791706E-05
   33.0514984         4.15834693E-05
   33.2319984         4.37189410E-05
   33.4124985         4.57724527E-05
   33.5929985         4.77312133E-05
   33.7734985         4.95828863E-05
   33.9539986         5.13157174E-05
   34.1344986         5.29186509E-05
   34.3149986         5.43814167E-05
   34.4954987         5.56945815E-05
   34.6759987         5.68496180E-05
   34.8564987         5.78389190E-05
   35.0369987         5.86557981E-05
   35.2174988         5.92944634E-05
   35.3979988         5.97499966E-05
   35.5784988         6.00183157E-05
   35.7589989         6.00961284E-05
   35.9394989         5.99808664E-05
   36.1199989         5.96706814E-05
   36.3004990         5.91644057E-05
   36.4809990         5.84615264E-05
   36.6614990         5.75621889E-05
   36.8419991         5.64671973E-05
   37.0224991         5.51779958E-05
   37.2029991         5.36967163E-05
   37.3834991         5.20261528E-05
   37.5639992         5.01697905E-05
   37.7444992         4.81318166E-05
   37.9249992         4.59171242E-05
   38.1054993         4.35313268E-05
   38.2859993         4.09807653E-05
   38.4664993         3.82725266E-05
   38.6469994         3.54144286E-05
   38.8274994         3.24150460E-05
   39.0079994         2.92837394E-05
   39.1884995         2.60306097E-05
   39.3689995         2.26665252E-05
   39.5494995         1.92030802E-05
   39.7299995         1.56525730E-05
   39.9104996         1.20279274E-05
   40.0909996         8.34267303E-06
   40.2714996         4.61080981E-06
   40.4519997         8.46750652E-07
   40.6324997        -2.93479252E-06
   40.8129997        -6.71890939E-06
   40.9934998        -1.04905921E-05
   41.1739998        -1.42348281E-05
   41.3544998        -1.79366798E-05
   41.5349998        -2.15813707E-05
   41.7154999        -2.51543406E-05
   41.8959999        -2.86412887E-05
   42.0764999        -3.20282270E-05
   42.2570000        -3.53015203E-05
   42.4375000        -3.84478917E-05
   42.6180000        -4.14544666E-05
   42.7985001        -4.43087702E-05
   42.9790001        -4.69987790E-05
   43.1595001        -4.95128988E-05
   43.3400002        -5.18400011E-05
   43.5205002        -5.39694192E-05
   43.7010002        -5.58909705E-05
   43.8815002        -5.75949634E-05
   44.0620003        -5.90722302E-05
   44.2425003        -6.03140834E-05
   44.4230003        -6.13123921E-05
   44.6035004        -6.20596329E-05
   44.7840004        -6.25488101E-05
   44.9645004        -6.27736517E-05
   45.1450005        -6.27285772E-05
   45.3255005        -6.24087115E-05
   45.5060005        -6.18100385E-05
   45.6865005        -6.09293857E-05
   45.8670006        -5.97644867E-05
   46.0475006        -5.83139808E-05
   46.2280006        -5.65774099E-05
   46.4085007        -5.45552175E-05
   46.5890007        -5.22486444E-05
   46.7695007        -4.96596986E-05
   46.9500008        -4.67910249E-05
   47.1305008        -4.36457340E-05
   47.3110008        -4.02272926E-05
   47.4915009        -3.65393244E-05
   47.6720009        -3.25854271E-05
   47.8525009        -2.83690388E-05
   48.0330009        -2.38932480E-05
   48.2135010        -1.91606359E-05
   48.3940010        -1.41731316E-05
   48.5745010        -8.93191827E-06
   48.7550011        -3.43729835E-06
   48.9355011         2.31138984E-06
   49.1160011         8.31580473E-06
   49.2965012         1.45787180E-05
   49.4770012         2.11039132E-05
   49.6575012         2.78962943E-05
   49.8380013         3.49617294E-05
   50.0185013         4.23070596E-05
   50.1990013         4.99398047E-05
   50.3795013         5.78681320E-05
   50.5600014         6.61005324E-05
   50.7405014         7.46455407E-05
   50.9210014         8.35113824E-05
   51.1015015         9.27057044E-05
   51.2820015         1.02235128E-04
   51.4625015         1.12104979E-04
   51.6430016         1.22318816E-04
   51.8235016         1.32878224E-04
   52.0040016         1.43782483E-04
   52.1845016         1.55028261E-04
   52.3650017         1.66609578E-04
   52.5455017         1.78517526E-04
   52.7260017         1.90740204E-04
   52.9065018         2.03262651E-04
   53.0870018         2.16066896E-04
   53.2675018         2.29131881E-04
   53.4480019         2.42433642E-04
   53.6285019         2.55945313E-04
   53.8089981         2.69637356E-04
   53.9894981         2.83477595E-04
   54.1699982         2.97431456E-04
   54.3504982         3.11462325E-04
   54.5309982         3.25531670E-04
   54.7114983         3.39599326E-04
   54.8919983         3.53623909E-04
   55.0724983         3.67563072E-04
   55.2529984         3.81373917E-04
   55.4334984         3.95013340E-04
   55.6139984         4.08438296E-04
   55.7944984         4.21606295E-04
   55.9749985         4.34475747E-04
   56.1554985         4.47006110E-04
   56.3359985         4.59158415E-04
   56.5164986         4.70895437E-04
   56.6969986         4.82182048E-04
   56.8774986         4.92985593E-04
   57.0579987         5.03275951E-04
   57.2384987         5.13026142E-04
   57.4189987         5.22212300E-04
   57.5994987         5.30813995E-04
   57.7799988         5.38814580E-04
   57.9604988         5.46201190E-04
   58.1409988         5.52964979E-04
   58.3214989         5.59101114E-04
   58.5019989         5.64608665E-04
   58.6824989         5.69490774E-04
   58.8629990         5.73754194E-04
   59.0434990         5.77409228E-04
   59.2239990         5.80469263E-04
   59.4044991         5.82950481E-04
   59.5849991         5.84871334E-04
   59.7654991         5.86252019E-04
   59.9459991         5.87113958E-04
   60.1264992         5.87479502E-04
   60.3069992         5.87370887E-04
   60.4874992         5.86810173E-04
   60.6679993         5.85818256E-04
   60.8484993         5.84414753E-04
   61.0289993         5.82617184E-04
   61.2094994         5.80440683E-04
   61.3899994         5.77897532E-04
   61.5704994         5.74996870E-04
   61.7509995         5.71744225E-04
   61.9314995         5.68141695E-04
   62.1119995         5.64187416E-04
   62.2924995         5.59876149E-04
   62.4729996         5.55198756E-04
   62.6534996         5.50142897E-04
   62.8339996         5.44693146E-04
   63.0144997         5.38831518E-04
   63.1949997         5.32537873E-04
   63.3754997         5.25790267E-04
   63.5559998         5.18565997E-04
   63.7364998         5.10841666E-04
   63.9169998         5.02594048E-04
   64.0975037         4.93800500E-04
   64.2779999         4.84439573E-04
   64.4585037         4.74491506E-04
   64.6389999         4.63938486E-04
   64.8195038         4.52765235E-04
   65.0000000         4.40959062E-04
   65.1804962         4.28510364E-04
   65.3610001         4.15412593E-04
   65.5414963         4.01662604E-04
   65.7220001         3.87260545E-04
   65.9024963         3.72209935E-04
   66.0830002         3.56517761E-04
   66.2634964         3.40194325E-04
   66.4440002         3.23253102E-04
   66.6244965         3.05710768E-04
   66.8050003         2.87587085E-04
   66.9854965         2.68904550E-04
   67.1660004         2.49688514E-04
   67.3464966         2.29966943E-04
   67.5270004         2.09770340E-04
   67.7074966         1.89131650E-04
   67.8880005         1.68086219E-04
   68.0684967         1.46671751E-04
   68.2490005         1.24928192E-04
   68.4294968         1.02897764E-04
   68.6100006         8.06249300E-05
   68.7904968         5.81562381E-05
   68.9710007         3.55402990E-05
   69.1514969         1.28276242E-05
   69.3320007        -9.92955484E-06
   69.5124969        -3.26775116E-05
   69.6930008        -5.53612772E-05
   69.8734970        -7.79249749E-05
   70.0540009        -1.00312143E-04
   70.2344971        -1.22466110E-04
   70.4150009        -1.44330348E-04
   70.5954971        -1.65848920E-04
   70.7760010        -1.86966790E-04
   70.9564972        -2.07630292E-04
   71.1370010        -2.27787343E-04
   71.3174973        -2.47387914E-04
   71.4980011        -2.66384304E-04
   71.6784973        -2.84731301E-04
   71.8590012        -3.02386557E-04
   72.0394974        -3.19310697E-04
   72.2200012        -3.35467368E-04
   72.4004974        -3.50823480E-04
   72.5810013        -3.65349057E-04
   72.7614975        -3.79017292E-04
   72.9420013        -3.91804439E-04
   73.1224976        -4.03689482E-04
   73.3030014        -4.14654205E-04
   73.4834976        -4.24682774E-04
   73.6640015        -4.33761568E-04
   73.8444977        -4.41878830E-04
   74.0250015        -4.49024548E-04
   74.2054977        -4.55190137E-04
   74.3860016        -4.60368319E-04
   74.5664978        -4.64552868E-04
   74.7470016        -4.67738573E-04
   74.9274979        -4.69921244E-04
   75.1080017        -4.71097563E-04
   75.2884979        -4.71265172E-04
   75.4690018        -4.70422761E-04
   75.6494980        -4.68569982E-04
   75.8300018        -4.65707795E-04
   76.0104980        -4.61838412E-04
   76.1910019        -4.56965470E-04
   76.3714981        -4.51094151E-04
   76.5520020        -4.44231264E-04
   76.7324982        -4.36385366E-04
   76.9130020        -4.27566789E-04
   77.0934982        -4.17787727E-04
   77.2740021        -4.07062238E-04
   77.4544983        -3.95406154E-04
   77.6350021        -3.82837141E-04
   77.8154984        -3.69374437E-04
   77.9960022        -3.55038705E-04
   78.1764984        -3.39852064E-04
   78.3570023        -3.23837536E-04
   78.5374985        -3.07018985E-04
   78.7180023        -2.89420801E-04
   78.8984985        -2.71067634E-04
   79.0790024        -2.51984166E-04
   79.2594986        -2.32194900E-04
   79.4400024        -2.11723833E-04
   79.6204987        -1.90594481E-04
   79.8010025        -1.68829720E-04
   79.9814987        -1.46451712E-04
   80.1620026        -1.23481965E-04
   80.3424988        -9.99413387E-05
   80.5230026        -7.58501919E-05
   80.7034988        -5.12285114E-05
   80.8840027        -2.60960915E-05
   81.0644989        -4.72802583E-07
   81.2450027         2.56212643E-05
   81.4254990         5.21655165E-05
   81.6060028         7.91385683E-05
   81.7864990         1.06518004E-04
   81.9670029         1.34280039E-04
   82.1474991         1.62399272E-04
   82.3280029         1.90848485E-04
   82.5084991         2.19598311E-04
   82.6890030         2.48616969E-04
   82.8694992         2.77870073E-04
