  -7.19999981       0.00000000    
  -7.01999998       2.86173057E-10
  -6.84000015       8.27040714E-10
  -6.65999985       1.48744739E-09
  -6.48000002       2.07039874E-09
  -6.30000019       2.37614506E-09
  -6.11999989       2.25242447E-09
  -5.94000006       1.61178293E-09
  -5.76000023       4.05339540E-10
  -5.57999992      -1.43754542E-09
  -5.40000010      -4.07725498E-09
  -5.21999979      -7.80908405E-09
  -5.03999996      -1.30678961E-08
  -4.86000013      -2.03983888E-08
  -4.67999983      -3.04189633E-08
  -4.50000000      -4.38141115E-08
  -4.32000017      -6.13773778E-08
  -4.13999987      -8.41010461E-08
  -3.96000004      -1.13284379E-07
  -3.77999997      -1.50623237E-07
  -3.59999990      -1.98255279E-07
  -3.42000008      -2.58758689E-07
  -3.24000001      -3.35126373E-07
  -3.05999994      -4.30746326E-07
  -2.88000011      -5.49411766E-07
  -2.70000005      -6.95364236E-07
  -2.51999998      -8.73352690E-07
  -2.33999991      -1.08868005E-06
  -2.16000009      -1.34721017E-06
  -1.98000002      -1.65531912E-06
  -1.79999995      -2.01979196E-06
  -1.62000000      -2.44767784E-06
  -1.44000006      -2.94612664E-06
  -1.25999999      -3.52222560E-06
  -1.08000004      -4.18285026E-06
 -0.899999976      -4.93452717E-06
 -0.720000029      -5.78328854E-06
 -0.540000021      -6.73450268E-06
 -0.360000014      -7.79265793E-06
 -0.180000007      -8.96109759E-06
   4.44089210E-16  -1.02417462E-05
  0.180000007      -1.16348519E-05
  0.360000014      -1.31388006E-05
  0.540000021      -1.47500159E-05
  0.720000029      -1.64629455E-05
  0.899999976      -1.82700987E-05
   1.08000004      -2.01621187E-05
   1.25999999      -2.21278351E-05
   1.44000006      -2.41543512E-05
   1.62000000      -2.62271533E-05
   1.79999995      -2.83303125E-05
   1.98000002      -3.04467612E-05
   2.16000009      -3.25586443E-05
   2.33999991      -3.46477354E-05
   2.51999998      -3.66958302E-05
   2.70000005      -3.86851243E-05
   2.88000011      -4.05985193E-05
   3.05999994      -4.24198988E-05
   3.24000001      -4.41343873E-05
   3.42000008      -4.57285605E-05
   3.59999990      -4.71906569E-05
   3.77999997      -4.85107776E-05
   3.96000004      -4.96810208E-05
   4.13999987      -5.06955621E-05
   4.32000017      -5.15506581E-05
   4.50000000      -5.22445589E-05
   4.67999983      -5.27773300E-05
   4.86000013      -5.31506557E-05
   5.03999996      -5.33676139E-05
   5.21999979      -5.34325154E-05
   5.40000010      -5.33507409E-05
   5.57999992      -5.31286532E-05
   5.76000023      -5.27734337E-05
   5.94000006      -5.22929731E-05
   6.11999989      -5.16956170E-05
   6.30000019      -5.09899874E-05
   6.48000002      -5.01847717E-05
   6.65999985      -4.92885920E-05
   6.84000015      -4.83099429E-05
   7.01999998      -4.72571737E-05
   7.19999981      -4.61384843E-05
   7.38000011      -4.49619256E-05
   7.55999994      -4.37353483E-05
   7.73999977      -4.24663303E-05
   7.92000008      -4.11621004E-05
   8.10000038      -3.98294724E-05
   8.27999973      -3.84748673E-05
   8.46000004      -3.71043243E-05
   8.64000034      -3.57235840E-05
   8.81999969      -3.43381471E-05
   9.00000000      -3.29533359E-05
   9.18000031      -3.15742873E-05
   9.35999966      -3.02059671E-05
   9.53999996      -2.88531064E-05
   9.72000027      -2.75202001E-05
   9.89999962      -2.62114881E-05
   10.0799999      -2.49309869E-05
   10.2600002      -2.36825545E-05
   10.4399996      -2.24699543E-05
   10.6199999      -2.12968607E-05
   10.8000002      -2.01668590E-05
   10.9799995      -1.90833653E-05
   11.1599998      -1.80495445E-05
   11.3400002      -1.70682542E-05
   11.5200005      -1.61420376E-05
   11.6999998      -1.52731645E-05
   11.8800001      -1.44637179E-05
   12.0600004      -1.37156758E-05
   12.2399998      -1.30309181E-05
   12.4200001      -1.24112057E-05
   12.6000004      -1.18581256E-05
   12.7799997      -1.13730339E-05
   12.9600000      -1.09570383E-05
   13.1400003      -1.06110192E-05
   13.3199997      -1.03356861E-05
   13.5000000      -1.01316364E-05
   13.6800003      -9.99941949E-06
   13.8599997      -9.93956655E-06
   14.0400000      -9.95254777E-06
   14.2200003      -1.00387551E-05
   14.3999996      -1.01984542E-05
   14.5799999      -1.04318042E-05
   14.7600002      -1.07388705E-05
   14.9399996      -1.11197251E-05
   15.1199999      -1.15745215E-05
   15.3000002      -1.21036064E-05
   15.4799995      -1.27075818E-05
   15.6599998      -1.33873191E-05
   15.8400002      -1.41439832E-05
   16.0200005      -1.49790139E-05
   16.2000008      -1.58941748E-05
   16.3799992      -1.68915976E-05
   16.5599995      -1.79739091E-05
   16.7399998      -1.91443178E-05
   16.9200001      -2.04066873E-05
   17.1000004      -2.17655015E-05
   17.2800007      -2.32257735E-05
   17.4599991      -2.47928601E-05
   17.6399994      -2.64723076E-05
   17.8199997      -2.82696965E-05
   18.0000000      -3.01904602E-05
   18.1800003      -3.22397718E-05
   18.3600006      -3.44223590E-05
   18.5400009      -3.67422981E-05
   18.7199993      -3.92027032E-05
   18.8999996      -4.18054187E-05
   19.0799999      -4.45506957E-05
   19.2600002      -4.74369226E-05
   19.4400005      -5.04604068E-05
   19.6200008      -5.36152475E-05
   19.7999992      -5.68933101E-05
   19.9799995      -6.02841210E-05
   20.1599998      -6.37749617E-05
   20.3400002      -6.73508694E-05
   20.5200005      -7.09947417E-05
   20.7000008      -7.46873411E-05
   20.8799992      -7.84075455E-05
   21.0599995      -8.21325593E-05
   21.2399998      -8.58383282E-05
   21.4200001      -8.94998957E-05
   21.6000004      -9.30919123E-05
   21.7800007      -9.65890358E-05
   21.9599991      -9.99663607E-05
   22.1399994      -1.03199753E-04
   22.3199997      -1.06266103E-04
   22.5000000      -1.09143788E-04
   22.6800003      -1.11812944E-04
   22.8600006      -1.14255941E-04
   23.0400009      -1.16457733E-04
   23.2199993      -1.18406148E-04
   23.3999996      -1.20092132E-04
   23.5799999      -1.21509896E-04
   23.7600002      -1.22656900E-04
   23.9400005      -1.23533973E-04
   24.1200008      -1.24145270E-04
   24.2999992      -1.24498372E-04
   24.4799995      -1.24604179E-04
   24.6599998      -1.24477068E-04
   24.8400002      -1.24134676E-04
   25.0200005      -1.23597754E-04
   25.2000008      -1.22889891E-04
   25.3799992      -1.22037127E-04
   25.5599995      -1.21067591E-04
   25.7399998      -1.20011005E-04
   25.9200001      -1.18898271E-04
   26.1000004      -1.17761068E-04
   26.2800007      -1.16631330E-04
   26.4599991      -1.15540817E-04
   26.6399994      -1.14520473E-04
   26.8199997      -1.13599832E-04
   27.0000000      -1.12806243E-04
   27.1800003      -1.12164336E-04
   27.3600006      -1.11695357E-04
   27.5400009      -1.11416761E-04
   27.7199993      -1.11341869E-04
   27.8999996      -1.11479640E-04
   28.0799999      -1.11834430E-04
   28.2600002      -1.12405869E-04
   28.4400005      -1.13188747E-04
   28.6200008      -1.14173017E-04
   28.7999992      -1.15343850E-04
   28.9799995      -1.16681957E-04
   29.1599998      -1.18163967E-04
   29.3400002      -1.19763004E-04
   29.5200005      -1.21449295E-04
   29.7000008      -1.23190781E-04
   29.8799992      -1.24953614E-04
   30.0599995      -1.26702871E-04
   30.2399998      -1.28403000E-04
   30.4200001      -1.30018525E-04
   30.6000004      -1.31514549E-04
   30.7800007      -1.32857473E-04
   30.9599991      -1.34015514E-04
   31.1399994      -1.34959308E-04
   31.3199997      -1.35662398E-04
   31.5000000      -1.36101371E-04
   31.6800003      -1.36256247E-04
   31.8600006      -1.36110495E-04
   32.0400009      -1.35651135E-04
   32.2200012      -1.34868824E-04
   32.4000015      -1.33757989E-04
   32.5800018      -1.32316913E-04
   32.7599983      -1.30547822E-04
   32.9399986      -1.28456712E-04
   33.1199989      -1.26053215E-04
   33.2999992      -1.23350299E-04
   33.4799995      -1.20363977E-04
   33.6599998      -1.17113035E-04
   33.8400002      -1.13618829E-04
   34.0200005      -1.09905108E-04
   34.2000008      -1.05997773E-04
   34.3800011      -1.01924597E-04
   34.5600014      -9.77149321E-05
   34.7400017      -9.33992196E-05
   34.9199982      -8.90084484E-05
   35.0999985      -8.45737522E-05
   35.2799988      -8.01258648E-05
   35.4599991      -7.56947557E-05
   35.6399994      -7.13091576E-05
   35.8199997      -6.69961300E-05
   36.0000000      -6.27806949E-05
   36.1800003      -5.86852984E-05
   36.3600006      -5.47294039E-05
   36.5400009      -5.09289239E-05
   36.7200012      -4.72959546E-05
   36.9000015      -4.38385614E-05
   37.0800018      -4.05605533E-05
   37.2599983      -3.74617557E-05
   37.4399986      -3.45380504E-05
   37.6199989      -3.17817066E-05
   37.7999992      -2.91816850E-05
   37.9799995      -2.67240375E-05
   38.1599998      -2.43924223E-05
   38.3400002      -2.21687842E-05
   38.5200005      -2.00340965E-05
   38.7000008      -1.79694434E-05
   38.8800011      -1.59571046E-05
   39.0600014      -1.39816648E-05
   39.2400017      -1.20309569E-05
   39.4199982      -1.00971201E-05
   39.5999985      -8.17733508E-06
   39.7799988      -6.27472400E-06
   39.9599991      -4.39872701E-06
   40.1399994      -2.56567364E-06
   40.3199997      -7.99196414E-07
   40.5000000       8.69738244E-07
   40.6800003       2.40308373E-06
   40.8600006       3.75610989E-06
   41.0400009       4.87817988E-06
   41.2200012       5.71395776E-06
   41.4000015       6.20470291E-06
   41.5800018       6.28989665E-06
   41.7599983       5.90873788E-06
   41.9399986       5.00209535E-06
   42.1199989       3.51426411E-06
   42.2999992       1.39487304E-06
   42.4799995      -1.39918359E-06
   42.6599998      -4.90181219E-06
   42.8400002      -9.13609711E-06
   43.0200005      -1.41125565E-05
   43.2000008      -1.98282287E-05
   43.3800011      -2.62658996E-05
   43.5600014      -3.33933676E-05
   43.7400017      -4.11638612E-05
   43.9199982      -4.95162894E-05
   44.0999985      -5.83757283E-05
   44.2799988      -6.76546697E-05
   44.4599991      -7.72543572E-05
   44.6399994      -8.70666045E-05
   44.8199997      -9.69759494E-05
   45.0000000      -1.06862273E-04
   45.1800003      -1.16603391E-04
   45.3600006      -1.26077954E-04
   45.5400009      -1.35167953E-04
   45.7200012      -1.43761659E-04
   45.9000015      -1.51756030E-04
   46.0800018      -1.59059025E-04
   46.2599983      -1.65591919E-04
   46.4399986      -1.71291074E-04
   46.6199989      -1.76109505E-04
   46.7999992      -1.80018425E-04
   46.9799995      -1.83007782E-04
   47.1599998      -1.85086785E-04
   47.3400002      -1.86283825E-04
   47.5200005      -1.86646037E-04
   47.7000008      -1.86238220E-04
   47.8800011      -1.85141675E-04
   48.0600014      -1.83452794E-04
   48.2400017      -1.81281270E-04
   48.4199982      -1.78747970E-04
   48.5999985      -1.75982932E-04
   48.7799988      -1.73122738E-04
   48.9599991      -1.70307947E-04
   49.1399994      -1.67680366E-04
   49.3199997      -1.65380508E-04
   49.5000000      -1.63545032E-04
   49.6800003      -1.62304437E-04
   49.8600006      -1.61781005E-04
   50.0400009      -1.62086770E-04
   50.2200012      -1.63321703E-04
   50.4000015      -1.65572172E-04
   50.5800018      -1.68909508E-04
   50.7599983      -1.73388791E-04
   50.9399986      -1.79048118E-04
   51.1199989      -1.85908168E-04
   51.2999992      -1.93971966E-04
   51.4799995      -2.03225092E-04
   51.6599998      -2.13636144E-04
   51.8400002      -2.25157361E-04
   52.0200005      -2.37725370E-04
   52.2000008      -2.51262274E-04
   52.3800011      -2.65676936E-04
   52.5600014      -2.80866137E-04
   52.7400017      -2.96716695E-04
   52.9199982      -3.13106488E-04
   53.0999985      -3.29906907E-04
   53.2799988      -3.46984394E-04
   53.4599991      -3.64202628E-04
   53.6399994      -3.81423713E-04
   53.8199997      -3.98510514E-04
   54.0000000      -4.15327726E-04
   54.1800003      -4.31743450E-04
   54.3600006      -4.47630417E-04
   54.5400009      -4.62867261E-04
   54.7200012      -4.77339636E-04
   54.9000015      -4.90940874E-04
   55.0800018      -5.03572926E-04
   55.2599983      -5.15146356E-04
   55.4399986      -5.25580894E-04
   55.6199989      -5.34805120E-04
   55.7999992      -5.42756694E-04
   55.9799995      -5.49382356E-04
   56.1599998      -5.54637751E-04
   56.3400002      -5.58487431E-04
   56.5200005      -5.60904446E-04
   56.7000008      -5.61870635E-04
   56.8800011      -5.61375753E-04
   57.0600014      -5.59417531E-04
   57.2400017      -5.56001440E-04
   57.4199982      -5.51140343E-04
   57.5999985      -5.44854614E-04
   57.7799988      -5.37171611E-04
   57.9599991      -5.28126024E-04
   58.1399994      -5.17759414E-04
   58.3199997      -5.06120094E-04
   58.5000000      -4.93262662E-04
   58.6800003      -4.79247770E-04
   58.8600006      -4.64140903E-04
   59.0400009      -4.48012142E-04
   59.2200012      -4.30935383E-04
   59.4000015      -4.12987283E-04
   59.5800018      -3.94246774E-04
   59.7599983      -3.74793948E-04
   59.9399986      -3.54709016E-04
   60.1199989      -3.34071490E-04
   60.2999992      -3.12959164E-04
   60.4799995      -2.91447039E-04
   60.6599998      -2.69606768E-04
   60.8400002      -2.47506192E-04
   61.0200005      -2.25209136E-04
   61.2000008      -2.02775176E-04
   61.3800011      -1.80259973E-04
   61.5600014      -1.57715316E-04
   61.7400017      -1.35189606E-04
   61.9199982      -1.12728478E-04
   62.0999985      -9.03755426E-05
   62.2799988      -6.81731035E-05
   62.4599991      -4.61631316E-05
   62.6399994      -2.43884333E-05
   62.8199997      -2.89374566E-06
   63.0000000       1.82733947E-05
   63.1800003       3.90617643E-05
   63.3600006       5.94158446E-05
   63.5400009       7.92752544E-05
   63.7200012       9.85746155E-05
   63.9000015       1.17243522E-04
   64.0800018       1.35206632E-04
   64.2600021       1.52384149E-04
   64.4400024       1.68692684E-04
   64.6200027       1.84046148E-04
   64.8000031       1.98357229E-04
   64.9800034       2.11539169E-04
   65.1600037       2.23507639E-04
   65.3399963       2.34182648E-04
   65.5199966       2.43490707E-04
   65.6999969       2.51366757E-04
   65.8799973       2.57755979E-04
   66.0599976       2.62615620E-04
   66.2399979       2.65916722E-04
   66.4199982       2.67645606E-04
   66.5999985       2.67805095E-04
   66.7799988       2.66415504E-04
   66.9599991       2.63515190E-04
   67.1399994       2.59160588E-04
   67.3199997       2.53426027E-04
   67.5000000       2.46402720E-04
   67.6800003       2.38197696E-04
   67.8600006       2.28932462E-04
   68.0400009       2.18741057E-04
   68.2200012       2.07768069E-04
   68.4000015       1.96166380E-04
   68.5800018       1.84094548E-04
   68.7600021       1.71714302E-04
   68.9400024       1.59187432E-04
   69.1200027       1.46673221E-04
   69.3000031       1.34325353E-04
   69.4800034       1.22289595E-04
   69.6600037       1.10701032E-04
   69.8399963       9.96822710E-05
   70.0199966       8.93411270E-05
   70.1999969       7.97690809E-05
   70.3799973       7.10399545E-05
   70.5599976       6.32088268E-05
   70.7399979       5.63112226E-05
   70.9199982       5.03628944E-05
   71.0999985       4.53599750E-05
   71.2799988       4.12797453E-05
   71.4599991       3.80815254E-05
   71.6399994       3.57081262E-05
   71.8199997       3.40872357E-05
   72.0000000       3.31332121E-05
   72.1800003       3.27491980E-05
   72.3600006       3.28293645E-05
   72.5400009       3.32614109E-05
   72.7200012       3.39290855E-05
   72.9000015       3.47148998E-05
   73.0800018       3.55030752E-05
   73.2600021       3.61818638E-05
   73.4400024       3.66463391E-05
   73.6200027       3.68005167E-05
   73.8000031       3.65594424E-05
   73.9800034       3.58508441E-05
   74.1600037       3.46166380E-05
   74.3399963       3.28141796E-05
   74.5199966       3.04171208E-05
   74.6999969       2.74159902E-05
   74.8799973       2.38184366E-05
   75.0599976       1.96489891E-05
   75.2399979       1.49484113E-05
   75.4199982       9.77279342E-06
   75.5999985       4.19216758E-06
   75.7799988      -1.71102602E-06
   75.9599991      -7.84356234E-06
   76.1399994      -1.41036098E-05
   76.3199997      -2.03826639E-05
   76.5000000      -2.65678900E-05
   76.6800003      -3.25446090E-05
   76.8600006      -3.81989121E-05
   77.0400009      -4.34200156E-05
   77.2200012      -4.81028110E-05
   77.4000015      -5.21499169E-05
   77.5800018      -5.54735780E-05
   77.7600021      -5.79972984E-05
   77.9400024      -5.96572609E-05
   78.1200027      -6.04034249E-05
   78.3000031      -6.02004147E-05
   78.4800034      -5.90281343E-05
   78.6600037      -5.68821160E-05
   78.8399963      -5.37734450E-05
   79.0199966      -4.97284200E-05
   79.1999969      -4.47877756E-05
   79.3799973      -3.90057176E-05
   79.5599976      -3.24486937E-05
   79.7399979      -2.51940783E-05
   79.9199982      -1.73288372E-05
   80.0999985      -8.94813547E-06
   80.2799988      -1.54039171E-07
   80.4599991       8.94603363E-06
   80.6399994       1.82406584E-05
   80.8199997       2.76160026E-05
   81.0000000       3.69572663E-05
   81.1800003       4.61502168E-05
   81.3600006       5.50824298E-05
   81.5400009       6.36446566E-05
   81.7200012       7.17318180E-05
   81.9000015       7.92442879E-05
   82.0800018       8.60888977E-05
   82.2600021       9.21801402E-05
   82.4400024       9.74412396E-05
   82.6200027       1.01805330E-04
   82.8000031       1.05216423E-04
   82.9800034       1.07630134E-04
   83.1600037       1.09014545E-04
   83.3399963       1.09350643E-04
   83.5199966       1.08632885E-04
   83.6999969       1.06869506E-04
   83.8799973       1.04082857E-04
   84.0599976       1.00309378E-04
   84.2399979       9.55996002E-05
   84.4199982       9.00176819E-05
   84.5999985       8.36407125E-05
   84.7799988       7.65575896E-05
   84.9599991       6.88677319E-05
   85.1399994       6.06795547E-05
   85.3199997       5.21086586E-05
   85.5000000       4.32760316E-05
   85.6800003       3.43062020E-05
   85.8600006       2.53252783E-05
   86.0400009       1.64588528E-05
   86.2200012       7.82984262E-06
   86.4000015      -4.43681472E-07
   86.5800018      -8.25069583E-06
   86.7600021      -1.54891641E-05
   86.9400024      -2.20678503E-05
   87.1200027      -2.79076921E-05
   87.3000031      -3.29429895E-05
   87.4800034      -3.71222268E-05
   87.6600037      -4.04086932E-05
   87.8399963      -4.27808081E-05
   88.0199966      -4.42321762E-05
   88.1999969      -4.47713646E-05
   88.3799973      -4.44212492E-05
   88.5599976      -4.32181114E-05
   88.7399979      -4.12103800E-05
   88.9199982      -3.84571285E-05
   89.0999985      -3.50264854E-05
   89.2799988      -3.09938368E-05
   89.4599991      -2.64401715E-05
   89.6399994      -2.14503125E-05
   89.8199997      -1.61111602E-05
   90.0000000      -1.05100225E-05
   90.1800003      -4.73283171E-06
   90.3600006       1.13732585E-06
   90.5400009       7.02191528E-06
   90.7200012       1.28482052E-05
   90.9000015       1.85502468E-05
   91.0800018       2.40696863E-05
   91.2600021       2.93561898E-05
   91.4400024       3.43678585E-05
   91.6200027       3.90712048E-05
   91.8000031       4.34412359E-05
   91.9800034       4.74613189E-05
   92.1600037       5.11227991E-05
   92.3399963       5.44246868E-05
   92.5199966       5.73726647E-05
   92.6999969       5.99782434E-05
   92.8799973       6.22575462E-05
   93.0599976       6.42301384E-05
   93.2399979       6.59176658E-05
   93.4199982       6.73426475E-05
   93.5999985       6.85273189E-05
   93.7799988       6.94924020E-05
   93.9599991       7.02560937E-05
   94.1399994       7.08328516E-05
   94.3199997       7.12326218E-05
   94.5000000       7.14599519E-05
   94.6800003       7.15133137E-05
   94.8600006       7.13847840E-05
   95.0400009       7.10599925E-05
   95.2200012       7.05183265E-05
   95.4000015       6.97334690E-05
   95.5800018       6.86739804E-05
   95.7600021       6.73042668E-05
   95.9400024       6.55855038E-05
   96.1200027       6.34769385E-05
   96.3000031       6.09372219E-05
   96.4800034       5.79259868E-05
   96.6600037       5.44057184E-05
   96.8399963       5.03434421E-05
   97.0199966       4.57125898E-05
   97.1999969       4.04946804E-05
   97.3799973       3.46806701E-05
   97.5599976       2.82722995E-05
   97.7399979       2.12829400E-05
   97.9199982       1.37383904E-05
   98.0999985       5.67750249E-06
   98.2799988      -2.84759858E-06
   98.4599991      -1.17714708E-05
   98.6399994      -2.10156504E-05
   98.8199997      -3.04894984E-05
   99.0000000      -4.00913123E-05
   99.1800003      -4.97098590E-05
   99.3600006      -5.92260985E-05
   99.5400009      -6.85151899E-05
   99.7200012      -7.74486107E-05
   99.9000015      -8.58962958E-05
   100.080002      -9.37288205E-05
   100.260002      -1.00819692E-04
   100.440002      -1.07047628E-04
   100.620003      -1.12298672E-04
