  -7.19999981         0.00000000    
  -7.01999998         2.57846106E-10
  -6.84000015         7.45012330E-10
  -6.65999985         1.33945943E-09
  -6.48000002         1.86348581E-09
  -6.30000019         2.13714291E-09
  -6.11999989         2.02363570E-09
  -5.94000006         1.44496570E-09
  -5.76000023         3.58250846E-10
  -5.57999992        -1.29868927E-09
  -5.40000010        -3.66856168E-09
  -5.21999979        -7.01514846E-09
  -5.03999996        -1.17272432E-08
  -4.86000013        -1.82916011E-08
  -4.67999983        -2.72602065E-08
  -4.50000000        -3.92433570E-08
  -4.32000017        -5.49483303E-08
  -4.13999987        -7.52600329E-08
  -3.96000004        -1.01338024E-07
  -3.77999997        -1.34696492E-07
  -3.59999990        -1.77243891E-07
  -3.42000008        -2.31280808E-07
  -3.24000001        -2.99475829E-07
  -3.05999994        -3.84847311E-07
  -2.88000011        -4.90771868E-07
  -2.70000005        -6.21022650E-07
  -2.51999998        -7.79821960E-07
  -2.33999991        -9.71882059E-07
  -2.16000009        -1.20241043E-06
  -1.98000002        -1.47706510E-06
  -1.79999995        -1.80186055E-06
  -1.62000000        -2.18303740E-06
  -1.44000006        -2.62691401E-06
  -1.25999999        -3.13973987E-06
  -1.08000004        -3.72756085E-06
 -0.899999976        -4.39609448E-06
 -0.720000029        -5.15060492E-06
 -0.540000021        -5.99574560E-06
 -0.360000014        -6.93537413E-06
 -0.180000007        -7.97231678E-06
   0.00000000        -9.10812105E-06
  0.180000007        -1.03428292E-05
  0.360000014        -1.16748124E-05
  0.540000021        -1.31006809E-05
  0.720000029        -1.46152770E-05
  0.899999976        -1.62117140E-05
   1.08000004        -1.78814353E-05
   1.25999999        -1.96142792E-05
   1.44000006        -2.13985568E-05
   1.62000000        -2.32211623E-05
   1.79999995        -2.50677513E-05
   1.98000002        -2.69230040E-05
   2.16000009        -2.87709317E-05
   2.33999991        -3.05952599E-05
   2.51999998        -3.23797794E-05
   2.70000005        -3.41086816E-05
   2.88000011        -3.57668468E-05
   3.05999994        -3.73400653E-05
   3.24000001        -3.88152694E-05
   3.42000008        -4.01807301E-05
   3.59999990        -4.14262213E-05
   3.77999997        -4.25431972E-05
   3.96000004        -4.35249203E-05
   4.13999987        -4.43665267E-05
   4.32000017        -4.50650332E-05
   4.50000000        -4.56192574E-05
   4.67999983        -4.60296724E-05
   4.86000013        -4.62982025E-05
   5.03999996        -4.64280383E-05
   5.21999979        -4.64234690E-05
   5.40000010        -4.62897297E-05
   5.57999992        -4.60329138E-05
   5.76000023        -4.56598245E-05
   5.94000006        -4.51778578E-05
   6.11999989        -4.45947990E-05
   6.30000019        -4.39186260E-05
   6.48000002        -4.31573535E-05
   6.65999985        -4.23188831E-05
   6.84000015        -4.14109672E-05
   7.01999998        -4.04411949E-05
   7.19999981        -3.94170165E-05
   7.38000011        -3.83457445E-05
   7.55999994        -3.72344948E-05
   7.73999977        -3.60901249E-05
   7.92000008        -3.49191796E-05
   8.10000038        -3.37278070E-05
   8.27999973        -3.25217843E-05
   8.46000004        -3.13065102E-05
   8.64000034        -3.00870979E-05
   8.81999969        -2.88684205E-05
   9.00000000        -2.76551546E-05
   9.18000031        -2.64518203E-05
   9.35999966        -2.52627742E-05
   9.53999996        -2.40921618E-05
   9.72000027        -2.29439465E-05
   9.89999962        -2.18218884E-05
   10.0799999        -2.07295907E-05
   10.2600002        -1.96706060E-05
   10.4399996        -1.86484540E-05
   10.6199999        -1.76666726E-05
   10.8000002        -1.67287963E-05
   10.9799995        -1.58382882E-05
   11.1599998        -1.49984298E-05
   11.3400002        -1.42122453E-05
   11.5200005        -1.34824659E-05
   11.6999998        -1.28115307E-05
   11.8800001        -1.22016490E-05
   12.0600004        -1.16548035E-05
   12.2399998        -1.11727850E-05
   12.4200001        -1.07571404E-05
   12.6000004        -1.04091205E-05
   12.7799997        -1.01296400E-05
   12.9600000        -9.91926117E-06
   13.1400003        -9.77821128E-06
   13.3199997        -9.70647216E-06
   13.5000000        -9.70385554E-06
   13.6800003        -9.77003401E-06
   13.8599997        -9.90460103E-06
   14.0400000        -1.01070664E-05
   14.2200003        -1.03768680E-05
   14.3999996        -1.07133756E-05
   14.5799999        -1.11159616E-05
   14.7600002        -1.15840639E-05
   14.9399996        -1.21173425E-05
   15.1199999        -1.27157773E-05
   15.3000002        -1.33798530E-05
   15.4799995        -1.41106084E-05
   15.6599998        -1.49097204E-05
   15.8400002        -1.57794930E-05
   16.0200005        -1.67228281E-05
   16.2000008        -1.77432357E-05
   16.3799992        -1.88448339E-05
   16.5599995        -2.00323848E-05
   16.7399998        -2.13112835E-05
   16.9200001        -2.26875563E-05
   17.1000004        -2.41677408E-05
   17.2800007        -2.57586853E-05
   17.4599991        -2.74673239E-05
   17.6399994        -2.93003941E-05
   17.8199997        -3.12641860E-05
   18.0000000        -3.33642965E-05
   18.1800003        -3.56054188E-05
   18.3600006        -3.79910744E-05
   18.5400009        -4.05233332E-05
   18.7199993        -4.32025154E-05
   18.8999996        -4.60268857E-05
   19.0799999        -4.89923696E-05
   19.2600002        -5.20923277E-05
   19.4400005        -5.53174359E-05
   19.6200008        -5.86556307E-05
   19.7999992        -6.20921419E-05
   19.9799995        -6.56095945E-05
   20.1599998        -6.91882087E-05
   20.3400002        -7.28059240E-05
   20.5200005        -7.64387223E-05
   20.7000008        -8.00608686E-05
   20.8799992        -8.36452891E-05
   21.0599995        -8.71639859E-05
   21.2399998        -9.05885827E-05
   21.4200001        -9.38908779E-05
   21.6000004        -9.70434703E-05
   21.7800007        -1.00020283E-04
   21.9599991        -1.02797065E-04
   22.1399994        -1.05351821E-04
   22.3199997        -1.07665132E-04
   22.5000000        -1.09720611E-04
   22.6800003        -1.11505222E-04
   22.8600006        -1.13009621E-04
   23.0400009        -1.14228453E-04
   23.2199993        -1.15160605E-04
   23.3999996        -1.15809191E-04
   23.5799999        -1.16181604E-04
   23.7600002        -1.16289310E-04
   23.9400005        -1.16147588E-04
   24.1200008        -1.15775307E-04
   24.2999992        -1.15194540E-04
   24.4799995        -1.14430222E-04
   24.6599998        -1.13509821E-04
   24.8400002        -1.12462854E-04
   25.0200005        -1.11320434E-04
   25.2000008        -1.10114728E-04
   25.3799992        -1.08878543E-04
   25.5599995        -1.07644693E-04
   25.7399998        -1.06445586E-04
   25.9200001        -1.05312793E-04
   26.1000004        -1.04276638E-04
   26.2800007        -1.03365899E-04
   26.4599991        -1.02607366E-04
   26.6399994        -1.02025529E-04
   26.8199997        -1.01642152E-04
   27.0000000        -1.01475809E-04
   27.1800003        -1.01541540E-04
   27.3600006        -1.01850521E-04
   27.5400009        -1.02409853E-04
   27.7199993        -1.03222439E-04
   27.8999996        -1.04286897E-04
   28.0799999        -1.05597581E-04
   28.2600002        -1.07144486E-04
   28.4400005        -1.08913278E-04
   28.6200008        -1.10885310E-04
   28.7999992        -1.13037786E-04
   28.9799995        -1.15344017E-04
   29.1599998        -1.17773838E-04
   29.3400002        -1.20294018E-04
   29.5200005        -1.22868820E-04
   29.7000008        -1.25460472E-04
   29.8799992        -1.28029700E-04
   30.0599995        -1.30536238E-04
   30.2399998        -1.32939284E-04
   30.4200001        -1.35197974E-04
   30.6000004        -1.37271869E-04
   30.7800007        -1.39121548E-04
   30.9599991        -1.40709104E-04
   31.1399994        -1.41998520E-04
   31.3199997        -1.42956153E-04
   31.5000000        -1.43551035E-04
   31.6800003        -1.43755096E-04
   31.8600006        -1.43543439E-04
   32.0400009        -1.42894467E-04
   32.2200012        -1.41790224E-04
   32.4000015        -1.40216536E-04
   32.5800018        -1.38163305E-04
   32.7599983        -1.35624708E-04
   32.9399986        -1.32599380E-04
   33.1199989        -1.29090491E-04
   33.2999992        -1.25105726E-04
   33.4799995        -1.20657445E-04
   33.6599998        -1.15762625E-04
   33.8400002        -1.10442881E-04
   34.0200005        -1.04724546E-04
   34.2000008        -9.86385348E-05
   34.3800011        -9.22201652E-05
   34.5600014        -8.55087565E-05
   34.7400017        -7.85472148E-05
   34.9199982        -7.13813351E-05
   35.0999985        -6.40591606E-05
   35.2799988        -5.66301896E-05
   35.4599991        -4.91446226E-05
   35.6399994        -4.16526054E-05
   35.8199997        -3.42033854E-05
   36.0000000        -2.68446038E-05
   36.1800003        -1.96214260E-05
   36.3600006        -1.25758306E-05
   36.5400009        -5.74585420E-06
   36.7200012         8.34976504E-07
   36.9000015         7.13810550E-06
   37.0800018         1.31402048E-05
   37.2599983         1.88233498E-05
   37.4399986         2.41748803E-05
   37.6199989         2.91872420E-05
   37.7999992         3.38576792E-05
   37.9799995         3.81878890E-05
   38.1599998         4.21833793E-05
   38.3400002         4.58528448E-05
   38.5200005         4.92071485E-05
   38.7000008         5.22584560E-05
   38.8800011         5.50190343E-05
   39.0600014         5.75001686E-05
   39.2400017         5.97109902E-05
   39.4199982         6.16574980E-05
   39.5999985         6.33416421E-05
   39.7799988         6.47604029E-05
   39.9599991         6.59050565E-05
   40.1399994         6.67606655E-05
   40.3199997         6.73056566E-05
   40.5000000         6.75116244E-05
   40.6800003         6.73434770E-05
   40.8600006         6.67597633E-05
   41.0400009         6.57134660E-05
   41.2200012         6.41528750E-05
   41.4000015         6.20229184E-05
   41.5800018         5.92666438E-05
   41.7599983         5.58268548E-05
   41.9399986         5.16479158E-05
   42.1199989         4.66775382E-05
   42.2999992         4.08687774E-05
   42.4799995         3.41817758E-05
   42.6599998         2.65860072E-05
   42.8400002         1.80618772E-05
   43.0200005         8.60241107E-06
   43.2000008        -1.78552659E-06
   43.3800011        -1.30801473E-05
   43.5600014        -2.52443042E-05
   43.7400017        -3.82250910E-05
   43.9199982        -5.19542955E-05
   44.0999985        -6.63488026E-05
   44.2799988        -8.13119113E-05
   44.4599991        -9.67343949E-05
   44.6399994        -1.12496469E-04
   44.8199997        -1.28469663E-04
   45.0000000        -1.44519290E-04
   45.1800003        -1.60506956E-04
   45.3600006        -1.76292888E-04
   45.5400009        -1.91739106E-04
   45.7200012        -2.06711586E-04
   45.9000015        -2.21083261E-04
   46.0800018        -2.34735853E-04
   46.2599983        -2.47562362E-04
   46.4399986        -2.59468681E-04
   46.6199989        -2.70375574E-04
   46.7999992        -2.80219829E-04
   46.9799995        -2.88955547E-04
   47.1599998        -2.96554383E-04
   47.3400002        -3.03006353E-04
   47.5200005        -3.08319373E-04
   47.7000008        -3.12518998E-04
   47.8800011        -3.15647572E-04
   48.0600014        -3.17763188E-04
   48.2400017        -3.18938371E-04
   48.4199982        -3.19258397E-04
   48.5999985        -3.18819919E-04
   48.7799988        -3.17728816E-04
   48.9599991        -3.16098507E-04
   49.1399994        -3.14047589E-04
   49.3199997        -3.11697775E-04
   49.5000000        -3.09171941E-04
   49.6800003        -3.06591828E-04
   49.8600006        -3.04076180E-04
   50.0400009        -3.01739085E-04
   50.2200012        -2.99688079E-04
   50.4000015        -2.98022787E-04
   50.5800018        -2.96833314E-04
   50.7599983        -2.96199112E-04
   50.9399986        -2.96187733E-04
   51.1199989        -2.96853745E-04
   51.2999992        -2.98238010E-04
   51.4799995        -3.00367159E-04
   51.6599998        -3.03253182E-04
   51.8400002        -3.06893431E-04
   52.0200005        -3.11270705E-04
   52.2000008        -3.16353573E-04
   52.3800011        -3.22096981E-04
   52.5600014        -3.28442897E-04
   52.7400017        -3.35321296E-04
   52.9199982        -3.42651067E-04
   53.0999985        -3.50341550E-04
   53.2799988        -3.58293997E-04
   53.4599991        -3.66403168E-04
   53.6399994        -3.74558847E-04
   53.8199997        -3.82647733E-04
   54.0000000        -3.90554895E-04
   54.1800003        -3.98165663E-04
   54.3600006        -4.05366882E-04
   54.5400009        -4.12048830E-04
   54.7200012        -4.18106472E-04
   54.9000015        -4.23440943E-04
   55.0800018        -4.27960797E-04
   55.2599983        -4.31583205E-04
   55.4399986        -4.34234069E-04
   55.6199989        -4.35849361E-04
   55.7999992        -4.36375121E-04
   55.9799995        -4.35767550E-04
   56.1599998        -4.33993380E-04
   56.3400002        -4.31029679E-04
   56.5200005        -4.26863757E-04
   56.7000008        -4.21493110E-04
   56.8800011        -4.14924842E-04
   57.0600014        -4.07175481E-04
   57.2400017        -3.98270495E-04
   57.4199982        -3.88243992E-04
   57.5999985        -3.77138174E-04
   57.7799988        -3.65002721E-04
   57.9599991        -3.51894530E-04
   58.1399994        -3.37877078E-04
   58.3199997        -3.23020067E-04
   58.5000000        -3.07398674E-04
   58.6800003        -2.91092962E-04
   58.8600006        -2.74187012E-04
   59.0400009        -2.56767991E-04
   59.2200012        -2.38925626E-04
   59.4000015        -2.20750444E-04
   59.5800018        -2.02333482E-04
   59.7599983        -1.83765005E-04
   59.9399986        -1.65133693E-04
   60.1199989        -1.46525388E-04
   60.2999992        -1.28022104E-04
   60.4799995        -1.09701243E-04
   60.6599998        -9.16344579E-05
   60.8400002        -7.38873132E-05
   61.0200005        -5.65187584E-05
   61.2000008        -3.95804745E-05
   61.3800011        -2.31171707E-05
   61.5600014        -7.16642080E-06
   61.7400017         8.24116523E-06
   61.9199982         2.30815403E-05
   62.0999985         3.73367293E-05
   62.2799988         5.09940583E-05
   62.4599991         6.40454455E-05
   62.6399994         7.64861252E-05
   62.8199997         8.83136454E-05
   63.0000000         9.95264418E-05
   63.1800003         1.10122601E-04
   63.3600006         1.20098375E-04
   63.5400009         1.29447406E-04
   63.7200012         1.38159405E-04
   63.9000015         1.46219507E-04
   64.0800018         1.53607689E-04
   64.2600021         1.60298237E-04
   64.4400024         1.66259837E-04
   64.6200027         1.71455511E-04
   64.8000031         1.75843146E-04
   64.9800034         1.79376337E-04
   65.1600037         1.82005533E-04
   65.3399963         1.83679324E-04
   65.5199966         1.84346165E-04
   65.6999969         1.83956159E-04
   65.8799973         1.82462900E-04
   66.0599976         1.79825554E-04
   66.2399979         1.76010755E-04
   66.4199982         1.70994681E-04
   66.5999985         1.64765006E-04
   66.7799988         1.57322589E-04
   66.9599991         1.48683088E-04
   67.1399994         1.38878167E-04
   67.3199997         1.27956548E-04
   67.5000000         1.15984280E-04
   67.6800003         1.03044986E-04
   67.8600006         8.92394892E-05
   68.0400009         7.46849619E-05
   68.2200012         5.95139572E-05
   68.4000015         4.38729003E-05
   68.5800018         2.79202432E-05
   68.7600021         1.18243252E-05
   68.9400024        -4.23912161E-06
   69.1200027        -2.00896266E-05
   69.3000031        -3.55451921E-05
   69.4800034        -5.04253512E-05
   69.6600037        -6.45543478E-05
   69.8399963        -7.77643800E-05
   70.0199966        -8.98985163E-05
   70.1999969        -1.00813930E-04
   70.3799973        -1.10384295E-04
   70.5599976        -1.18502452E-04
   70.7399979        -1.25082675E-04
   70.9199982        -1.30062472E-04
   71.0999985        -1.33404013E-04
   71.2799988        -1.35095208E-04
   71.4599991        -1.35150054E-04
   71.6399994        -1.33608555E-04
   71.8199997        -1.30536195E-04
   72.0000000        -1.26022700E-04
   72.1800003        -1.20180390E-04
   72.3600006        -1.13142065E-04
   72.5400009        -1.05058622E-04
   72.7200012        -9.60959296E-05
   72.9000015        -8.64318063E-05
   73.0800018        -7.62524505E-05
   73.2600021        -6.57486889E-05
   73.4400024        -5.51122866E-05
   73.6200027        -4.45319674E-05
   73.8000031        -3.41899286E-05
   73.9800034        -2.42582464E-05
   74.1600037        -1.48956879E-05
   74.3399963        -6.24475888E-06
   74.5199966         1.57094200E-06
   74.6999969         8.44920032E-06
   74.8799973         1.43109792E-05
   75.0599976         1.91020063E-05
   75.2399979         2.27934997E-05
   75.4199982         2.53827075E-05
   75.5999985         2.68925560E-05
   75.7799988         2.73709011E-05
   75.9599991         2.68891363E-05
   76.1399994         2.55403975E-05
   76.3199997         2.34372765E-05
   76.5000000         2.07092580E-05
   76.6800003         1.74994966E-05
   76.8600006         1.39616104E-05
   77.0400009         1.02561717E-05
   77.2200012         6.54698943E-06
   77.4000015         2.99745284E-06
   77.5800018        -2.33097438E-07
   77.7600021        -2.99287035E-06
   77.9400024        -5.14070280E-06
   78.1200027        -6.54895302E-06
   78.3000031        -7.10594304E-06
   78.4800034        -6.71807447E-06
   78.6600037        -5.31134310E-06
   78.8399963        -2.83252029E-06
   79.0199966         7.50249569E-07
   79.1999969         5.44726390E-06
   79.3799973         1.12476027E-05
   79.5599976         1.81199339E-05
   79.7399979         2.60136530E-05
   79.9199982         3.48603353E-05
   80.0999985         4.45754122E-05
   80.2799988         5.50599543E-05
   80.4599991         6.62026941E-05
   80.6399994         7.78820031E-05
   80.8199997         8.99679435E-05
   81.0000000         1.02324339E-04
   81.1800003         1.14810930E-04
   81.3600006         1.27285268E-04
   81.5400009         1.39604657E-04
   81.7200012         1.51628017E-04
   81.9000015         1.63217410E-04
   82.0800018         1.74239787E-04
   82.2600021         1.84568518E-04
   82.4400024         1.94084889E-04
   82.6200027         2.02679599E-04
   82.8000031         2.10254249E-04
   82.9800034         2.16722634E-04
   83.1600037         2.22012110E-04
   83.3399963         2.26064862E-04
   83.5199966         2.28838879E-04
   83.6999969         2.30308855E-04
   83.8799973         2.30466932E-04
   84.0599976         2.29323079E-04
   84.2399979         2.26905366E-04
   84.4199982         2.23259936E-04
   84.5999985         2.18450718E-04
   84.7799988         2.12558676E-04
   84.9599991         2.05680830E-04
   85.1399994         1.97928923E-04
   85.3199997         1.89427723E-04
   85.5000000         1.80312985E-04
   85.6800003         1.70729283E-04
   85.8600006         1.60827360E-04
   86.0400009         1.50761596E-04
   86.2200012         1.40687145E-04
   86.4000015         1.30757035E-04
   86.5800018         1.21119170E-04
   86.7600021         1.11913330E-04
   86.9400024         1.03268365E-04
   87.1200027         9.52995033E-05
   87.3000031         8.81059823E-05
   87.4800034         8.17689433E-05
   87.6600037         7.63498902E-05
   87.8399963         7.18894225E-05
   88.0199966         6.84065380E-05
   88.1999969         6.58983990E-05
   88.3799973         6.43405292E-05
   88.5599976         6.36875338E-05
   88.7399979         6.38742131E-05
   88.9199982         6.48171917E-05
   89.0999985         6.64169565E-05
   89.2799988         6.85602208E-05
   89.4599991         7.11225730E-05
   89.6399994         7.39713578E-05
   89.8199997         7.69685648E-05
   90.0000000         7.99738118E-05
   90.1800003         8.28473349E-05
   90.3600006         8.54528625E-05
   90.5400009         8.76604827E-05
   90.7200012         8.93493634E-05
   90.9000015         9.04101980E-05
   91.0800018         9.07475915E-05
   91.2600021         9.02816973E-05
   91.4400024         8.89498842E-05
   91.6200027         8.67076160E-05
   91.8000031         8.35293104E-05
   91.9800034         7.94085645E-05
   92.1600037         7.43579731E-05
   92.3399963         6.84088009E-05
   92.5199966         6.16099715E-05
   92.6999969         5.40268120E-05
   92.8799973         4.57395254E-05
   93.0599976         3.68410911E-05
   93.2399979         2.74352060E-05
   93.4199982         1.76336816E-05
   93.5999985         7.55389783E-06
   93.7799988        -2.68383837E-06
   93.9599991        -1.29592217E-05
   94.1399994        -2.31545109E-05
   94.3199997        -3.31574593E-05
   94.5000000        -4.28638123E-05
   94.6800003        -5.21798429E-05
   94.8600006        -6.10245370E-05
   95.0400009        -6.93316179E-05
   95.2200012        -7.70509505E-05
   95.4000015        -8.41496440E-05
   95.5800018        -9.06124988E-05
   95.7600021        -9.64420979E-05
   95.9400024        -1.01658276E-04
   96.1200027        -1.06297077E-04
   96.3000031        -1.10409586E-04
   96.4800034        -1.14059898E-04
   96.6600037        -1.17323041E-04
   96.8399963        -1.20282290E-04
   97.0199966        -1.23026417E-04
   97.1999969        -1.25646533E-04
   97.3799973        -1.28233063E-04
   97.5599976        -1.30872708E-04
   97.7399979        -1.33645648E-04
   97.9199982        -1.36622752E-04
   98.0999985        -1.39863288E-04
   98.2799988        -1.43412894E-04
   98.4599991        -1.47301776E-04
   98.6399994        -1.51543660E-04
   98.8199997        -1.56134760E-04
   99.0000000        -1.61053671E-04
   99.1800003        -1.66261438E-04
   99.3600006        -1.71702370E-04
   99.5400009        -1.77305163E-04
   99.7200012        -1.82984586E-04
   99.9000015        -1.88643375E-04
   100.080002        -1.94174543E-04
   100.260002        -1.99463888E-04
   100.440002        -2.04392520E-04
   100.620003        -2.08839614E-04
