  -7.19999981         5.11800675E-18
  -7.01949978         6.37745690E-11
  -6.83900023         2.09681245E-10
  -6.65850019         4.53744681E-10
  -6.47800016         8.04474709E-10
  -6.29750013         1.25737243E-09
  -6.11700010         1.79071780E-09
  -5.93650007         2.36310593E-09
  -5.75600004         2.91219515E-09
  -5.57550001         3.35402861E-09
  -5.39499998         3.58293217E-09
  -5.21449995         3.47249851E-09
  -5.03399992         2.87763702E-09
  -4.85349989         1.63604041E-09
  -4.67299986        -4.34279918E-10
  -4.49249983        -3.54522900E-09
  -4.31199980        -7.95906097E-09
  -4.13149977        -1.40185676E-08
  -3.95099998        -2.21839631E-08
  -3.77049994        -3.30721726E-08
  -3.58999991        -4.74949147E-08
  -3.40949988        -6.64938611E-08
  -3.22900009        -9.13725415E-08
  -3.04850006        -1.23724973E-07
  -2.86800003        -1.65460463E-07
  -2.68750000        -2.18823303E-07
  -2.50699997        -2.86406106E-07
  -2.32649994        -3.71156574E-07
  -2.14599991        -4.76377721E-07
  -1.96550000        -6.05722221E-07
  -1.78499997        -7.63179344E-07
  -1.60450006        -9.53051426E-07
  -1.42400002        -1.17991385E-06
  -1.24349999        -1.44855562E-06
  -1.06299996        -1.76389551E-06
 -0.882499993        -2.13087424E-06
 -0.702000022        -2.55431974E-06
 -0.521499991        -3.03878937E-06
 -0.340999991        -3.58838724E-06
 -0.160500005        -4.20655942E-06
   1.99999996E-02    -4.89587728E-06
  0.200499997        -5.65781238E-06
  0.381000012        -6.49251842E-06
  0.561500013        -7.39862708E-06
  0.741999984        -8.37307289E-06
  0.922500014        -9.41094913E-06
   1.10300004        -1.05054060E-05
   1.28349996        -1.16475849E-05
   1.46399999        -1.28266092E-05
   1.64450002        -1.40296179E-05
   1.82500005        -1.52418806E-05
   2.00550008        -1.64469457E-05
   2.18600011        -1.76268550E-05
   2.36649990        -1.87624137E-05
   2.54699993        -1.98334819E-05
   2.72749996        -2.08193160E-05
   2.90799999        -2.16989556E-05
   3.08850002        -2.24515952E-05
   3.26900005        -2.30570022E-05
   3.44950008        -2.34959316E-05
   3.63000011        -2.37505374E-05
   3.81049991        -2.38047560E-05
   3.99099994        -2.36446722E-05
   4.17150021        -2.32588573E-05
   4.35200024        -2.26386419E-05
   4.53249979        -2.17783454E-05
   4.71299982        -2.06754266E-05
   4.89349985        -1.93305841E-05
   5.07399988        -1.77477559E-05
   5.25449991        -1.59340580E-05
   5.43499994        -1.38996566E-05
   5.61549997        -1.16575702E-05
   5.79600000        -9.22343042E-06
   5.97650003        -6.61518789E-06
   6.15700006        -3.85280146E-06
   6.33750010        -9.57899488E-07
   6.51800013         2.04657090E-06
   6.69850016         5.13668374E-06
   6.87900019         8.28787961E-06
   7.05950022         1.14752720E-05
   7.23999977         1.46739721E-05
   7.42049980         1.78593982E-05
   7.60099983         2.10075596E-05
   7.78149986         2.40953341E-05
   7.96199989         2.71007320E-05
   8.14249992         3.00031097E-05
   8.32299995         3.27833659E-05
   8.50349998         3.54240838E-05
   8.68400002         3.79096200E-05
   8.86450005         4.02261649E-05
   9.04500008         4.23617385E-05
   9.22550011         4.43061253E-05
   9.40600014         4.60507981E-05
   9.58650017         4.75887828E-05
   9.76700020         4.89145095E-05
   9.94750023         5.00236747E-05
   10.1280003         5.09130805E-05
   10.3085003         5.15805186E-05
   10.4890003         5.20246285E-05
   10.6695004         5.22448172E-05
   10.8500004         5.22411683E-05
   11.0305004         5.20143913E-05
   11.2110004         5.15657521E-05
   11.3915005         5.08970334E-05
   11.5719995         5.00105016E-05
   11.7524996         4.89088306E-05
   11.9329996         4.75950692E-05
   12.1134996         4.60725751E-05
   12.2939997         4.43449753E-05
   12.4744997         4.24161408E-05
   12.6549997         4.02901533E-05
   12.8354998         3.79713347E-05
   13.0159998         3.54642507E-05
   13.1964998         3.27737944E-05
   13.3769999         2.99052463E-05
   13.5574999         2.68643926E-05
   13.7379999         2.36576507E-05
   13.9184999         2.02922110E-05
   14.0990000         1.67761646E-05
   14.2795000         1.31186489E-05
   14.4600000         9.32995044E-06
   14.6405001         5.42161024E-06
   14.8210001         1.40649490E-06
   15.0015001        -2.70115174E-06
   15.1820002        -6.88568207E-06
   15.3625002        -1.11300378E-05
   15.5430002        -1.54157660E-05
   15.7235003        -1.97230365E-05
   15.9040003        -2.40306963E-05
   16.0844994        -2.83163117E-05
   16.2649994        -3.25562542E-05
   16.4454994        -3.67257890E-05
   16.6259995        -4.07992047E-05
   16.8064995        -4.47500061E-05
   16.9869995        -4.85510973E-05
   17.1674995        -5.21750517E-05
   17.3479996        -5.55943807E-05
   17.5284996        -5.87818649E-05
   17.7089996        -6.17108817E-05
   17.8894997        -6.43557360E-05
   18.0699997        -6.66920096E-05
   18.2504997        -6.86968851E-05
   18.4309998        -7.03494079E-05
   18.6114998        -7.16307331E-05
   18.7919998        -7.25243226E-05
   18.9724998        -7.30160900E-05
   19.1529999        -7.30945321E-05
   19.3334999        -7.27507868E-05
   19.5139999        -7.19787495E-05
   19.6945000        -7.07751024E-05
   19.8750000        -6.91393507E-05
   20.0555000        -6.70738955E-05
   20.2360001        -6.45839755E-05
   20.4165001        -6.16777616E-05
   20.5970001        -5.83662913E-05
   20.7775002        -5.46634146E-05
   20.9580002        -5.05856879E-05
   21.1385002        -4.61522613E-05
   21.3190002        -4.13847010E-05
   21.4995003        -3.63067520E-05
   21.6800003        -3.09441130E-05
   21.8605003        -2.53241415E-05
   22.0410004        -1.94755885E-05
   22.2215004        -1.34282600E-05
   22.4020004        -7.21275001E-06
   22.5825005        -8.60141256E-07
   22.7630005         5.59827140E-06
   22.9435005         1.21312469E-05
   23.1240005         1.87078240E-05
   23.3045006         2.52976006E-05
   23.4850006         3.18709062E-05
   23.6655006         3.83990737E-05
   23.8460007         4.48546052E-05
   24.0265007         5.12113547E-05
   24.2070007         5.74446785E-05
   24.3875008         6.35315737E-05
   24.5680008         6.94507253E-05
   24.7485008         7.51825064E-05
   24.9290009         8.07089527E-05
   25.1095009         8.60136279E-05
   25.2900009         9.10814488E-05
   25.4705009         9.58984456E-05
   25.6509991         1.00451449E-04
   25.8314991         1.04727827E-04
   26.0119991         1.08715125E-04
   26.1924992         1.12400783E-04
   26.3729992         1.15771960E-04
   26.5534992         1.18815282E-04
   26.7339993         1.21516867E-04
   26.9144993         1.23862308E-04
   27.0949993         1.25836959E-04
   27.2754993         1.27426028E-04
   27.4559994         1.28615226E-04
   27.6364994         1.29391119E-04
   27.8169994         1.29741762E-04
   27.9974995         1.29657390E-04
   28.1779995         1.29131018E-04
   28.3584995         1.28159227E-04
   28.5389996         1.26742874E-04
   28.7194996         1.24887694E-04
   28.8999996         1.22604994E-04
   29.0804996         1.19912183E-04
   29.2609997         1.16833158E-04
   29.4414997         1.13398673E-04
   29.6219997         1.09646469E-04
   29.8024998         1.05621286E-04
   29.9829998         1.01374673E-04
   30.1634998         9.69645916E-05
   30.3439999         9.24548003E-05
   30.5244999         8.79140571E-05
   30.7049999         8.34150851E-05
   30.8855000         7.90333797E-05
   31.0660000         7.48458697E-05
   31.2465000         7.09294472E-05
   31.4270000         6.73593895E-05
   31.6075001         6.42077939E-05
   31.7880001         6.15419776E-05
   31.9685001         5.94229787E-05
   32.1489983         5.79040607E-05
   32.3294983         5.70294724E-05
   32.5099983         5.68332543E-05
   32.6904984         5.73383113E-05
   32.8709984         5.85556227E-05
   33.0514984         6.04837478E-05
   33.2319984         6.31085422E-05
   33.4124985         6.64030886E-05
   33.5929985         7.03278565E-05
   33.7734985         7.48311577E-05
   33.9539986         7.98497422E-05
   34.1344986         8.53096208E-05
   34.3149986         9.11270836E-05
   34.4954987         9.72099006E-05
   34.6759987         1.03458638E-04
   34.8564987         1.09768043E-04
   35.0369987         1.16028627E-04
   35.2174988         1.22128113E-04
   35.3979988         1.27953070E-04
   35.5784988         1.33390364E-04
   35.7589989         1.38328614E-04
   35.9394989         1.42659614E-04
   36.1199989         1.46279548E-04
   36.3004990         1.49090134E-04
   36.4809990         1.50999535E-04
   36.6614990         1.51923276E-04
   36.8419991         1.51784814E-04
   37.0224991         1.50516149E-04
   37.2029991         1.48058112E-04
   37.3834991         1.44360703E-04
   37.5639992         1.39383134E-04
   37.7444992         1.33093927E-04
   37.9249992         1.25470789E-04
   38.1054993         1.16500560E-04
   38.2859993         1.06178974E-04
   38.4664993         9.45104548E-05
   38.6469994         8.15078893E-05
   38.8274994         6.71923626E-05
   39.0079994         5.15928659E-05
   39.1884995         3.47460045E-05
   39.3689995         1.66958198E-05
   39.5494995        -2.50652488E-06
   39.7299995        -2.28029403E-05
   39.9104996        -4.41286065E-05
   40.0909996        -6.64121544E-05
   40.2714996        -8.95759804E-05
   40.4519997        -1.13536284E-04
   40.6324997        -1.38203453E-04
   40.8129997        -1.63482211E-04
   40.9934998        -1.89272017E-04
   41.1739998        -2.15467400E-04
   41.3544998        -2.41958522E-04
   41.5349998        -2.68631731E-04
   41.7154999        -2.95370235E-04
   41.8959999        -3.22055130E-04
   42.0764999        -3.48566216E-04
   42.2570000        -3.74783209E-04
   42.4375000        -4.00587101E-04
   42.6180000        -4.25861275E-04
   42.7985001        -4.50493215E-04
   42.9790001        -4.74375673E-04
   43.1595001        -4.97408502E-04
   43.3400002        -5.19499765E-04
   43.5205002        -5.40567038E-04
   43.7010002        -5.60538960E-04
   43.8815002        -5.79355867E-04
   44.0620003        -5.96971018E-04
   44.2425003        -6.13350654E-04
   44.4230003        -6.28474692E-04
   44.6035004        -6.42336672E-04
   44.7840004        -6.54943404E-04
   44.9645004        -6.66314445E-04
   45.1450005        -6.76481286E-04
   45.3255005        -6.85486302E-04
   45.5060005        -6.93381357E-04
   45.6865005        -7.00226054E-04
   45.8670006        -7.06086168E-04
   46.0475006        -7.11031957E-04
   46.2280006        -7.15135830E-04
   46.4085007        -7.18470605E-04
   46.5890007        -7.21107528E-04
   46.7695007        -7.23114645E-04
   46.9500008        -7.24554469E-04
   47.1305008        -7.25483405E-04
   47.3110008        -7.25950056E-04
   47.4915009        -7.25994294E-04
   47.6720009        -7.25646911E-04
   47.8525009        -7.24929443E-04
   48.0330009        -7.23854057E-04
   48.2135010        -7.22424069E-04
   48.3940010        -7.20634824E-04
   48.5745010        -7.18474446E-04
   48.7550011        -7.15925184E-04
   48.9355011        -7.12964800E-04
   49.1160011        -7.09567859E-04
   49.2965012        -7.05707062E-04
   49.4770012        -7.01354933E-04
   49.6575012        -6.96484582E-04
   49.8380013        -6.91071560E-04
   50.0185013        -6.85094390E-04
   50.1990013        -6.78535434E-04
   50.3795013        -6.71381480E-04
   50.5600014        -6.63624320E-04
   50.7405014        -6.55260461E-04
   50.9210014        -6.46291533E-04
   51.1015015        -6.36723475E-04
   51.2820015        -6.26566412E-04
   51.4625015        -6.15833793E-04
   51.6430016        -6.04541448E-04
   51.8235016        -5.92707132E-04
   52.0040016        -5.80349239E-04
   52.1845016        -5.67485928E-04
   52.3650017        -5.54134487E-04
   52.5455017        -5.40310575E-04
   52.7260017        -5.26027579E-04
   52.9065018        -5.11296734E-04
   53.0870018        -4.96126828E-04
   53.2675018        -4.80524526E-04
   53.4480019        -4.64495155E-04
   53.6285019        -4.48043225E-04
   53.8089981        -4.31173714E-04
   53.9894981        -4.13892849E-04
   54.1699982        -3.96209798E-04
   54.3504982        -3.78137600E-04
   54.5309982        -3.59694648E-04
   54.7114983        -3.40905797E-04
   54.8919983        -3.21803469E-04
   55.0724983        -3.02428525E-04
   55.2529984        -2.82830879E-04
   55.4334984        -2.63070018E-04
   55.6139984        -2.43215036E-04
   55.7944984        -2.23344570E-04
   55.9749985        -2.03546428E-04
   56.1554985        -1.83916709E-04
   56.3359985        -1.64558951E-04
   56.5164986        -1.45582744E-04
   56.6969986        -1.27102147E-04
   56.8774986        -1.09234024E-04
   57.0579987        -9.20958337E-05
   57.2384987        -7.58036913E-05
   57.4189987        -6.04700981E-05
   57.5994987        -4.62016178E-05
   57.7799988        -3.30968214E-05
   57.9604988        -2.12441573E-05
   58.1409988        -1.07201513E-05
   58.3214989        -1.58773776E-06
   58.5019989         6.10505504E-06
   58.6824989         1.23259506E-05
   58.8629990         1.70591284E-05
   59.0434990         2.03055079E-05
   59.2239990         2.20825550E-05
   59.4044991         2.24239211E-05
   59.5849991         2.13787189E-05
   59.7654991         1.90104020E-05
   59.9459991         1.53956335E-05
   60.1264992         1.06227399E-05
   60.3069992         4.79012897E-06
   60.4874992        -1.99550391E-06
   60.6679993        -9.62106242E-06
   60.8484993        -1.79690178E-05
   61.0289993        -2.69194406E-05
   61.2094994        -3.63519757E-05
   61.3899994        -4.61478339E-05
   61.5704994        -5.61916204E-05
   61.7509995        -6.63731043E-05
   61.9314995        -7.65887889E-05
   62.1119995        -8.67431518E-05
   62.2924995        -9.67497472E-05
   62.4729996        -1.06531952E-04
   62.6534996        -1.16023373E-04
   62.8339996        -1.25168081E-04
   63.0144997        -1.33920475E-04
   63.1949997        -1.42244971E-04
   63.3754997        -1.50115491E-04
   63.5559998        -1.57514747E-04
   63.7364998        -1.64433543E-04
   63.9169998        -1.70869986E-04
   64.0975037        -1.76828500E-04
   64.2779999        -1.82319214E-04
   64.4585037        -1.87357029E-04
   64.6389999        -1.91960920E-04
   64.8195038        -1.96153240E-04
   65.0000000        -1.99959090E-04
   65.1804962        -2.03405667E-04
   65.3610001        -2.06521872E-04
   65.5414963        -2.09337799E-04
   65.7220001        -2.11884515E-04
   65.9024963        -2.14193671E-04
   66.0830002        -2.16297529E-04
   66.2634964        -2.18228801E-04
   66.4440002        -2.20020680E-04
   66.6244965        -2.21706970E-04
   66.8050003        -2.23322058E-04
   66.9854965        -2.24900883E-04
   67.1660004        -2.26479038E-04
   67.3464966        -2.28092395E-04
   67.5270004        -2.29776866E-04
   67.7074966        -2.31567785E-04
   67.8880005        -2.33499290E-04
   68.0684967        -2.35603351E-04
   68.2490005        -2.37908884E-04
   68.4294968        -2.40440553E-04
   68.6100006        -2.43217670E-04
   68.7904968        -2.46253185E-04
   68.9710007        -2.49552628E-04
   69.1514969        -2.53113394E-04
   69.3320007        -2.56924133E-04
   69.5124969        -2.60964589E-04
   69.6930008        -2.65205366E-04
   69.8734970        -2.69608456E-04
   70.0540009        -2.74127844E-04
   70.2344971        -2.78710300E-04
   70.4150009        -2.83296598E-04
   70.5954971        -2.87823175E-04
   70.7760010        -2.92223558E-04
   70.9564972        -2.96430342E-04
   71.1370010        -3.00377113E-04
   71.3174973        -3.04000481E-04
   71.4980011        -3.07242182E-04
   71.6784973        -3.10051197E-04
   71.8590012        -3.12385499E-04
   72.0394974        -3.14213743E-04
   72.2200012        -3.15516838E-04
   72.4004974        -3.16288730E-04
   72.5810013        -3.16537247E-04
   72.7614975        -3.16283869E-04
   72.9420013        -3.15563550E-04
   73.1224976        -3.14423611E-04
   73.3030014        -3.12922115E-04
   73.4834976        -3.11125943E-04
   73.6640015        -3.09108320E-04
   73.8444977        -3.06946196E-04
   74.0250015        -3.04717280E-04
   74.2054977        -3.02496948E-04
   74.3860016        -3.00355576E-04
   74.5664978        -2.98355590E-04
   74.7470016        -2.96548940E-04
   74.9274979        -2.94975180E-04
   75.1080017        -2.93659425E-04
   75.2884979        -2.92611367E-04
   75.4690018        -2.91824399E-04
   75.6494980        -2.91275268E-04
   75.8300018        -2.90924596E-04
   76.0104980        -2.90717493E-04
   76.1910019        -2.90584867E-04
   76.3714981        -2.90445227E-04
   76.5520020        -2.90206895E-04
   76.7324982        -2.89770396E-04
   76.9130020        -2.89031421E-04
   77.0934982        -2.87883944E-04
   77.2740021        -2.86223163E-04
   77.4544983        -2.83948961E-04
   77.6350021        -2.80968554E-04
   77.8154984        -2.77199724E-04
   77.9960022        -2.72573030E-04
   78.1764984        -2.67033902E-04
   78.3570023        -2.60544359E-04
   78.5374985        -2.53083912E-04
   78.7180023        -2.44650175E-04
   78.8984985        -2.35258791E-04
   79.0790024        -2.24942953E-04
   79.2594986        -2.13752617E-04
   79.4400024        -2.01753021E-04
   79.6204987        -1.89023252E-04
   79.8010025        -1.75654248E-04
   79.9814987        -1.61747128E-04
   80.1620026        -1.47410930E-04
   80.3424988        -1.32760455E-04
   80.5230026        -1.17914220E-04
   80.7034988        -1.02992337E-04
   80.8840027        -8.81143787E-05
   81.0644989        -7.33973575E-05
   81.2450027        -5.89539486E-05
   81.4254990        -4.48907085E-05
   81.6060028        -3.13066157E-05
   81.7864990        -1.82916938E-05
   81.9670029        -5.92604601E-06
   82.1474991         5.72079807E-06
   82.3280029         1.65903257E-05
   82.5084991         2.66351835E-05
   82.6890030         3.58190264E-05
   82.8694992         4.41160701E-05
