  -7.19999981         0.00000000    
  -7.01999998         6.34217470E-11
  -6.84000015         2.08475515E-10
  -6.65999985         4.51080701E-10
  -6.48000002         7.99761812E-10
  -6.30000019         1.25022337E-09
  -6.11999989         1.78117354E-09
  -5.94000006         2.35186937E-09
  -5.76000023         2.90086932E-09
  -5.57999992         3.34535644E-09
  -5.40000010         3.58102148E-09
  -5.21999979         3.48300278E-09
  -5.03999996         2.90788349E-09
  -4.86000013         1.69519976E-09
  -4.67999983        -3.34801908E-10
  -4.50000000        -3.39092487E-09
  -4.32000017        -7.73075914E-09
  -4.13999987        -1.36900971E-08
  -3.96000004        -2.17191189E-08
  -3.77999997        -3.24211236E-08
  -3.59999990        -4.65902268E-08
  -3.42000008        -6.52462191E-08
  -3.24000001        -8.96661945E-08
  -3.05999994        -1.21412995E-07
  -2.88000011        -1.62359953E-07
  -2.70000005        -2.14710610E-07
  -2.51999998        -2.81012433E-07
  -2.33999991        -3.64163611E-07
  -2.16000009        -4.67414054E-07
  -1.98000002        -5.94360301E-07
  -1.79999995        -7.48932962E-07
  -1.62000000        -9.35374317E-07
  -1.44000006        -1.15820126E-06
  -1.25999999        -1.42214708E-06
  -1.08000004        -1.73208207E-06
 -0.899999976        -2.09290943E-06
 -0.720000029        -2.50943435E-06
 -0.540000021        -2.98621012E-06
 -0.360000014        -3.52735992E-06
 -0.180000007        -4.13638008E-06
   0.00000000        -4.81592269E-06
  0.180000007        -5.56757914E-06
  0.360000014        -6.39165728E-06
  0.540000021        -7.28698342E-06
  0.720000029        -8.25072584E-06
  0.899999976        -9.27824567E-06
   1.08000004        -1.03629909E-05
   1.25999999        -1.14964259E-05
   1.44000006        -1.26680197E-05
   1.62000000        -1.38652758E-05
   1.79999995        -1.50738242E-05
   1.98000002        -1.62775723E-05
   2.16000009        -1.74589059E-05
   2.33999991        -1.85989429E-05
   2.51999998        -1.96778274E-05
   2.70000005        -2.06750574E-05
   2.88000011        -2.15698510E-05
   3.05999994        -2.23415227E-05
   3.24000001        -2.29698944E-05
   3.42000008        -2.34356939E-05
   3.59999990        -2.37209661E-05
   3.77999997        -2.38094672E-05
   3.96000004        -2.36870146E-05
   4.13999987        -2.33418359E-05
   4.32000017        -2.27648397E-05
   4.50000000        -2.19498488E-05
   4.67999983        -2.08937909E-05
   4.86000013        -1.95967659E-05
   5.03999996        -1.80620937E-05
   5.21999979        -1.62962497E-05
   5.40000010        -1.43087555E-05
   5.57999992        -1.21119965E-05
   5.76000023        -9.72098860E-06
   5.94000006        -7.15310489E-06
   6.11999989        -4.42776854E-06
   6.30000019        -1.56611463E-06
   6.48000002         1.40933992E-06
   6.65999985         4.47503953E-06
   6.84000015         7.60673038E-06
   7.01999998         1.07797759E-05
   7.19999981         1.39694621E-05
   7.38000011         1.71513111E-05
   7.55999994         2.03013824E-05
   7.73999977         2.33965220E-05
   7.92000008         2.64146420E-05
   8.10000038         2.93349440E-05
   8.27999973         3.21381049E-05
   8.46000004         3.48064495E-05
   8.64000034         3.73240364E-05
   8.81999969         3.96767318E-05
   9.00000000         4.18522104E-05
   9.18000031         4.38399220E-05
   9.35999966         4.56309972E-05
   9.53999996         4.72181418E-05
   9.72000027         4.85954915E-05
   9.89999962         4.97584660E-05
   10.0799999         5.07036202E-05
   10.2600002         5.14285239E-05
   10.4399996         5.19316091E-05
   10.6199999         5.22120936E-05
   10.8000002         5.22698829E-05
   10.9799995         5.21055190E-05
   11.1599998         5.17201042E-05
   11.3400002         5.11152721E-05
   11.5200005         5.02931471E-05
   11.6999998         4.92562685E-05
   11.8800001         4.80075723E-05
   12.0600004         4.65502999E-05
   12.2399998         4.48879910E-05
   12.4200001         4.30244036E-05
   12.6000004         4.09635286E-05
   12.7799997         3.87095788E-05
   12.9600000         3.62669998E-05
   13.1400003         3.36405319E-05
   13.3199997         3.08352828E-05
   13.5000000         2.78568223E-05
   13.6800003         2.47112966E-05
   13.8599997         2.14055781E-05
   14.0400000         1.79473864E-05
   14.2200003         1.43454372E-05
   14.3999996         1.06095504E-05
   14.5799999         6.75075353E-06
   14.7600002         2.78136304E-06
   14.9399996        -1.28495822E-06
   15.1199999        -5.43316492E-06
   15.3000002        -9.64681931E-06
   15.4799995        -1.39081003E-05
   15.6599998        -1.81978176E-05
   15.8400002        -2.24954492E-05
   16.0200005        -2.67792057E-05
   16.2000008        -3.10260548E-05
   16.3799992        -3.52118514E-05
   16.5599995        -3.93114387E-05
   16.7399998        -4.32987981E-05
   16.9200001        -4.71472522E-05
   17.1000004        -5.08296835E-05
   17.2800007        -5.43188180E-05
   17.4599991        -5.75875310E-05
   17.6399994        -6.06091489E-05
   17.8199997        -6.33578020E-05
   18.0000000        -6.58087665E-05
   18.1800003        -6.79387522E-05
   18.3600006        -6.97262440E-05
   18.5400009        -7.11517059E-05
   18.7199993        -7.21978213E-05
   18.8999996        -7.28496452E-05
   19.0799999        -7.30947140E-05
   19.2600002        -7.29231979E-05
   19.4400005        -7.23279154E-05
   19.6200008        -7.13044283E-05
   19.7999992        -6.98511067E-05
   19.9799995        -6.79691220E-05
   20.1599998        -6.56624979E-05
   20.3400002        -6.29381248E-05
   20.5200005        -5.98057450E-05
   20.7000008        -5.62778951E-05
   20.8799992        -5.23698982E-05
   21.0599995        -4.80996605E-05
   21.2399998        -4.34875474E-05
   21.4200001        -3.85562053E-05
   21.6000004        -3.33302924E-05
   21.7800007        -2.78362495E-05
   21.9599991        -2.21020036E-05
   22.1399994        -1.61566768E-05
   22.3199997        -1.00303032E-05
   22.5000000        -3.75350419E-06
   22.6800003         2.64273172E-06
   22.8600006         9.12738506E-06
   23.0400009         1.56695787E-05
   23.2199993         2.22388717E-05
   23.3999996         2.88054744E-05
   23.5799999         3.53404466E-05
   23.7600002         4.18159216E-05
   23.9400005         4.82053110E-05
   24.1200008         5.44834511E-05
   24.2999992         6.06267240E-05
   24.4799995         6.66131746E-05
   24.6599998         7.24225320E-05
   24.8400002         7.80361806E-05
   25.0200005         8.34370949E-05
   25.2000008         8.86096896E-05
   25.3799992         9.35395801E-05
   25.5599995         9.82133643E-05
   25.7399998         1.02618273E-04
   25.9200001         1.06741907E-04
   26.1000004         1.10571906E-04
   26.2800007         1.14095674E-04
   26.4599991         1.17300260E-04
   26.6399994         1.20172146E-04
   26.8199997         1.22697311E-04
   27.0000000         1.24861341E-04
   27.1800003         1.26649567E-04
   27.3600006         1.28047555E-04
   27.5400009         1.29041466E-04
   27.7199993         1.29618609E-04
   27.8999996         1.29768043E-04
   28.0799999         1.29481312E-04
   28.2600002         1.28753018E-04
   28.4400005         1.27581647E-04
   28.6200008         1.25970124E-04
   28.7999992         1.23926584E-04
   28.9799995         1.21464895E-04
   29.1599998         1.18605123E-04
   29.3400002         1.15373929E-04
   29.5200005         1.11804875E-04
   29.7000008         1.07938416E-04
   29.8799992         1.03821898E-04
   30.0599995         9.95092560E-05
   30.2399998         9.50605099E-05
   30.4200001         9.05411216E-05
   30.6000004         8.60210785E-05
   30.7800007         8.15738167E-05
   30.9599991         7.72750063E-05
   31.1399994         7.32011031E-05
   31.3199997         6.94278788E-05
   31.5000000         6.60289224E-05
   31.6800003         6.30739960E-05
   31.8600006         6.06275316E-05
   32.0400009         5.87471586E-05
   32.2200012         5.74822989E-05
   32.4000015         5.68729847E-05
   32.5800018         5.69487565E-05
   32.7599983         5.77278261E-05
   32.9399986         5.92164106E-05
   33.1199989         6.14082819E-05
   33.2999992         6.42845916E-05
   33.4799995         6.78139040E-05
   33.6599998         7.19524687E-05
   33.8400002         7.66446537E-05
   34.0200005         8.18237168E-05
   34.2000008         8.74126126E-05
   34.3800011         9.33250922E-05
   34.5600014         9.94669608E-05
   34.7400017         1.05737337E-04
   34.9199982         1.12030168E-04
   35.0999985         1.18235715E-04
   35.2799988         1.24242040E-04
   35.4599991         1.29936583E-04
   35.6399994         1.35207578E-04
   35.8199997         1.39945507E-04
   36.0000000         1.44044388E-04
   36.1800003         1.47402941E-04
   36.3600006         1.49925749E-04
   36.5400009         1.51524044E-04
   36.7200012         1.52116481E-04
   36.9000015         1.51629851E-04
   37.0800018         1.49999440E-04
   37.2599983         1.47169470E-04
   37.4399986         1.43093173E-04
   37.6199989         1.37733005E-04
   37.7999992         1.31060544E-04
   37.9799995         1.23056481E-04
   38.1599998         1.13710463E-04
   38.3400002         1.03020910E-04
   38.5200005         9.09947557E-05
   38.7000008         7.76472152E-05
   38.8800011         6.30014983E-05
   39.0600014         4.70885643E-05
   39.2400017         2.99468738E-05
   39.4199982         1.16220835E-05
   39.5999985        -7.83312771E-06
   39.7799988        -2.83593090E-05
   39.9599991        -4.98903355E-05
   40.1399994        -7.23537669E-05
   40.3199997        -9.56709555E-05
   40.5000000        -1.19757235E-04
   40.6800003        -1.44522215E-04
   40.8600006        -1.69869978E-04
   41.0400009        -1.95699555E-04
   41.2200012        -2.21905124E-04
   41.4000015        -2.48376833E-04
   41.5800018        -2.75001046E-04
   41.7599983        -3.01661465E-04
   41.9399986        -3.28239781E-04
   42.1199989        -3.54616670E-04
   42.2999992        -3.80673126E-04
   42.4799995        -4.06291540E-04
   42.6599998        -4.31357184E-04
   42.8400002        -4.55759582E-04
   43.0200005        -4.79393842E-04
   43.2000008        -5.02162322E-04
   43.3800011        -5.23975876E-04
   43.5600014        -5.44755138E-04
   43.7400017        -5.64431772E-04
   43.9199982        -5.82949375E-04
   44.0999985        -6.00264117E-04
   44.2799988        -6.16345613E-04
   44.4599991        -6.31176576E-04
   44.6399994        -6.44753396E-04
   44.8199997        -6.57085504E-04
   45.0000000        -6.68194611E-04
   45.1800003        -6.78114244E-04
   45.3600006        -6.86888292E-04
   45.5400009        -6.94569782E-04
   45.7200012        -7.01219018E-04
   45.9000015        -7.06902239E-04
   46.0800018        -7.11689529E-04
   46.2599983        -7.15652888E-04
   46.4399986        -7.18864379E-04
   46.6199989        -7.21394143E-04
   46.7999992        -7.23308709E-04
   46.9799995        -7.24669371E-04
   47.1599998        -7.25530728E-04
   47.3400002        -7.25939579E-04
   47.5200005        -7.25934107E-04
   47.7000008        -7.25543359E-04
   47.8800011        -7.24787358E-04
   48.0600014        -7.23676581E-04
   48.2400017        -7.22213124E-04
   48.4199982        -7.20391283E-04
   48.5999985        -7.18198193E-04
   48.7799988        -7.15615577E-04
   48.9599991        -7.12620851E-04
   49.1399994        -7.09188404E-04
   49.3199997        -7.05290993E-04
   49.5000000        -7.00901379E-04
   49.6800003        -6.95993309E-04
   49.8600006        -6.90542685E-04
   50.0400009        -6.84528786E-04
   50.2200012        -6.77934382E-04
   50.4000015        -6.70747133E-04
   50.5800018        -6.62959355E-04
   50.7599983        -6.54568081E-04
   50.9399986        -6.45575405E-04
   51.1199989        -6.35987555E-04
   51.2999992        -6.25814951E-04
   51.4799995        -6.15071098E-04
   51.6599998        -6.03772001E-04
   51.8400002        -5.91935299E-04
   52.0200005        -5.79579151E-04
   52.2000008        -5.66721661E-04
   52.3800011        -5.53379825E-04
   52.5600014        -5.39568951E-04
   52.7400017        -5.25302312E-04
   52.9199982        -5.10590733E-04
   53.0999985        -4.95442830E-04
   53.2799988        -4.79865092E-04
   53.4599991        -4.63862700E-04
   53.6399994        -4.47440019E-04
   53.8199997        -4.30601998E-04
   54.0000000        -4.13355010E-04
   54.1800003        -3.95708194E-04
   54.3600006        -3.77674849E-04
   54.5400009        -3.59273487E-04
   54.7200012        -3.40529135E-04
   54.9000015        -3.21474363E-04
   55.0800018        -3.02150060E-04
   55.2599983        -2.82606197E-04
   55.4399986        -2.62902176E-04
   55.6199989        -2.43106828E-04
   55.7999992        -2.23298470E-04
   55.9799995        -2.03564385E-04
   56.1599998        -1.84000135E-04
   56.3400002        -1.64708516E-04
   56.5200005        -1.45798273E-04
   56.7000008        -1.27382576E-04
   56.8800011        -1.09577326E-04
   57.0600014        -9.24990673E-05
   57.2400017        -7.62629206E-05
   57.4199982        -6.09804374E-05
   57.5999985        -4.67573009E-05
   57.7799988        -3.36912854E-05
   57.9599991        -2.18701844E-05
   58.1399994        -1.13699271E-05
   58.3199997        -2.25307099E-06
   58.5000000         5.43258420E-06
   58.6800003         1.16548417E-05
   58.8600006         1.63977711E-05
   59.0400009         1.96620531E-05
   59.2200012         2.14646934E-05
   59.4000015         2.18387304E-05
   59.5800018         2.08325237E-05
   59.7599983         1.85086265E-05
   59.9399986         1.49427069E-05
   60.1199989         1.02219783E-05
   60.2999992         4.44364014E-06
   60.4799995        -2.28678391E-06
   60.6599998        -9.85740735E-06
   60.8400002        -1.81518353E-05
   61.0200005        -2.70511846E-05
   61.2000008        -3.64360712E-05
   61.3800011        -4.61884738E-05
   61.5600014        -5.61936977E-05
   61.7400017        -6.63420142E-05
   61.9199982        -7.65302539E-05
   62.0999985        -8.66630799E-05
   62.2799988        -9.66540683E-05
   62.4599991        -1.06426494E-04
   62.6399994        -1.15913732E-04
   62.8199997        -1.25059523E-04
   63.0000000        -1.33817870E-04
   63.1800003        -1.42152712E-04
   63.3600006        -1.50037376E-04
   63.5400009        -1.57454022E-04
   63.7200012        -1.64392870E-04
   63.9000015        -1.70851359E-04
   64.0800018        -1.76833360E-04
   64.2600021        -1.82348318E-04
   64.4400024        -1.87410580E-04
   64.6200027        -1.92038569E-04
   64.8000031        -1.96254114E-04
   64.9800034        -2.00081820E-04
   65.1600037        -2.03548494E-04
   65.3399963        -2.06682686E-04
   65.5199966        -2.09514154E-04
   65.6999969        -2.12073675E-04
   65.8799973        -2.14392683E-04
   66.0599976        -2.16503147E-04
   66.2399979        -2.18437533E-04
   66.4199982        -2.20228772E-04
   66.5999985        -2.21910348E-04
   66.7799988        -2.23516239E-04
   66.9599991        -2.25081079E-04
   67.1399994        -2.26640026E-04
   67.3199997        -2.28228630E-04
   67.5000000        -2.29882498E-04
   67.6800003        -2.31636805E-04
   67.8600006        -2.33525658E-04
   68.0400009        -2.35581174E-04
   68.2200012        -2.37832617E-04
   68.4000015        -2.40305235E-04
   68.5800018        -2.43019196E-04
   68.7600021        -2.45988485E-04
   68.9400024        -2.49220000E-04
   69.1200027        -2.52712547E-04
   69.3000031        -2.56456493E-04
   69.4800034        -2.60433269E-04
   69.6600037        -2.64615403E-04
   69.8399963        -2.68966658E-04
   70.0199966        -2.73442827E-04
   70.1999969        -2.77992338E-04
   70.3799973        -2.82557507E-04
   70.5599976        -2.87076138E-04
   70.7399979        -2.91482662E-04
   70.9199982        -2.95710459E-04
   71.0999985        -2.99693289E-04
   71.2799988        -3.03367648E-04
   71.4599991        -3.06674658E-04
   71.6399994        -3.09562078E-04
   71.8199997        -3.11986194E-04
   72.0000000        -3.13913624E-04
   72.1800003        -3.15322541E-04
   72.3600006        -3.16204096E-04
   72.5400009        -3.16562800E-04
   72.7200012        -3.16416961E-04
   72.9000015        -3.15798243E-04
   73.0800018        -3.14750709E-04
   73.2600021        -3.13329656E-04
   73.4400024        -3.11599462E-04
   73.6200027        -3.09631549E-04
   73.8000031        -3.07501614E-04
   73.9800034        -3.05286812E-04
   74.1600037        -3.03062843E-04
   74.3399963        -3.00901011E-04
   74.5199966        -2.98865401E-04
   74.6999969        -2.97010556E-04
   74.8799973        -2.95378966E-04
   75.0599976        -2.93999416E-04
   75.2399979        -2.92885612E-04
   75.4199982        -2.92035314E-04
   75.5999985        -2.91429897E-04
   75.7799988        -2.91034579E-04
   75.9599991        -2.90799042E-04
   76.1399994        -2.90658587E-04
   76.3199997        -2.90535681E-04
   76.5000000        -2.90342025E-04
   76.6800003        -2.89980992E-04
   76.8600006        -2.89350224E-04
   77.0400009        -2.88344716E-04
   77.2200012        -2.86859897E-04
   77.4000015        -2.84794660E-04
   77.5800018        -2.82054447E-04
   77.7600021        -2.78554187E-04
   77.9400024        -2.74220743E-04
   78.1200027        -2.68995209E-04
   78.3000031        -2.62834510E-04
   78.4800034        -2.55712657E-04
   78.6600037        -2.47621589E-04
   78.8399963        -2.38571098E-04
   79.0199966        -2.28588571E-04
   79.1999969        -2.17718247E-04
   79.3799973        -2.06020050E-04
   79.5599976        -1.93568034E-04
   79.7399979        -1.80448784E-04
   79.9199982        -1.66759375E-04
   80.0999985        -1.52605469E-04
   80.2799988        -1.38099189E-04
   80.4599991        -1.23357007E-04
   80.6399994        -1.08497617E-04
   80.8199997        -9.36400029E-05
   81.0000000        -7.89013138E-05
   81.1800003        -6.43950116E-05
   81.3600006        -5.02291732E-05
   81.5400009        -3.65048145E-05
   81.7200012        -2.33146711E-05
   81.9000015        -1.07419910E-05
   82.0800018         1.14023214E-06
   82.2600021         1.22698448E-05
   82.4400024         2.25956610E-05
   82.6200027         3.20775434E-05
   82.8000031         4.06860090E-05
   82.9800034         4.84018201E-05
   83.1600037         5.52153506E-05
   83.3399963         6.11257492E-05
   83.5199966         6.61402228E-05
   83.6999969         7.02731777E-05
   83.8799973         7.35456561E-05
   84.0599976         7.59844115E-05
   84.2399979         7.76213856E-05
   84.4199982         7.84929944E-05
   84.5999985         7.86396122E-05
   84.7799988         7.81049384E-05
   84.9599991         7.69353501E-05
   85.1399994         7.51794068E-05
   85.3199997         7.28870946E-05
   85.5000000         7.01091994E-05
   85.6800003         6.68967332E-05
   85.8600006         6.33003074E-05
   86.0400009         5.93695731E-05
   86.2200012         5.51527773E-05
   86.4000015         5.06963806E-05
   86.5800018         4.60447882E-05
   86.7600021         4.12400477E-05
   86.9400024         3.63216968E-05
   87.1200027         3.13266100E-05
   87.3000031         2.62887879E-05
   87.4800034         2.12391296E-05
   87.6600037         1.62051456E-05
   87.8399963         1.12105718E-05
   88.0199966         6.27499094E-06
   88.1999969         1.41333589E-06
   88.3799973        -3.36450398E-06
   88.5599976        -8.05415220E-06
   88.7399979        -1.26569857E-05
   88.9199982        -1.71803076E-05
   89.0999985        -2.16373774E-05
   89.2799988        -2.60471843E-05
   89.4599991        -3.04341447E-05
   89.6399994        -3.48274916E-05
   89.8199997        -3.92606162E-05
   90.0000000        -4.37701783E-05
   90.1800003        -4.83952099E-05
   90.3600006        -5.31761143E-05
   90.5400009        -5.81535060E-05
   90.7200012        -6.33671734E-05
   90.9000015        -6.88548243E-05
   91.0800018        -7.46509177E-05
   91.2600021        -8.07854158E-05
   91.4400024        -8.72825767E-05
   91.6200027        -9.41597682E-05
   91.8000031        -1.01426296E-04
   91.9800034        -1.09082466E-04
   92.1600037        -1.17118718E-04
   92.3399963        -1.25515115E-04
   92.5199966        -1.34241156E-04
   92.6999969        -1.43255878E-04
   92.8799973        -1.52508568E-04
   93.0599976        -1.61939723E-04
   93.2399979        -1.71482534E-04
   93.4199982        -1.81064708E-04
   93.5999985        -1.90610517E-04
   93.7799988        -2.00043214E-04
   93.9599991        -2.09287406E-04
   94.1399994        -2.18271452E-04
   94.3199997        -2.26929755E-04
   94.5000000        -2.35204890E-04
   94.6800003        -2.43049435E-04
   94.8600006        -2.50427402E-04
   95.0400009        -2.57315376E-04
   95.2200012        -2.63703172E-04
   95.4000015        -2.69594253E-04
   95.5800018        -2.75005470E-04
   95.7600021        -2.79966742E-04
   95.9400024        -2.84519978E-04
   96.1200027        -2.88717973E-04
   96.3000031        -2.92622717E-04
   96.4800034        -2.96303420E-04
   96.6600037        -2.99834472E-04
   96.8399963        -3.03292763E-04
   97.0199966        -3.06755333E-04
   97.1999969        -3.10296542E-04
   97.3799973        -3.13985627E-04
   97.5599976        -3.17884231E-04
   97.7399979        -3.22044390E-04
   97.9199982        -3.26506561E-04
   98.0999985        -3.31298797E-04
   98.2799988        -3.36435594E-04
   98.4599991        -3.41918145E-04
   98.6399994        -3.47734633E-04
   98.8199997        -3.53861105E-04
   99.0000000        -3.60263046E-04
   99.1800003        -3.66897089E-04
   99.3600006        -3.73713003E-04
   99.5400009        -3.80655838E-04
   99.7200012        -3.87667940E-04
   99.9000015        -3.94691160E-04
   100.080002        -4.01668542E-04
   100.260002        -4.08546097E-04
   100.440002        -4.15274117E-04
   100.620003        -4.21808392E-04
