  -7.19999981       0.00000000    
  -7.01999998      -6.68806894E-12
  -6.84000015      -2.21692352E-11
  -6.65999985      -4.75233984E-11
  -6.48000002      -8.05625705E-11
  -6.30000019      -1.13406645E-10
  -6.11999989      -1.30497640E-10
  -5.94000006      -1.07161030E-10
  -5.76000023      -8.45099598E-12
  -5.57999992       2.11880555E-10
  -5.40000010       6.12002171E-10
  -5.21999979       1.26162480E-09
  -5.03999996       2.24039387E-09
  -4.86000013       3.63576969E-09
  -4.67999983       5.54214896E-09
  -4.50000000       8.06331091E-09
  -4.32000017       1.13195133E-08
  -4.13999987       1.54590616E-08
  -3.96000004       2.06726209E-08
  -3.77999997       2.72078342E-08
  -3.59999990       3.53821861E-08
  -3.42000008       4.55929623E-08
  -3.24000001       5.83243285E-08
  -3.05999994       7.41514796E-08
  -2.88000011       9.37419671E-08
  -2.70000005       1.17853645E-07
  -2.51999998       1.47329146E-07
  -2.33999991       1.83086513E-07
  -2.16000009       2.26107403E-07
  -1.98000002       2.77423197E-07
  -1.79999995       3.38099596E-07
  -1.62000000       4.09219894E-07
  -1.44000006       4.91864967E-07
  -1.25999999       5.87089630E-07
  -1.08000004       6.95893789E-07
 -0.899999976       8.19190802E-07
 -0.720000029       9.57768066E-07
 -0.540000021       1.11224574E-06
 -0.360000014       1.28302941E-06
 -0.180000007       1.47026174E-06
   4.44089210E-16   1.67377084E-06
  0.180000007       1.89302546E-06
  0.360000014       2.12709438E-06
  0.540000021       2.37462291E-06
  0.720000029       2.63382231E-06
  0.899999976       2.90247362E-06
   1.08000004       3.17795480E-06
   1.25999999       3.45727676E-06
   1.44000006       3.73714010E-06
   1.62000000       4.01400666E-06
   1.79999995       4.28418298E-06
   1.98000002       4.54391420E-06
   2.16000009       4.78949141E-06
   2.33999991       5.01735030E-06
   2.51999998       5.22417940E-06
   2.70000005       5.40701149E-06
   2.88000011       5.56331133E-06
   3.05999994       5.69106123E-06
   3.24000001       5.78882873E-06
   3.42000008       5.85582393E-06
   3.59999990       5.89194951E-06
   3.77999997       5.89782803E-06
   3.96000004       5.87482918E-06
   4.13999987       5.82506664E-06
   4.32000017       5.75138392E-06
   4.50000000       5.65732353E-06
   4.67999983       5.54708367E-06
   4.86000013       5.42543603E-06
   5.03999996       5.29765748E-06
   5.21999979       5.16941600E-06
   5.40000010       5.04667787E-06
   5.57999992       4.93558673E-06
   5.76000023       4.84236716E-06
   5.94000006       4.77320737E-06
   6.11999989       4.73417595E-06
   6.30000019       4.73113369E-06
   6.48000002       4.76965397E-06
   6.65999985       4.85497685E-06
   6.84000015       4.99195630E-06
   7.01999998       5.18502839E-06
   7.19999981       5.43817896E-06
   7.38000011       5.75490049E-06
   7.55999994       6.13817110E-06
   7.73999977       6.59041598E-06
   7.92000008       7.11346229E-06
   8.10000038       7.70851784E-06
   8.27999973       8.37614698E-06
   8.46000004       9.11625193E-06
   8.64000034       9.92808054E-06
   8.81999969       1.08102231E-05
   9.00000000       1.17606569E-05
   9.18000031       1.27767917E-05
   9.35999966       1.38555051E-05
   9.53999996       1.49932239E-05
   9.72000027       1.61859734E-05
   9.89999962       1.74294473E-05
   10.0799999       1.87190435E-05
   10.2600002       2.00499289E-05
   10.4399996       2.14170632E-05
   10.6199999       2.28152294E-05
   10.8000002       2.42390688E-05
   10.9799995       2.56830990E-05
   11.1599998       2.71417357E-05
   11.3400002       2.86093382E-05
   11.5200005       3.00802385E-05
   11.6999998       3.15487996E-05
   11.8800001       3.30094917E-05
   12.0600004       3.44569416E-05
   12.2399998       3.58860198E-05
   12.4200001       3.72918803E-05
   12.6000004       3.86700267E-05
   12.7799997       4.00163190E-05
   12.9600000       4.13270063E-05
   13.1400003       4.25987309E-05
   13.3199997       4.38284696E-05
   13.5000000       4.50135230E-05
   13.6800003       4.61514319E-05
   13.8599997       4.72399261E-05
   14.0400000       4.82768373E-05
   14.2200003       4.92600411E-05
   14.3999996       5.01873801E-05
   14.5799999       5.10566097E-05
   14.7600002       5.18653214E-05
   14.9399996       5.26108888E-05
   15.1199999       5.32904050E-05
   15.3000002       5.39006141E-05
   15.4799995       5.44378163E-05
   15.6599998       5.48978096E-05
   15.8400002       5.52757956E-05
   16.0200005       5.55662846E-05
   16.2000008       5.57630410E-05
   16.3799992       5.58590291E-05
   16.5599995       5.58463616E-05
   16.7399998       5.57163694E-05
   16.9200001       5.54596263E-05
   17.1000004       5.50660334E-05
   17.2800007       5.45249859E-05
   17.4599991       5.38255408E-05
   17.6399994       5.29565696E-05
   17.8199997       5.19069799E-05
   18.0000000       5.06659453E-05
   18.1800003       4.92230756E-05
   18.3600006       4.75685883E-05
   18.5400009       4.56934758E-05
   18.7199993       4.35896509E-05
   18.8999996       4.12500485E-05
   19.0799999       3.86687352E-05
   19.2600002       3.58410434E-05
   19.4400005       3.27635826E-05
   19.6200008       2.94343845E-05
   19.7999992       2.58529199E-05
   19.9799995       2.20202237E-05
   20.1599998       1.79388735E-05
   20.3400002       1.36130475E-05
   20.5200005       9.04846547E-06
   20.7000008       4.25242752E-06
   20.8799992      -7.66324888E-07
   21.0599995      -5.99767827E-06
   21.2399998      -1.14302975E-05
   21.4200001      -1.70517033E-05
   21.6000004      -2.28484860E-05
   21.7800007      -2.88063911E-05
   21.9599991      -3.49104484E-05
   22.1399994      -4.11450892E-05
   22.3199997      -4.74941662E-05
   22.5000000      -5.39410321E-05
   22.6800003      -6.04685010E-05
   22.8600006      -6.70588634E-05
   23.0400009      -7.36938819E-05
   23.2199993      -8.03546791E-05
   23.3999996      -8.70217700E-05
   23.5799999      -9.36751021E-05
   23.7600002      -1.00293990E-04
   23.9400005      -1.06857209E-04
   24.1200008      -1.13343049E-04
   24.2999992      -1.19729368E-04
   24.4799995      -1.25993698E-04
   24.6599998      -1.32113346E-04
   24.8400002      -1.38065443E-04
   25.0200005      -1.43827056E-04
   25.2000008      -1.49375279E-04
   25.3799992      -1.54687281E-04
   25.5599995      -1.59740492E-04
   25.7399998      -1.64512632E-04
   25.9200001      -1.68981875E-04
   26.1000004      -1.73127060E-04
   26.2800007      -1.76927846E-04
   26.4599991      -1.80365067E-04
   26.6399994      -1.83420852E-04
   26.8199997      -1.86079094E-04
   27.0000000      -1.88325575E-04
   27.1800003      -1.90148334E-04
   27.3600006      -1.91537940E-04
   27.5400009      -1.92487598E-04
   27.7199993      -1.92993364E-04
   27.8999996      -1.93054177E-04
   28.0799999      -1.92672000E-04
   28.2600002      -1.91851737E-04
   28.4400005      -1.90601277E-04
   28.6200008      -1.88931474E-04
   28.7999992      -1.86856079E-04
   28.9799995      -1.84391713E-04
   29.1599998      -1.81557858E-04
   29.3400002      -1.78376780E-04
   29.5200005      -1.74873436E-04
   29.7000008      -1.71075400E-04
   29.8799992      -1.67012622E-04
   30.0599995      -1.62717319E-04
   30.2399998      -1.58223556E-04
   30.4200001      -1.53566914E-04
   30.6000004      -1.48784064E-04
   30.7800007      -1.43912155E-04
   30.9599991      -1.38988355E-04
   31.1399994      -1.34049144E-04
   31.3199997      -1.29129796E-04
   31.5000000      -1.24263679E-04
   31.6800003      -1.19481629E-04
   31.8600006      -1.14811402E-04
   32.0400009      -1.10277128E-04
   32.2200012      -1.05898762E-04
   32.4000015      -1.01691541E-04
   32.5800018      -9.76656156E-05
   32.7599983      -9.38255180E-05
   32.9399986      -9.01698659E-05
   33.1199989      -8.66909322E-05
   33.2999992      -8.33744634E-05
   33.4799995      -8.01994611E-05
   33.6599998      -7.71380364E-05
   33.8400002      -7.41554468E-05
   34.0200005      -7.12102483E-05
   34.2000008      -6.82545578E-05
   34.3800011      -6.52344315E-05
   34.5600014      -6.20904539E-05
   34.7400017      -5.87583745E-05
   34.9199982      -5.51698613E-05
   35.0999985      -5.12533625E-05
   35.2799988      -4.69349798E-05
   35.4599991      -4.21393124E-05
   35.6399994      -3.67904286E-05
   35.8199997      -3.08127346E-05
   36.0000000      -2.41317648E-05
   36.1800003      -1.66750651E-05
   36.3600006      -8.37294920E-06
   36.5400009       8.40719167E-07
   36.7200012       1.10277442E-05
   36.9000015       2.22449107E-05
   37.0800018       3.45432200E-05
   37.2599983       4.79671980E-05
   37.4399986       6.25543180E-05
   37.6199989       7.83343276E-05
   37.7999992       9.53288545E-05
   37.9799995       1.13551010E-04
   38.1599998       1.33005160E-04
   38.3400002       1.53686851E-04
   38.5200005       1.75582740E-04
   38.7000008       1.98670896E-04
   38.8800011       2.22921037E-04
   39.0600014       2.48294789E-04
   39.2400017       2.74746242E-04
   39.4199982       3.02222237E-04
   39.5999985       3.30662908E-04
   39.7799988       3.60002072E-04
   39.9599991       3.90167785E-04
   40.1399994       4.21082543E-04
   40.3199997       4.52663924E-04
   40.5000000       4.84824879E-04
   40.6800003       5.17474313E-04
   40.8600006       5.50517463E-04
   41.0400009       5.83856425E-04
   41.2200012       6.17390673E-04
   41.4000015       6.51017588E-04
   41.5800018       6.84633153E-04
   41.7599983       7.18131952E-04
   41.9399986       7.51408108E-04
   42.1199989       7.84355507E-04
   42.2999992       8.16867978E-04
   42.4799995       8.48839758E-04
   42.6599998       8.80165549E-04
   42.8400002       9.10740695E-04
   43.0200005       9.40461294E-04
   43.2000008       9.69224202E-04
   43.3800011       9.96927614E-04
   43.5600014       1.02347066E-03
   43.7400017       1.04875409E-03
   43.9199982       1.07268023E-03
   44.0999985       1.09515362E-03
   44.2799988       1.11608126E-03
   44.4599991       1.13537302E-03
   44.6399994       1.15294207E-03
   44.8199997       1.16870529E-03
   45.0000000       1.18258339E-03
   45.1800003       1.19450188E-03
   45.3600006       1.20439078E-03
   45.5400009       1.21218502E-03
   45.7200012       1.21782487E-03
   45.9000015       1.22125621E-03
   46.0800018       1.22243061E-03
   46.2599983       1.22130569E-03
   46.4399986       1.21784559E-03
   46.6199989       1.21202122E-03
   46.7999992       1.20381068E-03
   46.9799995       1.19319942E-03
   47.1599998       1.18018093E-03
   47.3400002       1.16475613E-03
   47.5200005       1.14693434E-03
   47.7000008       1.12673303E-03
   47.8800011       1.10417698E-03
   48.0600014       1.07929902E-03
   48.2400017       1.05213921E-03
   48.4199982       1.02274457E-03
   48.5999985       9.91168781E-04
   48.7799988       9.57471435E-04
   48.9599991       9.21718543E-04
   49.1399994       8.83981353E-04
   49.3199997       8.44336755E-04
   49.5000000       8.02866707E-04
   49.6800003       7.59658345E-04
   49.8600006       7.14803580E-04
   50.0400009       6.68398978E-04
   50.2200012       6.20545470E-04
   50.4000015       5.71348355E-04
   50.5800018       5.20916539E-04
   50.7599983       4.69362480E-04
   50.9399986       4.16801689E-04
   51.1199989       3.63352359E-04
   51.2999992       3.09135037E-04
   51.4799995       2.54272221E-04
   51.6599998       1.98888214E-04
   51.8400002       1.43108671E-04
   52.0200005       8.70606818E-05
   52.2000008       3.08723284E-05
   52.3800011      -2.53274065E-05
   52.5600014      -8.14087034E-05
   52.7400017      -1.37241397E-04
   52.9199982      -1.92695268E-04
   53.0999985      -2.47640390E-04
   53.2799988      -3.01947643E-04
   53.4599991      -3.55489348E-04
   53.6399994      -4.08139662E-04
   53.8199997      -4.59775416E-04
   54.0000000      -5.10276295E-04
   54.1800003      -5.59525797E-04
   54.3600006      -6.07411203E-04
   54.5400009      -6.53824245E-04
   54.7200012      -6.98661024E-04
   54.9000015      -7.41822878E-04
   55.0800018      -7.83215684E-04
   55.2599983      -8.22750619E-04
   55.4399986      -8.60344211E-04
   55.6199989      -8.95918696E-04
   55.7999992      -9.29402129E-04
   55.9799995      -9.60728852E-04
   56.1599998      -9.89839667E-04
   56.3400002      -1.01668283E-03
   56.5200005      -1.04121328E-03
   56.7000008      -1.06339448E-03
   56.8800011      -1.08319730E-03
   57.0600014      -1.10060105E-03
   57.2400017      -1.11559313E-03
   57.4199982      -1.12816901E-03
   57.5999985      -1.13833288E-03
   57.7799988      -1.14609639E-03
   57.9599991      -1.15147932E-03
   58.1399994      -1.15450949E-03
   58.3199997      -1.15522242E-03
   58.5000000      -1.15366105E-03
   58.6800003      -1.14987639E-03
   58.8600006      -1.14392652E-03
   59.0400009      -1.13587757E-03
   59.2200012      -1.12580252E-03
   59.4000015      -1.11378194E-03
   59.5800018      -1.09990255E-03
   59.7599983      -1.08425773E-03
   59.9399986      -1.06694608E-03
   60.1199989      -1.04807143E-03
   60.2999992      -1.02774135E-03
   60.4799995      -1.00606680E-03
   60.6599998      -9.83160920E-04
   60.8400002      -9.59138561E-04
   61.0200005      -9.34114971E-04
   61.2000008      -9.08205518E-04
   61.3800011      -8.81524466E-04
   61.5600014      -8.54184618E-04
   61.7400017      -8.26296513E-04
   61.9199982      -7.97967426E-04
   62.0999985      -7.69300910E-04
   62.2799988      -7.40395917E-04
   62.4599991      -7.11345987E-04
   62.6399994      -6.82238431E-04
   62.8199997      -6.53153402E-04
   63.0000000      -6.24163134E-04
   63.1800003      -5.95331483E-04
   63.3600006      -5.66713104E-04
   63.5400009      -5.38353168E-04
   63.7200012      -5.10287180E-04
   63.9000015      -4.82540898E-04
   64.0800018      -4.55130677E-04
   64.2600021      -4.28063533E-04
   64.4400024      -4.01338068E-04
   64.6200027      -3.74944648E-04
   64.8000031      -3.48866393E-04
   64.9800034      -3.23079847E-04
   65.1600037      -2.97555845E-04
   65.3399963      -2.72260135E-04
   65.5199966      -2.47154530E-04
   65.6999969      -2.22197690E-04
   65.8799973      -1.97346075E-04
   66.0599976      -1.72555097E-04
   66.2399979      -1.47780316E-04
   66.4199982      -1.22978643E-04
   66.5999985      -9.81097255E-05
   66.7799988      -7.31372493E-05
   66.9599991      -4.80303461E-05
   67.1399994      -2.27649180E-05
   67.3199997       2.67528503E-06
   67.5000000       2.82976125E-05
   67.6800003       5.40997244E-05
   67.8600006       8.00690977E-05
   68.0400009       1.06182531E-04
   68.2200012       1.32406189E-04
   68.4000015       1.58695635E-04
   68.5800018       1.84995995E-04
   68.7600021       2.11242470E-04
   68.9400024       2.37360713E-04
   69.1200027       2.63267517E-04
   69.3000031       2.88871292E-04
   69.4800034       3.14073026E-04
   69.6600037       3.38767044E-04
   69.8399963       3.62841936E-04
   70.0199966       3.86181753E-04
   70.1999969       4.08667140E-04
   70.3799973       4.30176791E-04
   70.5599976       4.50588908E-04
   70.7399979       4.69782710E-04
   70.9199982       4.87640005E-04
   71.0999985       5.04046970E-04
   71.2799988       5.18895569E-04
   71.4599991       5.32084843E-04
   71.6399994       5.43522532E-04
   71.8199997       5.53125690E-04
   72.0000000       5.60821965E-04
   72.1800003       5.66550530E-04
   72.3600006       5.70262317E-04
   72.5400009       5.71920478E-04
   72.7200012       5.71500976E-04
   72.9000015       5.68992633E-04
   73.0800018       5.64397487E-04
   73.2600021       5.57730498E-04
   73.4400024       5.49019722E-04
   73.6200027       5.38306369E-04
   73.8000031       5.25644282E-04
   73.9800034       5.11099526E-04
   74.1600037       4.94750042E-04
   74.3399963       4.76684625E-04
   74.5199966       4.57002345E-04
   74.6999969       4.35811089E-04
   74.8799973       4.13226488E-04
   75.0599976       3.89370602E-04
   75.2399979       3.64370702E-04
   75.4199982       3.38357786E-04
   75.5999985       3.11465352E-04
   75.7799988       2.83828529E-04
   75.9599991       2.55582709E-04
   76.1399994       2.26862932E-04
   76.3199997       1.97802990E-04
   76.5000000       1.68534767E-04
   76.6800003       1.39187585E-04
   76.8600006       1.09887682E-04
   77.0400009       8.07575270E-05
   77.2200012       5.19153145E-05
   77.4000015       2.34743475E-05
   77.5800018      -4.45748310E-06
   77.7600021      -3.17782178E-05
   77.9400024      -5.83921501E-05
   78.1200027      -8.42101726E-05
   78.3000031      -1.09149849E-04
   78.4800034      -1.33135443E-04
   78.6600037      -1.56097711E-04
   78.8399963      -1.77973692E-04
   79.0199966      -1.98706315E-04
   79.1999969      -2.18244080E-04
   79.3799973      -2.36540742E-04
   79.5599976      -2.53554987E-04
   79.7399979      -2.69250304E-04
   79.9199982      -2.83594884E-04
   80.0999985      -2.96561746E-04
   80.2799988      -3.08128598E-04
   80.4599991      -3.18278297E-04
   80.6399994      -3.26998706E-04
   80.8199997      -3.34283133E-04
   81.0000000      -3.40130209E-04
   81.1800003      -3.44543951E-04
   81.3600006      -3.47534020E-04
   81.5400009      -3.49115231E-04
   81.7200012      -3.49307753E-04
   81.9000015      -3.48136906E-04
   82.0800018      -3.45633132E-04
   82.2600021      -3.41831910E-04
   82.4400024      -3.36773839E-04
   82.6200027      -3.30504816E-04
   82.8000031      -3.23075976E-04
   82.9800034      -3.14544013E-04
   83.1600037      -3.04971210E-04
   83.3399963      -2.94425379E-04
   83.5199966      -2.82979920E-04
   83.6999969      -2.70713470E-04
   83.8799973      -2.57709529E-04
   84.0599976      -2.44055816E-04
   84.2399979      -2.29843659E-04
   84.4199982      -2.15167034E-04
   84.5999985      -2.00121780E-04
   84.7799988      -1.84804594E-04
   84.9599991      -1.69312218E-04
   85.1399994      -1.53740519E-04
   85.3199997      -1.38183779E-04
   85.5000000      -1.22733982E-04
   85.6800003      -1.07480155E-04
   85.8600006      -9.25078348E-05
   86.0400009      -7.78984177E-05
   86.2200012      -6.37285339E-05
   86.4000015      -5.00694041E-05
   86.5800018      -3.69861409E-05
   86.7600021      -2.45370356E-05
   86.9400024      -1.27728017E-05
   87.1200027      -1.73601234E-06
   87.3000031       8.53951406E-06
   87.4800034       1.80290572E-05
   87.6600037       2.67171799E-05
   87.8399963       3.45977460E-05
   88.0199966       4.16736948E-05
   88.1999969       4.79565788E-05
   88.3799973       5.34660394E-05
   88.5599976       5.82291177E-05
   88.7399979       6.22794760E-05
   88.9199982       6.56566990E-05
   89.0999985       6.84055049E-05
   89.2799988       7.05750354E-05
   89.4599991       7.22182522E-05
   89.6399994       7.33912457E-05
   89.8199997       7.41525291E-05
   90.0000000       7.45624347E-05
   90.1800003       7.46823061E-05
   90.3600006       7.45738071E-05
   90.5400009       7.42978809E-05
   90.7200012       7.39139214E-05
   90.9000015       7.34789282E-05
   91.0800018       7.30464672E-05
   91.2600021       7.26660510E-05
   91.4400024       7.23823541E-05
   91.6200027       7.22347468E-05
   91.8000031       7.22570330E-05
   91.9800034       7.24773054E-05
   92.1600037       7.29181120E-05
   92.3399963       7.35965441E-05
   92.5199966       7.45247307E-05
   92.6999969       7.57101225E-05
   92.8799973       7.71559717E-05
   93.0599976       7.88616380E-05
   93.2399979       8.08229670E-05
   93.4199982       8.30325735E-05
   93.5999985       8.54799946E-05
   93.7799988       8.81520391E-05
   93.9599991       9.10330054E-05
   94.1399994       9.41049948E-05
   94.3199997       9.73482311E-05
   94.5000000       1.00741614E-04
   94.6800003       1.04263272E-04
   94.8600006       1.07891145E-04
   95.0400009       1.11603615E-04
   95.2200012       1.15380113E-04
   95.4000015       1.19201562E-04
   95.5800018       1.23050791E-04
   95.7600021       1.26912666E-04
   95.9400024       1.30774177E-04
   96.1200027       1.34624206E-04
   96.3000031       1.38453222E-04
   96.4800034       1.42252975E-04
   96.6600037       1.46015867E-04
   96.8399963       1.49734726E-04
   97.0199966       1.53402158E-04
   97.1999969       1.57010276E-04
   97.3799973       1.60550364E-04
   97.5599976       1.64012585E-04
   97.7399979       1.67385719E-04
   97.9199982       1.70657018E-04
   98.0999985       1.73811670E-04
   98.2799988       1.76832604E-04
   98.4599991       1.79699986E-04
   98.6399994       1.82390679E-04
   98.8199997       1.84877819E-04
   99.0000000       1.87130208E-04
   99.1800003       1.89112034E-04
   99.3600006       1.90782448E-04
   99.5400009       1.92095569E-04
   99.7200012       1.93000582E-04
   99.9000015       1.93442102E-04
   100.080002       1.93360698E-04
   100.260002       1.92693726E-04
   100.440002       1.91376239E-04
   100.620003       1.89342041E-04
