  -7.19999981         9.76003722E-18
  -7.01949978         2.59280625E-10
  -6.83900023         7.48769935E-10
  -6.65850019         1.34496758E-09
  -6.47800016         1.86847204E-09
  -6.29750013         2.13817475E-09
  -6.11700010         2.01705119E-09
  -5.93650007         1.42746748E-09
  -5.75600004         3.26489863E-10
  -5.57550001        -1.34970812E-09
  -5.39499998        -3.74773723E-09
  -5.21449995        -7.13724191E-09
  -5.03399992        -1.19137633E-08
  -4.85349989        -1.85706313E-08
  -4.67299986        -2.76661538E-08
  -4.49249983        -3.98181115E-08
  -4.31199980        -5.57449766E-08
  -4.13149977        -7.63490391E-08
  -3.95099998        -1.02814717E-07
  -3.77049994        -1.36688016E-07
  -3.58999991        -1.79914281E-07
  -3.40949988        -2.34834275E-07
  -3.22900009        -3.04159073E-07
  -3.04850006        -3.90952948E-07
  -2.86800003        -4.98643999E-07
  -2.68750000        -6.31064836E-07
  -2.50699997        -7.92505602E-07
  -2.32649994        -9.87754106E-07
  -2.14599991        -1.22209701E-06
  -1.96550000        -1.50127141E-06
  -1.78499997        -1.83136524E-06
  -1.60450006        -2.21868322E-06
  -1.42400002        -2.66959614E-06
  -1.24349999        -3.19039236E-06
  -1.06299996        -3.78714162E-06
 -0.882499993        -4.46557397E-06
 -0.702000022        -5.23094468E-06
 -0.521499991        -6.08787786E-06
 -0.340999991        -7.04016929E-06
 -0.160500005        -8.09054382E-06
   1.99999996E-02    -9.24041160E-06
  0.200499997        -1.04896362E-05
  0.381000012        -1.18363769E-05
  0.561500013        -1.32770074E-05
  0.741999984        -1.48061190E-05
  0.922500014        -1.64165576E-05
   1.10300004        -1.80994939E-05
   1.28349996        -1.98444832E-05
   1.46399999        -2.16395511E-05
   1.64450002        -2.34713043E-05
   1.82500005        -2.53251237E-05
   2.00550008        -2.71854442E-05
   2.18600011        -2.90360822E-05
   2.36649990        -3.08606141E-05
   2.54699993        -3.26427435E-05
   2.72749996        -3.43666106E-05
   2.90799999        -3.60170889E-05
   3.08850002        -3.75800300E-05
   3.26900005        -3.90424466E-05
   3.44950008        -4.03927443E-05
   3.63000011        -4.16208750E-05
   3.81049991        -4.27185114E-05
   3.99099994        -4.36791706E-05
   4.17150021        -4.44982834E-05
   4.35200024        -4.51731685E-05
   4.53249979        -4.57029455E-05
   4.71299982        -4.60883602E-05
   4.89349985        -4.63315992E-05
   5.07399988        -4.64361001E-05
   5.25449991        -4.64063705E-05
   5.43499994        -4.62478711E-05
   5.61549997        -4.59668881E-05
   5.79600000        -4.55704248E-05
   5.97650003        -4.50660264E-05
   6.15700006        -4.44616016E-05
   6.33750010        -4.37652088E-05
   6.51800013        -4.29849097E-05
   6.69850016        -4.21286386E-05
   6.87900019        -4.12041882E-05
   7.05950022        -4.02191799E-05
   7.23999977        -3.91811045E-05
   7.42049980        -3.80972888E-05
   7.60099983        -3.69748668E-05
   7.78149986        -3.58206744E-05
   7.96199989        -3.46412162E-05
   8.14249992        -3.34426149E-05
   8.32299995        -3.22305896E-05
   8.50349998        -3.10105352E-05
   8.68400002        -2.97875340E-05
   8.86450005        -2.85664573E-05
   9.04500008        -2.73519800E-05
   9.22550011        -2.61486221E-05
   9.40600014        -2.49606983E-05
   9.58650017        -2.37923487E-05
   9.76700020        -2.26475022E-05
   9.94750023        -2.15299206E-05
   10.1280003        -2.04432217E-05
   10.3085003        -1.93909873E-05
   10.4890003        -1.83767588E-05
   10.6695004        -1.74041070E-05
   10.8500004        -1.64765843E-05
   11.0305004        -1.55976231E-05
   11.2110004        -1.47704632E-05
   11.3915005        -1.39980630E-05
   11.5719995        -1.32831001E-05
   11.7524996        -1.26279720E-05
   11.9329996        -1.20348341E-05
   12.1134996        -1.15056337E-05
   12.2939997        -1.10420906E-05
   12.4744997        -1.06456773E-05
   12.6549997        -1.03175416E-05
   12.8354998        -1.00584875E-05
   13.0159998        -9.86896976E-06
   13.1964998        -9.74914383E-06
   13.3769999        -9.69893335E-06
   13.5574999        -9.71808913E-06
   13.7379999        -9.80624827E-06
   13.9184999        -9.96296239E-06
   14.0990000        -1.01877004E-05
   14.2795000        -1.04798701E-05
   14.4600000        -1.08388176E-05
   14.6405001        -1.12639182E-05
   14.8210001        -1.17546724E-05
   15.0015001        -1.23108266E-05
   15.1820002        -1.29325263E-05
   15.3625002        -1.36204353E-05
   15.5430002        -1.43758270E-05
   15.7235003        -1.52005996E-05
   15.9040003        -1.60972904E-05
   16.0844994        -1.70690528E-05
   16.2649994        -1.81196319E-05
   16.4454994        -1.92534262E-05
   16.6259995        -2.04754706E-05
   16.8064995        -2.17914567E-05
   16.9869995        -2.32076782E-05
   17.1674995        -2.47308708E-05
   17.3479996        -2.63680104E-05
   17.5284996        -2.81260400E-05
   17.7089996        -3.00116208E-05
   17.8894997        -3.20308536E-05
   18.0699997        -3.41890955E-05
   18.2504997        -3.64906518E-05
   18.4309998        -3.89385459E-05
   18.6114998        -4.15342220E-05
   18.7919998        -4.42772143E-05
   18.9724998        -4.71648709E-05
   19.1529999        -5.01920767E-05
   19.3334999        -5.33510683E-05
   19.5139999        -5.66313101E-05
   19.6945000        -6.00195272E-05
   19.8750000        -6.34997414E-05
   20.0555000        -6.70534209E-05
   20.2360001        -7.06596184E-05
   20.4165001        -7.42952616E-05
   20.5970001        -7.79353577E-05
   20.7775002        -8.15533131E-05
   20.9580002        -8.51213772E-05
   21.1385002        -8.86110865E-05
   21.3190002        -9.19938611E-05
   21.4995003        -9.52415576E-05
   21.6800003        -9.83270729E-05
   21.8605003        -1.01224890E-04
   22.0410004        -1.03911516E-04
   22.2215004        -1.06365893E-04
   22.4020004        -1.08569780E-04
   22.5825005        -1.10508146E-04
   22.7630005        -1.12169495E-04
   22.9435005        -1.13546237E-04
   23.1240005        -1.14634953E-04
   23.3045006        -1.15436502E-04
   23.4850006        -1.15956078E-04
   23.6655006        -1.16203068E-04
   23.8460007        -1.16190888E-04
   24.0265007        -1.15936702E-04
   24.2070007        -1.15461109E-04
   24.3875008        -1.14787836E-04
   24.5680008        -1.13943308E-04
   24.7485008        -1.12956288E-04
   24.9290009        -1.11857407E-04
   25.1095009        -1.10678622E-04
   25.2900009        -1.09452754E-04
   25.4705009        -1.08212909E-04
   25.6509991        -1.06992040E-04
   25.8314991        -1.05822437E-04
   26.0119991        -1.04735365E-04
   26.1924992        -1.03760642E-04
   26.3729992        -1.02926337E-04
   26.5534992        -1.02258324E-04
   26.7339993        -1.01779930E-04
   26.9144993        -1.01511461E-04
   27.0949993        -1.01469814E-04
   27.2754993        -1.01668127E-04
   27.4559994        -1.02115519E-04
   27.6364994        -1.02816928E-04
   27.8169994        -1.03773011E-04
   27.9974995        -1.04980078E-04
   28.1779995        -1.06430060E-04
   28.3584995        -1.08110493E-04
   28.5389996        -1.10004497E-04
   28.7194996        -1.12090922E-04
   28.8999996        -1.14344548E-04
   29.0804996        -1.16736483E-04
   29.2609997        -1.19234537E-04
   29.4414997        -1.21803721E-04
   29.6219997        -1.24406797E-04
   29.8024998        -1.27004721E-04
   29.9829998        -1.29557244E-04
   30.1634998        -1.32023342E-04
   30.3439999        -1.34361733E-04
   30.5244999        -1.36531351E-04
   30.7049999        -1.38491960E-04
   30.8855000        -1.40204589E-04
   31.0660000        -1.41632074E-04
   31.2465000        -1.42739416E-04
   31.4270000        -1.43494181E-04
   31.6075001        -1.43866826E-04
   31.7880001        -1.43830854E-04
   31.9685001        -1.43363111E-04
   32.1489983        -1.42443925E-04
   32.3294983        -1.41057404E-04
   32.5099983        -1.39191703E-04
   32.6904984        -1.36839226E-04
   32.8709984        -1.33996800E-04
   33.0514984        -1.30665823E-04
   33.2319984        -1.26852232E-04
   33.4124985        -1.22566678E-04
   33.5929985        -1.17824420E-04
   33.7734985        -1.12645503E-04
   33.9539986        -1.07054686E-04
   34.1344986        -1.01081459E-04
   34.3149986        -9.47598164E-05
   34.4954987        -8.81279921E-05
   34.6759987        -8.12279759E-05
   34.8564987        -7.41049516E-05
   35.0369987        -6.68066059E-05
   35.2174988        -5.93824007E-05
   35.3979988        -5.18827983E-05
   35.5784988        -4.43584868E-05
   35.7589989        -3.68595429E-05
   35.9394989        -2.94346464E-05
   36.1199989        -2.21302762E-05
   36.3004990        -1.49899151E-05
   36.4809990        -8.05328000E-06
   36.6614990        -1.35573339E-06
   36.8419991         5.07226832E-06
   37.0224991         1.12054413E-05
   37.2029991         1.70239055E-05
   37.3834991         2.25131880E-05
   37.5639992         2.76640403E-05
   37.7444992         3.24722132E-05
   37.9249992         3.69380177E-05
   38.1054993         4.10659050E-05
   38.2859993         4.48636965E-05
   38.4664993         4.83417352E-05
   38.6469994         5.15119864E-05
   38.8274994         5.43868555E-05
   39.0079994         5.69780750E-05
   39.1884995         5.92954893E-05
   39.3689995         6.13461089E-05
   39.5494995         6.31330840E-05
   39.7299995         6.46547996E-05
   39.9104996         6.59040961E-05
   40.0909996         6.68676512E-05
   40.2714996         6.75255069E-05
   40.4519997         6.78508077E-05
   40.6324997         6.78098659E-05
   40.8129997         6.73624236E-05
   40.9934998         6.64624167E-05
   41.1739998         6.50587099E-05
   41.3544998         6.30964932E-05
   41.5349998         6.05186433E-05
   41.7154999         5.72673671E-05
   41.8959999         5.32859340E-05
   42.0764999         4.85205092E-05
   42.2570000         4.29222673E-05
   42.4375000         3.64491789E-05
   42.6180000         2.90680327E-05
   42.7985001         2.07562989E-05
   42.9790001         1.15037137E-05
   43.1595001         1.31397280E-06
   43.3400002        -9.79443030E-06
   43.5205002        -2.17874185E-05
   43.7010002        -3.46152556E-05
   43.8815002        -4.82123141E-05
   44.0620003        -6.24980967E-05
   44.2425003        -7.73779611E-05
   44.4230003        -9.27442597E-05
   44.6035004        -1.08478300E-04
   44.7840004        -1.24452054E-04
   44.9645004        -1.40530741E-04
   45.1450005        -1.56575261E-04
   45.3255005        -1.72444823E-04
   45.5060005        -1.87999773E-04
   45.6865005        -2.03104224E-04
   45.8670006        -2.17628389E-04
   46.0475006        -2.31451268E-04
   46.2280006        -2.44462746E-04
   46.4085007        -2.56565429E-04
   46.5890007        -2.67676573E-04
   46.7695007        -2.77729676E-04
   46.9500008        -2.86675378E-04
   47.1305008        -2.94482161E-04
   47.3110008        -3.01137072E-04
   47.4915009        -3.06645117E-04
   47.6720009        -3.11029289E-04
   47.8525009        -3.14329634E-04
   48.0330009        -3.16602236E-04
   48.2135010        -3.17918079E-04
   48.3940010        -3.18361446E-04
   48.5745010        -3.18028295E-04
   48.7550011        -3.17024242E-04
   48.9355011        -3.15462734E-04
   49.1160011        -3.13462806E-04
   49.2965012        -3.11146898E-04
   49.4770012        -3.08638788E-04
   49.6575012        -3.06061411E-04
   49.8380013        -3.03534995E-04
   50.0185013        -3.01175227E-04
   50.1990013        -2.99091480E-04
   50.3795013        -2.97385326E-04
   50.5600014        -2.96148937E-04
   50.7405014        -2.95463658E-04
   50.9210014        -2.95398902E-04
   51.1015015        -2.96011043E-04
   51.2820015        -2.97342689E-04
   51.4625015        -2.99422070E-04
   51.6430016        -3.02262779E-04
   51.8235016        -3.05863534E-04
   52.0040016        -3.10208503E-04
   52.1845016        -3.15267273E-04
   52.3650017        -3.20995547E-04
   52.5455017        -3.27335816E-04
   52.7260017        -3.34218174E-04
   52.9065018        -3.41561710E-04
   53.0870018        -3.49275564E-04
   53.2675018        -3.57260724E-04
   53.4480019        -3.65411513E-04
   53.6285019        -3.73617135E-04
   53.8089981        -3.81763530E-04
   53.9894981        -3.89734720E-04
   54.1699982        -3.97414842E-04
   54.3504982        -4.04689723E-04
   54.5309982        -4.11448331E-04
   54.7114983        -4.17584379E-04
   54.8919983        -4.22997924E-04
   55.0724983        -4.27596271E-04
   55.2529984        -4.31295513E-04
   55.4334984        -4.34020738E-04
   55.6139984        -4.35706927E-04
   55.7944984        -4.36299015E-04
   55.9749985        -4.35752532E-04
   56.1554985        -4.34033573E-04
   56.3359985        -4.31118766E-04
   56.5164986        -4.26995073E-04
   56.6969986        -4.21659701E-04
   56.8774986        -4.15119692E-04
   57.0579987        -4.07391490E-04
   57.2384987        -3.98500735E-04
   57.4189987        -3.88481509E-04
   57.5994987        -3.77376244E-04
   57.7799988        -3.65235028E-04
   57.9604988        -3.52115225E-04
   58.1409988        -3.38080892E-04
   58.3214989        -3.23202461E-04
   58.5019989        -3.07555776E-04
   58.6824989        -2.91221484E-04
   58.8629990        -2.74284190E-04
   59.0434990        -2.56831874E-04
   59.2239990        -2.38954584E-04
   59.4044991        -2.20743997E-04
   59.5849991        -2.02291892E-04
   59.7654991        -1.83689350E-04
   59.9459991        -1.65025791E-04
   60.1264992        -1.46387538E-04
   60.3069992        -1.27857042E-04
   60.4874992        -1.09511937E-04
   60.6679993        -9.14242337E-05
   60.8484993        -7.36596048E-05
   61.0289993        -5.62771638E-05
   61.2094994        -3.93287446E-05
   61.3899994        -2.28591507E-05
   61.5704994        -6.90602155E-06
   61.7509995         8.50016841E-06
   61.9314995         2.33357259E-05
   62.1119995         3.75830641E-05
   62.2924995         5.12299812E-05
   62.4729996         6.42686791E-05
   62.6534996         7.66945013E-05
   62.8339996         8.85048939E-05
   63.0144997         9.96981616E-05
   63.1949997         1.10272013E-04
   63.3754997         1.20222692E-04
   63.5559998         1.29543492E-04
   63.7364998         1.38223841E-04
   63.9169998         1.46248523E-04
   64.0975037         1.53596804E-04
   64.2779999         1.60242067E-04
   64.4585037         1.66151949E-04
   64.6389999         1.71288382E-04
   64.8195038         1.75608307E-04
   65.0000000         1.79064547E-04
   65.1804962         1.81606942E-04
   65.3610001         1.83183787E-04
   65.5414963         1.83743294E-04
   65.7220001         1.83235461E-04
   65.9024963         1.81613941E-04
   66.0830002         1.78838163E-04
   66.2634964         1.74875357E-04
   66.4440002         1.69702747E-04
   66.6244965         1.63309611E-04
   66.8050003         1.55698886E-04
   66.9854965         1.46888735E-04
   67.1660004         1.36913586E-04
   67.3464966         1.25824939E-04
   67.5270004         1.13691924E-04
   67.7074966         1.00601203E-04
   67.8880005         8.66567789E-05
   68.0684967         7.19792224E-05
   68.2490005         5.67045536E-05
   68.4294968         4.09825952E-05
   68.6100006         2.49750901E-05
   68.7904968         8.85331974E-06
   68.9710007        -7.20458365E-06
   69.1514969        -2.30163732E-05
   69.3320007        -3.83988299E-05
   69.5124969        -5.31707010E-05
   69.6930008        -6.71561575E-05
   69.8734970        -8.01877031E-05
   70.0540009        -9.21094179E-05
   70.2344971        -1.02779988E-04
   70.4150009        -1.12075541E-04
   70.5954971        -1.19892167E-04
   70.7760010        -1.26148108E-04
   70.9564972        -1.30785382E-04
   71.1370010        -1.33771318E-04
   71.3174973        -1.35099195E-04
   71.4980011        -1.34788614E-04
   71.6784973        -1.32885252E-04
   71.8590012        -1.29460270E-04
   72.0394974        -1.24609171E-04
   72.2200012        -1.18450072E-04
   72.4004974        -1.11121371E-04
   72.5810013        -1.02779130E-04
   72.7614975        -9.35939534E-05
   72.9420013        -8.37474072E-05
   73.1224976        -7.34286295E-05
   73.3030014        -6.28304988E-05
   73.4834976        -5.21457332E-05
   73.6640015        -4.15633331E-05
   73.8444977        -3.12648735E-05
   74.0250015        -2.14211541E-05
   74.2054977        -1.21887124E-05
   74.3860016        -3.70683256E-06
   74.5664978         3.90512378E-06
   74.7470016         1.05500612E-05
   74.9274979         1.61549015E-05
   75.1080017         2.06718250E-05
   75.2884979         2.40789304E-05
   75.4690018         2.63803377E-05
   75.6494980         2.76060146E-05
   75.8300018         2.78106381E-05
   76.0104980         2.70724377E-05
   76.1910019         2.54911320E-05
   76.3714981         2.31856011E-05
   76.5520020         2.02909196E-05
   76.7324982         1.69550494E-05
   76.9130020         1.33354124E-05
   77.0934982         9.59521367E-06
   77.2740021         5.89968568E-06
   77.4544983         2.41256498E-06
   77.6350021        -7.07515198E-07
   77.8154984        -3.31033084E-06
   77.9960022        -5.25720816E-06
   78.1764984        -6.42395207E-06
   78.3570023        -6.70329746E-06
   78.5374985        -6.00685689E-06
   78.7180023        -4.26669476E-06
   78.8984985        -1.43621423E-06
   79.0790024         2.50944777E-06
   79.2594986         7.57358976E-06
   79.4400024         1.37383595E-05
   79.6204987         2.09658156E-05
   79.8010025         2.91989745E-05
   79.9814987         3.83632832E-05
   80.1620026         4.83683361E-05
   80.3424988         5.91098069E-05
   80.5230026         7.04714039E-05
   80.7034988         8.23271985E-05
   80.8840027         9.45436695E-05
   81.0644989         1.06981985E-04
   81.2450027         1.19499906E-04
   81.4254990         1.31953770E-04
   81.6060028         1.44200225E-04
   81.7864990         1.56097958E-04
   81.9670029         1.67509454E-04
   82.1474991         1.78302493E-04
   82.3280029         1.88352002E-04
   82.5084991         1.97541696E-04
   82.6890030         2.05765507E-04
   82.8694992         2.12928935E-04
