-7.200000 -4.4358929E-18
-7.057088 -4.4416340E-18
-6.914176 -4.4525726E-18
-6.771265 -4.4677923E-18
-6.628353 -4.4860842E-18
-6.485441 -4.5060631E-18
-6.342530 -4.5262914E-18
-6.199618 -4.5454129E-18
-6.056706 -4.5622704E-18
-5.913795 -4.5760086E-18
-5.770883 -4.5861420E-18
-5.627971 -4.5925899E-18
-5.485059 -4.5956732E-18
-5.342147 -4.5960756E-18
-5.199236 -4.5947674E-18
-5.056324 -4.5929100E-18
-4.913413 -4.5917379E-18
-4.770501 -4.5924393E-18
-4.627589 -4.5960330E-18
-4.484677 -4.6032709E-18
-4.341765 -4.6145561E-18
-4.198854 -4.6298949E-18
-4.055942 -4.6488932E-18
-3.913030 -4.6707829E-18
-3.770118 -4.6944903E-18
-3.627207 -4.7187362E-18
-3.484295 -4.7421582E-18
-3.341383 -4.7634391E-18
-3.198472 -4.7814402E-18
-3.055560 -4.7953104E-18
-2.912648 -4.8045735E-18
-2.769737 -4.8091727E-18
-2.626825 -4.8094791E-18
-2.483913 -4.8062540E-18
-2.341001 -4.8005737E-18
-2.198090 -4.7937259E-18
-2.055178 -4.7870878E-18
-1.912266 -4.7819927E-18
-1.769354 -4.7796080E-18
-1.626443 -4.7808289E-18
-1.483531 -4.7861977E-18
-1.340619 -4.7958592E-18
-1.197708 -4.8095519E-18
-1.054796 -4.8266357E-18
-0.9118841 -4.8461543E-18
-0.7689723 -4.8669277E-18
-0.6260606 -4.8876622E-18
-0.4831489 -4.9070707E-18
-0.3402372 -4.9239973E-18
-0.1973254 -4.9375259E-18
-5.4413714E-02 -4.9470699E-18
8.8498011E-02 -4.9524283E-18
0.2314097 -4.9538106E-18
0.3743215 -4.9518142E-18
0.5172332 -4.9473706E-18
0.6601449 -4.9416527E-18
0.8030567 -4.9359584E-18
0.9459684 -4.9315817E-18
1.088880 -4.9296863E-18
1.231792 -4.9311843E-18
1.374704 -4.9366499E-18
1.517615 -4.9462630E-18
1.660527 -4.9597927E-18
1.803439 -4.9766230E-18
1.946350 -4.9958156E-18
2.089262 -5.0162036E-18
2.232174 -5.0365092E-18
2.375086 -5.0554624E-18
2.517997 -5.0719266E-18
2.660909 -5.0850060E-18
2.803821 -5.0941285E-18
2.946733 -5.0990986E-18
3.089644 -5.1001157E-18
3.232556 -5.0977545E-18
3.375468 -5.0929088E-18
3.518379 -5.0867095E-18
3.661291 -5.0804143E-18
3.804203 -5.0752853E-18
3.947115 -5.0724680E-18
4.090026 -5.0728762E-18
4.232938 -5.0771027E-18
4.375850 -5.0853583E-18
4.518762 -5.0974505E-18
4.661673 -5.1128005E-18
4.804585 -5.1305030E-18
4.947497 -5.1494169E-18
5.090408 -5.1682770E-18
5.233320 -5.1858236E-18
5.376232 -5.2009246E-18
5.519144 -5.2126850E-18
5.662055 -5.2205329E-18
5.804967 -5.2242717E-18
5.947879 -5.2240918E-18
6.090790 -5.2205515E-18
6.233702 -5.2145180E-18
6.376614 -5.2070846E-18
6.519526 -5.1994650E-18
6.662437 -5.1928815E-18
6.805349 -5.1884503E-18
6.948261 -5.1870784E-18
7.091173 -5.1893800E-18
7.234084 -5.1956178E-18
7.376996 -5.2056771E-18
7.519908 -5.2190758E-18
7.662819 -5.2350048E-18
7.805731 -5.2524083E-18
7.948643 -5.2700839E-18
8.091555 -5.2867987E-18
8.234467 -5.3014171E-18
8.377378 -5.3130117E-18
8.520289 -5.3209642E-18
8.663201 -5.3250261E-18
8.806113 -5.3253487E-18
8.949025 -5.3224680E-18
9.091937 -5.3172506E-18
9.234848 -5.3108056E-18
9.377760 -5.3043722E-18
9.520672 -5.2991957E-18
9.663584 -5.2964023E-18
9.806496 -5.2968895E-18
9.949407 -5.3012401E-18
10.09232 -5.3096678E-18
10.23523 -5.3219982E-18
10.37814 -5.3376857E-18
10.52105 -5.3558663E-18
10.66397 -5.3754361E-18
10.80688 -5.3951532E-18
10.94979 -5.4137486E-18
11.09270 -5.4300457E-18
11.23561 -5.4430647E-18
11.37852 -5.4521186E-18
11.52144 -5.4568787E-18
11.66435 -5.4574085E-18
11.80726 -5.4541647E-18
11.95017 -5.4479571E-18
12.09308 -5.4398751E-18
12.23599 -5.4311835E-18
12.37891 -5.4232017E-18
12.52182 -5.4171748E-18
12.66473 -5.4141465E-18
12.80764 -5.4148628E-18
12.95055 -5.4196923E-18
13.09346 -5.4285973E-18
13.23638 -5.4411349E-18
13.37929 -5.4565110E-18
13.52220 -5.4736564E-18
13.66511 -5.4913344E-18
13.80802 -5.5082627E-18
13.95094 -5.5232351E-18
14.09385 -5.5352321E-18
14.23676 -5.5435163E-18
14.37967 -5.5476998E-18
14.52258 -5.5477775E-18
14.66549 -5.5441313E-18
14.80841 -5.5374948E-18
14.95132 -5.5288905E-18
15.09423 -5.5195397E-18
15.23714 -5.5107500E-18
15.38005 -5.5037934E-18
15.52296 -5.4997841E-18
15.66588 -5.4995670E-18
15.80879 -5.5036264E-18
15.95170 -5.5120322E-18
16.09461 -5.5244242E-18
16.23752 -5.5400393E-18
16.38043 -5.5577806E-18
16.52335 -5.5763289E-18
16.66626 -5.5942705E-18
16.80917 -5.6102384E-18
16.95208 -5.6230493E-18
17.09499 -5.6318199E-18
17.23791 -5.6360485E-18
17.38082 -5.6356597E-18
17.52373 -5.6310060E-18
17.66664 -5.6228260E-18
17.80955 -5.6121702E-18
17.95246 -5.6003006E-18
18.09538 -5.5885712E-18
18.23829 -5.5783084E-18
18.38120 -5.5706929E-18
18.52411 -5.5666530E-18
18.66702 -5.5667849E-18
18.80993 -5.5712968E-18
18.95285 -5.5799826E-18
19.09576 -5.5922393E-18
19.23867 -5.6071124E-18
19.38158 -5.6233831E-18
19.52449 -5.6396777E-18
19.66740 -5.6546017E-18
19.81032 -5.6668767E-18
19.95323 -5.6754735E-18
20.09614 -5.6797199E-18
20.23905 -5.6793737E-18
20.38196 -5.6746509E-18
20.52488 -5.6662033E-18
20.66779 -5.6550546E-18
20.81070 -5.6424910E-18
20.95361 -5.6299290E-18
21.09652 -5.6187740E-18
21.23943 -5.6102801E-18
21.38235 -5.6054324E-18
21.52526 -5.6048567E-18
21.66817 -5.6087668E-18
21.81108 -5.6169501E-18
21.95399 -5.6287924E-18
22.09690 -5.6433363E-18
22.23981 -5.6593650E-18
22.38273 -5.6755128E-18
22.52564 -5.6903839E-18
22.66855 -5.7026774E-18
22.81146 -5.7113091E-18
22.95437 -5.7155145E-18
23.09729 -5.7149317E-18
23.24020 -5.7096440E-18
23.38311 -5.7001843E-18
23.52602 -5.6874945E-18
23.66893 -5.6728373E-18
23.81184 -5.6576792E-18
23.95476 -5.6435415E-18
24.09767 -5.6318493E-18
24.24058 -5.6237872E-18
24.38349 -5.6201827E-18
24.52640 -5.6214272E-18
24.66932 -5.6274450E-18
24.81223 -5.6377127E-18
24.95514 -5.6513203E-18
25.09805 -5.6670694E-18
25.24096 -5.6835944E-18
25.38387 -5.6994920E-18
25.52678 -5.7134511E-18
25.66970 -5.7243669E-18
25.81261 -5.7314389E-18
25.95552 -5.7342364E-18
26.09843 -5.7327372E-18
26.24134 -5.7273328E-18
26.38426 -5.7187959E-18
26.52717 -5.7082167E-18
26.67008 -5.6969062E-18
26.81299 -5.6862736E-18
26.95590 -5.6776883E-18
27.09881 -5.6723394E-18
27.24173 -5.6711052E-18
27.38464 -5.6744553E-18
27.52755 -5.6823884E-18
27.67046 -5.6944255E-18
27.81337 -5.7096543E-18
27.95629 -5.7268208E-18
28.09920 -5.7444633E-18
28.24211 -5.7610648E-18
28.38502 -5.7752067E-18
28.52793 -5.7857107E-18
28.67084 -5.7917482E-18
28.81376 -5.7929129E-18
28.95667 -5.7892460E-18
29.09958 -5.7812207E-18
29.24249 -5.7696911E-18
29.38540 -5.7558085E-18
29.52831 -5.7409188E-18
29.67122 -5.7264452E-18
29.81414 -5.7137662E-18
29.95705 -5.7040965E-18
30.09996 -5.6983753E-18
30.24287 -5.6971783E-18
30.38578 -5.7006533E-18
30.52870 -5.7084954E-18
30.67161 -5.7199626E-18
30.81452 -5.7339432E-18
30.95743 -5.7490604E-18
31.10034 -5.7638152E-18
31.24325 -5.7767494E-18
31.38617 -5.7866036E-18
31.52908 -5.7924588E-18
31.67199 -5.7938361E-18
31.81490 -5.7907494E-18
31.95781 -5.7836932E-18
32.10072 -5.7735817E-18
32.24364 -5.7616430E-18
32.38655 -5.7492808E-18
32.52946 -5.7379286E-18
32.67237 -5.7289102E-18
32.81528 -5.7233173E-18
32.95819 -5.7219156E-18
33.10111 -5.7250854E-18
33.24402 -5.7327955E-18
33.38693 -5.7446101E-18
33.52984 -5.7597227E-18
33.67275 -5.7770224E-18
33.81567 -5.7951827E-18
33.95858 -5.8127715E-18
34.10149 -5.8283808E-18
34.24440 -5.8407583E-18
34.38731 -5.8489391E-18
34.53022 -5.8523512E-18
34.67313 -5.8508913E-18
34.81605 -5.8449480E-18
34.95896 -5.8353717E-18
35.10187 -5.8233904E-18
35.24478 -5.8104760E-18
35.38770 -5.7981850E-18
35.53061 -5.7879833E-18
35.67352 -5.7810892E-18
35.81643 -5.7783483E-18
35.95934 -5.7801524E-18
36.10225 -5.7864167E-18
36.24516 -5.7966079E-18
36.38808 -5.8098110E-18
36.53099 -5.8248363E-18
36.67390 -5.8403373E-18
36.81681 -5.8549386E-18
36.95972 -5.8673571E-18
37.10263 -5.8765090E-18
37.24555 -5.8816045E-18
37.38846 -5.8822153E-18
37.53137 -5.8783222E-18
37.67428 -5.8703267E-18
37.81719 -5.8590315E-18
37.96011 -5.8455791E-18
38.10302 -5.8313570E-18
38.24593 -5.8178628E-18
38.38884 -5.8065556E-18
38.53175 -5.7986974E-18
38.67466 -5.7952121E-18
38.81758 -5.7965757E-18
38.96049 -5.8027605E-18
39.10340 -5.8132359E-18
39.24631 -5.8270292E-18
39.38922 -5.8428382E-18
39.53214 -5.8591763E-18
39.67505 -5.8745354E-18
39.81796 -5.8875399E-18
39.96087 -5.8970810E-18
40.10378 -5.9024110E-18
40.24669 -5.9032046E-18
40.38961 -5.8995704E-18
40.53252 -5.8920303E-18
40.67543 -5.8814676E-18
40.81834 -5.8690491E-18
40.96125 -5.8561269E-18
41.10416 -5.8441253E-18
41.24707 -5.8344179E-18
41.38999 -5.8282000E-18
41.53290 -5.8263699E-18
41.67581 -5.8294243E-18
41.81872 -5.8373900E-18
41.96163 -5.8497990E-18
42.10455 -5.8657197E-18
42.24746 -5.8838374E-18
42.39037 -5.9025905E-18
42.53328 -5.9203368E-18
42.67619 -5.9355371E-18
42.81910 -5.9469224E-18
42.96202 -5.9536329E-18
43.10493 -5.9553030E-18
43.24784 -5.9520856E-18
43.39075 -5.9446220E-18
43.53366 -5.9339530E-18
43.67657 -5.9214018E-18
43.81948 -5.9084320E-18
43.96240 -5.8965082E-18
44.10531 -5.8869654E-18
44.24822 -5.8808952E-18
44.39113 -5.8790630E-18
44.53405 -5.8818435E-18
44.67696 -5.8891897E-18
44.81987 -5.9006284E-18
44.96278 -5.9152877E-18
45.10569 -5.9319632E-18
45.24860 -5.9492132E-18
45.39151 -5.9654913E-18
45.53443 -5.9792986E-18
45.67734 -5.9893460E-18
45.82025 -5.9947045E-18
45.96316 -5.9949208E-18
46.10608 -5.9900838E-18
46.24899 -5.9808264E-18
46.39190 -5.9682595E-18
46.53481 -5.9538500E-18
46.67772 -5.9392511E-18
46.82063 -5.9261217E-18
46.96354 -5.9159449E-18
47.10646 -5.9098800E-18
47.24937 -5.9086578E-18
47.39228 -5.9125299E-18
47.53519 -5.9212682E-18
47.67810 -5.9342094E-18
47.82101 -5.9503328E-18
47.96392 -5.9683608E-18
48.10684 -5.9868673E-18
48.24975 -6.0043961E-18
48.39266 -6.0195736E-18
48.53557 -6.0312220E-18
48.67849 -6.0384615E-18
48.82140 -6.0408003E-18
48.96431 -6.0381951E-18
49.10722 -6.0310785E-18
49.25013 -6.0203367E-18
49.39304 -6.0072412E-18
49.53595 -5.9933235E-18
49.67887 -5.9802180E-18
49.82178 -5.9694817E-18
49.96469 -5.9624150E-18
50.10760 -5.9599178E-18
50.25051 -5.9623853E-18
50.39342 -5.9696748E-18
50.53634 -5.9811358E-18
50.67925 -5.9956983E-18
50.82216 -6.0120045E-18
50.96507 -6.0285626E-18
51.10798 -6.0439031E-18
51.25090 -6.0567182E-18
51.39381 -6.0659710E-18
51.53672 -6.0709742E-18
51.67963 -6.0714312E-18
51.82254 -6.0674521E-18
51.96545 -6.0595360E-18
52.10837 -6.0485370E-18
52.25128 -6.0355999E-18
52.39419 -6.0220775E-18
52.53710 -6.0094188E-18
52.68001 -5.9990443E-18
52.82293 -5.9922031E-18
52.96584 -5.9898415E-18
53.10875 -5.9924860E-18
53.25166 -6.0001680E-18
53.39457 -6.0124036E-18
53.53748 -6.0282351E-18
53.68040 -6.0463284E-18
53.82331 -6.0651223E-18
53.96622 -6.0830052E-18
54.10913 -6.0984904E-18
54.25204 -6.1103766E-18
54.39495 -6.1178597E-18
54.53786 -6.1205972E-18
54.68078 -6.1187179E-18
54.82369 -6.1127783E-18
54.96660 -6.1036859E-18
55.10951 -6.0925959E-18
55.25242 -6.0808011E-18
55.39534 -6.0696206E-18
55.53825 -6.0602900E-18
55.68116 -6.0538652E-18
55.82407 -6.0511322E-18
55.96698 -6.0525372E-18
56.10989 -6.0581310E-18
56.25281 -6.0675481E-18
56.39572 -6.0800161E-18
56.53863 -6.0944174E-18
56.68154 -6.1093873E-18
56.82445 -6.1234564E-18
56.96737 -6.1352114E-18
57.11028 -6.1434626E-18
57.25319 -6.1473884E-18
57.39610 -6.1466364E-18
57.53901 -6.1413640E-18
57.68192 -6.1322187E-18
57.82484 -6.1202514E-18
57.96775 -6.1067932E-18
58.11066 -6.0932953E-18
58.25357 -6.0811763E-18
58.39648 -6.0716840E-18
58.53939 -6.0657853E-18
58.68230 -6.0640954E-18
58.82522 -6.0668445E-18
58.96813 -6.0738772E-18
59.11104 -6.0846761E-18
59.25395 -6.0984081E-18
59.39687 -6.1139860E-18
59.53978 -6.1301499E-18
59.68269 -6.1455710E-18
59.82560 -6.1589602E-18
59.96851 -6.1692011E-18
60.11142 -6.1754703E-18
60.25433 -6.1773418E-18
60.39725 -6.1748640E-18
60.54016 -6.1685683E-18
60.68307 -6.1594333E-18
60.82598 -6.1487764E-18
60.96889 -6.1380991E-18
61.11180 -6.1289079E-18
61.25471 -6.1225295E-18
61.39763 -6.1199541E-18
61.54054 -6.1217271E-18
61.68345 -6.1279041E-18
61.82636 -6.1380673E-18
61.96928 -6.1513965E-18
62.11219 -6.1667783E-18
62.25510 -6.1829356E-18
62.39801 -6.1985536E-18
62.54092 -6.2123952E-18
62.68383 -6.2233984E-18
62.82674 -6.2307483E-18
62.96966 -6.2339400E-18
63.11257 -6.2328154E-18
63.25548 -6.2275918E-18
63.39839 -6.2188634E-18
63.54131 -6.2075761E-18
63.68422 -6.1949657E-18
63.82713 -6.1824546E-18
63.97004 -6.1715127E-18
64.11295 -6.1634927E-18
64.25586 -6.1594648E-18
64.39877 -6.1600690E-18
64.54169 -6.1654196E-18
64.68460 -6.1750716E-18
64.82751 -6.1880716E-18
64.97042 -6.2030663E-18
65.11333 -6.2184791E-18
65.25625 -6.2327013E-18
65.39915 -6.2442855E-18
65.54207 -6.2521086E-18
65.68498 -6.2554765E-18
65.82789 -6.2541782E-18
65.97080 -6.2484744E-18
66.11372 -6.2390429E-18
66.25663 -6.2268928E-18
66.39954 -6.2132625E-18
66.54245 -6.1995094E-18
66.68536 -6.1870062E-18
66.82828 -6.1770341E-18
66.97118 -6.1706830E-18
67.11410 -6.1687515E-18
67.25701 -6.1716607E-18
67.39992 -6.1793887E-18
67.54283 -6.1914357E-18
67.68575 -6.2068407E-18
67.82866 -6.2242553E-18
67.97157 -6.2420720E-18
68.11448 -6.2585999E-18
68.25739 -6.2722641E-18
68.40031 -6.2818023E-18
68.54321 -6.2864213E-18
68.68613 -6.2858981E-18
68.82904 -6.2806012E-18
68.97195 -6.2714353E-18
69.11486 -6.2597191E-18
69.25777 -6.2470177E-18
69.40069 -6.2349603E-18
69.54359 -6.2250631E-18
69.68651 -6.2185842E-18
69.82942 -6.2164153E-18
69.97233 -6.2190222E-18
70.11524 -6.2264197E-18
70.25816 -6.2381847E-18
70.40107 -6.2534916E-18
70.54398 -6.2711759E-18
70.68689 -6.2898181E-18
70.82980 -6.3078552E-18
70.97272 -6.3237147E-18
71.11562 -6.3359644E-18
71.25854 -6.3434707E-18
71.40145 -6.3455366E-18
71.54436 -6.3420091E-18
71.68727 -6.3333204E-18
71.83018 -6.3204656E-18
71.97310 -6.3048980E-18
72.11600 -6.2883643E-18
72.25892 -6.2726979E-18
72.40183 -6.2596049E-18
72.54475 -6.2504642E-18
72.68765 -6.2461880E-18
72.83057 -6.2471397E-18
72.97348 -6.2531277E-18
73.11639 -6.2634600E-18
73.25930 -6.2770481E-18
73.40221 -6.2925358E-18
73.54513 -6.3084342E-18
73.68803 -6.3232581E-18
73.83095 -6.3356431E-18
73.97386 -6.3444538E-18
74.11678 -6.3488767E-18
74.25968 -6.3484979E-18
74.40260 -6.3433565E-18
74.54551 -6.3339742E-18
74.68842 -6.3213324E-18
74.83133 -6.3068076E-18
74.97424 -6.2920420E-18
75.11716 -6.2787728E-18
75.26006 -6.2686270E-18
75.40298 -6.2629207E-18
75.54589 -6.2624827E-18
75.68880 -6.2675471E-18
75.83171 -6.2777177E-18
75.97462 -6.2920246E-18
76.11754 -6.3090554E-18
76.26044 -6.3271421E-18
76.40336 -6.3445617E-18
76.54627 -6.3597364E-18
76.68919 -6.3713872E-18
76.83209 -6.3786403E-18
76.97501 -6.3810714E-18
77.11792 -6.3787090E-18
77.26083 -6.3719927E-18
77.40374 -6.3617171E-18
77.54665 -6.3489586E-18
77.68957 -6.3349991E-18
77.83247 -6.3212336E-18
77.97539 -6.3090674E-18
78.11830 -6.2997993E-18
78.26122 -6.2944863E-18
78.40412 -6.2938204E-18
78.54704 -6.2980179E-18
78.68995 -6.3067592E-18
78.83286 -6.3191921E-18
78.97577 -6.3340090E-18
79.11868 -6.3495943E-18
79.26160 -6.3642280E-18
79.40450 -6.3763089E-18
79.54742 -6.3845609E-18
79.69033 -6.3881955E-18
79.83324 -6.3869920E-18
79.97615 -6.3813018E-18
80.11906 -6.3719662E-18
80.26198 -6.3601851E-18
80.40488 -6.3473485E-18
80.54780 -6.3348734E-18
80.69071 -6.3240609E-18
80.83363 -6.3159876E-18
80.97653 -6.3114385E-18
81.11945 -6.3108690E-18
81.26236 -6.3143887E-18
81.40527 -6.3217613E-18
81.54818 -6.3324154E-18
81.69109 -6.3454704E-18
81.83401 -6.3597864E-18
81.97691 -6.3740470E-18
82.11983 -6.3868737E-18
82.26274 -6.3969748E-18
82.40565 -6.4033007E-18
82.54856 -6.4051933E-18
82.69147 -6.4024917E-18
82.83439 -6.3955769E-18
82.97730 -6.3853351E-18
83.12021 -6.3730515E-18
83.26312 -6.3602389E-18
83.40604 -6.3484358E-18
83.54894 -6.3390085E-18
83.69186 -6.3329866E-18
83.83477 -6.3309608E-18
83.97768 -6.3330482E-18
84.12059 -6.3389228E-18
84.26350 -6.3478928E-18
84.40642 -6.3590122E-18
84.54933 -6.3711928E-18
84.69224 -6.3833085E-18
84.83515 -6.3942832E-18
84.97807 -6.4031621E-18
85.12097 -6.4091720E-18
85.26389 -6.4117760E-18
85.40680 -6.4107225E-18
85.54971 -6.4060866E-18
85.69262 -6.3982954E-18
85.83553 -6.3881136E-18
85.97845 -6.3765976E-18
86.12135 -6.3649898E-18
86.26427 -6.3545859E-18
86.40718 -6.3465689E-18
86.55009 -6.3418531E-18
86.69300 -6.3409556E-18
86.83591 -6.3439252E-18
86.97883 -6.3503371E-18
87.12174 -6.3593600E-18
87.26465 -6.3698755E-18
87.40756 -6.3806347E-18
87.55048 -6.3904157E-18
87.69338 -6.3981676E-18
87.83630 -6.4031075E-18
87.97921 -6.4047826E-18
88.12212 -6.4030765E-18
88.26503 -6.3981957E-18
88.40794 -6.3906245E-18
88.55086 -6.3810723E-18
88.69377 -6.3704173E-18
88.83668 -6.3596462E-18
88.97959 -6.3497825E-18
89.12251 -6.3418089E-18
89.26541 -6.3365753E-18
89.40833 -6.3347046E-18
89.55124 -6.3365062E-18
89.69415 -6.3419168E-18
89.83706 -6.3504827E-18
89.97997 -6.3613916E-18
90.12289 -6.3735652E-18
90.26580 -6.3857897E-18
90.40871 -6.3968706E-18
90.55162 -6.4057888E-18
90.69453 -6.4118227E-18
90.83744 -6.4146272E-18
90.98035 -6.4142488E-18
91.12327 -6.4110877E-18
91.26618 -6.4058203E-18
91.40909 -6.3992888E-18
91.55200 -6.3924009E-18
91.69492 -6.3860341E-18
91.83783 -6.3809651E-18
91.98074 -6.3778210E-18
92.12365 -6.3770493E-18
92.26656 -6.3788930E-18
92.40947 -6.3833702E-18
92.55238 -6.3902610E-18
92.69530 -6.3990961E-18
92.83821 -6.4091712E-18
92.98112 -6.4195866E-18
93.12403 -6.4293254E-18
93.26694 -6.4373615E-18
93.40986 -6.4427915E-18
93.55276 -6.4449657E-18
93.69568 -6.4435910E-18
93.83859 -6.4387913E-18
93.98150 -6.4311022E-18
94.12441 -6.4214031E-18
94.26733 -6.4107962E-18
94.41024 -6.4004519E-18
94.55315 -6.3914587E-18
94.69606 -6.3846845E-18
94.83897 -6.3806963E-18
94.98188 -6.3797248E-18
95.12479 -6.3816782E-18
95.26771 -6.3861962E-18
95.41062 -6.3927202E-18
95.55353 -6.4005652E-18
95.69644 -6.4089830E-18
95.83936 -6.4172105E-18
95.98227 -6.4245125E-18
96.12518 -6.4302155E-18
96.26809 -6.4337587E-18
96.41100 -6.4347451E-18
96.55391 -6.4330006E-18
96.69682 -6.4286273E-18
96.83974 -6.4220284E-18
96.98265 -6.4139018E-18
97.12556 -6.4051746E-18
97.26847 -6.3969012E-18
97.41138 -6.3901233E-18
97.55430 -6.3857189E-18
97.69720 -6.3842714E-18
97.84012 -6.3859778E-18
97.98303 -6.3906229E-18
98.12594 -6.3976142E-18
98.26885 -6.4060759E-18
98.41177 -6.4149813E-18
98.55468 -6.4232940E-18
98.69759 -6.4300955E-18
98.84050 -6.4346756E-18
98.98341 -6.4365885E-18
99.12633 -6.4356579E-18
99.26923 -6.4319579E-18
99.41215 -6.4257793E-18
99.55506 -6.4175886E-18
99.69797 -6.4079933E-18
99.84088 -6.3977102E-18
99.98380 -6.3875338E-18
100.1267 -6.3782880E-18
100.2696 -6.3707668E-18
100.4125 -6.3656507E-18
100.5554 -6.3634165E-18
100.6984 -6.3642515E-18
100.8413 -6.3679920E-18
100.9842 -6.3741090E-18
101.1271 -6.3817452E-18
101.2700 -6.3898102E-18
101.4129 -6.3971220E-18
101.5558 -6.4025682E-18
101.6987 -6.4052611E-18
101.8416 -6.4046601E-18
101.9846 -6.4006404E-18
102.1275 -6.3934957E-18
102.2704 -6.3838822E-18
102.4133 -6.3727177E-18
102.5562 -6.3610553E-18
102.6991 -6.3499579E-18
102.8420 -6.3403849E-18
102.9849 -6.3331111E-18
103.1279 -6.3286745E-18
103.2708 -6.3273456E-18
103.4137 -6.3291237E-18
103.5566 -6.3337385E-18
103.6995 -6.3406670E-18
103.8424 -6.3491629E-18
103.9853 -6.3583016E-18
104.1282 -6.3670503E-18
104.2711 -6.3743617E-18
104.4141 -6.3792893E-18
104.5570 -6.3811045E-18
104.6999 -6.3794042E-18
104.8428 -6.3741893E-18
104.9857 -6.3658823E-18
105.1286 -6.3552973E-18
105.2715 -6.3435406E-18
105.4144 -6.3318715E-18
105.5574 -6.3215388E-18
105.7003 -6.3136186E-18
105.8432 -6.3088850E-18
105.9861 -6.3077266E-18
106.1290 -6.3101192E-18
106.2719 -6.3156547E-18
106.4148 -6.3236117E-18
106.5577 -6.3330544E-18
106.7006 -6.3429367E-18
106.8436 -6.3522057E-18
106.9865 -6.3598910E-18
107.1294 -6.3651771E-18
107.2723 -6.3674668E-18
107.4152 -6.3664229E-18
107.5581 -6.3620062E-18
107.7010 -6.3544883E-18
107.8439 -6.3444505E-18
107.9869 -6.3327417E-18
108.1298 -6.3204085E-18
108.2727 -6.3085860E-18
108.4156 -6.2983695E-18
108.5585 -6.2906734E-18
108.7014 -6.2861041E-18
108.8443 -6.2848711E-18
108.9872 -6.2867493E-18
109.1301 -6.2911040E-18
109.2731 -6.2969749E-18
109.4160 -6.3032077E-18
109.5589 -6.3086075E-18
109.7018 -6.3120904E-18
109.8447 -6.3128125E-18
109.9876 -6.3102594E-18
110.1305 -6.3042851E-18
110.2734 -6.2951067E-18
110.4164 -6.2832619E-18
110.5593 -6.2695385E-18
110.7022 -6.2548949E-18
110.8451 -6.2403701E-18
110.9880 -6.2269991E-18
111.1309 -6.2157259E-18
111.2738 -6.2073230E-18
111.4167 -6.2023131E-18
111.5596 -6.2009057E-18
111.7026 -6.2029530E-18
111.8455 -6.2079400E-18
111.9884 -6.2150153E-18
112.1313 -6.2230692E-18
112.2742 -6.2308563E-18
112.4171 -6.2371441E-18
112.5600 -6.2408730E-18
112.7029 -6.2412990E-18
112.8458 -6.2380941E-18
112.9888 -6.2313947E-18
113.1317 -6.2217730E-18
113.2746 -6.2101565E-18
113.4175 -6.1976975E-18
113.5604 -6.1856202E-18
113.7033 -6.1750679E-18
113.8462 -6.1669747E-18
113.9891 -6.1619765E-18
114.1321 -6.1603639E-18
114.2750 -6.1620766E-18
114.4179 -6.1667324E-18
114.5608 -6.1736770E-18
114.7037 -6.1820522E-18
114.8466 -6.1908637E-18
114.9895 -6.1990677E-18
115.1324 -6.2056545E-18
115.2754 -6.2097396E-18
115.4183 -6.2106586E-18
115.5612 -6.2080542E-18
115.7041 -6.2019359E-18
115.8470 -6.1927178E-18
115.9899 -6.1811923E-18
116.1328 -6.1684637E-18
116.2757 -6.1558210E-18
116.4186 -6.1445805E-18
116.5616 -6.1359087E-18
116.7045 -6.1306640E-18
116.8474 -6.1292727E-18
116.9903 -6.1316690E-18
117.1332 -6.1373046E-18
117.2761 -6.1452240E-18
117.4190 -6.1541952E-18
117.5619 -6.1628670E-18
117.7048 -6.1699361E-18
117.8478 -6.1742879E-18
117.9907 -6.1751134E-18
118.1336 -6.1719680E-18
118.2765 -6.1647976E-18
118.4194 -6.1539214E-18
118.5623 -6.1399843E-18
118.7052 -6.1238915E-18
118.8481 -6.1067270E-18
118.9911 -6.0896594E-18
119.1340 -6.0738412E-18
119.2769 -6.0603044E-18
119.4198 -6.0498518E-18
119.5627 -6.0429667E-18
119.7056 -6.0397415E-18
119.8485 -6.0398487E-18
119.9914 -6.0425593E-18
120.1343 -6.0468160E-18
120.2773 -6.0513593E-18
120.4202 -6.0548856E-18
120.5631 -6.0562182E-18
120.7060 -6.0544691E-18
120.8489 -6.0491594E-18
120.9918 -6.0402800E-18
121.1347 -6.0282863E-18
121.2776 -6.0140282E-18
121.4206 -5.9986315E-18
121.5635 -5.9833452E-18
121.7064 -5.9693857E-18
121.8493 -5.9578023E-18
121.9922 -5.9493667E-18
122.1351 -5.9445124E-18
122.2780 -5.9433088E-18
122.4209 -5.9454785E-18
122.5639 -5.9504362E-18
122.7068 -5.9573527E-18
122.8497 -5.9652308E-18
122.9926 -5.9729910E-18
123.1355 -5.9795646E-18
123.2784 -5.9839908E-18
123.4213 -5.9855120E-18
123.5642 -5.9836583E-18
123.7071 -5.9783114E-18
123.8501 -5.9697327E-18
123.9930 -5.9585496E-18
124.1359 -5.9456948E-18
124.2788 -5.9322982E-18
124.4217 -5.9195510E-18
124.5646 -5.9085536E-18
124.7075 -5.9001743E-18
124.8504 -5.8949378E-18
124.9933 -5.8929650E-18
125.1363 -5.8939630E-18
125.2792 -5.8972783E-18
125.4221 -5.9019879E-18
125.5650 -5.9070208E-18
125.7079 -5.9112887E-18
125.8508 -5.9138078E-18
125.9937 -5.9137992E-18
126.1366 -5.9107543E-18
126.2795 -5.9044768E-18
126.4225 -5.8950850E-18
126.5654 -5.8829970E-18
126.7083 -5.8688874E-18
126.8512 -5.8536267E-18
126.9941 -5.8382089E-18
127.1370 -5.8236601E-18
127.2799 -5.8109397E-18
127.4228 -5.8008414E-18
127.5658 -5.7939010E-18
127.7087 -5.7903292E-18
127.8516 -5.7899731E-18
127.9945 -5.7923236E-18
128.1374 -5.7965699E-18
128.2803 -5.8016914E-18
128.4232 -5.8065808E-18
128.5661 -5.8101845E-18
128.7090 -5.8116229E-18
128.8520 -5.8102965E-18
128.9949 -5.8059447E-18
129.1378 -5.7986552E-18
129.2807 -5.7888420E-18
129.4236 -5.7771696E-18
129.5665 -5.7644703E-18
129.7094 -5.7516445E-18
129.8523 -5.7395664E-18
129.9953 -5.7290054E-18
130.1382 -5.7205582E-18
130.2811 -5.7146021E-18
130.4240 -5.7112669E-18
130.5669 -5.7104203E-18
130.7098 -5.7116759E-18
130.8527 -5.7144172E-18
130.9956 -5.7178500E-18
131.1385 -5.7210735E-18
131.2815 -5.7231737E-18
131.4244 -5.7233272E-18
131.5673 -5.7209048E-18
131.7102 -5.7155566E-18
131.8531 -5.7072666E-18
131.9960 -5.6963615E-18
132.1389 -5.6834798E-18
132.2818 -5.6694897E-18
132.4248 -5.6553826E-18
132.5677 -5.6421510E-18
132.7106 -5.6306705E-18
132.8535 -5.6216108E-18
132.9964 -5.6153718E-18
133.1393 -5.6120664E-18
133.2822 -5.6115308E-18
133.4251 -5.6133647E-18
133.5681 -5.6169877E-18
133.7110 -5.6216985E-18
133.8539 -5.6267348E-18
133.9968 -5.6313273E-18
134.1397 -5.6347539E-18
134.2826 -5.6363917E-18
134.4255 -5.6357685E-18
134.5684 -5.6326090E-18
134.7113 -5.6268754E-18
134.8542 -5.6187885E-18
134.9972 -5.6088230E-18
135.1401 -5.5976673E-18
135.2830 -5.5861558E-18
135.4259 -5.5751663E-18
135.5688 -5.5655144E-18
135.7117 -5.5578443E-18
135.8546 -5.5525462E-18
135.9975 -5.5497111E-18
136.1405 -5.5491312E-18
136.2834 -5.5503397E-18
136.4263 -5.5526897E-18
136.5692 -5.5554480E-18
136.7121 -5.5578873E-18
136.8550 -5.5593701E-18
136.9979 -5.5594027E-18
137.1408 -5.5576640E-18
137.2838 -5.5540124E-18
137.4267 -5.5484765E-18
137.5696 -5.5412354E-18
137.7125 -5.5326050E-18
137.8554 -5.5230159E-18
137.9983 -5.5129925E-18
138.1412 -5.5031276E-18
138.2841 -5.4940364E-18
138.4270 -5.4863019E-18
138.5700 -5.4804066E-18
138.7129 -5.4766619E-18
138.8558 -5.4751511E-18
138.9987 -5.4756941E-18
139.1416 -5.4778526E-18
139.2845 -5.4809732E-18
139.4274 -5.4842687E-18
139.5703 -5.4869235E-18
139.7133 -5.4882081E-18
139.8562 -5.4875770E-18
139.9991 -5.4847377E-18
140.1420 -5.4796832E-18
140.2849 -5.4726761E-18
140.4278 -5.4642021E-18
140.5707 -5.4548971E-18
140.7136 -5.4454636E-18
140.8566 -5.4365921E-18
140.9995 -5.4288955E-18
141.1424 -5.4228613E-18
141.2853 -5.4188184E-18
141.4282 -5.4169184E-18
141.5711 -5.4171281E-18
141.7140 -5.4192299E-18
141.8569 -5.4228344E-18
141.9998 -5.4274046E-18
142.1427 -5.4323019E-18
142.2857 -5.4368460E-18
142.4286 -5.4403925E-18
142.5715 -5.4424150E-18
142.7144 -5.4425821E-18
142.8573 -5.4408103E-18
143.0002 -5.4372873E-18
143.1431 -5.4324491E-18
143.2860 -5.4269256E-18
143.4290 -5.4214480E-18
143.5719 -5.4167492E-18
143.7148 -5.4134645E-18
143.8577 -5.4120500E-18
144.0006 -5.4127382E-18
144.1435 -5.4155275E-18
144.2864 -5.4202031E-18
144.4293 -5.4263830E-18
144.5723 -5.4335720E-18
144.7152 -5.4412214E-18
144.8581 -5.4487772E-18
145.0010 -5.4557210E-18
145.1439 -5.4616072E-18
145.2868 -5.4660922E-18
145.4297 -5.4689646E-18
145.5726 -5.4701756E-18
145.7155 -5.4698542E-18
145.8585 -5.4683181E-18
146.0014 -5.4660529E-18
146.1443 -5.4636661E-18
146.2872 -5.4618103E-18
146.4301 -5.4610948E-18
146.5730 -5.4619844E-18
146.7159 -5.4647212E-18
146.8588 -5.4692727E-18
147.0018 -5.4753293E-18
147.1447 -5.4823475E-18
147.2876 -5.4896346E-18
147.4305 -5.4964543E-18
147.5734 -5.5021403E-18
147.7163 -5.5061852E-18
147.8592 -5.5083020E-18
148.0021 -5.5084401E-18
148.1451 -5.5067655E-18
148.2880 -5.5036173E-18
148.4309 -5.4994437E-18
148.5738 -5.4947491E-18
148.7167 -5.4900469E-18
148.8596 -5.4858225E-18
149.0025 -5.4825163E-18
149.1454 -5.4804967E-18
149.2883 -5.4800401E-18
149.4312 -5.4812950E-18
149.5742 -5.4842513E-18
149.7171 -5.4887077E-18
149.8600 -5.4942672E-18
150.0029 -5.5003553E-18
150.1458 -5.5062795E-18
150.2887 -5.5113175E-18
150.4316 -5.5148247E-18
150.5745 -5.5163451E-18
150.7175 -5.5156887E-18
150.8604 -5.5129727E-18
151.0033 -5.5086023E-18
151.1462 -5.5031983E-18
151.2891 -5.4974903E-18
151.4320 -5.4921852E-18
151.5749 -5.4878541E-18
151.7178 -5.4848460E-18
151.8607 -5.4832533E-18
152.0037 -5.4829257E-18
152.1466 -5.4835288E-18
152.2895 -5.4846206E-18
152.4324 -5.4857394E-18
152.5753 -5.4864715E-18
152.7182 -5.4865016E-18
152.8611 -5.4856339E-18
153.0040 -5.4837930E-18
153.1470 -5.4810187E-18
153.2899 -5.4774593E-18
153.4328 -5.4733668E-18
153.5757 -5.4690982E-18
153.7186 -5.4651108E-18
153.8615 -5.4619435E-18
154.0044 -5.4601741E-18
154.1473 -5.4603553E-18
154.2903 -5.4629282E-18
154.4332 -5.4681333E-18
154.5761 -5.4759377E-18
154.7190 -5.4859971E-18
154.8619 -5.4976657E-18
155.0048 -5.5100589E-18
155.1477 -5.5221610E-18
155.2906 -5.5329590E-18
155.4335 -5.5415778E-18
155.5765 -5.5473892E-18
155.7194 -5.5500808E-18
155.8623 -5.5496681E-18
156.0052 -5.5464611E-18
156.1481 -5.5409938E-18
156.2910 -5.5339338E-18
156.4339 -5.5259941E-18
156.5768 -5.5178621E-18
156.7197 -5.5101532E-18
156.8627 -5.5033836E-18
157.0056 -5.4979614E-18
157.1485 -5.4941808E-18
157.2914 -5.4922175E-18
157.4343 -5.4921203E-18
157.5772 -5.4937986E-18
157.7201 -5.4970217E-18
157.8630 -5.5014314E-18
158.0060 -5.5065806E-18
158.1489 -5.5119900E-18
158.2918 -5.5172211E-18
158.4347 -5.5219480E-18
158.5776 -5.5260132E-18
158.7205 -5.5294476E-18
158.8634 -5.5324515E-18
159.0063 -5.5353351E-18
159.1492 -5.5384275E-18
159.2922 -5.5419778E-18
159.4351 -5.5460615E-18
159.5780 -5.5505258E-18
159.7209 -5.5549715E-18
159.8638 -5.5587885E-18
160.0067 -5.5612296E-18
160.1496 -5.5615100E-18
160.2925 -5.5589184E-18
160.4355 -5.5529139E-18
160.5784 -5.5432082E-18
160.7213 -5.5298091E-18
160.8642 -5.5130401E-18
161.0071 -5.4935314E-18
161.1500 -5.4721943E-18
161.2929 -5.4501698E-18
161.4358 -5.4287748E-18
161.5788 -5.4094237E-18
161.7217 -5.3935414E-18
161.8646 -5.3824547E-18
162.0075 -5.3772815E-18
162.1504 -5.3788160E-18
162.2933 -5.3874327E-18
162.4362 -5.4030139E-18
162.5791 -5.4249325E-18
162.7220 -5.4520765E-18
162.8650 -5.4829336E-18
163.0079 -5.5157115E-18
163.1508 -5.5484839E-18
163.2937 -5.5793432E-18
163.4366 -5.6065305E-18
163.5795 -5.6285422E-18
163.7224 -5.6441892E-18
163.8653 -5.6526281E-18
164.0083 -5.6533618E-18
164.1512 -5.6462232E-18
164.2941 -5.6313608E-18
164.4370 -5.6092230E-18
164.5799 -5.5805496E-18
164.7228 -5.5463659E-18
164.8657 -5.5079657E-18
165.0086 -5.4668834E-18
165.1515 -5.4248453E-18
165.2944 -5.3837009E-18
165.4374 -5.3453437E-18
165.5803 -5.3116233E-18
165.7232 -5.2842684E-18
165.8661 -5.2648185E-18
166.0090 -5.2545722E-18
166.1519 -5.2545461E-18
166.2948 -5.2654339E-18
166.4377 -5.2875626E-18
166.5807 -5.3208347E-18
166.7236 -5.3646584E-18
166.8665 -5.4178758E-18
167.0094 -5.4787051E-18
167.1523 -5.5447166E-18
167.2952 -5.6128613E-18
167.4381 -5.6795689E-18
167.5810 -5.7409118E-18
167.7240 -5.7928372E-18
167.8669 -5.8314372E-18
168.0098 -5.8532351E-18
168.1527 -5.8554577E-18
168.2956 -5.8362688E-18
168.4385 -5.7949412E-18
168.5814 -5.7319638E-18
168.7243 -5.6490749E-18
168.8672 -5.5492330E-18
169.0102 -5.4365288E-18
169.1531 -5.3160387E-18
169.2960 -5.1936379E-18
169.4389 -5.0757523E-18
169.5818 -4.9690679E-18
169.7247 -4.8801894E-18
169.8676 -4.8152690E-18
170.0105 -4.7796154E-18
170.1535 -4.7773146E-18
170.2964 -4.8108961E-18
170.4393 -4.8810749E-18
170.5822 -4.9865942E-18
170.7251 -5.1241887E-18