-7.200000 -3.8528493E-18
-7.057088 -3.8584348E-18
-6.914176 -3.8691650E-18
-6.771265 -3.8842991E-18
-6.628353 -3.9028532E-18
-6.485441 -3.9236688E-18
-6.342530 -3.9454939E-18
-6.199618 -3.9670701E-18
-6.056706 -3.9872182E-18
-5.913795 -4.0049169E-18
-5.770883 -4.0193694E-18
-5.627971 -4.0300521E-18
-5.485059 -4.0367407E-18
-5.342147 -4.0395249E-18
-5.199236 -4.0387892E-18
-5.056324 -4.0351868E-18
-4.913413 -4.0295864E-18
-4.770501 -4.0230103E-18
-4.627589 -4.0165612E-18
-4.484677 -4.0113433E-18
-4.341765 -4.0083845E-18
-4.198854 -4.0085565E-18
-4.055942 -4.0125142E-18
-3.913030 -4.0206421E-18
-3.770118 -4.0330208E-18
-3.627207 -4.0494180E-18
-3.484295 -4.0692989E-18
-3.341383 -4.0918623E-18
-3.198472 -4.1160991E-18
-3.055560 -4.1408612E-18
-2.912648 -4.1649503E-18
-2.769737 -4.1872056E-18
-2.626825 -4.2065885E-18
-2.483913 -4.2222591E-18
-2.341001 -4.2336340E-18
-2.198090 -4.2404289E-18
-2.055178 -4.2426735E-18
-1.912266 -4.2407056E-18
-1.769354 -4.2351474E-18
-1.626443 -4.2268582E-18
-1.483531 -4.2168758E-18
-1.340619 -4.2063495E-18
-1.197708 -4.1964618E-18
-1.054796 -4.1883538E-18
-0.9118841 -4.1830470E-18
-0.7689723 -4.1813765E-18
-0.6260606 -4.1839304E-18
-0.4831489 -4.1910057E-18
-0.3402372 -4.2025788E-18
-0.1973254 -4.2183031E-18
-5.4413714E-02 -4.2375255E-18
8.8498011E-02 -4.2593283E-18
0.2314097 -4.2825949E-18
0.3743215 -4.3060909E-18
0.5172332 -4.3285634E-18
0.6601449 -4.3488355E-18
0.8030567 -4.3659010E-18
0.9459684 -4.3790023E-18
1.088880 -4.3876886E-18
1.231792 -4.3918443E-18
1.374704 -4.3916942E-18
1.517615 -4.3877738E-18
1.660527 -4.3808792E-18
1.803439 -4.3720052E-18
1.946350 -4.3622627E-18
2.089262 -4.3527993E-18
2.232174 -4.3447219E-18
2.375086 -4.3390222E-18
2.517997 -4.3365200E-18
2.660909 -4.3378108E-18
2.803821 -4.3432313E-18
2.946733 -4.3528399E-18
3.089644 -4.3664085E-18
3.232556 -4.3834323E-18
3.375468 -4.4031560E-18
3.518379 -4.4246189E-18
3.661291 -4.4467154E-18
3.804203 -4.4682696E-18
3.947115 -4.4881219E-18
4.090026 -4.5052198E-18
4.232938 -4.5186991E-18
4.375850 -4.5279619E-18
4.518762 -4.5327252E-18
4.661673 -4.5330465E-18
4.804585 -4.5293205E-18
4.947497 -4.5222469E-18
5.090408 -4.5127665E-18
5.233320 -4.5019863E-18
5.376232 -4.4910833E-18
5.519144 -4.4812191E-18
5.662055 -4.4734465E-18
5.804967 -4.4686423E-18
5.947879 -4.4674478E-18
6.090790 -4.4702375E-18
6.233702 -4.4771022E-18
6.376614 -4.4878515E-18
6.519526 -4.5020368E-18
6.662437 -4.5189799E-18
6.805349 -4.5378219E-18
6.948261 -4.5575737E-18
7.091173 -4.5771799E-18
7.234084 -4.5955872E-18
7.376996 -4.6118140E-18
7.519908 -4.6250245E-18
7.662819 -4.6345904E-18
7.805731 -4.6401478E-18
7.948643 -4.6416330E-18
8.091555 -4.6392971E-18
8.234467 -4.6336954E-18
8.377378 -4.6256494E-18
8.520289 -4.6161815E-18
8.663201 -4.6064340E-18
8.806113 -4.5975728E-18
8.949025 -4.5906882E-18
9.091937 -4.5867070E-18
9.234848 -4.5863149E-18
9.377760 -4.5899069E-18
9.520672 -4.5975592E-18
9.663584 -4.6090376E-18
9.806496 -4.6238222E-18
9.949407 -4.6411611E-18
10.09232 -4.6601358E-18
10.23523 -4.6797317E-18
10.37814 -4.6989173E-18
10.52105 -4.7167133E-18
10.66397 -4.7322560E-18
10.80688 -4.7448474E-18
10.94979 -4.7539976E-18
11.09270 -4.7594500E-18
11.23561 -4.7611945E-18
11.37852 -4.7594682E-18
11.52144 -4.7547442E-18
11.66435 -4.7477020E-18
11.80726 -4.7391870E-18
11.95017 -4.7301571E-18
12.09308 -4.7216144E-18
12.23599 -4.7145312E-18
12.37891 -4.7097745E-18
12.52182 -4.7080320E-18
12.66473 -4.7097513E-18
12.80764 -4.7150962E-18
12.95055 -4.7239288E-18
13.09346 -4.7358183E-18
13.23638 -4.7500797E-18
13.37929 -4.7658334E-18
13.52220 -4.7820912E-18
13.66511 -4.7978419E-18
13.80802 -4.8121468E-18
13.95094 -4.8242158E-18
14.09385 -4.8334744E-18
14.23676 -4.8395972E-18
14.37967 -4.8425229E-18
14.52258 -4.8424398E-18
14.66549 -4.8397502E-18
14.80841 -4.8350258E-18
14.95132 -4.8289501E-18
15.09423 -4.8222644E-18
15.23714 -4.8157144E-18
15.38005 -4.8100077E-18
15.52296 -4.8057750E-18
15.66588 -4.8035416E-18
15.80879 -4.8036992E-18
15.95170 -4.8064860E-18
16.09461 -4.8119681E-18
16.23752 -4.8200253E-18
16.38043 -4.8303477E-18
16.52335 -4.8424398E-18
16.66626 -4.8556466E-18
16.80917 -4.8691929E-18
16.95208 -4.8822392E-18
17.09499 -4.8939554E-18
17.23791 -4.9035962E-18
17.38082 -4.9105780E-18
17.52373 -4.9145398E-18
17.66664 -4.9153843E-18
17.80955 -4.9132886E-18
17.95246 -4.9086883E-18
18.09538 -4.9022255E-18
18.23829 -4.8946808E-18
18.38120 -4.8868912E-18
18.52411 -4.8796629E-18
18.66702 -4.8736994E-18
18.80993 -4.8695444E-18
18.95285 -4.8675497E-18
19.09576 -4.8678665E-18
19.23867 -4.8704585E-18
19.38158 -4.8751308E-18
19.52449 -4.8815613E-18
19.66740 -4.8893409E-18
19.81032 -4.8980028E-18
19.95323 -4.9070492E-18
20.09614 -4.9159745E-18
20.23905 -4.9242815E-18
20.38196 -4.9315036E-18
20.52488 -4.9372277E-18
20.66779 -4.9411258E-18
20.81070 -4.9429865E-18
20.95361 -4.9427458E-18
21.09652 -4.9405116E-18
21.23943 -4.9365701E-18
21.38235 -4.9313770E-18
21.52526 -4.9255222E-18
21.66817 -4.9196753E-18
21.81108 -4.9145158E-18
21.95399 -4.9106586E-18
22.09690 -4.9085849E-18
22.23981 -4.9085857E-18
22.38273 -4.9107356E-18
22.52564 -4.9148888E-18
22.66855 -4.9207113E-18
22.81146 -4.9277287E-18
22.95437 -4.9353909E-18
23.09729 -4.9431424E-18
23.24020 -4.9504803E-18
23.38311 -4.9569981E-18
23.52602 -4.9624087E-18
23.66893 -4.9665479E-18
23.81184 -4.9693591E-18
23.95476 -4.9708699E-18
24.09767 -4.9711652E-18
24.24058 -4.9703649E-18
24.38349 -4.9686159E-18
24.52640 -4.9660818E-18
24.66932 -4.9629592E-18
24.81223 -4.9594784E-18
24.95514 -4.9559124E-18
25.09805 -4.9525710E-18
25.24096 -4.9497859E-18
25.38387 -4.9478801E-18
25.52678 -4.9471323E-18
25.66970 -4.9477341E-18
25.81261 -4.9497582E-18
25.95552 -4.9531352E-18
26.09843 -4.9576532E-18
26.24134 -4.9629790E-18
26.38426 -4.9686969E-18
26.52717 -4.9743627E-18
26.67008 -4.9795636E-18
26.81299 -4.9839708E-18
26.95590 -4.9873805E-18
27.09881 -4.9897296E-18
27.24173 -4.9910945E-18
27.38464 -4.9916615E-18
27.52755 -4.9916855E-18
27.67046 -4.9914415E-18
27.81337 -4.9911789E-18
27.95629 -4.9910846E-18
28.09920 -4.9912665E-18
28.24211 -4.9917554E-18
28.38502 -4.9925218E-18
28.52793 -4.9935045E-18
28.67084 -4.9946410E-18
28.81376 -4.9958979E-18
28.95667 -4.9972822E-18
29.09958 -4.9988431E-18
29.24249 -5.0006604E-18
29.38540 -5.0028177E-18
29.52831 -5.0053737E-18
29.67122 -5.0083383E-18
29.81414 -5.0116586E-18
29.95705 -5.0152130E-18
30.09996 -5.0188319E-18
30.24287 -5.0223197E-18
30.38578 -5.0254936E-18
30.52870 -5.0282122E-18
30.67161 -5.0304046E-18
30.81452 -5.0320796E-18
30.95743 -5.0333221E-18
31.10034 -5.0342688E-18
31.24325 -5.0350765E-18
31.38617 -5.0358859E-18
31.52908 -5.0367908E-18
31.67199 -5.0378178E-18
31.81490 -5.0389237E-18
31.95781 -5.0400131E-18
32.10072 -5.0409673E-18
32.24364 -5.0416836E-18
32.38655 -5.0421117E-18
32.52946 -5.0422808E-18
32.67237 -5.0423119E-18
32.81528 -5.0424004E-18
32.95819 -5.0427929E-18
33.10111 -5.0437371E-18
33.24402 -5.0454312E-18
33.38693 -5.0479818E-18
33.52984 -5.0513699E-18
33.67275 -5.0554450E-18
33.81567 -5.0599399E-18
33.95858 -5.0645088E-18
34.10149 -5.0687796E-18
34.24440 -5.0724105E-18
34.38731 -5.0751414E-18
34.53022 -5.0768305E-18
34.67313 -5.0774654E-18
34.81605 -5.0771548E-18
34.95896 -5.0761001E-18
35.10187 -5.0745558E-18
35.24478 -5.0727827E-18
35.38770 -5.0710171E-18
35.53061 -5.0694430E-18
35.67352 -5.0681914E-18
35.81643 -5.0673486E-18
35.95934 -5.0669776E-18
36.10225 -5.0671434E-18
36.24516 -5.0679280E-18
36.38808 -5.0694376E-18
36.53099 -5.0717884E-18
36.67390 -5.0750806E-18
36.81681 -5.0793621E-18
36.95972 -5.0845940E-18
37.10263 -5.0906196E-18
37.24555 -5.0971577E-18
37.38846 -5.1038156E-18
37.53137 -5.1101291E-18
37.67428 -5.1156178E-18
37.81719 -5.1198522E-18
37.96011 -5.1225182E-18
38.10302 -5.1234682E-18
38.24593 -5.1227481E-18
38.38884 -5.1205950E-18
38.53175 -5.1174054E-18
38.67466 -5.1136847E-18
38.81758 -5.1099756E-18
38.96049 -5.1067939E-18
39.10340 -5.1045692E-18
39.24631 -5.1036039E-18
39.38922 -5.1040576E-18
39.53214 -5.1059506E-18
39.67505 -5.1091894E-18
39.81796 -5.1135929E-18
39.96087 -5.1189299E-18
40.10378 -5.1249418E-18
40.24669 -5.1313599E-18
40.38961 -5.1379095E-18
40.53252 -5.1443070E-18
40.67543 -5.1502593E-18
40.81834 -5.1554602E-18
40.96125 -5.1596069E-18
41.10416 -5.1624222E-18
41.24707 -5.1636882E-18
41.38999 -5.1632903E-18
41.53290 -5.1612501E-18
41.67581 -5.1577557E-18
41.81872 -5.1531632E-18
41.96163 -5.1479805E-18
42.10455 -5.1428226E-18
42.24746 -5.1383455E-18
42.39037 -5.1351741E-18
42.53328 -5.1338208E-18
42.67619 -5.1346260E-18
42.81910 -5.1377123E-18
42.96202 -5.1429719E-18
43.10493 -5.1500823E-18
43.24784 -5.1585469E-18
43.39075 -5.1677579E-18
43.53366 -5.1770666E-18
43.67657 -5.1858488E-18
43.81948 -5.1935631E-18
43.96240 -5.1997942E-18
44.10531 -5.2042689E-18
44.24822 -5.2068650E-18
44.39113 -5.2075983E-18
44.53405 -5.2066061E-18
44.67696 -5.2041253E-18
44.81987 -5.2004746E-18
44.96278 -5.1960388E-18
45.10569 -5.1912523E-18
45.24860 -5.1865837E-18
45.39151 -5.1825177E-18
45.53443 -5.1795271E-18
45.67734 -5.1780381E-18
45.82025 -5.1783913E-18
45.96316 -5.1807984E-18
46.10608 -5.1853053E-18
46.24899 -5.1917673E-18
46.39190 -5.1998439E-18
46.53481 -5.2090177E-18
46.67772 -5.2186337E-18
46.82063 -5.2279647E-18
46.96354 -5.2362865E-18
47.10646 -5.2429578E-18
47.24937 -5.2474919E-18
47.39228 -5.2496153E-18
47.53519 -5.2492927E-18
47.67810 -5.2467305E-18
47.82101 -5.2423461E-18
47.96392 -5.2367150E-18
48.10684 -5.2305041E-18
48.24975 -5.2243971E-18
48.39266 -5.2190249E-18
48.53557 -5.2149134E-18
48.67849 -5.2124426E-18
48.82140 -5.2118343E-18
48.96431 -5.2131499E-18
49.10722 -5.2163105E-18
49.25013 -5.2211185E-18
49.39304 -5.2272860E-18
49.53595 -5.2344614E-18
49.67887 -5.2422468E-18
49.82178 -5.2502208E-18
49.96469 -5.2579475E-18
50.10760 -5.2649984E-18
50.25051 -5.2709698E-18
50.39342 -5.2755086E-18
50.53634 -5.2783416E-18
50.67925 -5.2793119E-18
50.82216 -5.2784045E-18
50.96507 -5.2757662E-18
51.10798 -5.2717118E-18
51.25090 -5.2667090E-18
51.39381 -5.2613452E-18
51.53672 -5.2562716E-18
51.67963 -5.2521432E-18
51.82254 -5.2495417E-18
51.96545 -5.2489176E-18
52.10837 -5.2505335E-18
52.25128 -5.2544374E-18
52.39419 -5.2604580E-18
52.53710 -5.2682252E-18
52.68001 -5.2772109E-18
52.82293 -5.2867921E-18
52.96584 -5.2963117E-18
53.10875 -5.3051460E-18
53.25166 -5.3127565E-18
53.39457 -5.3187308E-18
53.53748 -5.3228072E-18
53.68040 -5.3248821E-18
53.82331 -5.3250012E-18
53.96622 -5.3233465E-18
54.10913 -5.3202102E-18
54.25204 -5.3159742E-18
54.39495 -5.3110839E-18
54.53786 -5.3060187E-18
54.68078 -5.3012711E-18
54.82369 -5.2973147E-18
54.96660 -5.2945759E-18
55.10951 -5.2934005E-18
55.25242 -5.2940221E-18
55.39534 -5.2965338E-18
55.53825 -5.3008683E-18
55.68116 -5.3067892E-18
55.82407 -5.3139017E-18
55.96698 -5.3216781E-18
56.10989 -5.3295044E-18
56.25281 -5.3367344E-18
56.39572 -5.3427583E-18
56.53863 -5.3470659E-18
56.68154 -5.3493013E-18
56.82445 -5.3493042E-18
56.96737 -5.3471238E-18
57.11028 -5.3430148E-18
57.25319 -5.3374061E-18
57.39610 -5.3308515E-18
57.53901 -5.3239727E-18
57.68192 -5.3173904E-18
57.82484 -5.3116721E-18
57.96775 -5.3072797E-18
58.11066 -5.3045422E-18
58.25357 -5.3036406E-18
58.39648 -5.3046133E-18
58.53939 -5.3073736E-18
58.68230 -5.3117337E-18
58.82522 -5.3174309E-18
58.96813 -5.3241575E-18
59.11104 -5.3315790E-18
59.25395 -5.3393537E-18
59.39687 -5.3471432E-18
59.53978 -5.3546218E-18
59.68269 -5.3614898E-18
59.82560 -5.3674844E-18
59.96851 -5.3723975E-18
60.11142 -5.3760966E-18
60.25433 -5.3785422E-18
60.39725 -5.3798044E-18
60.54016 -5.3800642E-18
60.68307 -5.3796117E-18
60.82598 -5.3788193E-18
60.96889 -5.3781075E-18
61.11180 -5.3778957E-18
61.25471 -5.3785529E-18
61.39763 -5.3803479E-18
61.54054 -5.3834118E-18
61.68345 -5.3877173E-18
61.82636 -5.3930828E-18
61.96928 -5.3991927E-18
62.11219 -5.4056398E-18
62.25510 -5.4119768E-18
62.39801 -5.4177753E-18
62.54092 -5.4226714E-18
62.68383 -5.4264053E-18
62.82674 -5.4288368E-18
62.96966 -5.4299465E-18
63.11257 -5.4298166E-18
63.25548 -5.4286031E-18
63.39839 -5.4265050E-18
63.54131 -5.4237356E-18
63.68422 -5.4205030E-18
63.82713 -5.4170019E-18
63.97004 -5.4134165E-18
64.11295 -5.4099271E-18
64.25586 -5.4067213E-18
64.39877 -5.4039937E-18
64.54169 -5.4019427E-18
64.68460 -5.4007499E-18
64.82751 -5.4005555E-18
64.97042 -5.4014274E-18
65.11333 -5.4033336E-18
65.25625 -5.4061286E-18
65.39915 -5.4095511E-18
65.54207 -5.4132523E-18
65.68498 -5.4168340E-18
65.82789 -5.4199033E-18
65.97080 -5.4221342E-18
66.11372 -5.4233175E-18
66.25663 -5.4234002E-18
66.39954 -5.4224944E-18
66.54245 -5.4208649E-18
66.68536 -5.4188900E-18
66.82828 -5.4170061E-18
66.97118 -5.4156412E-18
67.11410 -5.4151581E-18
67.25701 -5.4158091E-18
67.39992 -5.4177108E-18
67.54283 -5.4208463E-18
67.68575 -5.4250827E-18
67.82866 -5.4302099E-18
67.97157 -5.4359791E-18
68.11448 -5.4421391E-18
68.25739 -5.4484675E-18
68.40031 -5.4547772E-18
68.54321 -5.4609194E-18
68.68613 -5.4667688E-18
68.82904 -5.4722088E-18
68.97195 -5.4771181E-18
69.11486 -5.4813661E-18
69.25777 -5.4848221E-18
69.40069 -5.4873702E-18
69.54359 -5.4889352E-18
69.68651 -5.4895093E-18
69.82942 -5.4891701E-18
69.97233 -5.4880840E-18
70.11524 -5.4864996E-18
70.25816 -5.4847170E-18
70.40107 -5.4830544E-18
70.54398 -5.4818020E-18
70.68689 -5.4811833E-18
70.82980 -5.4813256E-18
70.97272 -5.4822441E-18
71.11562 -5.4838505E-18
71.25854 -5.4859718E-18
71.40145 -5.4883847E-18
71.54436 -5.4908543E-18
71.68727 -5.4931679E-18
71.83018 -5.4951668E-18
71.97310 -5.4967566E-18
72.11600 -5.4979101E-18
72.25892 -5.4986554E-18
72.40183 -5.4990595E-18
72.54475 -5.4992030E-18
72.68765 -5.4991662E-18
72.83057 -5.4990173E-18
72.97348 -5.4988076E-18
73.11639 -5.4985789E-18
73.25930 -5.4983721E-18
73.40221 -5.4982385E-18
73.54513 -5.4982468E-18
73.68803 -5.4984867E-18
73.83095 -5.4990632E-18
73.97386 -5.5000815E-18
74.11678 -5.5016316E-18
74.25968 -5.5037670E-18
74.40260 -5.5064901E-18
74.54551 -5.5097413E-18
74.68842 -5.5133978E-18
74.83133 -5.5172819E-18
74.97424 -5.5211795E-18
75.11716 -5.5248650E-18
75.26006 -5.5281274E-18
75.40298 -5.5308005E-18
75.54589 -5.5327812E-18
75.68880 -5.5340443E-18
75.83171 -5.5346489E-18
75.97462 -5.5347263E-18
76.11754 -5.5344674E-18
76.26044 -5.5340984E-18
76.40336 -5.5338511E-18
76.54627 -5.5339380E-18
76.68919 -5.5345249E-18
76.83209 -5.5357160E-18
76.97501 -5.5375449E-18
77.11792 -5.5399718E-18
77.26083 -5.5428947E-18
77.40374 -5.5461633E-18
77.54665 -5.5495965E-18
77.68957 -5.5530053E-18
77.83247 -5.5562053E-18
77.97539 -5.5590346E-18
78.11830 -5.5613615E-18
78.26122 -5.5630891E-18
78.40412 -5.5641565E-18
78.54704 -5.5645391E-18
78.68995 -5.5642488E-18
78.83286 -5.5633331E-18
78.97577 -5.5618797E-18
79.11868 -5.5600169E-18
79.26160 -5.5579134E-18
79.40450 -5.5557764E-18
79.54742 -5.5538416E-18
79.69033 -5.5523585E-18
79.83324 -5.5515697E-18
79.97615 -5.5516839E-18
80.11906 -5.5528510E-18
80.26198 -5.5551423E-18
80.40488 -5.5585329E-18
80.54780 -5.5629017E-18
80.69071 -5.5680381E-18
80.83363 -5.5736658E-18
80.97653 -5.5794710E-18
81.11945 -5.5851371E-18
81.26236 -5.5903782E-18
81.40527 -5.5949657E-18
81.54818 -5.5987484E-18
81.69109 -5.6016551E-18
81.83401 -5.6036920E-18
81.97691 -5.6049274E-18
82.11983 -5.6054734E-18
82.26274 -5.6054655E-18
82.40565 -5.6050466E-18
82.54856 -5.6043571E-18
82.69147 -5.6035316E-18
82.83439 -5.6027003E-18
82.97730 -5.6019938E-18
83.12021 -5.6015488E-18
83.26312 -5.6015070E-18
83.40604 -5.6020083E-18
83.54894 -5.6031825E-18
83.69186 -5.6051301E-18
83.83477 -5.6079032E-18
83.97768 -5.6114907E-18
84.12059 -5.6158024E-18
84.26350 -5.6206691E-18
84.40642 -5.6258501E-18
84.54933 -5.6310498E-18
84.69224 -5.6359446E-18
84.83515 -5.6402108E-18
84.97807 -5.6435576E-18
85.12097 -5.6457546E-18
85.26389 -5.6466496E-18
85.40680 -5.6461794E-18
85.54971 -5.6443740E-18
85.69262 -5.6413511E-18
85.83553 -5.6373041E-18
85.97845 -5.6324866E-18
86.12135 -5.6272013E-18
86.26427 -5.6217812E-18
86.40718 -5.6165795E-18
86.55009 -5.6119535E-18
86.69300 -5.6082519E-18
86.83591 -5.6057964E-18
86.97883 -5.6048633E-18
87.12174 -5.6056599E-18
87.26465 -5.6083028E-18
87.40756 -5.6127968E-18
87.55048 -5.6190172E-18
87.69338 -5.6267083E-18
87.83630 -5.6354876E-18
87.97921 -5.6448691E-18
88.12212 -5.6542952E-18
88.26503 -5.6631854E-18
88.40794 -5.6709844E-18
88.55086 -5.6772172E-18
88.69377 -5.6815310E-18
88.83668 -5.6837292E-18
88.97959 -5.6837917E-18
89.12251 -5.6818676E-18
89.26541 -5.6782673E-18
89.40833 -5.6734238E-18
89.55124 -5.6678573E-18
89.69415 -5.6621274E-18
89.83706 -5.6567937E-18
89.97997 -5.6523762E-18
90.12289 -5.6493239E-18
90.26580 -5.6479929E-18
90.40871 -5.6486299E-18
90.55162 -5.6513600E-18
90.69453 -5.6561800E-18
90.83744 -5.6629533E-18
90.98035 -5.6714088E-18
91.12327 -5.6811463E-18
91.26618 -5.6916478E-18
91.40909 -5.7022990E-18
91.55200 -5.7124278E-18
91.69492 -5.7213502E-18
91.83783 -5.7284263E-18
91.98074 -5.7331218E-18
92.12365 -5.7350690E-18
92.26656 -5.7341087E-18
92.40947 -5.7303239E-18
92.55238 -5.7240402E-18
92.69530 -5.7158081E-18
92.83821 -5.7063518E-18
92.98112 -5.6965046E-18
93.12403 -5.6871302E-18
93.26694 -5.6790412E-18
93.40986 -5.6729287E-18
93.55276 -5.6693065E-18
93.69568 -5.6684772E-18
93.83859 -5.6705233E-18
93.98150 -5.6753193E-18
94.12441 -5.6825592E-18
94.26733 -5.6917942E-18
94.41024 -5.7024773E-18
94.55315 -5.7140007E-18
94.69606 -5.7257330E-18
94.83897 -5.7370476E-18
94.98188 -5.7473477E-18
95.12479 -5.7560910E-18
95.26771 -5.7628118E-18
95.41062 -5.7671467E-18
95.55353 -5.7688647E-18
95.69644 -5.7678907E-18
95.83936 -5.7643280E-18
95.98227 -5.7584683E-18
96.12518 -5.7507867E-18
96.26809 -5.7419193E-18
96.41100 -5.7326189E-18
96.55391 -5.7236978E-18
96.69682 -5.7159562E-18
96.83974 -5.7101117E-18
96.98265 -5.7067298E-18
97.12556 -5.7061719E-18
97.26847 -5.7085616E-18
97.41138 -5.7137757E-18
97.55430 -5.7214578E-18
97.69720 -5.7310535E-18
97.84012 -5.7418668E-18
97.98303 -5.7531152E-18
98.12594 -5.7640001E-18
98.26885 -5.7737645E-18
98.41177 -5.7817501E-18
98.55468 -5.7874382E-18
98.69759 -5.7904818E-18
98.84050 -5.7907230E-18
98.98341 -5.7881996E-18
99.12633 -5.7831431E-18
99.26923 -5.7759586E-18
99.41215 -5.7672021E-18
99.55506 -5.7575460E-18
99.69797 -5.7477344E-18
99.84088 -5.7385353E-18
99.98380 -5.7306845E-18
100.1267 -5.7248331E-18
100.2696 -5.7214954E-18
100.4125 -5.7210086E-18
100.5554 -5.7234988E-18
100.6984 -5.7288726E-18
100.8413 -5.7368148E-18
100.9842 -5.7468158E-18
101.1271 -5.7582098E-18
101.2700 -5.7702304E-18
101.4129 -5.7820719E-18
101.5558 -5.7929576E-18
101.6987 -5.8022046E-18
101.8416 -5.8092820E-18
101.9846 -5.8138480E-18
102.1275 -5.8157807E-18
102.2704 -5.8151819E-18
102.4133 -5.8123603E-18
102.5562 -5.8078034E-18
102.6991 -5.8021252E-18
102.8420 -5.7960111E-18
102.9849 -5.7901576E-18
103.1279 -5.7852069E-18
103.2708 -5.7816976E-18
103.4137 -5.7800209E-18
103.5566 -5.7803923E-18
103.6995 -5.7828412E-18
103.8424 -5.7872124E-18
103.9853 -5.7931884E-18
104.1282 -5.8003162E-18
104.2711 -5.8080483E-18
104.4141 -5.8157869E-18
104.5570 -5.8229334E-18
104.6999 -5.8289337E-18
104.8428 -5.8333261E-18
104.9857 -5.8357799E-18
105.1286 -5.8361327E-18
105.2715 -5.8344101E-18
105.4144 -5.8308387E-18
105.5574 -5.8258417E-18
105.7003 -5.8200163E-18
105.8432 -5.8140966E-18
105.9861 -5.8088974E-18
106.1290 -5.8052491E-18
106.2719 -5.8039235E-18
106.4148 -5.8055555E-18
106.5577 -5.8105782E-18
106.7006 -5.8191676E-18
106.8436 -5.8312089E-18
106.9865 -5.8462834E-18
107.1294 -5.8636836E-18
107.2723 -5.8824490E-18
107.4152 -5.9014254E-18
107.5581 -5.9193326E-18
107.7010 -5.9348472E-18
107.8439 -5.9466870E-18
107.9869 -5.9536899E-18
108.1298 -5.9548914E-18
108.2727 -5.9495942E-18
108.4156 -5.9374243E-18
108.5585 -5.9183739E-18
108.7014 -5.8928363E-18
108.8443 -5.8616123E-18
108.9872 -5.8259046E-18
109.1301 -5.7872844E-18
109.2731 -5.7476384E-18
109.4160 -5.7090831E-18
109.5589 -5.6738638E-18
109.7018 -5.6442371E-18
109.8447 -5.6223388E-18
109.9876 -5.6100555E-18
110.1305 -5.6089058E-18
110.2734 -5.6199342E-18
110.4164 -5.6436399E-18
110.5593 -5.6799246E-18
110.7022 -5.7280752E-18
110.8451 -5.7867752E-18
110.9880 -5.8541379E-18
111.1309 -5.9277649E-18
111.2738 -6.0048143E-18
111.4167 -6.0820878E-18
111.5596 -6.1561254E-18
111.7026 -6.2233144E-18
111.8455 -6.2800102E-18
111.9884 -6.3226712E-18
112.1313 -6.3480119E-18
112.2742 -6.3531623E-18
112.4171 -6.3358453E-18
112.5600 -6.2945409E-18
112.7029 -6.2286522E-18
112.8458 -6.1386430E-18
112.9888 -6.0261406E-18
113.1317 -5.8939940E-18
113.2746 -5.7462785E-18
113.4175 -5.5882333E-18
113.5604 -5.4261427E-18
113.7033 -5.2671507E-18
113.8462 -5.1190180E-18
113.9891 -4.9898310E-18
114.1321 -4.8876663E-18
114.2750 -4.8202213E-18
114.4179 -4.7944306E-18
114.5608 -4.8160730E-18
114.7037 -4.8893856E-18
114.8466 -5.0167032E-18
114.9895 -5.1981403E-18
115.1324 -5.4313349E-18
115.2754 -5.7112789E-18
115.4183 -6.0302406E-18
115.5612 -6.3778194E-18
115.7041 -6.7411254E-18
115.8470 -7.1051067E-18
115.9899 -7.4530181E-18
116.1328 -7.7670324E-18
116.2757 -8.0289715E-18
116.4186 -8.2211363E-18
116.5616 -8.3272057E-18
116.7045 -8.3331647E-18
116.8474 -8.2282187E-18
116.9903 -8.0056409E-18
117.1332 -7.6635190E-18
117.2761 -7.2053346E-18
117.4190 -6.6403582E-18
117.5619 -5.9837911E-18
117.7048 -5.2566559E-18
117.8478 -4.4853902E-18
117.9907 -3.7011518E-18
118.1336 -2.9388309E-18
118.2765 -2.2357873E-18
118.4194 -1.6303513E-18
118.5623 -1.1601232E-18
118.7052 -8.6014722E-19
118.8481 -7.6101986E-19
118.9911 -8.8702734E-19
119.1340 -1.2543935E-18
119.2769 -1.8697438E-18
119.4198 -2.7288736E-18
119.5627 -3.8159095E-18
119.7056 -5.1029483E-18
119.8485 -6.5502241E-18
119.9914 -8.1068589E-18
120.1343 -9.7122039E-18
120.2773 -1.1297763E-17
120.4202 -1.2789661E-17
120.5631 -1.4111585E-17
120.7060 -1.5188095E-17
120.8489 -1.5948191E-17
120.9918 -1.6328980E-17
121.1347 -1.6279282E-17
121.2776 -1.5763002E-17
121.4206 -1.4762100E-17
121.5635 -1.3278973E-17
121.7064 -1.1338097E-17
121.8493 -8.9867979E-18
121.9922 -6.2950380E-18
122.1351 -3.3541425E-18
122.2780 -2.7445152E-19
122.4209 2.8181020E-18
122.5639 5.7864047E-18
122.7068 8.4874546E-18
122.8497 1.0778350E-17
122.9926 1.2522777E-17
123.1355 1.3597711E-17
123.2784 1.3900075E-17
123.4213 1.3353014E-17
123.5642 1.1911493E-17
123.7071 9.5668955E-18
123.8501 6.3503334E-18
123.9930 2.3344141E-18
124.1359 -2.3667327E-18
124.2788 -7.5993133E-18
124.4217 -1.3173670E-17
124.5646 -1.8870020E-17
124.7075 -2.4445993E-17
124.8504 -2.9645802E-17
124.9933 -3.4210738E-17
125.1363 -3.7890573E-17
125.2792 -4.0455534E-17
125.4221 -4.1708170E-17
125.5650 -4.1494751E-17
125.7079 -3.9715476E-17
125.8508 -3.6333018E-17
125.9937 -3.1378891E-17
126.1366 -2.4957091E-17
126.2795 -1.7244765E-17
126.4225 -8.4895374E-18
126.5654 9.9654253E-19
126.7083 1.0846480E-17
126.8512 2.0650984E-17
126.9941 2.9973991E-17
127.1370 3.8370506E-17
127.2799 4.5406151E-17
127.4228 5.0677594E-17
127.5658 5.3833017E-17
127.7087 5.4591618E-17
127.8516 5.2761222E-17
127.9945 4.8253045E-17
128.1374 4.1092672E-17
128.2803 3.1426547E-17
128.4232 1.9523272E-17
128.5661 5.7693920E-18
128.7090 -9.3405905E-18
128.8520 -2.5219873E-17
128.9949 -4.1210294E-17
129.1378 -5.6607986E-17
129.2807 -7.0692834E-17
129.4236 -8.2760552E-17
129.5665 -9.2156066E-17
129.7094 -9.8306809E-17
129.8523 -1.0075412E-16
129.9953 -9.9181371E-17
130.1382 -9.3437124E-17
130.2811 -8.3551998E-17
130.4240 -6.9747849E-17
130.5669 -5.2438642E-17
130.7098 -3.2222136E-17
130.8527 -9.8623653E-18
130.9956 1.3736850E-17
131.1385 3.7566666E-17
131.2815 6.0555093E-17
131.4244 8.1614344E-17
131.5673 9.9691761E-17
131.7102 1.1382197E-16
131.8531 1.2317781E-16
131.9960 1.2711748E-16
132.1389 1.2522526E-16
132.2818 1.1734351E-16
132.4248 1.0359369E-16
132.5677 8.4384790E-17
132.7106 6.0407941E-17
132.8535 3.2616632E-17
132.9964 2.1926980E-18
133.1393 -2.9501152E-17
133.2822 -6.0980529E-17
133.4251 -9.0708150E-17
133.5681 -1.1716921E-16
133.7110 -1.3894991E-16
133.8539 -1.5481522E-16
133.9968 -1.6378200E-16
134.1397 -1.6518326E-16
134.2826 -1.5871952E-16
134.4255 -1.4449413E-16
134.5684 -1.2302923E-16
134.7113 -9.5260402E-17
134.8542 -6.2508894E-17
134.9972 -2.6431190E-17
135.1401 1.1052883E-17
135.2830 4.7851214E-17
135.4259 8.1806164E-17
135.5688 1.1081232E-16
135.7117 1.3293982E-16
135.8546 1.4655688E-16
135.9975 1.5044475E-16
136.1405 1.4389831E-16
136.2834 1.2680549E-16
136.4263 9.9699556E-17
136.5692 6.3778888E-17
136.7121 2.0890726E-17
136.8550 -2.6523656E-17
136.9979 -7.5522344E-17
137.1408 -1.2279343E-16
137.2838 -1.6481853E-16
137.4267 -1.9806355E-16
137.5696 -2.1918873E-16
137.7125 -2.2526778E-16
137.8554 -2.1400571E-16
137.9983 -1.8394261E-16
138.1412 -1.3463149E-16
138.2841 -6.6777768E-17
138.4270 1.7671016E-17
138.5700 1.1549478E-16
138.7129 2.2223760E-16
138.8558 3.3231667E-16
138.9987 4.3920485E-16
139.1416 5.3568497E-16
139.2845 6.1417057E-16
139.4274 6.6708307E-16
139.5703 6.8727168E-16
139.7133 6.6845918E-16
139.8562 6.0569415E-16
139.9991 4.9578538E-16
140.1420 3.3769697E-16
140.2849 1.3287704E-16
140.4278 -1.1450189E-16
140.5707 -3.9741359E-16
140.7136 -7.0597840E-16
140.8566 -1.0276079E-15
140.9995 -1.3473025E-15
141.1424 -1.6481041E-15
141.2853 -1.9117002E-15
141.4282 -2.1191650E-15
141.5711 -2.2518185E-15
141.7140 -2.2921751E-15
141.8569 -2.2249470E-15
141.9998 -2.0380587E-15
142.1427 -1.7236298E-15
142.2857 -1.2788736E-15
142.4286 -7.0686445E-16
142.5715 -1.7119112E-17
142.7144 7.7404931E-16
142.8573 1.6434493E-15
143.0002 2.5612328E-15
143.1431 3.4914440E-15
143.2860 4.3929073E-15
143.4290 5.2204525E-15
143.5719 5.9264583E-15
143.7148 6.4626852E-15
143.8577 6.7823436E-15
144.0006 6.8423449E-15
144.1435 6.6056445E-15
144.2864 6.0435979E-15
144.4293 5.1382247E-15
144.5723 3.8842758E-15
144.7152 2.2909963E-15
144.8581 3.8346878E-16
145.0010 -1.7965556E-15
145.1439 -4.1904372E-15
145.2868 -6.7231135E-15
145.4297 -9.3043113E-15
145.5726 -1.1830525E-14
145.7155 -1.4187785E-14
145.8585 -1.6255165E-14
146.0014 -1.7908995E-14
146.1443 -1.9027650E-14
146.2872 -1.9496833E-14
146.4301 -1.9215136E-14
146.5730 -1.8099734E-14
146.7159 -1.6091978E-14
146.8588 -1.3162640E-14
147.0018 -9.3165959E-15
147.1447 -4.5966661E-15
147.2876 9.1362784E-16
147.4305 7.0886019E-15
147.5734 1.3760463E-14
147.7163 2.0721053E-14
147.8592 2.7725382E-14
148.0021 3.4497050E-14
148.1451 4.0735519E-14
148.2880 4.6125196E-14
148.4309 5.0346178E-14
148.5738 5.3086381E-14
148.7167 5.4054810E-14
148.8596 5.2995545E-14
149.0025 4.9701942E-14
149.1454 4.4030612E-14
149.2883 3.5914505E-14
149.4312 2.5374574E-14
149.5742 1.2529327E-14
149.7171 -2.3982980E-15
149.8600 -1.9077303E-14
150.0029 -3.7068825E-14
150.1458 -5.5830503E-14
150.2887 -7.4725389E-14
150.4316 -9.3035510E-14
150.5745 -1.0998021E-13
150.7175 -1.2473892E-13
150.8604 -1.3647819E-13
151.0033 -1.4438228E-13
151.1462 -1.4768663E-13
151.2891 -1.4571314E-13
151.4320 -1.3790625E-13
151.5749 -1.2386849E-13
151.7178 -1.0339396E-13
151.8607 -7.6498432E-14
152.0037 -4.3444320E-14
152.1466 -4.7591753E-15
152.2895 3.8753821E-14
152.4324 8.6014658E-14
152.5753 1.3567569E-13
152.7182 1.8614197E-13
152.8611 2.3560328E-13
153.0040 2.8207796E-13
153.1470 3.2346800E-13
153.2899 3.5762485E-13
153.4328 3.8242424E-13
153.5757 3.9584880E-13
153.7186 3.9607548E-13
153.8615 3.8156555E-13
154.0044 3.5115387E-13
154.1473 3.0413416E-13
154.2903 2.4033632E-13
154.4332 1.6019258E-13
154.5761 6.4788269E-14
154.7190 -4.4105866E-14
154.8619 -1.6402324E-13
155.0048 -2.9181540E-13
155.1477 -4.2369279E-13
155.2906 -5.5529328E-13
155.4335 -6.8177901E-13
155.5765 -7.9796109E-13
155.7194 -8.9845042E-13
155.8623 -9.7783175E-13
156.0052 -1.0308575E-12
156.1481 -1.0526555E-12
156.2910 -1.0389459E-12
156.4339 -9.8625914E-13
156.5768 -8.9214709E-13
156.7197 -7.5538122E-13
156.8627 -5.7612579E-13
157.0056 -3.5608075E-13
157.1485 -9.8584044E-14
157.2914 1.9133408E-13
157.4343 5.0695076E-13
157.5772 8.3991061E-13
157.7201 1.1803497E-12
157.8630 1.5170855E-12
158.0060 1.8378727E-12
158.1489 2.1297220E-12
158.2918 2.3792782E-12
158.4347 2.5732489E-12
158.5776 2.6988739E-12
158.7205 2.7444236E-12
158.8634 2.6997124E-12
159.0063 2.5566081E-12
159.1492 2.3095237E-12
159.2922 1.9558678E-12
159.4351 1.4964393E-12
159.5780 9.3574226E-13
159.7209 2.8220688E-13
159.8638 -4.5170166E-13
160.0067 -1.2495033E-12
160.1496 -2.0908585E-12
160.2925 -2.9518712E-12
160.4355 -3.8055414E-12
160.5784 -4.6223663E-12
160.7213 -5.3710803E-12
160.8642 -6.0195312E-12
161.0071 -6.5356639E-12
161.1500 -6.8885991E-12
161.2929 -7.0497705E-12
161.4358 -6.9940997E-12
161.5788 -6.7011587E-12
161.7217 -6.1562951E-12
161.8646 -5.3516683E-12
162.0075 -4.2871600E-12
162.1504 -2.9711179E-12
162.2933 -1.4208909E-12
162.4362 3.3687690E-13
162.5791 2.2662297E-12
162.7220 4.3221767E-12
162.8650 6.4512918E-12
163.0079 8.5926318E-12
163.1508 1.0678980E-11
163.2937 1.2638404E-11
163.4366 1.4396098E-11
163.5795 1.5876477E-11
163.7224 1.7005496E-11
163.8653 1.7713102E-11
164.0083 1.7935797E-11
164.1512 1.7619203E-11
164.2941 1.6720585E-11
164.4370 1.5211211E-11
164.5799 1.3078491E-11
164.7228 1.0327818E-11
164.8657 6.9839850E-12
165.0086 3.0921528E-12
165.1515 -1.2817261E-12
165.2944 -6.0510720E-12
165.4374 -1.1109486E-11
165.5803 -1.6332210E-11
165.7232 -2.1578258E-11
165.8661 -2.6693207E-11
166.0090 -3.1512591E-11
166.1519 -3.5865907E-11
166.2948 -3.9581075E-11
166.4377 -4.2489318E-11
166.5807 -4.4430348E-11
166.7236 -4.5257690E-11
166.8665 -4.4844066E-11
167.0094 -4.3086597E-11
167.1523 -3.9911775E-11
167.2952 -3.5279960E-11
167.4381 -2.9189269E-11
167.5810 -2.1678725E-11
167.7240 -1.2830498E-11
167.8669 -2.7711423E-12
168.0098 8.3283163E-12
168.1527 2.0253476E-11
168.2956 3.2748915E-11
168.4385 4.5521833E-11
168.5814 5.8246956E-11
168.7243 7.0572659E-11
168.8672 8.2128235E-11
169.0102 9.2532190E-11
169.1531 1.0140140E-10
169.2960 1.0836101E-10
169.4389 1.1305479E-10
169.5818 1.1515573E-10
169.7247 1.1437676E-10
169.8676 1.1048108E-10
170.0105 1.0329208E-10
170.1535 9.2702394E-11
170.2964 7.8681936E-11
170.4393 6.1284589E-11
170.5822 4.0653397E-11
170.7251 1.7023860E-11
170.8680 -9.2746201E-12
171.0109 -3.7819442E-11
171.1538 -6.8097757E-11
171.2968 -9.9511691E-11
171.4397 -1.3138590E-10
171.5826 -1.6297742E-10
171.7255 -1.9348766E-10
171.8684 -2.2207658E-10