-7.200000 -1.4038536E-19
-7.057088 -1.4885164E-19
-6.914176 -1.6511656E-19
-6.771265 -1.8806397E-19
-6.628353 -2.1620741E-19
-6.485441 -2.4779464E-19
-6.342530 -2.8093083E-19
-6.199618 -3.1370484E-19
-6.056706 -3.4432181E-19
-5.913795 -3.7122191E-19
-5.770883 -3.9318006E-19
-5.627971 -4.0938471E-19
-5.485059 -4.1948464E-19
-5.342147 -4.2360470E-19
-5.199236 -4.2232931E-19
-5.056324 -4.1665594E-19
-4.913413 -4.0791985E-19
-4.770501 -3.9769626E-19
-4.627589 -3.8768621E-19
-4.484677 -3.7959233E-19
-4.341765 -3.7499331E-19
-4.198854 -3.7522691E-19
-4.055942 -3.8128857E-19
-3.913030 -3.9375196E-19
-3.770118 -4.1272221E-19
-3.627207 -4.3782261E-19
-3.484295 -4.6821618E-19
-3.341383 -5.0266458E-19
-3.198472 -5.3961624E-19
-3.055560 -5.7731846E-19
-2.912648 -6.1394529E-19
-2.769737 -6.4773091E-19
-2.626825 -6.7709810E-19
-2.483913 -7.0076968E-19
-2.341001 -7.1786089E-19
-2.198090 -7.2793874E-19
-2.055178 -7.3105044E-19
-1.912266 -7.2771907E-19
-1.769354 -7.1890417E-19
-1.626443 -7.0593362E-19
-1.483531 -6.9041400E-19
-1.340619 -6.7412015E-19
-1.197708 -6.5887712E-19
-1.054796 -6.4643384E-19
-0.9118841 -6.3834836E-19
-0.7689723 -6.3587840E-19
-0.6260606 -6.3989333E-19
-0.4831489 -6.5081211E-19
-0.3402372 -6.6856790E-19
-0.1973254 -6.9261094E-19
-5.4413714E-02 -7.2193894E-19
8.8498011E-02 -7.5516808E-19
0.2314097 -7.9062647E-19
0.3743215 -8.2647529E-19
0.5172332 -8.6084133E-19
0.6601449 -8.9195330E-19
0.8030567 -9.1827388E-19
0.9459684 -9.3861228E-19
1.088880 -9.5221113E-19
1.231792 -9.5880180E-19
1.374704 -9.5862282E-19
1.517615 -9.5239622E-19
1.660527 -9.4127725E-19
1.803439 -9.2676458E-19
1.946350 -9.1059330E-19
2.089262 -8.9460803E-19
2.232174 -8.8063271E-19
2.375086 -8.7034445E-19
2.517997 -8.6515337E-19
2.660909 -8.6610758E-19
2.803821 -8.7381871E-19
2.946733 -8.8842010E-19
3.089644 -9.0955188E-19
3.232556 -9.3638769E-19
3.375468 -9.6768768E-19
3.518379 -1.0018815E-18
3.661291 -1.0371780E-18
3.804203 -1.0716919E-18
3.947115 -1.1035775E-18
4.090026 -1.1311635E-18
4.232938 -1.1530740E-18
4.375850 -1.1683314E-18
4.518762 -1.1764302E-18
4.661673 -1.1773742E-18
4.804585 -1.1716782E-18
4.947497 -1.1603282E-18
5.090408 -1.1447111E-18
5.233320 -1.1265114E-18
5.376232 -1.1075884E-18
5.519144 -1.0898422E-18
5.662055 -1.0750786E-18
5.804967 -1.0648816E-18
5.947879 -1.0605025E-18
6.090790 -1.0627752E-18
6.233702 -1.0720585E-18
6.376614 -1.0882142E-18
6.519526 -1.1106159E-18
6.662437 -1.1381938E-18
6.805349 -1.1695092E-18
6.948261 -1.2028531E-18
7.091173 -1.2363669E-18
7.234084 -1.2681732E-18
7.376996 -1.2965100E-18
7.519908 -1.3198618E-18
7.662819 -1.3370675E-18
7.805731 -1.3474135E-18
7.948643 -1.3506882E-18
8.091555 -1.3472005E-18
8.234467 -1.3377614E-18
8.377378 -1.3236258E-18
8.520289 -1.3063992E-18
8.663201 -1.2879198E-18
8.806113 -1.2701207E-18
8.949025 -1.2548868E-18
9.091937 -1.2439154E-18
9.234848 -1.2385945E-18
9.377760 -1.2399025E-18
9.520672 -1.2483398E-18
9.663584 -1.2638969E-18
9.806496 -1.2860593E-18
9.949407 -1.3138455E-18
10.09232 -1.3458776E-18
10.23523 -1.3804788E-18
10.37814 -1.4157891E-18
10.52105 -1.4498937E-18
10.66397 -1.4809526E-18
10.80688 -1.5073298E-18
10.94979 -1.5277053E-18
11.09270 -1.5411703E-18
11.23561 -1.5472938E-18
11.37852 -1.5461556E-18
11.52144 -1.5383484E-18
11.66435 -1.5249373E-18
11.80726 -1.5073892E-18
11.95017 -1.4874685E-18
12.09308 -1.4671108E-18
12.23599 -1.4482801E-18
12.37891 -1.4328262E-18
12.52182 -1.4223456E-18
12.66473 -1.4180653E-18
12.80764 -1.4207517E-18
12.95055 -1.4306571E-18
13.09346 -1.4475033E-18
13.23638 -1.4705068E-18
13.37929 -1.4984382E-18
13.52220 -1.5297163E-18
13.66511 -1.5625242E-18
13.80802 -1.5949403E-18
13.95094 -1.6250762E-18
14.09385 -1.6512087E-18
14.23676 -1.6719000E-18
14.37967 -1.6861004E-18
14.52258 -1.6932168E-18
14.66549 -1.6931588E-18
14.80841 -1.6863465E-18
14.95132 -1.6736841E-18
15.09423 -1.6564969E-18
15.23714 -1.6364433E-18
15.38005 -1.6153970E-18
15.52296 -1.5953130E-18
15.66588 -1.5780849E-18
15.80879 -1.5654035E-18
15.95170 -1.5586283E-18
16.09461 -1.5586850E-18
16.23752 -1.5659888E-18
16.38043 -1.5804111E-18
16.52335 -1.6012866E-18
16.66626 -1.6274615E-18
16.80917 -1.6573782E-18
16.95208 -1.6891915E-18
17.09499 -1.7209078E-18
17.23791 -1.7505294E-18
17.38082 -1.7762010E-18
17.52373 -1.7963470E-18
17.66664 -1.8097777E-18
17.80955 -1.8157766E-18
17.95246 -1.8141487E-18
18.09538 -1.8052334E-18
18.23829 -1.7898813E-18
18.38120 -1.7693948E-18
18.52411 -1.7454398E-18
18.66702 -1.7199331E-18
18.80993 -1.6949092E-18
18.95285 -1.6723781E-18
19.09576 -1.6541840E-18
19.23867 -1.6418708E-18
19.38158 -1.6365668E-18
19.52449 -1.6388971E-18
19.66740 -1.6489299E-18
19.81032 -1.6661650E-18
19.95323 -1.6895624E-18
20.09614 -1.7176158E-18
20.23905 -1.7484590E-18
20.38196 -1.7800075E-18
20.52488 -1.8101123E-18
20.66779 -1.8367258E-18
20.81070 -1.8580536E-18
20.95361 -1.8726927E-18
21.09652 -1.8797357E-18
21.23943 -1.8788365E-18
21.38235 -1.8702349E-18
21.52526 -1.8547337E-18
21.66817 -1.8336377E-18
21.81108 -1.8086556E-18
21.95399 -1.7817739E-18
22.09690 -1.7551139E-18
22.23981 -1.7307764E-18
22.38273 -1.7106948E-18
22.52564 -1.6964969E-18
22.66855 -1.6893858E-18
22.81146 -1.6900539E-18
22.95437 -1.6986314E-18
23.09729 -1.7146696E-18
23.24020 -1.7371697E-18
23.38311 -1.7646509E-18
23.52602 -1.7952514E-18
23.66893 -1.8268650E-18
23.81184 -1.8572951E-18
23.95476 -1.8844200E-18
24.09767 -1.9063533E-18
24.24058 -1.9215914E-18
24.38349 -1.9291314E-18
24.52640 -1.9285491E-18
24.66932 -1.9200326E-18
24.81223 -1.9043712E-18
24.95514 -1.8828897E-18
25.09805 -1.8573480E-18
25.24096 -1.8298050E-18
25.38387 -1.8024586E-18
25.52678 -1.7774833E-18
25.66970 -1.7568673E-18
25.81261 -1.7422678E-18
25.95552 -1.7348945E-18
26.09843 -1.7354258E-18
26.24134 -1.7439635E-18
26.38426 -1.7600298E-18
26.52717 -1.7826077E-18
26.67008 -1.8102112E-18
26.81299 -1.8409943E-18
26.95590 -1.8728817E-18
27.09881 -1.9037171E-18
27.24173 -1.9314179E-18
27.38464 -1.9541275E-18
27.52755 -1.9703529E-18
27.67046 -1.9790778E-18
27.81337 -1.9798419E-18
27.95629 -1.9727836E-18
28.09920 -1.9586278E-18
28.24211 -1.9386419E-18
28.38502 -1.9145348E-18
28.52793 -1.8883293E-18
28.67084 -1.8622063E-18
28.81376 -1.8383357E-18
28.95667 -1.8187086E-18
29.09958 -1.8049854E-18
29.24249 -1.7983730E-18
29.38540 -1.7995322E-18
29.52831 -1.8085400E-18
29.67122 -1.8248857E-18
29.81414 -1.8475203E-18
29.95705 -1.8749384E-18
30.09996 -1.9052947E-18
30.24287 -1.9365419E-18
30.38578 -1.9665799E-18
30.52870 -1.9934046E-18
30.67161 -2.0152527E-18
30.81452 -2.0307230E-18
30.95743 -2.0388770E-18
31.10034 -2.0393032E-18
31.24325 -2.0321487E-18
31.38617 -2.0181087E-18
31.52908 -1.9983815E-18
31.67199 -1.9745792E-18
31.81490 -1.9486138E-18
31.95781 -1.9225563E-18
32.10072 -1.8984829E-18
32.24364 -1.8783171E-18
32.38655 -1.8636847E-18
32.52946 -1.8557907E-18
32.67237 -1.8553262E-18
32.81528 -1.8624205E-18
32.95819 -1.8766338E-18
33.10111 -1.8969960E-18
33.24402 -1.9220888E-18
33.38693 -1.9501577E-18
33.52984 -1.9792519E-18
33.67275 -2.0073740E-18
33.81567 -2.0326289E-18
33.95858 -2.0533659E-18
34.10149 -2.0682952E-18
34.24440 -2.0765736E-18
34.38731 -2.0778618E-18
34.53022 -2.0723397E-18
34.67313 -2.0606852E-18
34.81605 -2.0440185E-18
34.95896 -2.0238177E-18
35.10187 -2.0018091E-18
35.24478 -1.9798384E-18
35.38770 -1.9597387E-18
35.53061 -1.9431968E-18
35.67352 -1.9316295E-18
35.81643 -1.9260820E-18
35.95934 -1.9271488E-18
36.10225 -1.9349322E-18
36.24516 -1.9490321E-18
36.38808 -1.9685786E-18
36.53099 -1.9922968E-18
36.67390 -2.0186011E-18
36.81681 -2.0457200E-18
36.95972 -2.0718273E-18
37.10263 -2.0951780E-18
37.24555 -2.1142449E-18
37.38846 -2.1278262E-18
37.53137 -2.1351380E-18
37.67428 -2.1358651E-18
37.81719 -2.1301838E-18
37.96011 -2.1187394E-18
38.10302 -2.1025959E-18
38.24593 -2.0831501E-18
38.38884 -2.0620248E-18
38.53175 -2.0409464E-18
38.67466 -2.0216172E-18
38.81758 -2.0055920E-18
38.96049 -1.9941664E-18
39.10340 -1.9882851E-18
39.24631 -1.9884802E-18
39.38922 -1.9948358E-18
39.53214 -2.0069896E-18
39.67505 -2.0241596E-18
39.81796 -2.0452096E-18
39.96087 -2.0687305E-18
40.10378 -2.0931485E-18
40.24669 -2.1168379E-18
40.38961 -2.1382437E-18
40.53252 -2.1559939E-18
40.67543 -2.1690020E-18
40.81834 -2.1765481E-18
40.96125 -2.1783322E-18
41.10416 -2.1744947E-18
41.24707 -2.1656050E-18
41.38999 -2.1526168E-18
41.53290 -2.1367922E-18
41.67581 -2.1196013E-18
41.81872 -2.1026073E-18
41.96163 -2.0873402E-18
42.10455 -2.0751809E-18
42.24746 -2.0672511E-18
42.39037 -2.0643310E-18
42.53328 -2.0668049E-18
42.67619 -2.0746364E-18
42.81910 -2.0873814E-18
42.96202 -2.1042292E-18
43.10493 -2.1240739E-18
43.24784 -2.1456029E-18
43.39075 -2.1673997E-18
43.53366 -2.1880505E-18
43.67657 -2.2062464E-18
43.81948 -2.2208784E-18
43.96240 -2.2311123E-18
44.10531 -2.2364459E-18
44.24822 -2.2367396E-18
44.39113 -2.2322236E-18
44.53405 -2.2234801E-18
44.67696 -2.2113979E-18
44.81987 -2.1971077E-18
44.96278 -2.1818979E-18
45.10569 -2.1671177E-18
45.24860 -2.1540741E-18
45.39151 -2.1439318E-18
45.53443 -2.1376256E-18
45.67734 -2.1357851E-18
45.82025 -2.1386935E-18
45.96316 -2.1462657E-18
46.10608 -2.1580633E-18
46.24899 -2.1733383E-18
46.39190 -2.1910987E-18
46.53481 -2.2101943E-18
46.67772 -2.2294110E-18
46.82063 -2.2475645E-18
46.96354 -2.2635907E-18
47.10646 -2.2766151E-18
47.24937 -2.2860079E-18
47.39228 -2.2914162E-18
47.53519 -2.2927759E-18
47.67810 -2.2903028E-18
47.82101 -2.2844656E-18
47.96392 -2.2759465E-18
48.10684 -2.2655935E-18
48.24975 -2.2543585E-18
48.39266 -2.2432357E-18
48.53557 -2.2331968E-18
48.67849 -2.2251260E-18
48.82140 -2.2197596E-18
48.96431 -2.2176342E-18
49.10722 -2.2190470E-18
49.25013 -2.2240310E-18
49.39304 -2.2323516E-18
49.53595 -2.2435229E-18
49.67887 -2.2568469E-18
49.82178 -2.2714690E-18
49.96469 -2.2864478E-18
50.10760 -2.3008324E-18
50.25051 -2.3137416E-18
50.39342 -2.3244313E-18
50.53634 -2.3323513E-18
50.67925 -2.3371821E-18
50.82216 -2.3388501E-18
50.96507 -2.3375202E-18
51.10798 -2.3335714E-18
51.25090 -2.3275553E-18
51.39381 -2.3201467E-18
51.53672 -2.3120883E-18
51.67963 -2.3041360E-18
51.82254 -2.2970090E-18
51.96545 -2.2913447E-18
52.10837 -2.2876652E-18
52.25128 -2.2863500E-18
52.39419 -2.2876222E-18
52.53710 -2.2915364E-18
52.68001 -2.2979836E-18
52.82293 -2.3067005E-18
52.96584 -2.3172867E-18
53.10875 -2.3292331E-18
53.25166 -2.3419530E-18
53.39457 -2.3548219E-18
53.53748 -2.3672222E-18
53.68040 -2.3785823E-18
53.82331 -2.3884156E-18
53.96622 -2.3963559E-18
54.10913 -2.4021761E-18
54.25204 -2.4058010E-18
54.39495 -2.4073042E-18
54.53786 -2.4068929E-18
54.68078 -2.4048847E-18
54.82369 -2.4016732E-18
54.96660 -2.3976943E-18
55.10951 -2.3933880E-18
55.25242 -2.3891695E-18
55.39534 -2.3854032E-18
55.53825 -2.3823827E-18
55.68116 -2.3803253E-18
55.82407 -2.3793681E-18
55.96698 -2.3795724E-18
56.10989 -2.3809321E-18
56.25281 -2.3833822E-18
56.39572 -2.3868067E-18
56.53863 -2.3910497E-18
56.68154 -2.3959198E-18
56.82445 -2.4011982E-18
56.96737 -2.4066435E-18
57.11028 -2.4120022E-18
57.25319 -2.4170164E-18
57.39610 -2.4214385E-18
57.53901 -2.4250471E-18
57.68192 -2.4276620E-18
57.82484 -2.4291602E-18
57.96775 -2.4294896E-18
58.11066 -2.4286765E-18
58.25357 -2.4268276E-18
58.39648 -2.4241268E-18
58.53939 -2.4208260E-18
58.68230 -2.4172281E-18
58.82522 -2.4136688E-18
58.96813 -2.4104992E-18
59.11104 -2.4080655E-18
59.25395 -2.4066925E-18
59.39687 -2.4066692E-18
59.53978 -2.4082356E-18
59.68269 -2.4115741E-18
59.82560 -2.4167963E-18
59.96851 -2.4239335E-18
60.11142 -2.4329262E-18
60.25433 -2.4436171E-18
60.39725 -2.4557417E-18
60.54016 -2.4689323E-18
60.68307 -2.4827226E-18
60.82598 -2.4965692E-18
60.96889 -2.5098792E-18
61.11180 -2.5220501E-18
61.25471 -2.5325170E-18
61.39763 -2.5408015E-18
61.54054 -2.5465562E-18
61.68345 -2.5496045E-18
61.82636 -2.5499608E-18
61.96928 -2.5478375E-18
62.11219 -2.5436290E-18
62.25510 -2.5378828E-18
62.39801 -2.5312496E-18
62.54092 -2.5244316E-18
62.68383 -2.5181194E-18
62.82674 -2.5129402E-18
62.96966 -2.5094091E-18
63.11257 -2.5078927E-18
63.25548 -2.5085882E-18
63.39839 -2.5115137E-18
63.54131 -2.5165134E-18
63.68422 -2.5232688E-18
63.82713 -2.5313224E-18
63.97004 -2.5401035E-18
64.11295 -2.5489645E-18
64.25586 -2.5572171E-18
64.39877 -2.5641786E-18
64.54169 -2.5692176E-18
64.68460 -2.5718054E-18
64.82751 -2.5715645E-18
64.97042 -2.5683118E-18
65.11333 -2.5620931E-18
65.25625 -2.5531997E-18
65.39915 -2.5421653E-18
65.54207 -2.5297427E-18
65.68498 -2.5168517E-18
65.82789 -2.5045139E-18
65.97080 -2.4937686E-18
66.11372 -2.4855878E-18
66.25663 -2.4807899E-18
66.39954 -2.4799702E-18
66.54245 -2.4834481E-18
66.68536 -2.4912412E-18
66.82828 -2.5030645E-18
66.97118 -2.5183555E-18
67.11410 -2.5363196E-18
67.25701 -2.5559897E-18
67.39992 -2.5762966E-18
67.54283 -2.5961386E-18
67.68575 -2.6144526E-18
67.82866 -2.6302764E-18
67.97157 -2.6428073E-18
68.11448 -2.6514472E-18
68.25739 -2.6558433E-18
68.40031 -2.6559136E-18
68.54321 -2.6518639E-18
68.68613 -2.6441846E-18
68.82904 -2.6336341E-18
68.97195 -2.6211974E-18
69.11486 -2.6080269E-18
69.25777 -2.5953606E-18
69.40069 -2.5844274E-18
69.54359 -2.5763444E-18
69.68651 -2.5720170E-18
69.82942 -2.5720532E-18
69.97233 -2.5766999E-18
70.11524 -2.5858135E-18
70.25816 -2.5988656E-18
70.40107 -2.6149874E-18
70.54398 -2.6330441E-18
70.68689 -2.6517367E-18
70.82980 -2.6697155E-18
70.97272 -2.6856937E-18
71.11562 -2.6985537E-18
71.25854 -2.7074318E-18
71.40145 -2.7117758E-18
71.54436 -2.7113798E-18
71.68727 -2.7063842E-18
71.83018 -2.6972579E-18
71.97310 -2.6847553E-18
72.11600 -2.6698603E-18
72.25892 -2.6537211E-18
72.40183 -2.6375756E-18
72.54475 -2.6226723E-18
72.68765 -2.6101926E-18
72.83057 -2.6011704E-18
72.97348 -2.5964182E-18
73.11639 -2.5964633E-18
73.25930 -2.6014969E-18
73.40221 -2.6113465E-18
73.54513 -2.6254746E-18
73.68803 -2.6430056E-18
73.83095 -2.6627850E-18
73.97386 -2.6834657E-18
74.11678 -2.7036150E-18
74.25968 -2.7218349E-18
74.40260 -2.7368772E-18
74.54551 -2.7477511E-18
74.68842 -2.7538056E-18
74.83133 -2.7547788E-18
74.97424 -2.7508144E-18
75.11716 -2.7424404E-18
75.26006 -2.7305168E-18
75.40298 -2.7161586E-18
75.54589 -2.7006421E-18
75.68880 -2.6853056E-18
75.83171 -2.6714482E-18
75.97462 -2.6602439E-18
76.11754 -2.6526605E-18
76.26044 -2.6494033E-18
76.40336 -2.6508701E-18
76.54627 -2.6571297E-18
76.68919 -2.6679162E-18
76.83209 -2.6826441E-18
76.97501 -2.7004440E-18
77.11792 -2.7202130E-18
77.26083 -2.7406884E-18
77.40374 -2.7605327E-18
77.54665 -2.7784306E-18
77.68957 -2.7931888E-18
77.83247 -2.8038317E-18
77.97539 -2.8096834E-18
78.11830 -2.8104286E-18
78.26122 -2.8061412E-18
78.40412 -2.7972816E-18
78.54704 -2.7846618E-18
78.68995 -2.7693736E-18
78.83286 -2.7526999E-18
78.97577 -2.7360051E-18
79.11868 -2.7206260E-18
79.26160 -2.7077654E-18
79.40450 -2.6984063E-18
79.54742 -2.6932467E-18
79.69033 -2.6926619E-18
79.83324 -2.6966957E-18
79.97615 -2.7050748E-18
80.11906 -2.7172467E-18
80.26198 -2.7324313E-18
80.40488 -2.7496836E-18
80.54780 -2.7679604E-18
80.69071 -2.7861889E-18
80.83363 -2.8033323E-18
80.97653 -2.8184506E-18
81.11945 -2.8307585E-18
81.26236 -2.8396693E-18
81.40527 -2.8448352E-18
81.54818 -2.8461728E-18
81.69109 -2.8438701E-18
81.83401 -2.8383801E-18
81.97691 -2.8303902E-18
82.11983 -2.8207767E-18
82.26274 -2.8105364E-18
82.40565 -2.8007093E-18
82.54856 -2.7922921E-18
82.69147 -2.7861552E-18
82.83439 -2.7829687E-18
82.97730 -2.7831447E-18
83.12021 -2.7868081E-18
83.26312 -2.7937916E-18
83.40604 -2.8036613E-18
83.54894 -2.8157602E-18
83.69186 -2.8292766E-18
83.83477 -2.8433171E-18
83.97768 -2.8569820E-18
84.12059 -2.8694354E-18
84.26350 -2.8799592E-18
84.40642 -2.8879940E-18
84.54933 -2.8931612E-18
84.69224 -2.8952688E-18
84.83515 -2.8943097E-18
84.97807 -2.8904462E-18
85.12097 -2.8839937E-18
85.26389 -2.8754016E-18
85.40680 -2.8652329E-18
85.54971 -2.8541375E-18
85.69262 -2.8428305E-18
85.83553 -2.8320553E-18
85.97845 -2.8225458E-18
86.12135 -2.8149821E-18
86.26427 -2.8099418E-18
86.40718 -2.8078547E-18
86.55009 -2.8089625E-18
86.69300 -2.8132913E-18
86.83591 -2.8206449E-18
86.97883 -2.8306139E-18
87.12174 -2.8426105E-18
87.26465 -2.8559153E-18
87.40756 -2.8697416E-18
87.55048 -2.8833002E-18
87.69338 -2.8958628E-18
87.83630 -2.9068150E-18
87.97921 -2.9156940E-18
88.12212 -2.9222095E-18
88.26503 -2.9262441E-18
88.40794 -2.9278457E-18
88.55086 -2.9272061E-18
88.69377 -2.9246358E-18
88.83668 -2.9205390E-18
88.97959 -2.9153898E-18
89.12251 -2.9097108E-18
89.26541 -2.9040512E-18
89.40833 -2.8989657E-18
89.55124 -2.8949890E-18
89.69415 -2.8926045E-18
89.83706 -2.8922093E-18
89.97997 -2.8940808E-18
90.12289 -2.8983410E-18
90.26580 -2.9049353E-18
90.40871 -2.9136215E-18
90.55162 -2.9239792E-18
90.69453 -2.9354380E-18
90.83744 -2.9473252E-18
90.98035 -2.9589222E-18
91.12327 -2.9695317E-18
91.26618 -2.9785395E-18
91.40909 -2.9854673E-18
91.55200 -2.9900079E-18
91.69492 -2.9920397E-18
91.83783 -2.9916234E-18
91.98074 -2.9889822E-18
92.12365 -2.9844681E-18
92.26656 -2.9785281E-18
92.40947 -2.9716664E-18
92.55238 -2.9644162E-18
92.69530 -2.9573150E-18
92.83821 -2.9508883E-18
92.98112 -2.9456326E-18
93.12403 -2.9420019E-18
93.26694 -2.9403870E-18
93.40986 -2.9410917E-18
93.55276 -2.9443027E-18
93.69568 -2.9500600E-18
93.83859 -2.9582330E-18
93.98150 -2.9685066E-18
94.12441 -2.9803832E-18
94.26733 -2.9932097E-18
94.41024 -3.0062223E-18
94.55315 -3.0186085E-18
94.69606 -3.0295833E-18
94.83897 -3.0384646E-18
94.98188 -3.0447383E-18
95.12479 -3.0481109E-18
95.26771 -3.0485328E-18
95.41062 -3.0461997E-18
95.55353 -3.0415228E-18
95.69644 -3.0350853E-18
95.83936 -3.0275791E-18
95.98227 -3.0197438E-18
96.12518 -3.0123037E-18
96.26809 -3.0059183E-18
96.41100 -3.0011434E-18
96.55391 -2.9984069E-18
96.69682 -2.9979941E-18
96.83974 -3.0000418E-18
96.98265 -3.0045373E-18
97.12556 -3.0113186E-18
97.26847 -3.0200805E-18
97.41138 -3.0303784E-18
97.55430 -3.0416451E-18
97.69720 -3.0532148E-18
97.84012 -3.0643578E-18
97.98303 -3.0743311E-18
98.12594 -3.0824375E-18
98.26885 -3.0880890E-18
98.41177 -3.0908671E-18
98.55468 -3.0905732E-18
98.69759 -3.0872591E-18
98.84050 -3.0812302E-18
98.98341 -3.0730246E-18
99.12633 -3.0633629E-18
99.26923 -3.0530815E-18
99.41215 -3.0430533E-18
99.55506 -3.0341068E-18
99.69797 -3.0269562E-18
99.84088 -3.0221478E-18
99.98380 -3.0200288E-18
100.1267 -3.0207368E-18
100.2696 -3.0242137E-18
100.4125 -3.0302285E-18
100.5554 -3.0384126E-18
100.6984 -3.0482952E-18
100.8413 -3.0593360E-18
100.9842 -3.0709533E-18
101.1271 -3.0825477E-18
101.2700 -3.0935233E-18
101.4129 -3.1033120E-18
101.5558 -3.1113983E-18
101.6987 -3.1173538E-18
101.8416 -3.1208716E-18
101.9846 -3.1218032E-18
102.1275 -3.1201885E-18
102.2704 -3.1162741E-18
102.4133 -3.1105145E-18
102.5562 -3.1035506E-18
102.6991 -3.0961654E-18
102.8420 -3.0892197E-18
102.9849 -3.0835771E-18
103.1279 -3.0800233E-18
103.2708 -3.0791912E-18
103.4137 -3.0814997E-18
103.5566 -3.0871152E-18
103.6995 -3.0959404E-18
103.8424 -3.1076226E-18
103.9853 -3.1215917E-18
104.1282 -3.1371087E-18
104.2711 -3.1533287E-18
104.4141 -3.1693634E-18
104.5570 -3.1843418E-18
104.6999 -3.1974656E-18
104.8428 -3.2080546E-18
104.9857 -3.2155805E-18
105.1286 -3.2196982E-18
105.2715 -3.2202621E-18
105.4144 -3.2173388E-18
105.5574 -3.2112088E-18
105.7003 -3.2023580E-18
105.8432 -3.1914578E-18
105.9861 -3.1793318E-18
106.1290 -3.1669063E-18
106.2719 -3.1551522E-18
106.4148 -3.1450153E-18
106.5577 -3.1373445E-18
106.7006 -3.1328229E-18
106.8436 -3.1319132E-18
106.9865 -3.1348139E-18
107.1294 -3.1414450E-18
107.2723 -3.1514516E-18
107.4152 -3.1642347E-18
107.5581 -3.1790021E-18
107.7010 -3.1948327E-18
107.8439 -3.2107499E-18
107.9869 -3.2257972E-18
108.1298 -3.2391065E-18
108.2727 -3.2499569E-18
108.4156 -3.2578182E-18
108.5585 -3.2623774E-18
108.7014 -3.2635466E-18
108.8443 -3.2614553E-18
108.9872 -3.2564277E-18
109.1301 -3.2489446E-18
109.2731 -3.2395989E-18
109.4160 -3.2290418E-18
109.5589 -3.2179280E-18
109.7018 -3.2068620E-18
109.8447 -3.1963504E-18
109.9876 -3.1867650E-18
110.1305 -3.1783211E-18
110.2734 -3.1710736E-18
110.4164 -3.1649305E-18
110.5593 -3.1596854E-18
110.7022 -3.1550683E-18
110.8451 -3.1508031E-18
110.9880 -3.1466747E-18
111.1309 -3.1425886E-18
111.2738 -3.1386229E-18
111.4167 -3.1350629E-18
111.5596 -3.1324083E-18
111.7026 -3.1313594E-18
111.8455 -3.1327731E-18
111.9884 -3.1375935E-18
112.1313 -3.1467657E-18
112.2742 -3.1611342E-18
112.4171 -3.1813344E-18
112.5600 -3.2076921E-18
112.7029 -3.2401318E-18
112.8458 -3.2781064E-18
112.9888 -3.3205555E-18
113.1317 -3.3658947E-18
113.2746 -3.4120404E-18
113.4175 -3.4564761E-18
113.5604 -3.4963551E-18
113.7033 -3.5286388E-18
113.8462 -3.5502658E-18
113.9891 -3.5583474E-18
114.1321 -3.5503766E-18
114.2750 -3.5244429E-18
114.4179 -3.4794314E-18
114.5608 -3.4152027E-18
114.7037 -3.3327305E-18
114.8466 -3.2341854E-18
114.9895 -3.1229559E-18
115.1324 -3.0035941E-18
115.2754 -2.8816880E-18
115.4183 -2.7636594E-18
115.5612 -2.6564941E-18
115.7041 -2.5674160E-18
115.8470 -2.5035250E-18
115.9899 -2.4714078E-18
116.1328 -2.4767529E-18
116.2757 -2.5239743E-18
116.4186 -2.6158768E-18
116.5616 -2.7533668E-18
116.7045 -2.9352283E-18
116.8474 -3.1579771E-18
116.9903 -3.4157997E-18
117.1332 -3.7005869E-18
117.2761 -4.0020673E-18
117.4190 -4.3080484E-18
117.5619 -4.6047643E-18
117.7048 -4.8773303E-18
117.8478 -5.1103011E-18
117.9907 -5.2883100E-18
118.1336 -5.3967898E-18
118.2765 -5.4227314E-18
118.4194 -5.3554585E-18
118.5623 -5.1873840E-18
118.7052 -4.9147023E-18
118.8481 -4.5379790E-18
118.9911 -4.0625996E-18
119.1340 -3.4990422E-18
119.2769 -2.8629412E-18
119.4198 -2.1749238E-18
119.5627 -1.4602096E-18
119.7056 -7.4795051E-19
119.8485 -7.0346871E-20
119.9914 5.3846351E-19
120.1343 1.0437230E-18
120.2773 1.4115194E-18
120.4202 1.6103740E-18
120.5631 1.6128843E-18
120.7060 1.3973676E-18
120.8489 9.4942198E-19
120.9918 2.6333807E-19
121.1347 -6.5673064E-19
121.2776 -1.7959036E-18
121.4206 -3.1281053E-18
121.5635 -4.6160434E-18
121.7064 -6.2116913E-18
121.8493 -7.8573092E-18
121.9922 -9.4869940E-18
122.1351 -1.1028762E-17
122.2780 -1.2407098E-17
122.4209 -1.3545926E-17
122.5639 -1.4371883E-17
122.7068 -1.4817796E-17
122.8497 -1.4826193E-17
122.9926 -1.4352755E-17
123.1355 -1.3369486E-17
123.2784 -1.1867473E-17
123.4213 -9.8590698E-18
123.5642 -7.3793676E-18
123.7071 -4.4867898E-18
123.8501 -1.2627528E-18
123.9930 2.1897121E-18
124.1359 5.7483825E-18
124.2788 9.2753094E-18
124.4217 1.2621244E-17
124.5646 1.5630944E-17
124.7075 1.8149152E-17
124.8504 2.0027100E-17
124.9933 2.1129245E-17
125.1363 2.1340012E-17
125.2792 2.0570260E-17
125.4221 1.8763108E-17
125.5650 1.5898982E-17
125.7079 1.1999457E-17
125.8508 7.1297609E-18
125.9937 1.3997167E-18
126.1366 -5.0370704E-18
126.2795 -1.1985803E-17
126.4225 -1.9214985E-17
126.5654 -2.6462658E-17
126.7083 -3.3444418E-17
126.8512 -3.9862899E-17
126.9941 -4.5418499E-17
127.1370 -4.9821062E-17
127.2799 -5.2802082E-17
127.4228 -5.4126980E-17
127.5658 -5.3606998E-17
127.7087 -5.1110163E-17
127.8516 -4.6570900E-17
127.9945 -3.9997710E-17
128.1374 -3.1478580E-17
128.2803 -2.1183647E-17
128.4232 -9.3648881E-18
128.5661 3.6473892E-18
128.7090 1.7451345E-17
128.8520 3.1583695E-17
128.9949 4.5532828E-17
129.1378 5.8754857E-17
129.2807 7.0692000E-17
129.4236 8.0792881E-17
129.5665 8.8534067E-17
129.7094 9.3442107E-17
129.8523 9.5115302E-17
129.9953 9.3244299E-17
130.1382 8.7630641E-17
130.2811 7.8202555E-17
130.4240 6.5026819E-17
130.5669 4.8316407E-17
130.7098 2.8433030E-17
130.8527 5.8841365E-18
130.9956 -1.8685813E-17
131.1385 -4.4509930E-17
131.2815 -7.0719237E-17
131.4244 -9.6368288E-17
131.5673 -1.2046556E-16
131.7102 -1.4200769E-16
131.8531 -1.6001673E-16
131.9960 -1.7357877E-16
132.1389 -1.8188308E-16
132.2818 -1.8425992E-16
132.4248 -1.8021555E-16
132.5677 -1.6946296E-16
132.7106 -1.5194684E-16
132.8535 -1.2786136E-16
132.9964 -9.7659550E-17
133.1393 -6.2053362E-17
133.2822 -2.2004063E-17
133.4251 2.1297934E-17
133.5681 6.6463228E-17
133.7110 1.1194319E-16
133.8539 1.5607867E-16
133.9968 1.9715606E-16
134.1397 2.3346928E-16
134.2826 2.6338550E-16
134.4255 2.8541236E-16
134.5684 2.9826423E-16
134.7113 3.0092481E-16
134.8542 2.9270319E-16
134.9972 2.7328094E-16
135.1401 2.4274749E-16
135.2830 2.0162186E-16
135.4259 1.5085847E-16
135.5688 9.1836371E-17
135.7117 2.6330282E-17
135.8546 -4.3535591E-17
135.9975 -1.1535113E-16
136.1405 -1.8649917E-16
136.2834 -2.5424790E-16
136.4263 -3.1585332E-16
136.5692 -3.6866855E-16
136.7121 -4.1025580E-16
136.8550 -4.3849609E-16
136.9979 -4.5169260E-16
137.1408 -4.4866234E-16
137.2838 -4.2881239E-16
137.4267 -3.9219523E-16
137.5696 -3.3954147E-16
137.7125 -2.7226548E-16
137.8554 -1.9244352E-16
137.9983 -1.0276280E-16
138.1412 -6.4424147E-18
138.2841 9.2872193E-17
138.4270 1.9123857E-16
138.5700 2.8456612E-16
138.7129 3.6877935E-16
138.8558 4.3998976E-16
138.9987 4.9466936E-16
139.1416 5.2981958E-16
139.2845 5.4312684E-16
139.4274 5.3309877E-16
139.5703 4.9917430E-16
139.7133 4.4180132E-16
139.8562 3.6247666E-16
139.9991 2.6374589E-16
140.1420 1.4915915E-16
140.2849 2.3183274E-17
140.4278 -1.0892756E-16
140.5707 -2.4130251E-16
140.7136 -3.6765939E-16
140.8566 -4.8153887E-16
140.9995 -5.7656140E-16
141.1424 -6.4669695E-16
141.2853 -6.8653958E-16
141.4282 -6.9157726E-16
141.5711 -6.5844503E-16
141.7140 -5.8515588E-16
141.8569 -4.7129617E-16
141.9998 -3.1817938E-16
142.1427 -1.2895046E-16
142.2857 9.1367161E-17
142.4286 3.3588530E-16
142.5715 5.9593236E-16
142.7144 8.6120196E-16
142.8573 1.1199731E-15
143.0002 1.3594006E-15
143.1431 1.5658743E-15
143.2860 1.7254413E-15
143.4290 1.8242915E-15
143.5719 1.8492932E-15
143.7148 1.7885704E-15
143.8577 1.6321109E-15
144.0006 1.3723878E-15
144.1435 1.0049788E-15
144.2864 5.2916065E-16
144.4293 -5.1543298E-17
144.5723 -7.2888937E-16
144.7152 -1.4895420E-15
144.8581 -2.3148254E-15
145.0010 -3.1806439E-15
145.1439 -4.0575809E-15
145.2868 -4.9112211E-15
145.4297 -5.7027069E-15
145.5726 -6.3895587E-15
145.7155 -6.9267602E-15
145.8585 -7.2681246E-15
146.0014 -7.3679288E-15
146.1443 -7.1827996E-15
146.2872 -6.6738128E-15
146.4301 -5.8087741E-15
146.5730 -4.5645966E-15
146.7159 -2.9297087E-15
146.8588 -9.0638846E-16
147.0018 1.4870743E-15
147.1447 4.2145196E-15
147.2876 7.2205019E-15
147.4305 1.0429426E-14
147.5734 1.3745388E-14
147.7163 1.7052838E-14
147.8592 2.0218173E-14
148.0021 2.3092326E-14
148.1451 2.5514447E-14
148.2880 2.7316625E-14
148.4309 2.8329679E-14
148.5738 2.8389907E-14
148.7167 2.7346637E-14
148.8596 2.5070425E-14
149.0025 2.1461602E-14
149.1454 1.6458895E-14
149.2883 1.0047752E-14
149.4312 2.2679585E-15
149.5742 -6.7798393E-15
149.7171 -1.6929199E-14
149.8600 -2.7944923E-14
150.0029 -3.9522517E-14
150.1458 -5.1290400E-14
150.2887 -6.2815232E-14
150.4316 -7.3610544E-14
150.5745 -8.3148671E-14
150.7175 -9.0876186E-14
150.8604 -9.6232477E-14
151.0033 -9.8671187E-14
151.1462 -9.7684054E-14
151.2891 -9.2826497E-14
151.4320 -8.3744074E-14
151.5749 -7.0198892E-14
151.7178 -5.2094888E-14
151.8607 -2.9500735E-14
152.0037 -2.6692733E-15
152.1466 2.7947962E-14
152.2895 6.1692188E-14
152.4324 9.7695899E-14
152.5753 1.3488950E-13
152.7182 1.7201681E-13
152.8611 2.0765984E-13
153.0040 2.4027303E-13
153.1470 2.6822671E-13
153.2899 2.8985955E-13
153.4328 3.0353820E-13
153.5757 3.0772382E-13
153.7186 3.0104250E-13
153.8615 2.8235834E-13
154.0044 2.5084576E-13
154.1473 2.0605918E-13
154.2903 1.4799582E-13
154.4332 7.7149800E-14
154.5761 -5.4470631E-15
154.7190 -9.8199193E-14
154.8619 -1.9894016E-13
155.0048 -3.0494604E-13
155.1477 -4.1297098E-13
155.2906 -5.1930720E-13
155.4335 -6.1986814E-13
155.5765 -7.1029619E-13
155.7194 -7.8609168E-13
155.8623 -8.4276271E-13
156.0052 -8.7599074E-13
156.1481 -8.8180852E-13
156.2910 -8.5678437E-13
156.4339 -7.9820834E-13
156.5768 -7.0427079E-13
156.7197 -5.7422876E-13
156.8627 -4.0855126E-13
157.0056 -2.0903618E-13
157.1485 2.1107941E-14
157.2914 2.7722253E-13
157.4343 5.5320711E-13
157.5772 8.4158055E-13
157.7201 1.1335972E-12
157.8630 1.4194219E-12
158.0060 1.6883591E-12
158.1489 1.9291398E-12
158.2918 2.1302554E-12
158.4347 2.2803365E-12
158.5776 2.3685643E-12
158.7205 2.3851060E-12
158.8634 2.3215590E-12
159.0063 2.1713902E-12
159.1492 1.9303565E-12
159.2922 1.5968863E-12
159.4351 1.1724075E-12
159.5780 6.6160532E-13
159.7209 7.2594552E-14
159.8638 -5.8301080E-13
160.0067 -1.2901380E-12
160.1496 -2.0304188E-12
160.2925 -2.7824793E-12
160.4355 -3.5223617E-12
160.5784 -4.2240699E-12
160.7213 -4.8602394E-12
160.8642 -5.4029164E-12
161.0071 -5.8244290E-12
161.1500 -6.0983315E-12
161.2929 -6.2004022E-12
161.4358 -6.1096523E-12
161.5788 -5.8093326E-12
161.7217 -5.2878869E-12
161.8646 -4.5398281E-12
162.0075 -3.5664958E-12
162.1504 -2.3766618E-12
162.2933 -9.8695065E-13
162.4362 5.7795587E-13
162.5791 2.2853561E-12
162.7220 4.0948239E-12
162.8650 5.9587825E-12
163.0079 7.8233479E-12
163.1508 9.6294630E-12
163.2937 1.1314284E-11
163.4366 1.2812812E-11
163.5795 1.4059739E-11
163.7224 1.4991463E-11
163.8653 1.5548228E-11
164.0083 1.5676323E-11
164.1512 1.5330291E-11
164.2941 1.4475072E-11
164.4370 1.3088007E-11
164.5799 1.1160636E-11
164.7228 8.7002081E-12
164.8657 5.7308481E-12
165.0086 2.2943091E-12
165.1515 -1.5497495E-12
165.2944 -5.7239851E-12
165.4374 -1.0134167E-11
165.5803 -1.4670515E-11
165.7232 -1.9209615E-11
165.8661 -2.3616916E-11
166.0090 -2.7749709E-11
166.1519 -3.1460650E-11
166.2948 -3.4601634E-11
166.4377 -3.7028054E-11
166.5807 -3.8603256E-11
166.7236 -3.9203168E-11
166.8665 -3.8720856E-11
167.0094 -3.7071044E-11
167.1523 -3.4194283E-11
167.2952 -3.0060780E-11
167.4381 -2.4673655E-11
167.5810 -1.8071536E-11
167.7240 -1.0330373E-11
167.8669 -1.5643552E-12
168.0098 8.0741455E-12
168.1527 1.8395698E-11
168.2956 2.9176005E-11
168.4385 4.0159199E-11
168.5814 5.1062234E-11
168.7243 6.1580352E-11
168.8672 7.1393461E-11
169.0102 8.0173444E-11
169.1531 8.7592156E-11
169.2960 9.3330059E-11
169.4389 9.7085194E-11
169.5818 9.8582344E-11
169.7247 9.7582234E-11
169.8676 9.3890409E-11
170.0105 8.7365601E-11
170.1535 7.7927421E-11
170.2964 6.5563041E-11
170.4393 5.0332651E-11
170.5822 3.2373586E-11
170.7251 1.1902813E-11
170.8680 -1.0782316E-11
171.0109 -3.5305134E-11
171.1538 -6.1212771E-11
171.2968 -8.7981122E-11
171.4397 -1.1502197E-10
171.5826 -1.4169198E-10
171.7255 -1.6730355E-10
171.8684 -1.9113751E-10