-7.200000 1.0133168E-17
-7.057088 1.0142681E-17
-6.914176 1.0160385E-17
-6.771265 1.0184010E-17
-6.628353 1.0210641E-17
-6.485441 1.0237102E-17
-6.342530 1.0260388E-17
-6.199618 1.0278058E-17
-6.056706 1.0288554E-17
-5.913795 1.0291400E-17
-5.770883 1.0287252E-17
-5.627971 1.0277787E-17
-5.485059 1.0265469E-17
-5.342147 1.0253191E-17
-5.199236 1.0243868E-17
-5.056324 1.0240034E-17
-4.913413 1.0243483E-17
-4.770501 1.0255024E-17
-4.627589 1.0274358E-17
-4.484677 1.0300122E-17
-4.341765 1.0330065E-17
-4.198854 1.0361351E-17
-4.055942 1.0390943E-17
-3.913030 1.0416006E-17
-3.770118 1.0434294E-17
-3.627207 1.0444441E-17
-3.484295 1.0446150E-17
-3.341383 1.0440227E-17
-3.198472 1.0428469E-17
-3.055560 1.0413426E-17
-2.912648 1.0398053E-17
-2.769737 1.0385316E-17
-2.626825 1.0377797E-17
-2.483913 1.0377348E-17
-2.341001 1.0384852E-17
-2.198090 1.0400105E-17
-2.055178 1.0421850E-17
-1.912266 1.0447956E-17
-1.769354 1.0475702E-17
-1.626443 1.0502153E-17
-1.483531 1.0524556E-17
-1.340619 1.0540713E-17
-1.197708 1.0549278E-17
-1.054796 1.0549942E-17
-0.9118841 1.0543467E-17
-0.7689723 1.0531594E-17
-0.6260606 1.0516795E-17
-0.4831489 1.0501947E-17
-0.3402372 1.0489937E-17
-0.1973254 1.0483271E-17
-5.4413714E-02 1.0483732E-17
8.8498011E-02 1.0492136E-17
0.2314097 1.0508220E-17
0.3743215 1.0530673E-17
0.5172332 1.0557312E-17
0.6601449 1.0585378E-17
0.8030567 1.0611903E-17
0.9459684 1.0634112E-17
1.088880 1.0649801E-17
1.231792 1.0657629E-17
1.374704 1.0657299E-17
1.517615 1.0649595E-17
1.660527 1.0636275E-17
1.803439 1.0619829E-17
1.946350 1.0603142E-17
2.089262 1.0589098E-17
2.232174 1.0580194E-17
2.375086 1.0578205E-17
2.517997 1.0583946E-17
2.660909 1.0597172E-17
2.803821 1.0616624E-17
2.946733 1.0640204E-17
3.089644 1.0665270E-17
3.232556 1.0689006E-17
3.375468 1.0708808E-17
3.518379 1.0722645E-17
3.661291 1.0729323E-17
3.804203 1.0728660E-17
3.947115 1.0721493E-17
4.090026 1.0709567E-17
4.232938 1.0695285E-17
4.375850 1.0681380E-17
4.518762 1.0670542E-17
4.661673 1.0665045E-17
4.804585 1.0666439E-17
4.947497 1.0675337E-17
5.090408 1.0691339E-17
5.233320 1.0713073E-17
5.376232 1.0738387E-17
5.519144 1.0764632E-17
5.662055 1.0789011E-17
5.804967 1.0808954E-17
5.947879 1.0822448E-17
6.090790 1.0828306E-17
6.233702 1.0826312E-17
6.376614 1.0817245E-17
6.519526 1.0802770E-17
6.662437 1.0785215E-17
6.805349 1.0767256E-17
6.948261 1.0751573E-17
7.091173 1.0740489E-17
7.234084 1.0735680E-17
7.376996 1.0737960E-17
7.519908 1.0747182E-17
7.662819 1.0762279E-17
7.805731 1.0781408E-17
7.948643 1.0802212E-17
8.091555 1.0822144E-17
8.234467 1.0838805E-17
8.377378 1.0850274E-17
8.520289 1.0855362E-17
8.663201 1.0853770E-17
8.806113 1.0846125E-17
8.949025 1.0833889E-17
9.091937 1.0819163E-17
9.234848 1.0804395E-17
9.377760 1.0792043E-17
9.520672 1.0784237E-17
9.663584 1.0782486E-17
9.806496 1.0787468E-17
9.949407 1.0798924E-17
10.09232 1.0815691E-17
10.23523 1.0835844E-17
10.37814 1.0856955E-17
10.52105 1.0876417E-17
10.66397 1.0891787E-17
10.80688 1.0901119E-17
10.94979 1.0903229E-17
11.09270 1.0897857E-17
11.23561 1.0885707E-17
11.37852 1.0868362E-17
11.52144 1.0848076E-17
11.66435 1.0827480E-17
11.80726 1.0809239E-17
11.95017 1.0795701E-17
12.09308 1.0788595E-17
12.23599 1.0788809E-17
12.37891 1.0796282E-17
12.52182 1.0810026E-17
12.66473 1.0828269E-17
12.80764 1.0848700E-17
12.95055 1.0868793E-17
13.09346 1.0886141E-17
13.23638 1.0898784E-17
13.37929 1.0905460E-17
13.52220 1.0905773E-17
13.66511 1.0900222E-17
13.80802 1.0890127E-17
13.95094 1.0877428E-17
14.09385 1.0864409E-17
14.23676 1.0853376E-17
14.37967 1.0846334E-17
14.52258 1.0844707E-17
14.66549 1.0849141E-17
14.80841 1.0859415E-17
14.95132 1.0874464E-17
15.09423 1.0892529E-17
15.23714 1.0911391E-17
15.38005 1.0928676E-17
15.52296 1.0942173E-17
15.66588 1.0950140E-17
15.80879 1.0951537E-17
15.95170 1.0946180E-17
16.09461 1.0934770E-17
16.23752 1.0918810E-17
16.38043 1.0900417E-17
16.52335 1.0882052E-17
16.66626 1.0866204E-17
16.80917 1.0855066E-17
16.95208 1.0850260E-17
17.09499 1.0852626E-17
17.23791 1.0862114E-17
17.38082 1.0877793E-17
17.52373 1.0897980E-17
17.66664 1.0920454E-17
17.80955 1.0942748E-17
17.95246 1.0962469E-17
18.09538 1.0977607E-17
18.23829 1.0986790E-17
18.38120 1.0989453E-17
18.52411 1.0985902E-17
18.66702 1.0977254E-17
18.80993 1.0965282E-17
18.95285 1.0952154E-17
19.09576 1.0940135E-17
19.23867 1.0931273E-17
19.38158 1.0927113E-17
19.52449 1.0928486E-17
19.66740 1.0935396E-17
19.81032 1.0947021E-17
19.95323 1.0961832E-17
20.09614 1.0977812E-17
20.23905 1.0992736E-17
20.38196 1.1004496E-17
20.52488 1.1011399E-17
20.66779 1.1012418E-17
20.81070 1.1007342E-17
20.95361 1.0996827E-17
21.09652 1.0982313E-17
21.23943 1.0965842E-17
21.38235 1.0949786E-17
21.52526 1.0936530E-17
21.66817 1.0928150E-17
21.81108 1.0926129E-17
21.95399 1.0931156E-17
22.09690 1.0943030E-17
22.23981 1.0960674E-17
22.38273 1.0982283E-17
22.52564 1.1005550E-17
22.66855 1.1027972E-17
22.81146 1.1047168E-17
22.95437 1.1061190E-17
23.09729 1.1068760E-17
23.24020 1.1069430E-17
23.38311 1.1063618E-17
23.52602 1.1052543E-17
23.66893 1.1038039E-17
23.81184 1.1022306E-17
23.95476 1.1007610E-17
24.09767 1.0995987E-17
24.24058 1.0988965E-17
24.38349 1.0987386E-17
24.52640 1.0991303E-17
24.66932 1.0999992E-17
24.81223 1.1012067E-17
24.95514 1.1025692E-17
25.09805 1.1038837E-17
25.24096 1.1049570E-17
25.38387 1.1056329E-17
25.52678 1.1058147E-17
25.66970 1.1054784E-17
25.81261 1.1046773E-17
25.95552 1.1035353E-17
26.09843 1.1022306E-17
26.24134 1.1009716E-17
26.38426 1.0999691E-17
26.52717 1.0994068E-17
26.67008 1.0994163E-17
26.81299 1.1000568E-17
26.95590 1.1013066E-17
27.09881 1.1030628E-17
27.24173 1.1051538E-17
27.38464 1.1073600E-17
27.52755 1.1094412E-17
27.67046 1.1111676E-17
27.81337 1.1123498E-17
27.95629 1.1128631E-17
28.09920 1.1126646E-17
28.24211 1.1117988E-17
28.38502 1.1103924E-17
28.52793 1.1086377E-17
28.67084 1.1067675E-17
28.81376 1.1050252E-17
28.95667 1.1036324E-17
29.09958 1.1027604E-17
29.24249 1.1025083E-17
29.38540 1.1028912E-17
29.52831 1.1038391E-17
29.67122 1.1052088E-17
29.81414 1.1068039E-17
29.95705 1.1084042E-17
30.09996 1.1097957E-17
30.24287 1.1108018E-17
30.38578 1.1113070E-17
30.52870 1.1112732E-17
30.67161 1.1107444E-17
30.81452 1.1098394E-17
30.95743 1.1087344E-17
31.10034 1.1076376E-17
31.24325 1.1067580E-17
31.38617 1.1062757E-17
31.52908 1.1063151E-17
31.67199 1.1069262E-17
31.81490 1.1080763E-17
31.95781 1.1096537E-17
32.10072 1.1114815E-17
32.24364 1.1133418E-17
32.38655 1.1150051E-17
32.52946 1.1162615E-17
32.67237 1.1169498E-17
32.81528 1.1169800E-17
32.95819 1.1163465E-17
33.10111 1.1151295E-17
33.24402 1.1134854E-17
33.38693 1.1116268E-17
33.52984 1.1097954E-17
33.67275 1.1082295E-17
33.81567 1.1071339E-17
33.95858 1.1066528E-17
34.10149 1.1068513E-17
34.24440 1.1077068E-17
34.38731 1.1091136E-17
34.53022 1.1108964E-17
34.67313 1.1128343E-17
34.81605 1.1146910E-17
34.95896 1.1162457E-17
35.10187 1.1173236E-17
35.24478 1.1178179E-17
35.38770 1.1177043E-17
35.53061 1.1170436E-17
35.67352 1.1159721E-17
35.81643 1.1146827E-17
35.95934 1.1133966E-17
36.10225 1.1123331E-17
36.24516 1.1116776E-17
36.38808 1.1115552E-17
36.53099 1.1120132E-17
36.67390 1.1130134E-17
36.81681 1.1144368E-17
36.95972 1.1161005E-17
37.10263 1.1177830E-17
37.24555 1.1192559E-17
37.38846 1.1203164E-17
37.53137 1.1208167E-17
37.67428 1.1206865E-17
37.81719 1.1199443E-17
37.96011 1.1186956E-17
38.10302 1.1171202E-17
38.24593 1.1154473E-17
38.38884 1.1139249E-17
38.53175 1.1127846E-17
38.67466 1.1122094E-17
38.81758 1.1123080E-17
38.96049 1.1130989E-17
39.10340 1.1145073E-17
39.24631 1.1163750E-17
39.38922 1.1184820E-17
39.53214 1.1205769E-17
39.67505 1.1224109E-17
39.81796 1.1237729E-17
39.96087 1.1245177E-17
40.10378 1.1245859E-17
40.24669 1.1240111E-17
40.38961 1.1229149E-17
40.53252 1.1214882E-17
40.67543 1.1199645E-17
40.81834 1.1185864E-17
40.96125 1.1175713E-17
41.10416 1.1170814E-17
41.24707 1.1172008E-17
41.38999 1.1179251E-17
41.53290 1.1191625E-17
41.67581 1.1207480E-17
41.81872 1.1224669E-17
41.96163 1.1240865E-17
42.10455 1.1253894E-17
42.24746 1.1262040E-17
42.39037 1.1264294E-17
42.53328 1.1260495E-17
42.67619 1.1251346E-17
42.81910 1.1238323E-17
42.96202 1.1223455E-17
43.10493 1.1209039E-17
43.24784 1.1197316E-17
43.39075 1.1190146E-17
43.53366 1.1188755E-17
43.67657 1.1193545E-17
43.81948 1.1204048E-17
43.96240 1.1218980E-17
44.10531 1.1236425E-17
44.24822 1.1254102E-17
44.39113 1.1269684E-17
44.53405 1.1281125E-17
44.67696 1.1286949E-17
44.81987 1.1286462E-17
44.96278 1.1279843E-17
45.10569 1.1268132E-17
45.24860 1.1253075E-17
45.39151 1.1236887E-17
45.53443 1.1221939E-17
45.67734 1.1210427E-17
45.82025 1.1204062E-17
45.96316 1.1203835E-17
46.10608 1.1209880E-17
46.24899 1.1221454E-17
46.39190 1.1237054E-17
46.53481 1.1254633E-17
46.67772 1.1271887E-17
46.82063 1.1286591E-17
46.96354 1.1296913E-17
47.10646 1.1301669E-17
47.24937 1.1300487E-17
47.39228 1.1293851E-17
47.53519 1.1283025E-17
47.67810 1.1269857E-17
47.82101 1.1256514E-17
47.96392 1.1245156E-17
48.10684 1.1237635E-17
48.24975 1.1235220E-17
48.39266 1.1238425E-17
48.53557 1.1246949E-17
48.67849 1.1259722E-17
48.82140 1.1275075E-17
48.96431 1.1290986E-17
49.10722 1.1305388E-17
49.25013 1.1316458E-17
49.39304 1.1322886E-17
49.53595 1.1324055E-17
49.67887 1.1320121E-17
49.82178 1.1311979E-17
49.96469 1.1301116E-17
50.10760 1.1289393E-17
50.25051 1.1278764E-17
50.39342 1.1270988E-17
50.53634 1.1267384E-17
50.67925 1.1268635E-17
50.82216 1.1274706E-17
50.96507 1.1284853E-17
51.10798 1.1297744E-17
51.25090 1.1311650E-17
51.39381 1.1324708E-17
51.53672 1.1335179E-17
51.67963 1.1341693E-17
51.82254 1.1343444E-17
51.96545 1.1340291E-17
52.10837 1.1332770E-17
52.25128 1.1322011E-17
52.39419 1.1309572E-17
52.53710 1.1297222E-17
52.68001 1.1286692E-17
52.82293 1.1279446E-17
52.96584 1.1276489E-17
53.10875 1.1278242E-17
53.25166 1.1284500E-17
53.39457 1.1294480E-17
53.53748 1.1306939E-17
53.68040 1.1320351E-17
53.82331 1.1333127E-17
53.96622 1.1343822E-17
54.10913 1.1351324E-17
54.25204 1.1354993E-17
54.39495 1.1354726E-17
54.53786 1.1350956E-17
54.68078 1.1344570E-17
54.82369 1.1336777E-17
54.96660 1.1328928E-17
55.10951 1.1322330E-17
55.25242 1.1318066E-17
55.39534 1.1316856E-17
55.53825 1.1318960E-17
55.68116 1.1324165E-17
55.82407 1.1331810E-17
55.96698 1.1340900E-17
56.10989 1.1350241E-17
56.25281 1.1358608E-17
56.39572 1.1364922E-17
56.53863 1.1368388E-17
56.68154 1.1368611E-17
56.82445 1.1365644E-17
56.96737 1.1359986E-17
57.11028 1.1352508E-17
57.25319 1.1344345E-17
57.39610 1.1336739E-17
57.53901 1.1330876E-17
57.68192 1.1327731E-17
57.82484 1.1327933E-17
57.96775 1.1331689E-17
58.11066 1.1338745E-17
58.25357 1.1348426E-17
58.39648 1.1359711E-17
58.53939 1.1371370E-17
58.68230 1.1382114E-17
58.82522 1.1390763E-17
58.96813 1.1396390E-17
59.11104 1.1398440E-17
59.25395 1.1396801E-17
59.39687 1.1391811E-17
59.53978 1.1384215E-17
59.68269 1.1375075E-17
59.82560 1.1365624E-17
59.96851 1.1357115E-17
60.11142 1.1350667E-17
60.25433 1.1347115E-17
60.39725 1.1346919E-17
60.54016 1.1350105E-17
60.68307 1.1356272E-17
60.82598 1.1364645E-17
60.96889 1.1374188E-17
61.11180 1.1383739E-17
61.25471 1.1392166E-17
61.39763 1.1398518E-17
61.54054 1.1402145E-17
61.68345 1.1402786E-17
61.82636 1.1400599E-17
61.96928 1.1396132E-17
62.11219 1.1390247E-17
62.25510 1.1384000E-17
62.39801 1.1378488E-17
62.54092 1.1374701E-17
62.68383 1.1373379E-17
62.82674 1.1374905E-17
62.96966 1.1379249E-17
63.11257 1.1385971E-17
63.25548 1.1394271E-17
63.39839 1.1403109E-17
63.54131 1.1411339E-17
63.68422 1.1417875E-17
63.82713 1.1421851E-17
63.97004 1.1422744E-17
64.11295 1.1420453E-17
64.25586 1.1415332E-17
64.39877 1.1408136E-17
64.54169 1.1399927E-17
64.68460 1.1391931E-17
64.82751 1.1385358E-17
64.97042 1.1381236E-17
65.11333 1.1380254E-17
65.25625 1.1382660E-17
65.39915 1.1388219E-17
65.54207 1.1396236E-17
65.68498 1.1405652E-17
65.82789 1.1415192E-17
65.97080 1.1423550E-17
66.11372 1.1429582E-17
66.25663 1.1432480E-17
66.39954 1.1431895E-17
66.54245 1.1428008E-17
66.68536 1.1421511E-17
66.82828 1.1413521E-17
66.97118 1.1405422E-17
67.11410 1.1398671E-17
67.25701 1.1394581E-17
67.39992 1.1394120E-17
67.54283 1.1397759E-17
67.68575 1.1405384E-17
67.82866 1.1416292E-17
67.97157 1.1429270E-17
68.11448 1.1442752E-17
68.25739 1.1455029E-17
68.40031 1.1464483E-17
68.54321 1.1469819E-17
68.68613 1.1470246E-17
68.82904 1.1465603E-17
68.97195 1.1456395E-17
69.11486 1.1443734E-17
69.25777 1.1429196E-17
69.40069 1.1414620E-17
69.54359 1.1401861E-17
69.68651 1.1392541E-17
69.82942 1.1387841E-17
69.97233 1.1388336E-17
70.11524 1.1393936E-17
70.25816 1.1403892E-17
70.40107 1.1416925E-17
70.54398 1.1431394E-17
70.68689 1.1445540E-17
70.82980 1.1457732E-17
70.97272 1.1466688E-17
71.11562 1.1471654E-17
71.25854 1.1472496E-17
71.40145 1.1469706E-17
71.54436 1.1464313E-17
71.68727 1.1457718E-17
71.83018 1.1451469E-17
71.97310 1.1447017E-17
72.11600 1.1445493E-17
72.25892 1.1447516E-17
72.40183 1.1453098E-17
72.54475 1.1461622E-17
72.68765 1.1471932E-17
72.83057 1.1482503E-17
72.97348 1.1491662E-17
73.11639 1.1497861E-17
73.25930 1.1499909E-17
73.40221 1.1497182E-17
73.54513 1.1489737E-17
73.68803 1.1478331E-17
73.83095 1.1464339E-17
73.97386 1.1449570E-17
74.11678 1.1436014E-17
74.25968 1.1425560E-17
74.40260 1.1419724E-17
74.54551 1.1419407E-17
74.68842 1.1424769E-17
74.83133 1.1435185E-17
74.97424 1.1449331E-17
75.11716 1.1465368E-17
75.26006 1.1481209E-17
75.40298 1.1494817E-17
75.54589 1.1504508E-17
75.68880 1.1509192E-17
75.83171 1.1508527E-17
75.97462 1.1502968E-17
76.11754 1.1493679E-17
76.26044 1.1482353E-17
76.40336 1.1470941E-17
76.54627 1.1461348E-17
76.68919 1.1455134E-17
76.83209 1.1453277E-17
76.97501 1.1456024E-17
77.11792 1.1462861E-17
77.26083 1.1472606E-17
77.40374 1.1483605E-17
77.54665 1.1494000E-17
77.68957 1.1502044E-17
77.83247 1.1506378E-17
77.97539 1.1506261E-17
78.11830 1.1501691E-17
78.26122 1.1493412E-17
78.40412 1.1482803E-17
78.54704 1.1471660E-17
78.68995 1.1461913E-17
78.83286 1.1455320E-17
78.97577 1.1453185E-17
79.11868 1.1456153E-17
79.26160 1.1464096E-17
79.40450 1.1476128E-17
79.54742 1.1490732E-17
79.69033 1.1505993E-17
79.83324 1.1519875E-17
79.97615 1.1530534E-17
80.11906 1.1536588E-17
80.26198 1.1537322E-17
80.40488 1.1532780E-17
80.54780 1.1523761E-17
80.69071 1.1511677E-17
80.83363 1.1498342E-17
80.97653 1.1485695E-17
81.11945 1.1475506E-17
81.26236 1.1469134E-17
81.40527 1.1467325E-17
81.54818 1.1470135E-17
81.69109 1.1476942E-17
81.83401 1.1486576E-17
81.97691 1.1497510E-17
82.11983 1.1508125E-17
82.26274 1.1516952E-17
82.40565 1.1522909E-17
82.54856 1.1525442E-17
82.69147 1.1524603E-17
82.83439 1.1521001E-17
82.97730 1.1515689E-17
83.12021 1.1509963E-17
83.26312 1.1505137E-17
83.40604 1.1502319E-17
83.54894 1.1502228E-17
83.69186 1.1505079E-17
83.83477 1.1510555E-17
83.97768 1.1517875E-17
84.12059 1.1525937E-17
84.26350 1.1533509E-17
84.40642 1.1539448E-17
84.54933 1.1542897E-17
84.69224 1.1543430E-17
84.83515 1.1541123E-17
84.97807 1.1536541E-17
85.12097 1.1530631E-17
85.26389 1.1524558E-17
85.40680 1.1519504E-17
85.54971 1.1516454E-17
85.69262 1.1516028E-17
85.83553 1.1518367E-17
85.97845 1.1523111E-17
86.12135 1.1529456E-17
86.26427 1.1536292E-17
86.40718 1.1542397E-17
86.55009 1.1546654E-17
86.69300 1.1548243E-17
86.83591 1.1546797E-17
86.97883 1.1542477E-17
87.12174 1.1535952E-17
87.26465 1.1528305E-17
87.40756 1.1520863E-17
87.55048 1.1514976E-17
87.69338 1.1511810E-17
87.83630 1.1512144E-17
87.97921 1.1516254E-17
88.12212 1.1523854E-17
88.26503 1.1534140E-17
88.40794 1.1545912E-17
88.55086 1.1557748E-17
88.69377 1.1568223E-17
88.83668 1.1576106E-17
88.97959 1.1580526E-17
89.12251 1.1581081E-17
89.26541 1.1577865E-17
89.40833 1.1571409E-17
89.55124 1.1562580E-17
89.69415 1.1552413E-17
89.83706 1.1541954E-17
89.97997 1.1532105E-17
90.12289 1.1523521E-17
90.26580 1.1516562E-17
90.40871 1.1511314E-17
90.55162 1.1507660E-17
90.69453 1.1505391E-17
90.83744 1.1504331E-17
90.98035 1.1504445E-17
91.12327 1.1505903E-17
91.26618 1.1509090E-17
91.40909 1.1514559E-17
91.55200 1.1522921E-17
91.69492 1.1534691E-17
91.83783 1.1550140E-17
91.98074 1.1569140E-17
92.12365 1.1591073E-17
92.26656 1.1614801E-17
92.40947 1.1638709E-17
92.55238 1.1660834E-17
92.69530 1.1679056E-17
92.83821 1.1691331E-17
92.98112 1.1695933E-17
93.12403 1.1691666E-17
93.26694 1.1678035E-17
93.40986 1.1655322E-17
93.55276 1.1624590E-17
93.69568 1.1587585E-17
93.83859 1.1546574E-17
93.98150 1.1504126E-17
94.12441 1.1462880E-17
94.26733 1.1425320E-17
94.41024 1.1393594E-17
94.55315 1.1369392E-17
94.69606 1.1353893E-17
94.83897 1.1347796E-17
94.98188 1.1351371E-17
95.12479 1.1364585E-17
95.26771 1.1387197E-17
95.41062 1.1418854E-17
95.55353 1.1459135E-17
95.69644 1.1507532E-17
95.83936 1.1563384E-17
95.98227 1.1625756E-17
96.12518 1.1693282E-17
96.26809 1.1764023E-17
96.41100 1.1835338E-17
96.55391 1.1903834E-17
96.69682 1.1965382E-17
96.83974 1.2015257E-17
96.98265 1.2048365E-17
97.12556 1.2059560E-17
97.26847 1.2044049E-17
97.41138 1.1997827E-17
97.55430 1.1918113E-17
97.69720 1.1803761E-17
97.84012 1.1655607E-17
97.98303 1.1476712E-17
98.12594 1.1272494E-17
98.26885 1.1050736E-17
98.41177 1.0821453E-17
98.55468 1.0596627E-17
98.69759 1.0389815E-17
98.84050 1.0215628E-17
98.98341 1.0089095E-17
99.12633 1.0024908E-17
99.26923 1.0036584E-17
99.41215 1.0135522E-17
99.55506 1.0330028E-17
99.69797 1.0624307E-17
99.84088 1.1017494E-17
99.98380 1.1502806E-17
100.1267 1.2066869E-17
100.2696 1.2689339E-17
100.4125 1.3342901E-17
100.5554 1.3993724E-17
100.6984 1.4602449E-17
100.8413 1.5125739E-17
100.9842 1.5518388E-17
101.1271 1.5735927E-17
101.2700 1.5737637E-17
101.4129 1.5489797E-17
101.5558 1.4968976E-17
101.6987 1.4165144E-17
101.8416 1.3084313E-17
101.9846 1.1750525E-17
102.1275 1.0206879E-17
102.2704 8.5154588E-18
102.4133 6.7560063E-18
102.5562 5.0232846E-18
102.6991 3.4231437E-18
102.8420 2.0674149E-18
102.9849 1.0678203E-18
103.1279 5.2917990E-19
103.2708 5.4228002E-19
103.4137 1.1767933E-18
103.5566 2.4746951E-18
103.6995 4.4446304E-18
103.8424 7.0576497E-18
103.9853 1.0244710E-17
104.1282 1.3896255E-17
104.2711 1.7864089E-17
104.4141 2.1965670E-17
104.5570 2.5990786E-17
104.6999 2.9710452E-17
104.8428 3.2887732E-17
104.9857 3.5290046E-17
105.1286 3.6702404E-17
105.2715 3.6940874E-17
105.4144 3.5865595E-17
105.5574 3.3392567E-17
105.7003 2.9503435E-17
105.8432 2.4252613E-17
105.9861 1.7771100E-17
106.1290 1.0266572E-17
106.2719 2.0194283E-18
106.4148 -6.6252800E-18
106.5577 -1.5269911E-17
106.7006 -2.3479950E-17
106.8436 -3.0802793E-17
106.9865 -3.6788874E-17
107.1294 -4.1014209E-17
107.2723 -4.3103290E-17
107.4152 -4.2751298E-17
107.5581 -3.9744473E-17
107.7010 -3.3977522E-17
107.8439 -2.5467202E-17
107.9869 -1.4361086E-17
108.1298 -9.4099260E-19
108.2727 1.4379476E-17
108.4156 3.1063411E-17
108.5585 4.8465088E-17
108.7014 6.5850201E-17
108.8443 8.2421256E-17
108.9872 9.7347439E-17
109.1301 1.0979804E-16
109.2731 1.1897827E-16
109.4160 1.2416633E-16
109.5589 1.2475044E-16
109.7018 1.2026420E-16
109.8447 1.1041934E-16
109.9876 9.5133910E-17
110.1305 7.4554847E-17
110.2734 4.9073506E-17
110.4164 1.9332819E-17
110.5593 -1.3774959E-17
110.7022 -4.9120797E-17
110.8451 -8.5362525E-17
110.9880 -1.2097976E-16
111.1309 -1.5432027E-16
111.2738 -1.8365718E-16
111.4167 -2.0725601E-16
111.5596 -2.2345012E-16
111.7026 -2.3072225E-16
111.8455 -2.2778937E-16
111.9884 -2.1368765E-16
112.1313 -1.8785329E-16
112.2742 -1.5019533E-16
112.4171 -1.0115548E-16
112.5600 -4.1750565E-17
112.7029 2.6406944E-17
112.8458 1.0111430E-16
112.9888 1.7961298E-16
113.1317 2.5865443E-16
113.2746 3.3459805E-16
113.4175 4.0354063E-16
113.5604 4.6147451E-16
113.7033 5.0447064E-16
113.8462 5.2887927E-16
113.9891 5.3154144E-16
114.1321 5.1000023E-16
114.2750 4.6270181E-16
114.4179 3.8917395E-16
114.5608 2.9017017E-16
114.7037 1.6776773E-16
114.8466 2.5409432E-17
114.9895 -1.3212017E-16
115.1324 -2.9878934E-16
115.2754 -4.6748823E-16
115.4183 -6.3027113E-16
115.5612 -7.7866754E-16
115.7041 -9.0405224E-16
115.8470 -9.9806178E-16
115.9899 -1.0530398E-15
116.1328 -1.0624918E-15
116.2757 -1.0215237E-15
116.4186 -9.2724379E-16
116.5616 -7.7909995E-16
116.7045 -5.7912987E-16
116.8474 -3.3210370E-16
116.9903 -4.5540591E-17
117.1332 2.7041188E-16
117.2761 6.0324241E-16
117.4190 9.3848307E-16
117.5619 1.2602501E-15
117.7048 1.5519020E-15
117.8478 1.7967913E-15
117.9907 1.9790800E-15
118.1336 2.0845805E-15
118.2765 2.1015842E-15
118.4194 2.0216334E-15
118.5623 1.8401945E-15
118.7052 1.5571930E-15
118.8481 1.1773701E-15
118.9911 7.1043560E-16
119.1340 1.7099181E-16
119.2769 -4.2178241E-16
119.4198 -1.0446876E-15
119.5627 -1.6712901E-15
119.7056 -2.2729164E-15
119.8485 -2.8198201E-15
119.9914 -3.2824795E-15
120.1343 -3.6329726E-15
120.2773 -3.8463703E-15
120.4202 -3.9020864E-15
120.5631 -3.7851183E-15
120.7060 -3.4871175E-15
120.8489 -3.0072344E-15
120.9918 -2.3526804E-15
121.1347 -1.5389741E-15
121.2776 -5.8983896E-16
121.4206 4.6326259E-16
121.5635 1.5819586E-15
121.7064 2.7221464E-15
121.8493 3.8354901E-15
121.9922 4.8711971E-15
122.1351 5.7780103E-15
122.2780 6.5063536E-15
122.4209 7.0105533E-15
122.5639 7.2510408E-15
122.7068 7.1964698E-15
122.8497 6.8256287E-15
122.9926 6.1290931E-15
123.1355 5.1105085E-15
123.2784 3.7874426E-15
123.4213 2.1917426E-15
123.5642 3.6933898E-16
123.7071 -1.6205338E-15
123.8501 -3.7067140E-15
123.9930 -5.8080859E-15
124.1359 -7.8361254E-15
124.2788 -9.6979623E-15
124.4217 -1.1299884E-14
124.5646 -1.2551192E-14
124.7075 -1.3368281E-14
124.8504 -1.3678793E-14
124.9933 -1.3425694E-14
125.1363 -1.2571095E-14
125.2792 -1.1099615E-14
125.4221 -9.0211245E-15
125.5650 -6.3726655E-15
125.7079 -3.2193749E-15
125.8508 3.4570797E-16
125.9937 4.2030923E-15
126.1366 8.2095966E-15
126.2795 1.2202443E-14
126.4225 1.6004643E-14
126.5654 1.9431556E-14
126.7083 2.2298466E-14
126.8512 2.4428905E-14
126.9941 2.5663445E-14
127.1370 2.5868559E-14
127.2799 2.4945158E-14
127.4228 2.2836378E-14
127.5658 1.9534132E-14
127.7087 1.5084014E-14
127.8516 9.5881461E-15
127.9945 3.2056191E-15
128.1374 -3.8497258E-15
128.2803 -1.1314326E-14
128.4232 -1.8882767E-14
128.5661 -2.6218375E-14
128.7090 -3.2966275E-14
128.8520 -3.8768481E-14
128.9949 -4.3280514E-14
129.1378 -4.6188801E-14
129.2807 -4.7228148E-14
129.4236 -4.6198373E-14
129.5665 -4.2979238E-14
129.7094 -3.7542811E-14
129.8523 -2.9962408E-14
129.9953 -2.0417433E-14
130.1382 -9.1934915E-15
130.2811 3.3225589E-15
130.4240 1.6652810E-14
130.5669 3.0243674E-14
130.7098 4.3486062E-14
130.8527 5.5739779E-14
130.9956 6.6361271E-14
131.1385 7.4733609E-14
131.2815 8.0297463E-14
131.4244 8.2581687E-14
131.5673 8.1231917E-14
131.7102 7.6035776E-14
131.8531 6.6943264E-14
131.9960 5.4080936E-14
132.1389 3.7758886E-14
132.2818 1.8469650E-14
132.4248 -3.1214303E-15
132.5677 -2.6194499E-14
132.7106 -4.9801875E-14
132.8535 -7.2902425E-14
132.9964 -9.4402588E-14
133.1393 -1.1320253E-13
133.2822 -1.2824575E-13
133.4251 -1.3856996E-13
133.5681 -1.4335720E-13
133.7110 -1.4198081E-13
133.8539 -1.3404681E-13
133.9968 -1.1942774E-13
134.1397 -9.8286749E-14
134.2826 -7.1090466E-14
134.4255 -3.8609086E-14
134.5684 -1.9032093E-15
134.7113 3.7703147E-14
134.8542 7.8662920E-14
134.9972 1.1925877E-13
135.1401 1.5766692E-13
135.2830 1.9202984E-13
135.4259 2.2053525E-13
135.5688 2.4149853E-13
135.7117 2.5344489E-13
135.8546 2.5518804E-13
135.9975 2.4590169E-13
136.1405 2.2518006E-13
136.2834 1.9308432E-13
136.4263 1.5017200E-13
136.5692 9.7506963E-14
136.7121 3.6647992E-14
136.8550 -3.0384468E-14
136.9979 -1.0116391E-13
137.1408 -1.7293449E-13
137.2838 -2.4270709E-13
137.4267 -3.0737186E-13
137.5696 -3.6382339E-13
137.7125 -4.0909412E-13
137.8554 -4.4049058E-13
137.9983 -4.5572676E-13
138.1412 -4.5304892E-13
138.2841 -4.3134533E-13
138.4270 -3.9023572E-13
138.5700 -3.3013482E-13
138.7129 -2.5228590E-13
138.8558 -1.5876036E-13
138.9987 -5.2421870E-14
139.1416 6.3146340E-14
139.2845 1.8374965E-13
139.4274 3.0472353E-13
139.5703 4.2110404E-13
139.7133 5.2782182E-13
139.8562 6.1991222E-13
139.9991 6.9273358E-13
140.1420 7.4218415E-13
140.2849 7.6490848E-13
140.4278 7.5848279E-13
140.5707 7.2157043E-13
140.7136 6.5403846E-13
140.8566 5.5702816E-13
140.9995 4.3297324E-13
141.1424 2.8556267E-13
141.2853 1.1964606E-13
141.4282 -5.8917037E-14
141.5711 -2.4345993E-13
141.7140 -4.2675764E-13
141.8569 -6.0131305E-13
141.9998 -7.5966897E-13
142.1427 -8.9473345E-13
142.2857 -1.0001046E-12
142.4286 -1.0703798E-12
142.5715 -1.1014335E-12
142.7144 -1.0906519E-12
142.8573 -1.0371082E-12
143.0002 -9.4167089E-13
143.1431 -8.0703445E-13
143.2860 -6.3766901E-13
143.4290 -4.3968678E-13
143.5719 -2.2062843E-13
143.7148 1.0825234E-14
143.8577 2.4520490E-13
144.0006 4.7265485E-13
144.1435 6.8336829E-13
144.2864 8.6803687E-13
144.4293 1.0182943E-12
144.5723 1.1271320E-12
144.7152 1.1892670E-12
144.8581 1.2014417E-12
145.0010 1.1626391E-12
145.1439 1.0742004E-12
145.2868 9.3983447E-13
145.4297 7.6551574E-13
145.5726 5.5927030E-13
145.7155 3.3085738E-13
145.8585 9.1355688E-14
146.0014 -1.4732729E-13
146.1443 -3.7300366E-13
146.2872 -5.7378711E-13
146.4301 -7.3868163E-13
146.5730 -8.5814987E-13
146.7159 -9.2463363E-13
146.8588 -9.3300031E-13
147.0018 -8.8089182E-13
147.1447 -7.6895678E-13
147.2876 -6.0095071E-13
147.4305 -3.8369544E-13
147.5734 -1.2689520E-13
147.7163 1.5718762E-13
147.8592 4.5418676E-13
148.0021 7.4820028E-13
148.1451 1.0224517E-12
148.2880 1.2600167E-12
148.4309 1.4445887E-12
148.5738 1.5612479E-12
148.7167 1.5972048E-12
148.8596 1.5424839E-12
149.0025 1.3905189E-12
149.1454 1.1386310E-12
149.2883 7.8837056E-13
149.4312 3.4570098E-13
149.5742 -1.7898354E-13
149.7171 -7.7101346E-13
149.8600 -1.4117692E-12
150.0029 -2.0791721E-12
150.1458 -2.7483224E-12
150.2887 -3.3922698E-12
150.4316 -3.9828895E-12
150.5745 -4.4918366E-12
150.7175 -4.8915498E-12
150.8604 -5.1562704E-12
151.0033 -5.2630413E-12
151.1462 -5.1926571E-12
151.2891 -4.9305334E-12
151.4320 -4.4674624E-12
151.5749 -3.8002275E-12
151.7178 -2.9320613E-12
151.8607 -1.8729198E-12
152.0037 -6.3956468E-13
152.1466 7.4455714E-13
152.2895 2.2496388E-12
152.4324 3.8400424E-12
152.5753 5.4750193E-12
152.7182 7.1096124E-12
152.8611 8.6957160E-12
153.0040 1.0183273E-11
153.1470 1.1521574E-11
153.2899 1.2660638E-11
153.4328 1.3552616E-11
153.5757 1.4153200E-11
153.7186 1.4423001E-11
153.8615 1.4328831E-11
154.0044 1.3844879E-11
154.1473 1.2953743E-11
154.2903 1.1647266E-11
154.4332 9.9271884E-12
154.5761 7.8055609E-12
154.7190 5.3049318E-12
154.8619 2.4582875E-12
155.0048 -6.9124161E-13
155.1477 -4.0909103E-12
155.2906 -7.6791091E-12
155.4335 -1.1386307E-11
155.5765 -1.5136179E-11
155.7194 -1.8846881E-11
155.8623 -2.2432448E-11
156.0052 -2.5804300E-11
156.1481 -2.8872797E-11
156.2910 -3.1548875E-11
156.4339 -3.3745673E-11
156.5768 -3.5380202E-11
156.7197 -3.6374983E-11
156.8627 -3.6659689E-11
157.0056 -3.6172756E-11
157.1485 -3.4862942E-11
157.2914 -3.2690902E-11
157.4343 -2.9630638E-11
157.5772 -2.5670969E-11
157.7201 -2.0816864E-11
157.8630 -1.5090708E-11
158.0060 -8.5334292E-12
158.1489 -1.2054671E-12
158.2918 6.8124846E-12
158.4347 1.5418991E-11
158.5776 2.4491700E-11
158.7205 3.3887566E-11
158.8634 4.3443523E-11
159.0063 5.2977633E-11
159.1492 6.2290832E-11
159.2922 7.1169230E-11
159.4351 7.9387080E-11
159.5780 8.6710368E-11
159.7209 9.2901006E-11
159.8638 9.7721699E-11
160.0067 1.0094127E-10
160.1496 1.0234045E-10
160.2925 1.0171805E-10
160.4355 9.8897342E-11
160.5784 9.3732425E-11
160.7213 8.6114560E-11
160.8642 7.5978175E-11
161.0071 6.3306360E-11
161.1500 4.8135707E-11
161.2929 3.0560277E-11
161.4358 1.0734488E-11
161.5788 -1.1125161E-11
161.7217 -3.4739722E-11
161.8646 -5.9768877E-11
162.0075 -8.5813537E-11
162.1504 -1.1242000E-10
162.2933 -1.3908562E-10
162.4362 -1.6526602E-10
162.5791 -1.9038378E-10
162.7220 -2.1383818E-10
162.8650 -2.3501645E-10
163.0079 -2.5330560E-10
163.1508 -2.6810512E-10
163.2937 -2.7884017E-10
163.4366 -2.8497482E-10
163.5795 -2.8602540E-10
163.7224 -2.8157329E-10
163.8653 -2.7127714E-10
164.0083 -2.5488422E-10
164.1512 -2.3224060E-10
164.2941 -2.0329985E-10
164.4370 -1.6813032E-10
164.5799 -1.2692049E-10
164.7228 -7.9982507E-11
164.8657 -2.7753707E-11
165.0086 2.9204052E-11
165.1515 9.0206925E-11
165.2944 1.5445409E-10
165.4374 2.2103461E-10
165.5803 2.8893643E-10
165.7232 3.5705738E-10
165.8661 4.2421811E-10
166.0090 4.8917664E-10
166.1519 5.5064470E-10
166.2948 6.0730554E-10
166.4377 6.5783295E-10
166.5807 7.0091133E-10
166.7236 7.3525708E-10
166.8665 7.5964030E-10
167.0094 7.7290713E-10
167.1523 7.7400236E-10
167.2952 7.6199203E-10
167.4381 7.3608547E-10
167.5810 6.9565725E-10
167.7240 6.4026767E-10
167.8669 5.6968213E-10
168.0098 4.8388910E-10
168.1527 3.8311551E-10
168.2956 2.6784056E-10
168.4385 1.3880580E-10
168.5814 -2.9771511E-12
168.7243 -1.5622291E-10
168.8672 -3.1937225E-10
169.0102 -4.9059606E-10
169.1531 -6.6780387E-10
169.2960 -8.4865687E-10
169.4389 -1.0305852E-09
169.5818 -1.2108102E-09
169.7247 -1.3863718E-09
169.8676 -1.5541589E-09
170.0105 -1.7109455E-09
170.1535 -1.8534299E-09
170.2964 -1.9782778E-09
170.4393 -2.0821691E-09
170.5822 -2.1618460E-09
170.7251 -2.2141646E-09
170.8680 -2.2361477E-09
171.0109 -2.2250382E-09
171.1538 -2.1783524E-09
171.2968 -2.0939350E-09
171.4397 -1.9700106E-09
171.5826 -1.8052345E-09
171.7255 -1.5987413E-09
171.8684 -1.3501907E-09
172.0113 -1.0598080E-09
172.1542 -7.2842171E-10
172.2971 -3.5749456E-10
172.4400 5.0850175E-11
172.5829 4.9380988E-10
172.7259 9.6789077E-10
172.8688 1.4689040E-09
173.0117 1.9919699E-09
173.1546 2.5315319E-09
173.2975 3.0813798E-09
173.4404 3.6346830E-09
173.5833 4.1840331E-09
173.7262 4.7214987E-09
173.8692 5.2386899E-09
174.0121 5.7268337E-09
174.1550 6.1768608E-09
174.2979 6.5795014E-09
174.4408 6.9253914E-09
174.5837 7.2051898E-09
174.7266 7.4097009E-09
174.8695 7.5300095E-09
175.0125 7.5576185E-09
175.1554 7.4845934E-09
175.2983 7.3037110E-09
175.4412 7.0086119E-09
175.5841 6.5939503E-09
175.7270 6.0555454E-09
175.8699 5.3905280E-09
176.0128 4.5974833E-09
176.1557 3.6765810E-09
176.2987 2.6297011E-09
176.4416 1.4605429E-09
176.5845 1.7471848E-10
176.7274 -1.2201686E-09
176.8703 -2.7144706E-09
177.0132 -4.2964596E-09