-7.200000 2.2723036E-18
-7.057088 2.2689841E-18
-6.914176 2.2627327E-18
-6.771265 2.2542128E-18
-6.628353 2.2442911E-18
-6.485441 2.2339367E-18
-6.342530 2.2241121E-18
-6.199618 2.2156630E-18
-6.056706 2.2092228E-18
-5.913795 2.2051388E-18
-5.770883 2.2034357E-18
-5.627971 2.2038184E-18
-5.485059 2.2057104E-18
-5.342147 2.2083303E-18
-5.199236 2.2107936E-18
-5.056324 2.2122242E-18
-4.913413 2.2118681E-18
-4.770501 2.2091885E-18
-4.627589 2.2039355E-18
-4.484677 2.1961778E-18
-4.341765 2.1862981E-18
-4.198854 2.1749455E-18
-4.055942 2.1629594E-18
-3.913030 2.1512672E-18
-3.770118 2.1407742E-18
-3.627207 2.1322549E-18
-3.484295 2.1262611E-18
-3.341383 2.1230571E-18
-3.198472 2.1225868E-18
-3.055560 2.1244815E-18
-2.912648 2.1280996E-18
-2.769737 2.1326031E-18
-2.626825 2.1370530E-18
-2.483913 2.1405176E-18
-2.341001 2.1421819E-18
-2.198090 2.1414457E-18
-2.055178 2.1379959E-18
-1.912266 2.1318471E-18
-1.769354 2.1233410E-18
-1.626443 2.1131096E-18
-1.483531 2.1019979E-18
-1.340619 2.0909598E-18
-1.197708 2.0809387E-18
-1.054796 2.0727504E-18
-0.9118841 2.0669802E-18
-0.7689723 2.0639110E-18
-0.6260606 2.0634932E-18
-0.4831489 2.0653558E-18
-0.3402372 2.0688558E-18
-0.1973254 2.0731626E-18
-5.4413714E-02 2.0773601E-18
8.8498011E-02 2.0805565E-18
0.2314097 2.0819851E-18
0.3743215 2.0810921E-18
0.5172332 2.0775960E-18
0.6601449 2.0715204E-18
0.8030567 2.0631938E-18
0.9459684 2.0532163E-18
1.088880 2.0423966E-18
1.231792 2.0316592E-18
1.374704 2.0219404E-18
1.517615 2.0140686E-18
1.660527 2.0086590E-18
1.803439 2.0060286E-18
1.946350 2.0061471E-18
2.089262 2.0086400E-18
2.232174 2.0128334E-18
2.375086 2.0178455E-18
2.517997 2.0227054E-18
2.660909 2.0264804E-18
2.803821 2.0283947E-18
2.946733 2.0279238E-18
3.089644 2.0248478E-18
3.232556 2.0192657E-18
3.375468 2.0115726E-18
3.518379 2.0024059E-18
3.661291 1.9925677E-18
3.804203 1.9829364E-18
3.947115 1.9743722E-18
4.090026 1.9676240E-18
4.232938 1.9632431E-18
4.375850 1.9615141E-18
4.518762 1.9624087E-18
4.661673 1.9655747E-18
4.804585 1.9703661E-18
4.947497 1.9759105E-18
5.090408 1.9812190E-18
5.233320 1.9853145E-18
5.376232 1.9873651E-18
5.519144 1.9867966E-18
5.662055 1.9833709E-18
5.804967 1.9772109E-18
5.947879 1.9687744E-18
6.090790 1.9587831E-18
6.233702 1.9481214E-18
6.376614 1.9377215E-18
6.519526 1.9284562E-18
6.662437 1.9210451E-18
6.805349 1.9159900E-18
6.948261 1.9135289E-18
7.091173 1.9136218E-18
7.234084 1.9159521E-18
7.376996 1.9199532E-18
7.519908 1.9248611E-18
7.662819 1.9297878E-18
7.805731 1.9338205E-18
7.948643 1.9361331E-18
8.091555 1.9361018E-18
8.234467 1.9333988E-18
8.377378 1.9280523E-18
8.520289 1.9204551E-18
8.663201 1.9113135E-18
8.806113 1.9015499E-18
8.949025 1.8921670E-18
9.091937 1.8841055E-18
9.234848 1.8781142E-18
9.377760 1.8746580E-18
9.520672 1.8738720E-18
9.663584 1.8755652E-18
9.806496 1.8792646E-18
9.949407 1.8842858E-18
10.09232 1.8898192E-18
10.23523 1.8950131E-18
10.37814 1.8990570E-18
10.52105 1.9012583E-18
10.66397 1.9011109E-18
10.80688 1.8983526E-18
10.94979 1.8930099E-18
11.09270 1.8854128E-18
11.23561 1.8761807E-18
11.37852 1.8661604E-18
11.52144 1.8563310E-18
11.66435 1.8476711E-18
11.80726 1.8410230E-18
11.95017 1.8369669E-18
12.09308 1.8357369E-18
12.23599 1.8371896E-18
12.37891 1.8408346E-18
12.52182 1.8459158E-18
12.66473 1.8515292E-18
12.80764 1.8567525E-18
12.95055 1.8607616E-18
13.09346 1.8629243E-18
13.23638 1.8628544E-18
13.37929 1.8604392E-18
13.52220 1.8558326E-18
13.66511 1.8494327E-18
13.80802 1.8418432E-18
13.95094 1.8338176E-18
14.09385 1.8261931E-18
14.23676 1.8198011E-18
14.37967 1.8153697E-18
14.52258 1.8134171E-18
14.66549 1.8141628E-18
14.80841 1.8174692E-18
14.95132 1.8228317E-18
15.09423 1.8294311E-18
15.23714 1.8362398E-18
15.38005 1.8421711E-18
15.52296 1.8462419E-18
15.66588 1.8477205E-18
15.80879 1.8462291E-18
15.95170 1.8417921E-18
16.09461 1.8348156E-18
16.23752 1.8260173E-18
16.38043 1.8163182E-18
16.52335 1.8067223E-18
16.66626 1.7982028E-18
16.80917 1.7916023E-18
16.95208 1.7875574E-18
17.09499 1.7864444E-18
17.23791 1.7883463E-18
17.38082 1.7930354E-18
17.52373 1.7999791E-18
17.66664 1.8083758E-18
17.80955 1.8172242E-18
17.95246 1.8254265E-18
18.09538 1.8319213E-18
18.23829 1.8358262E-18
18.38120 1.8365657E-18
18.52411 1.8339663E-18
18.66702 1.8282881E-18
18.80993 1.8201917E-18
18.95285 1.8106417E-18
19.09576 1.8007643E-18
19.23867 1.7916846E-18
19.38158 1.7843781E-18
19.52449 1.7795490E-18
19.66740 1.7775642E-18
19.81032 1.7784336E-18
19.95323 1.7818351E-18
20.09614 1.7871742E-18
20.23905 1.7936617E-18
20.38196 1.8003985E-18
20.52488 1.8064690E-18
20.66779 1.8110294E-18
20.81070 1.8134012E-18
20.95361 1.8131518E-18
21.09652 1.8101630E-18
21.23943 1.8046682E-18
21.38235 1.7972455E-18
21.52526 1.7887615E-18
21.66817 1.7802633E-18
21.81108 1.7728342E-18
21.95399 1.7674319E-18
22.09690 1.7647414E-18
22.23981 1.7650663E-18
22.38273 1.7682820E-18
22.52564 1.7738568E-18
22.66855 1.7809362E-18
22.81146 1.7884737E-18
22.95437 1.7953771E-18
23.09729 1.8006549E-18
23.24020 1.8035346E-18
23.38311 1.8035401E-18
23.52602 1.8005307E-18
23.66893 1.7946992E-18
23.81184 1.7865403E-18
23.95476 1.7767931E-18
24.09767 1.7663658E-18
24.24058 1.7562469E-18
24.38349 1.7474023E-18
24.52640 1.7406695E-18
24.66932 1.7366520E-18
24.81223 1.7356385E-18
24.95514 1.7375464E-18
25.09805 1.7419183E-18
25.24096 1.7479706E-18
25.38387 1.7546939E-18
25.52678 1.7609920E-18
25.66970 1.7658416E-18
25.81261 1.7684367E-18
25.95552 1.7683076E-18
26.09843 1.7653794E-18
26.24134 1.7599692E-18
26.38426 1.7527306E-18
26.52717 1.7445481E-18
26.67008 1.7364086E-18
26.81299 1.7292730E-18
26.95590 1.7239569E-18
27.09881 1.7210448E-18
27.24173 1.7208330E-18
27.38464 1.7233062E-18
27.52755 1.7281415E-18
27.67046 1.7347421E-18
27.81337 1.7422938E-18
27.95629 1.7498460E-18
28.09920 1.7564095E-18
28.24211 1.7610727E-18
28.38502 1.7631210E-18
28.52793 1.7621408E-18
28.67084 1.7580951E-18
28.81376 1.7513486E-18
28.95667 1.7426371E-18
29.09958 1.7329730E-18
29.24249 1.7235051E-18
29.38540 1.7153535E-18
29.52831 1.7094463E-18
29.67122 1.7063893E-18
29.81414 1.7063907E-18
29.95705 1.7092449E-18
30.09996 1.7143854E-18
30.24287 1.7209789E-18
30.38578 1.7280491E-18
30.52870 1.7346025E-18
30.67161 1.7397407E-18
30.81452 1.7427504E-18
30.95743 1.7431659E-18
31.10034 1.7408043E-18
31.24325 1.7357810E-18
31.38617 1.7285043E-18
31.52908 1.7196425E-18
31.67199 1.7100685E-18
31.81490 1.7007712E-18
31.95781 1.6927414E-18
32.10072 1.6868431E-18
32.24364 1.6836860E-18
32.38655 1.6835269E-18
32.52946 1.6862181E-18
32.67237 1.6912213E-18
32.81528 1.6976819E-18
32.95819 1.7045627E-18
33.10111 1.7107979E-18
33.24402 1.7154500E-18
33.38693 1.7178358E-18
33.52984 1.7176003E-18
33.67275 1.7147392E-18
33.81567 1.7095665E-18
33.95858 1.7026510E-18
34.10149 1.6947316E-18
34.24440 1.6866308E-18
34.38731 1.6791749E-18
34.53022 1.6731204E-18
34.67313 1.6690841E-18
34.81605 1.6674812E-18
34.95896 1.6684656E-18
35.10187 1.6718885E-18
35.24478 1.6772872E-18
35.38770 1.6839145E-18
35.53061 1.6908190E-18
35.67352 1.6969669E-18
35.81643 1.7013939E-18
35.95934 1.7033545E-18
36.10225 1.7024422E-18
36.24516 1.6986552E-18
36.38808 1.6923884E-18
36.53099 1.6843610E-18
36.67390 1.6754918E-18
36.81681 1.6667510E-18
36.95972 1.6590207E-18
37.10263 1.6529861E-18
37.24555 1.6490719E-18
37.38846 1.6474263E-18
37.53137 1.6479387E-18
37.67428 1.6502788E-18
37.81719 1.6539477E-18
37.96011 1.6583247E-18
38.10302 1.6627196E-18
38.24593 1.6664274E-18
38.38884 1.6687956E-18
38.53175 1.6692996E-18
38.67466 1.6676238E-18
38.81758 1.6637268E-18
38.96049 1.6578767E-18
39.10340 1.6506363E-18
39.24631 1.6427970E-18
39.38922 1.6352620E-18
39.53214 1.6289033E-18
39.67505 1.6244184E-18
39.81796 1.6222218E-18
39.96087 1.6223867E-18
40.10378 1.6246532E-18
40.24669 1.6284952E-18
40.38961 1.6332219E-18
40.53252 1.6380949E-18
40.67543 1.6424295E-18
40.81834 1.6456666E-18
40.96125 1.6474113E-18
41.10416 1.6474411E-18
41.24707 1.6457027E-18
41.38999 1.6423034E-18
41.53290 1.6375051E-18
41.67581 1.6317219E-18
41.81872 1.6255048E-18
41.96163 1.6195055E-18
42.10455 1.6144083E-18
42.24746 1.6108357E-18
42.39037 1.6092407E-18
42.53328 1.6098120E-18
42.67619 1.6124162E-18
42.81910 1.6166012E-18
42.96202 1.6216606E-18
43.10493 1.6267559E-18
43.24784 1.6310625E-18
43.39075 1.6339094E-18
43.53366 1.6348786E-18
43.67657 1.6338459E-18
43.81948 1.6309603E-18
43.96240 1.6265782E-18
44.10531 1.6211737E-18
44.24822 1.6152576E-18
44.39113 1.6093198E-18
44.53405 1.6038015E-18
44.67696 1.5990893E-18
44.81987 1.5955149E-18
44.96278 1.5933373E-18
45.10569 1.5927120E-18
45.24860 1.5936387E-18
45.39151 1.5959169E-18
45.53443 1.5991248E-18
45.67734 1.6026531E-18
45.82025 1.6057841E-18
45.96316 1.6078197E-18
46.10608 1.6082204E-18
46.24899 1.6067218E-18
46.39190 1.6033951E-18
46.53481 1.5986336E-18
46.67772 1.5930653E-18
46.82063 1.5874181E-18
46.96354 1.5823750E-18
47.10646 1.5784515E-18
47.24937 1.5759332E-18
47.39228 1.5748707E-18
47.53519 1.5751290E-18
47.67810 1.5764567E-18
47.82101 1.5785537E-18
47.96392 1.5811109E-18
48.10684 1.5838177E-18
48.24975 1.5863496E-18
48.39266 1.5883528E-18
48.53557 1.5894555E-18
48.67849 1.5893099E-18
48.82140 1.5876663E-18
48.96431 1.5844529E-18
49.10722 1.5798390E-18
49.25013 1.5742450E-18
49.39304 1.5682919E-18
49.53595 1.5626941E-18
49.67887 1.5581185E-18
49.82178 1.5550501E-18
49.96469 1.5537005E-18
50.10760 1.5539811E-18
50.25051 1.5555489E-18
50.39342 1.5579044E-18
50.53634 1.5605115E-18
50.67925 1.5628992E-18
50.82216 1.5647258E-18
50.96507 1.5657926E-18
51.10798 1.5660122E-18
51.25090 1.5653622E-18
51.39381 1.5638496E-18
51.53672 1.5614967E-18
51.67963 1.5583636E-18
51.82254 1.5545843E-18
51.96545 1.5504061E-18
52.10837 1.5461914E-18
52.25128 1.5423866E-18
52.39419 1.5394427E-18
52.53710 1.5377139E-18
52.68001 1.5373674E-18
52.82293 1.5383267E-18
52.96584 1.5402729E-18
53.10875 1.5427070E-18
53.25166 1.5450587E-18
53.39457 1.5468056E-18
53.53748 1.5475810E-18
53.68040 1.5472295E-18
53.82331 1.5458125E-18
53.96622 1.5435592E-18
54.10913 1.5407916E-18
54.25204 1.5378454E-18
54.39495 1.5350121E-18
54.53786 1.5325113E-18
54.68078 1.5304994E-18
54.82369 1.5290878E-18
54.96660 1.5283605E-18
55.10951 1.5283759E-18
55.25242 1.5291431E-18
55.39534 1.5305851E-18
55.53825 1.5325031E-18
55.68116 1.5345644E-18
55.82407 1.5363272E-18
55.96698 1.5373061E-18
56.10989 1.5370674E-18
56.25281 1.5353277E-18
56.39572 1.5320333E-18
56.53863 1.5273909E-18
56.68154 1.5218422E-18
56.82445 1.5159867E-18
56.96737 1.5104667E-18
57.11028 1.5058522E-18
57.25319 1.5025466E-18
57.39610 1.5007347E-18
57.53901 1.5003816E-18
57.68192 1.5012727E-18
57.82484 1.5030805E-18
57.96775 1.5054284E-18
58.11066 1.5079454E-18
58.25357 1.5102931E-18
58.39648 1.5121697E-18
58.53939 1.5133122E-18
58.68230 1.5134980E-18
58.82522 1.5125601E-18
58.96813 1.5104223E-18
59.11104 1.5071363E-18
59.25395 1.5029121E-18
59.39687 1.4981191E-18
59.53978 1.4932490E-18
59.68269 1.4888430E-18
59.82560 1.4853923E-18
59.96851 1.4832376E-18
60.11142 1.4824942E-18
60.25433 1.4830257E-18
60.39725 1.4844723E-18
60.54016 1.4863289E-18
60.68307 1.4880560E-18
60.82598 1.4891891E-18
60.96889 1.4894235E-18
61.11180 1.4886554E-18
61.25471 1.4869711E-18
61.39763 1.4845987E-18
61.54054 1.4818393E-18
61.68345 1.4790003E-18
61.82636 1.4763512E-18
61.96928 1.4741069E-18
62.11219 1.4724307E-18
62.25510 1.4714524E-18
62.39801 1.4712731E-18
62.54092 1.4719601E-18
62.68383 1.4735174E-18
62.82674 1.4758512E-18
62.96966 1.4787425E-18
63.11257 1.4818457E-18
63.25548 1.4847227E-18
63.39839 1.4869138E-18
63.54131 1.4880274E-18
63.68422 1.4878248E-18
63.82713 1.4862823E-18
63.97004 1.4835998E-18
64.11295 1.4801626E-18
64.25586 1.4764560E-18
64.39877 1.4729656E-18
64.54169 1.4700800E-18
64.68460 1.4680297E-18
64.82751 1.4668672E-18
64.97042 1.4664887E-18
65.11333 1.4666887E-18
65.25625 1.4672197E-18
65.39915 1.4678403E-18
65.54207 1.4683395E-18
65.68498 1.4685385E-18
65.82789 1.4682805E-18
65.97080 1.4674194E-18
66.11372 1.4658271E-18
66.25663 1.4634242E-18
66.39954 1.4602192E-18
66.54245 1.4563505E-18
66.68536 1.4521061E-18
66.82828 1.4479043E-18
66.97118 1.4442337E-18
67.11410 1.4415588E-18
67.25701 1.4402172E-18
67.39992 1.4403349E-18
67.54283 1.4417820E-18
67.68575 1.4441884E-18
67.82866 1.4470147E-18
67.97157 1.4496574E-18
68.11448 1.4515661E-18
68.25739 1.4523417E-18
68.40031 1.4517903E-18
68.54321 1.4499287E-18
68.68613 1.4469488E-18
68.82904 1.4431566E-18
68.97195 1.4389104E-18
69.11486 1.4345704E-18
69.25777 1.4304742E-18
69.40069 1.4269298E-18
69.54359 1.4242110E-18
69.68651 1.4225478E-18
69.82942 1.4220969E-18
69.97233 1.4229008E-18
70.11524 1.4248437E-18
70.25816 1.4276264E-18
70.40107 1.4307774E-18
70.54398 1.4337107E-18
70.68689 1.4358249E-18
70.82980 1.4366188E-18
70.97272 1.4358028E-18
71.11562 1.4333668E-18
71.25854 1.4295890E-18
71.40145 1.4249815E-18
71.54436 1.4201847E-18
71.68727 1.4158399E-18
71.83018 1.4124692E-18
71.97310 1.4103980E-18
72.11600 1.4097294E-18
72.25892 1.4103668E-18
72.40183 1.4120718E-18
72.54475 1.4145286E-18
72.68765 1.4173952E-18
72.83057 1.4203288E-18
72.97348 1.4229898E-18
73.11639 1.4250316E-18
73.25930 1.4261065E-18
73.40221 1.4258881E-18
73.54513 1.4241276E-18
73.68803 1.4207197E-18
73.83095 1.4157696E-18
73.97386 1.4096212E-18
74.11678 1.4028385E-18
74.25968 1.3961311E-18
74.40260 1.3902317E-18
74.54551 1.3857659E-18
74.68842 1.3831363E-18
74.83133 1.3824549E-18
74.97424 1.3835444E-18
75.11716 1.3859979E-18
75.26006 1.3892811E-18
75.40298 1.3928468E-18
75.54589 1.3962282E-18
75.68880 1.3990958E-18
75.83171 1.4012668E-18
75.97462 1.4026830E-18
76.11754 1.4033736E-18
76.26044 1.4034237E-18
76.40336 1.4029577E-18
76.54627 1.4021429E-18
76.68919 1.4011911E-18
76.83209 1.4003528E-18
76.97501 1.3998807E-18
77.11792 1.3999661E-18
77.26083 1.4006563E-18
77.40374 1.4017844E-18
77.54665 1.4029299E-18
77.68957 1.4034462E-18
77.83247 1.4025506E-18
77.97539 1.3994734E-18
78.11830 1.3936291E-18
78.26122 1.3847757E-18
78.40412 1.3731113E-18
78.54704 1.3593008E-18
78.68995 1.3444122E-18
78.83286 1.3297871E-18
78.97577 1.3168765E-18
79.11868 1.3070721E-18
79.26160 1.3015691E-18
79.40450 1.3012700E-18
79.54742 1.3067339E-18
79.69033 1.3181481E-18
79.83324 1.3353158E-18
79.97615 1.3576388E-18
80.11906 1.3841024E-18
80.26198 1.4132705E-18
80.40488 1.4433126E-18
80.54780 1.4720828E-18
80.69071 1.4972563E-18
80.83363 1.5165184E-18
80.97653 1.5277812E-18
81.11945 1.5293922E-18
81.26236 1.5203015E-18
81.40527 1.5001569E-18
81.54818 1.4693263E-18
81.69109 1.4288534E-18
81.83401 1.3803733E-18
81.97691 1.3260122E-18
82.11983 1.2683069E-18
82.26274 1.2101340E-18
82.40565 1.1546560E-18
82.54856 1.1052480E-18
82.69147 1.0653873E-18
82.83439 1.0384841E-18
82.97730 1.0276492E-18
83.12021 1.0354215E-18
83.26312 1.0634828E-18
83.40604 1.1124072E-18
83.54894 1.1814755E-18
83.69186 1.2685907E-18
83.83477 1.3702870E-18
83.97768 1.4818324E-18
84.12059 1.5974066E-18
84.26350 1.7103314E-18
84.40642 1.8133484E-18
84.54933 1.8989523E-18
84.69224 1.9597741E-18
84.83515 1.9890410E-18
84.97807 1.9810930E-18
85.12097 1.9319397E-18
85.26389 1.8398023E-18
85.40680 1.7055792E-18
85.54971 1.5331551E-18
85.69262 1.3294971E-18
85.83553 1.1044992E-18
85.97845 8.7056065E-19
86.12135 6.4193889E-19
86.26427 4.3391186E-19
86.40718 2.6183399E-19
86.55009 1.4013440E-19
86.69300 8.1327629E-20
86.83591 9.5083377E-20
86.97883 1.8739459E-19
87.12174 3.5988943E-19
87.26465 6.0933324E-19
87.40756 9.2737483E-19
87.55048 1.3005904E-18
87.69338 1.7108750E-18
87.83630 2.1361954E-18
87.97921 2.5516954E-18
88.12212 2.9310957E-18
88.26503 3.2482890E-18
88.40794 3.4790253E-18
88.55086 3.6025399E-18
88.69377 3.6030209E-18
88.83668 3.4708093E-18
88.97959 3.2032662E-18
89.12251 2.8052687E-18
89.26541 2.2893106E-18
89.40833 1.6752080E-18
89.55124 9.8941007E-19
89.69415 2.6393203E-19
89.83706 -4.6506177E-19
89.97997 -1.1589729E-18
90.12289 -1.7787061E-18
90.26580 -2.2867189E-18
90.40871 -2.6490614E-18
90.55162 -2.8372632E-18
90.69453 -2.8299532E-18
90.83744 -2.6141048E-18
90.98035 -2.1858576E-18
91.12327 -1.5508889E-18
91.26618 -7.2435963E-19
91.40909 2.6952036E-19
91.55200 1.3982573E-18
91.69492 2.6221003E-18
91.83783 3.8952791E-18
91.98074 5.1674093E-18
92.12365 6.3850129E-18
92.26656 7.4931140E-18
92.40947 8.4368642E-18
92.55238 9.1631627E-18
92.69530 9.6222356E-18
92.83821 9.7691875E-18
92.98112 9.5655274E-18
93.12403 8.9807355E-18
93.26694 7.9939305E-18
93.40986 6.5956987E-18
93.55276 4.7901260E-18
93.69568 2.5970179E-18
93.83859 5.4223977E-20
93.98150 -2.7801001E-18
94.12441 -5.8255427E-18
94.26733 -8.9781216E-18
94.41024 -1.2109961E-17
94.55315 -1.5070354E-17
94.69606 -1.7688569E-17
94.83897 -1.9778707E-17
94.98188 -2.1146833E-17
95.12479 -2.1600422E-17
95.26771 -2.0960069E-17
95.41062 -1.9073093E-17
95.55353 -1.5828516E-17
95.69644 -1.1172607E-17
95.83936 -5.1239347E-18
95.98227 2.2133165E-18
96.12518 1.0639175E-17
96.26809 1.9852308E-17
96.41100 2.9450436E-17
96.55391 3.8937899E-17
96.69682 4.7741305E-17
96.83974 5.5233467E-17
96.98265 6.0765575E-17
97.12556 6.3706506E-17
97.26847 6.3487733E-17
97.41138 5.9651356E-17
97.55430 5.1898327E-17
97.69720 4.0133242E-17
97.84012 2.4501872E-17
97.98303 5.4175867E-18
98.12594 -1.6427067E-17
98.26885 -4.0066660E-17
98.41177 -6.4289238E-17
98.55468 -8.7683693E-17
98.69759 -1.0870761E-16
98.84050 -1.2577343E-16
98.98341 -1.3734912E-16
99.12633 -1.4206774E-16
99.26923 -1.3883918E-16
99.41215 -1.2695606E-16
99.55506 -1.0618537E-16
99.69797 -7.6837661E-17
99.84088 -3.9805939E-17
99.98380 3.4315826E-18
100.1267 5.0849128E-17
100.2696 9.9952773E-17
100.4125 1.4790008E-16
100.5554 1.9165521E-16
100.6984 2.2817172E-16
100.8413 2.5459240E-16
100.9842 2.6845314E-16
101.1271 2.6787695E-16
101.2700 2.5174301E-16
101.4129 2.1981708E-16
101.5558 1.7283097E-16
101.6987 1.1250210E-16
101.8416 4.1487429E-17
101.9846 -3.6728464E-17
102.1275 -1.1800757E-16
102.2704 -1.9778544E-16
102.4133 -2.7133782E-16
102.5562 -3.3406987E-16
102.6991 -3.8180857E-16
102.8420 -4.1107793E-16
102.9849 -4.1933748E-16
103.1279 -4.0516640E-16
103.2708 -3.6837971E-16
103.4137 -3.1006747E-16
103.5566 -2.3255385E-16
103.6995 -1.3927878E-16
103.8424 -3.4611159E-17
103.9853 7.6393227E-17
104.1282 1.8827089E-16
104.2711 2.9544702E-16
104.4141 3.9252881E-16
104.5570 4.7457573E-16
104.6999 5.3733086E-16
104.8428 5.7740145E-16
104.9857 5.9238139E-16
105.1286 5.8091579E-16
105.2715 5.4271153E-16
105.4144 4.7850289E-16
105.5574 3.8998543E-16
105.7003 2.7973057E-16
105.8432 1.5109497E-16
105.9861 8.1342692E-18
106.1290 -1.4447245E-16
106.2719 -3.0148669E-16
106.4148 -4.5716830E-16
106.5577 -6.0533787E-16
106.7006 -7.3945833E-16
106.8436 -8.5275344E-16
106.9865 -9.3837984E-16
107.1294 -9.8966631E-16
107.2723 -1.0004289E-15
107.4152 -9.6535879E-16
107.5581 -8.8047206E-16
107.7010 -7.4359720E-16
107.8439 -5.5486455E-16
107.9869 -3.1715211E-16
108.1298 -3.6437147E-17
108.2727 2.7800169E-16
108.4156 6.1358273E-16
108.5585 9.5466066E-16
108.7014 1.2830353E-15
108.8443 1.5787374E-15
108.9872 1.8210730E-15
109.1301 1.9898869E-15
109.2731 2.0669749E-15
109.4160 2.0375572E-15
109.5589 1.8917011E-15
109.7018 1.6255797E-15
109.8447 1.2424416E-15
109.9876 7.5318778E-16
110.1305 1.7646147E-16
110.2734 -4.6180702E-16
110.4164 -1.1294213E-15
110.5593 -1.7894842E-15
110.7022 -2.4024383E-15
110.8451 -2.9284731E-15
110.9880 -3.3301407E-15
111.1309 -3.5750089E-15
111.2738 -3.6381475E-15
111.4167 -3.5042592E-15
111.5596 -3.1692676E-15
111.7026 -2.6412139E-15
111.8455 -1.9403587E-15
111.9884 -1.0984414E-15
112.1313 -1.5711140E-16
112.2742 8.3438643E-16
112.4171 1.8221269E-15
112.5600 2.7508265E-15
112.7029 3.5673390E-15
112.8458 4.2240678E-15
112.9888 4.6820436E-15
113.1317 4.9134361E-15
113.2746 4.9033081E-15
113.4175 4.6504845E-15
113.5604 4.1674728E-15
113.7033 3.4794570E-15
113.8462 2.6224509E-15
113.9891 1.6407866E-15
114.1321 5.8413637E-16
114.2750 -4.9566843E-16
114.4179 -1.5477684E-15
114.5608 -2.5250997E-15
114.7037 -3.3867122E-15
114.8466 -4.0994209E-15
114.9895 -4.6387116E-15
115.1324 -4.9889017E-15
115.2754 -5.1426394E-15
115.4183 -5.0998833E-15
115.5612 -4.8665698E-15
115.7041 -4.4532016E-15
115.8470 -3.8735842E-15
115.9899 -3.1439220E-15
116.1328 -2.2824156E-15
116.2757 -1.3094335E-15
116.4186 -2.4823386E-16
116.5616 8.7389300E-16
116.7045 2.0242662E-15
116.8474 3.1635493E-15
116.9903 4.2448955E-15
117.1332 5.2138601E-15
117.2761 6.0093807E-15
117.4190 6.5660541E-15
117.5619 6.8178076E-15
117.7048 6.7029342E-15
117.8478 6.1702437E-15
117.9907 5.1859410E-15
118.1336 3.7406610E-15
118.2765 1.8559646E-15
118.4194 -4.1047765E-16
118.5623 -2.9617972E-15
118.7052 -5.6616648E-15
118.8481 -8.3373987E-15
118.9911 -1.0786802E-14
119.1340 -1.2788786E-14
119.2769 -1.4117488E-14
119.4198 -1.4559243E-14
119.5627 -1.3931405E-14
119.7056 -1.2101737E-14
119.8485 -9.0068190E-15
119.9914 -4.6678148E-15
120.1343 7.9805666E-16
120.2773 7.1718771E-15
120.4202 1.4134455E-14
120.5631 2.1275616E-14
120.7060 2.8111668E-14
120.8489 3.4110647E-14
120.9918 3.8724442E-14
121.1347 4.1426027E-14
121.2776 4.1749725E-14
121.4206 3.9331721E-14
121.5635 3.3947881E-14
121.7064 2.5545846E-14
121.8493 1.4268461E-14
121.9922 4.6597246E-16
122.1351 -1.5304894E-14
122.2780 -3.2296197E-14
122.4209 -4.9598522E-14
122.5639 -6.6184397E-14
122.7068 -8.0963543E-14
122.8497 -9.2847049E-14
122.9926 -1.0081681E-13
123.1355 -1.0399595E-13
123.2784 -1.0171550E-13
123.4213 -9.3572753E-14
123.5642 -7.9476702E-14
123.7071 -5.9677083E-14
123.8501 -3.4773843E-14
123.9930 -5.7055953E-15
124.1359 2.6283427E-14
124.2788 5.9696863E-14
124.4217 9.2857749E-14
124.5646 1.2399439E-13
124.7075 1.5133588E-13
124.8504 1.7321176E-13
124.9933 1.8814991E-13
125.1363 1.9496687E-13
125.2792 1.9284490E-13
125.4221 1.8139104E-13
125.5650 1.6067419E-13
125.7079 1.3123808E-13
125.8508 9.4088427E-14
125.9937 5.0655318E-14
126.1366 2.7321651E-15
126.2795 -4.7605332E-14
126.4225 -9.8096139E-14
126.5654 -1.4640154E-13
126.7083 -1.9021805E-13
126.8512 -2.2738972E-13
126.9941 -2.5601426E-13
127.1370 -2.7453791E-13
127.2799 -2.8183437E-13
127.4228 -2.7726440E-13
127.5658 -2.6071341E-13
127.7087 -2.3260525E-13
127.8516 -1.9389220E-13
127.9945 -1.4602127E-13
128.1374 -9.0878429E-14
128.2803 -3.0713086E-14
128.4232 3.1954223E-14
128.5661 9.4437323E-14
128.7090 1.5399905E-13
128.8520 2.0797056E-13
128.9949 2.5387082E-13
129.1378 2.8952109E-13
129.2807 3.1315017E-13
129.4236 3.2348527E-13
129.5665 3.1982408E-13
129.7094 3.0208448E-13
129.8523 2.7082801E-13
129.9953 2.2725517E-13
130.1382 1.7317103E-13
130.2811 1.1092090E-13
130.4240 4.3297753E-14
130.5669 -2.6575793E-14
130.7098 -9.5386488E-14
130.8527 -1.5978432E-13
130.9956 -2.1654416E-13
131.1385 -2.6272710E-13
131.2815 -2.9583256E-13
131.4244 -3.1393274E-13
131.5673 -3.1578158E-13
131.7102 -3.0089101E-13
131.8531 -2.6956982E-13
131.9960 -2.2292197E-13
132.1389 -1.6280418E-13
132.2818 -9.1745086E-14
132.4248 -1.2830836E-14
132.5677 7.0435824E-14
132.7106 1.5429369E-13
132.8535 2.3488866E-13
132.9964 3.0843646E-13
133.1393 3.7137253E-13
133.2822 4.2048114E-13
133.4251 4.5299777E-13
133.5681 4.6668209E-13
133.7110 4.5986077E-13
133.8539 4.3144449E-13
133.9968 3.8092500E-13
134.1397 3.0836041E-13
134.2826 2.1435882E-13
134.4255 1.0007015E-13
134.5684 -3.2806521E-14
134.7113 -1.8199317E-13
134.8542 -3.4457940E-13
134.9972 -5.1694819E-13
135.1401 -6.9468872E-13
135.2830 -8.7251007E-13
135.4259 -1.0441734E-12
135.5688 -1.2024640E-12
135.7117 -1.3392253E-12
135.8546 -1.4454790E-12
135.9975 -1.5116495E-12
136.1405 -1.5279033E-12
136.2834 -1.4846123E-12
136.4263 -1.3729321E-12
136.5692 -1.1854786E-12
136.7121 -9.1707208E-13
136.8550 -5.6550695E-13
136.9979 -1.3229274E-13
137.1408 3.7669509E-13
137.2838 9.5071748E-13
137.4267 1.5738951E-12
137.5696 2.2252087E-12
137.7125 2.8788270E-12
137.8554 3.5047863E-12
137.9983 4.0700416E-12
138.1412 4.5398611E-12
138.2841 4.8795278E-12
138.4270 5.0562774E-12
138.5700 5.0413749E-12
138.7129 4.8122075E-12
138.8558 4.3542700E-12
138.9987 3.6628907E-12
139.1416 2.7445661E-12
139.2845 1.6177707E-12
139.4274 3.1314212E-13
139.5703 -1.1270408E-12
139.7133 -2.6501143E-12
139.8562 -4.1950111E-12
139.9991 -5.6949077E-12
140.1420 -7.0804248E-12
140.2849 -8.2832196E-12
140.4278 -9.2397826E-12
140.5707 -9.8952036E-12
140.7136 -1.0206671E-11
140.8566 -1.0146468E-11
140.9995 -9.7042175E-12
141.1424 -8.8882235E-12
141.2853 -7.7257280E-12
141.4282 -6.2620165E-12
141.5711 -4.5583710E-12
141.7140 -2.6889298E-12
141.8569 -7.3659742E-13
141.9998 1.2117643E-12
142.1427 3.0705911E-12
142.2857 4.7609824E-12
142.4286 6.2158269E-12
142.5715 7.3843154E-12
142.7144 8.2355164E-12
142.8573 8.7607040E-12
143.0002 8.9742207E-12
143.1431 8.9127299E-12
143.2860 8.6328288E-12
143.4290 8.2071008E-12
143.5719 7.7187865E-12
143.7148 7.2553881E-12
143.8577 6.9015800E-12
144.0006 6.7319028E-12
144.1435 6.8037368E-12
144.2864 7.1510701E-12
144.4293 7.7795600E-12
144.5723 8.6633105E-12
144.7152 9.7437154E-12
144.8581 1.0930581E-11
145.0010 1.2105606E-11
145.1439 1.3128131E-11
145.2868 1.3842936E-11
145.4297 1.4089670E-11
145.5726 1.3713409E-11
145.7155 1.2575695E-11
145.8585 1.0565370E-11
146.0014 7.6084859E-12
146.1443 3.6765656E-12
146.2872 -1.2073740E-12
146.4301 -6.9655718E-12
146.5730 -1.3465377E-11
146.7159 -2.0522381E-11
146.8588 -2.7906755E-11
147.0018 -3.5352558E-11
147.1447 -4.2569479E-11
147.2876 -4.9256457E-11
147.4305 -5.5116221E-11
147.5734 -5.9869998E-11
147.7163 -6.3271346E-11
147.8592 -6.5118272E-11
148.0021 -6.5262670E-11
148.1451 -6.3616688E-11
148.2880 -6.0155263E-11
148.4309 -5.4914854E-11
148.5738 -4.7988367E-11
148.7167 -3.9516709E-11
148.8596 -2.9677569E-11
149.0025 -1.8672376E-11
149.1454 -6.7124748E-12
149.2883 5.9942233E-12
149.4312 1.9254966E-11
149.5742 3.2901081E-11
149.7171 4.6793118E-11
149.8600 6.0821494E-11
150.0029 7.4902307E-11
150.1458 8.8968229E-11
150.2887 1.0295515E-10
150.4316 1.1678518E-10
150.5745 1.3034751E-10
150.7175 1.4347866E-10
150.8604 1.5594409E-10
151.0033 1.6742285E-10
151.1462 1.7749778E-10
151.2891 1.8565224E-10
151.4320 1.9127576E-10
151.5749 1.9367860E-10
151.7178 1.9211636E-10
151.8607 1.8582384E-10
152.0037 1.7405717E-10
152.1466 1.5614253E-10
152.2895 1.3152893E-10
152.4324 9.9841892E-11
152.5753 6.0934778E-11
152.7182 1.4934061E-11
152.8611 -3.7725031E-11
153.0040 -9.6275807E-11
153.1470 -1.5961300E-10
153.2899 -2.2630336E-10
153.4328 -2.9461480E-10
153.5757 -3.6256417E-10
153.7186 -4.2798209E-10
153.8615 -4.8859278E-10
154.0044 -5.4210469E-10
154.1473 -5.8630811E-10
154.2903 -6.1917410E-10
154.4332 -6.3894906E-10
154.5761 -6.4423966E-10
154.7190 -6.3408229E-10
154.8619 -6.0799316E-10
155.0048 -5.6599442E-10
155.1477 -5.0861509E-10
155.2906 -4.3686535E-10
155.4335 -3.5218550E-10
155.5765 -2.5637256E-10
155.7194 -1.5148831E-10
155.8623 -3.9754779E-11
156.0052 7.6556143E-11
156.1481 1.9523157E-10
156.2910 3.1421726E-10
156.4339 4.3170109E-10
156.5768 5.4617355E-10
156.7197 6.5646094E-10
156.8627 7.6172713E-10
157.0056 8.6144369E-10
157.1485 9.5532893E-10
157.2914 1.0432591E-09
157.4343 1.1251592E-09
157.5772 1.2008778E-09
157.7201 1.2700591E-09
157.8630 1.3320182E-09
158.0060 1.3856341E-09
158.1489 1.4292673E-09
158.2918 1.4607130E-09
158.4347 1.4771960E-09
158.5776 1.4754147E-09
158.7205 1.4516314E-09
158.8634 1.4018140E-09
159.0063 1.3218200E-09
159.1492 1.2076177E-09
159.2922 1.0555342E-09
159.4351 8.6251556E-10
159.5780 6.2638811E-10
159.7209 3.4610206E-10
159.8638 2.1944948E-11
160.0067 -3.4429096E-10
160.1496 -7.4919893E-10
160.2925 -1.1877150E-09
160.4355 -1.6531494E-09
160.5784 -2.1372921E-09
160.7213 -2.6305940E-09
160.8642 -3.1224114E-09
161.0071 -3.6013108E-09
161.1500 -4.0554125E-09
161.2929 -4.4727617E-09
161.4358 -4.8417057E-09
161.5788 -5.1512608E-09
161.7217 -5.3914460E-09
161.8646 -5.5535718E-09
162.0075 -5.6304645E-09
162.1504 -5.6166209E-09
162.2933 -5.5082841E-09
162.4362 -5.3034430E-09
162.5791 -5.0017523E-09
162.7220 -4.6043951E-09
162.8650 -4.1138883E-09
163.0079 -3.5338568E-09
163.1508 -2.8687941E-09
163.2937 -2.1238280E-09
163.4366 -1.3045127E-09
163.5795 -4.1667000E-10
163.7224 5.3371230E-10
163.8653 1.5405076E-09
164.0083 2.5973999E-09
164.1512 3.6977565E-09
164.2941 4.8344280E-09
164.4370 5.9994956E-09
164.5799 7.1839699E-09
164.7228 8.3774800E-09
164.8657 9.5679704E-09
165.0086 1.0741431E-08
165.1515 1.1881697E-08
165.2944 1.2970339E-08
165.4374 1.3986655E-08
165.5803 1.4907805E-08
165.7232 1.5709071E-08
165.8661 1.6364270E-08
166.0090 1.6846284E-08
166.1519 1.7127721E-08
166.2948 1.7181675E-08
166.4377 1.6982542E-08
166.5807 1.6506890E-08
166.7236 1.5734321E-08
166.8665 1.4648292E-08
167.0094 1.3236872E-08
167.1523 1.1493390E-08
167.2952 9.4169579E-09
167.4381 7.0128383E-09
167.5810 4.2926587E-09
167.7240 1.2744706E-09
167.8669 -2.0173483E-09
168.0098 -5.5523115E-09
168.1527 -9.2941432E-09
168.2956 -1.3201174E-08
168.4385 -1.7226743E-08
168.5814 -2.1319607E-08
168.7243 -2.5424276E-08
168.8672 -2.9481273E-08
169.0102 -3.3427249E-08
169.1531 -3.7194983E-08
169.2960 -4.0713182E-08
169.4389 -4.3906176E-08
169.5818 -4.6693408E-08
169.7247 -4.8988863E-08
169.8676 -5.0700354E-08
170.0105 -5.1728822E-08
170.1535 -5.1967621E-08
170.2964 -5.1301875E-08
170.4393 -4.9607980E-08
170.5822 -4.6753289E-08
170.7251 -4.2596017E-08
170.8680 -3.6985455E-08
171.0109 -2.9762459E-08
171.1538 -2.0760302E-08
171.2968 -9.8058148E-09
171.4397 3.2791718E-09
171.5826 1.8676110E-08
171.7255 3.6567783E-08
171.8684 5.7136255E-08
172.0113 8.0560710E-08
172.1542 1.0701535E-07
172.2971 1.3666735E-07
172.4400 1.6967508E-07
172.5829 2.0618651E-07
172.7259 2.4633820E-07
172.8688 2.9025446E-07
173.0117 3.3804724E-07
173.1546 3.8981642E-07
173.2975 4.4565073E-07
173.4404 5.0562920E-07
173.5833 5.6982316E-07
173.7262 6.3829873E-07
173.8692 7.1111987E-07
174.0121 7.8835154E-07
174.1550 8.7006327E-07
174.2979 9.5633311E-07
174.4408 1.0472513E-06
174.5837 1.1429240E-06
174.7266 1.2434773E-06
174.8695 1.3490596E-06
175.0125 1.4598456E-06
175.1554 1.5760384E-06
175.2983 1.6978705E-06
175.4412 1.8256063E-06
175.5841 1.9595416E-06
175.7270 2.1000028E-06
175.8699 2.2473464E-06
176.0128 2.4019557E-06
176.1557 2.5642378E-06
176.2987 2.7346193E-06
176.4416 2.9135417E-06
176.5845 3.1014533E-06
176.7274 3.2988039E-06