-7.200000 -1.7506905E-18
-7.057088 -1.7545849E-18
-6.914176 -1.7621699E-18
-6.771265 -1.7731274E-18
-6.628353 -1.7870373E-18
-6.485441 -1.8033941E-18
-6.342530 -1.8216265E-18
-6.199618 -1.8411206E-18
-6.056706 -1.8612436E-18
-5.913795 -1.8813669E-18
-5.770883 -1.9008904E-18
-5.627971 -1.9192666E-18
-5.485059 -1.9360193E-18
-5.342147 -1.9507622E-18
-5.199236 -1.9632119E-18
-5.056324 -1.9731982E-18
-4.913413 -1.9806666E-18
-4.770501 -1.9856731E-18
-4.627589 -1.9883821E-18
-4.484677 -1.9890519E-18
-4.341765 -1.9880204E-18
-4.198854 -1.9856901E-18
-4.055942 -1.9825058E-18
-3.913030 -1.9789401E-18
-3.770118 -1.9754692E-18
-3.627207 -1.9725534E-18
-3.484295 -1.9706168E-18
-3.341383 -1.9700251E-18
-3.198472 -1.9710688E-18
-3.055560 -1.9739443E-18
-2.912648 -1.9787444E-18
-2.769737 -1.9854494E-18
-2.626825 -1.9939304E-18
-2.483913 -2.0039524E-18
-2.341001 -2.0151906E-18
-2.198090 -2.0272454E-18
-2.055178 -2.0396680E-18
-1.912266 -2.0519812E-18
-1.769354 -2.0637052E-18
-1.626443 -2.0743820E-18
-1.483531 -2.0835966E-18
-1.340619 -2.0909912E-18
-1.197708 -2.0962821E-18
-1.054796 -2.0992690E-18
-0.9118841 -2.0998400E-18
-0.7689723 -2.0979765E-18
-0.6260606 -2.0937501E-18
-0.4831489 -2.0873235E-18
-0.3402372 -2.0789441E-18
-0.1973254 -2.0689402E-18
-5.4413714E-02 -2.0577121E-18
8.8498011E-02 -2.0457196E-18
0.2314097 -2.0334715E-18
0.3743215 -2.0215041E-18
0.5172332 -2.0103624E-18
0.6601449 -2.0005744E-18
0.8030567 -1.9926245E-18
0.9459684 -1.9869246E-18
1.088880 -1.9837921E-18
1.231792 -1.9834279E-18
1.374704 -1.9859025E-18
1.517615 -1.9911509E-18
1.660527 -1.9989773E-18
1.803439 -2.0090670E-18
1.946350 -2.0210105E-18
2.089262 -2.0343256E-18
2.232174 -2.0484882E-18
2.375086 -2.0629624E-18
2.517997 -2.0772251E-18
2.660909 -2.0907896E-18
2.803821 -2.1032223E-18
2.946733 -2.1141521E-18
3.089644 -2.1232808E-18
3.232556 -2.1303820E-18
3.375468 -2.1353037E-18
3.518379 -2.1379701E-18
3.661291 -2.1383806E-18
3.804203 -2.1366125E-18
3.947115 -2.1328226E-18
4.090026 -2.1272478E-18
4.232938 -2.1202062E-18
4.375850 -2.1120913E-18
4.518762 -2.1033619E-18
4.661673 -2.0945255E-18
4.804585 -2.0861179E-18
4.947497 -2.0786745E-18
5.090408 -2.0726993E-18
5.233320 -2.0686358E-18
5.376232 -2.0668346E-18
5.519144 -2.0675315E-18
5.662055 -2.0708289E-18
5.804967 -2.0766882E-18
5.947879 -2.0849317E-18
6.090790 -2.0952547E-18
6.233702 -2.1072470E-18
6.376614 -2.1204167E-18
6.519526 -2.1342221E-18
6.662437 -2.1481029E-18
6.805349 -2.1615048E-18
6.948261 -2.1739119E-18
7.091173 -2.1848630E-18
7.234084 -2.1939684E-18
7.376996 -2.2009274E-18
7.519908 -2.2055350E-18
7.662819 -2.2076934E-18
7.805731 -2.2074160E-18
7.948643 -2.2048326E-18
8.091555 -2.2001844E-18
8.234467 -2.1938124E-18
8.377378 -2.1861360E-18
8.520289 -2.1776191E-18
8.663201 -2.1687278E-18
8.806113 -2.1598879E-18
8.949025 -2.1514418E-18
9.091937 -2.1436264E-18
9.234848 -2.1365715E-18
9.377760 -2.1303317E-18
9.520672 -2.1249428E-18
9.663584 -2.1205042E-18
9.806496 -2.1172627E-18
9.949407 -2.1156730E-18
10.09232 -2.1164134E-18
10.23523 -2.1203317E-18
10.37814 -2.1283057E-18
10.52105 -2.1410296E-18
10.66397 -2.1587561E-18
10.80688 -2.1810395E-18
10.94979 -2.2065556E-18
11.09270 -2.2330601E-18
11.23561 -2.2575519E-18
11.37852 -2.2766577E-18
11.52144 -2.2872166E-18
11.66435 -2.2869894E-18
11.80726 -2.2753460E-18
11.95017 -2.2537746E-18
12.09308 -2.2260307E-18
12.23599 -2.1978052E-18
12.37891 -2.1758527E-18
12.52182 -2.1666569E-18
12.66473 -2.1748355E-18
12.80764 -2.2015993E-18
12.95055 -2.2436554E-18
13.09346 -2.2929296E-18
13.23638 -2.3373800E-18
13.37929 -2.3629707E-18
13.52220 -2.3566130E-18
13.66511 -2.3095987E-18
13.80802 -2.2208228E-18
13.95094 -2.0989807E-18
14.09385 -1.9629879E-18
14.23676 -1.8401383E-18
14.37967 -1.7619563E-18
14.52258 -1.7582173E-18
14.66549 -1.8501700E-18
14.80841 -2.0443442E-18
14.95132 -2.3284243E-18
15.09423 -2.6704358E-18
15.23714 -3.0218597E-18
15.38005 -3.3244290E-18
15.52296 -3.5194488E-18
15.66588 -3.5577100E-18
15.80879 -3.4077519E-18
15.95170 -3.0605263E-18
16.09461 -2.5294077E-18
16.23752 -1.8459011E-18
16.38043 -1.0529182E-18
16.52335 -1.9868028E-19
16.66626 6.6535332E-19
16.80917 1.4800019E-18
16.95208 2.1669411E-18
17.09499 2.6131494E-18
17.23791 2.6573944E-18
17.38082 2.0876221E-18
17.52373 6.5869886E-19
17.66664 -1.8623155E-18
17.80955 -5.6218908E-18
17.95246 -1.0583899E-17
18.09538 -1.6428983E-17
18.23829 -2.2476006E-17
18.38120 -2.7657757E-17
18.52411 -3.0581880E-17
18.66702 -2.9698146E-17
18.80993 -2.3574317E-17
18.95285 -1.1256729E-17
19.09576 7.3374031E-18
19.23867 3.1074691E-17
19.38158 5.7401213E-17
19.52449 8.2370910E-17
19.66740 1.0097476E-16
19.81032 1.0779255E-16
19.95323 9.7925340E-17
20.09614 6.8095023E-17
20.23905 1.7731872E-17
20.38196 -5.0172607E-17
20.52488 -1.2867741E-16
20.66779 -2.0715820E-16
20.81070 -2.7233110E-16
20.95361 -3.1000919E-16
21.09652 -3.0741804E-16
21.23943 -2.5575368E-16
21.38235 -1.5255733E-16
21.52526 -3.4366507E-18
21.66817 1.7729900E-16
21.81108 3.6739345E-16
21.95399 5.3889088E-16
22.09690 6.6172173E-16
22.23981 7.0821547E-16
22.38273 6.5791024E-16
22.52564 5.0189519E-16
22.66855 2.4591656E-16
22.81146 -8.8406735E-17
22.95437 -4.6466120E-16
23.09729 -8.3508655E-16
23.24020 -1.1461013E-15
23.38311 -1.3452771E-15
23.52602 -1.3888803E-15
23.66893 -1.2489633E-15
23.81184 -9.1901370E-16
23.95476 -4.1730693E-16
24.09767 2.1261522E-16
24.24058 9.0461584E-16
24.38349 1.5757020E-15
24.52640 2.1344385E-15
24.66932 2.4913592E-15
24.81223 2.5704680E-15
24.95514 2.3207174E-15
25.09805 1.7262235E-15
25.24096 8.1383116E-16
25.38387 -3.4334637E-16
25.52678 -1.6277030E-15
25.66970 -2.8851892E-15
25.81261 -3.9400055E-15
25.95552 -4.6154304E-15
26.09843 -4.7591664E-15
26.24134 -4.2703302E-15
26.38426 -3.1241262E-15
26.52717 -1.3895295E-15
26.67008 7.6471008E-16
26.81299 3.0794759E-15
26.95590 5.2319290E-15
27.09881 6.8783285E-15
27.24173 7.7086215E-15
27.38464 7.5050702E-15
27.52755 6.1946437E-15
27.67046 3.8839311E-15
27.81337 8.6640936E-16
27.95629 -2.4046497E-15
28.09920 -5.3787507E-15
28.24211 -7.5003870E-15
28.38502 -8.3178661E-15
28.52793 -7.5898057E-15
28.67084 -5.3672620E-15
28.81376 -2.0302480E-15
28.95667 1.7371843E-15
29.09958 5.0395263E-15
29.24249 6.9236041E-15
29.38540 6.5735936E-15
29.52831 3.5153483E-15
29.67122 -2.2093777E-15
29.81414 -9.9390592E-15
29.95705 -1.8392314E-14
30.09996 -2.5790380E-14
30.24287 -3.0100532E-14
30.38578 -2.9375628E-14
30.52870 -2.2143186E-14
30.67161 -7.7811970E-15
30.81452 1.3188727E-14
30.95743 3.8955357E-14
31.10034 6.6466079E-14
31.24325 9.1689338E-14
31.38617 1.1007730E-13
31.52908 1.1718060E-13
31.67199 1.0933722E-13
31.81490 8.4338982E-14
31.95781 4.1974426E-14
32.10072 -1.5642627E-14
32.24364 -8.4023602E-14
32.38655 -1.5656428E-13
32.52946 -2.2510107E-13
32.67237 -2.8071358E-13
32.81528 -3.1469063E-13
32.95819 -3.1955615E-13
33.10111 -2.9004419E-13
33.24402 -2.2391823E-13
33.38693 -1.2254596E-13
33.52984 8.8352389E-15
33.67275 1.6120270E-13
33.81567 3.2219613E-13
33.95858 4.7691977E-13
34.10149 6.0906607E-13
34.24440 7.0230724E-13
34.38731 7.4187455E-13
34.53022 7.1621669E-13
34.67313 6.1860033E-13
34.81605 4.4848530E-13
34.95896 2.1248887E-13
35.10187 -7.5247730E-14
35.24478 -3.9345214E-13
35.38770 -7.1497766E-13
35.53061 -1.0089362E-12
35.67352 -1.2436028E-12
35.81643 -1.3898560E-12
35.95934 -1.4247907E-12
36.10225 -1.3350522E-12
36.24516 -1.1193960E-12
36.38808 -7.9001432E-13
36.53099 -3.7228236E-13
36.67390 9.7233758E-14
36.81681 5.7442473E-13
36.95972 1.0125976E-12
37.10263 1.3681649E-12
37.24555 1.6063093E-12
37.38846 1.7057960E-12
37.53137 1.6621699E-12
37.67428 1.4887498E-12
37.81719 1.2151349E-12
37.96011 8.8329881E-13
38.10302 5.4171836E-13
38.24593 2.3831824E-13
38.38884 1.3222296E-14
38.53175 -1.0761488E-13
38.67466 -1.1692581E-13
38.81758 -2.8067973E-14
38.96049 1.2598116E-13
39.10340 2.9650663E-13
39.24631 4.2534216E-13
39.38922 4.5274318E-13
39.53214 3.2582341E-13
39.67505 6.4721317E-15
39.81796 -5.2221714E-13
39.96087 -1.2517572E-12
40.10378 -2.1467465E-12
40.24669 -3.1461201E-12
40.38961 -4.1669645E-12
40.53252 -5.1104845E-12
40.67543 -5.8695579E-12
40.81834 -6.3372875E-12
40.96125 -6.4159836E-12
41.10416 -6.0260516E-12
41.24707 -5.1143113E-12
41.38999 -3.6612553E-12
41.53290 -1.6867277E-12
41.67581 7.4655679E-13
41.81872 3.5322871E-12
41.96163 6.5232173E-12
42.10455 9.5376563E-12
42.24746 1.2369933E-11
42.39037 1.4804538E-11
42.53328 1.6633092E-11
42.67619 1.7672735E-11
42.81910 1.7784052E-11
42.96202 1.6886385E-11
43.10493 1.4968410E-11
43.24784 1.2092191E-11
43.39075 8.3896657E-12
43.53366 4.0514658E-12
43.67657 -6.9095196E-13
43.81948 -5.5878102E-12
43.96240 -1.0395334E-11
44.10531 -1.4898584E-11
44.24822 -1.8929629E-11
44.39113 -2.2378413E-11
44.53405 -2.5194678E-11
44.67696 -2.7380659E-11
44.81987 -2.8975584E-11
44.96278 -3.0034326E-11
45.10569 -3.0603419E-11
45.24860 -3.0698111E-11
45.39151 -3.0283977E-11
45.53443 -2.9265968E-11
45.67734 -2.7486952E-11
45.82025 -2.4736328E-11
45.96316 -2.0768292E-11
46.10608 -1.5328268E-11
46.24899 -8.1852025E-12
46.39190 8.3285923E-13
46.53481 1.1802746E-11
46.67772 2.4672271E-11
46.82063 3.9231000E-11
46.96354 5.5088063E-11
47.10646 7.1659206E-11
47.24937 8.8165676E-11
47.39228 1.0364705E-10
47.53519 1.1699047E-10
47.67810 1.2697790E-10
47.82101 1.3235220E-10
47.96392 1.3190089E-10
48.10684 1.2455491E-10
48.24975 1.0949636E-10
48.39266 8.6267535E-11
48.53557 5.4870858E-11
48.67849 1.5848312E-11
48.82140 -2.9670860E-11
48.96431 -7.9964466E-11
49.10722 -1.3276046E-10
49.25013 -1.8533143E-10
49.39304 -2.3463850E-10
49.53595 -2.7751601E-10
49.67887 -3.1088485E-10
49.82178 -3.3197667E-10
49.96469 -3.3855080E-10
50.10760 -3.2908348E-10
50.25051 -3.0291256E-10
50.39342 -2.6032332E-10
50.53634 -2.0256707E-10
50.67925 -1.3180992E-10
50.82216 -5.1015303E-11
50.96507 3.6230057E-11
51.10798 1.2593278E-10
51.25090 2.1393472E-10
51.39381 2.9616115E-10
51.53672 3.6885675E-10
51.67963 4.2879281E-10
51.82254 4.7343102E-10
51.96545 5.0103488E-10
52.10837 5.1072213E-10
52.25128 5.0245808E-10
52.39419 4.7699333E-10
52.53710 4.3575393E-10
52.68001 3.8069498E-10
52.82293 3.1413239E-10
52.96584 2.3856805E-10
53.10875 1.5652468E-10
53.25166 7.0404356E-11
53.39457 -1.7616330E-11
53.53748 -1.0564703E-10
53.68040 -1.9209669E-10
53.82331 -2.7564095E-10
53.96622 -3.5515141E-10
54.10913 -4.2959813E-10
54.25204 -4.9794080E-10
54.39495 -5.5902444E-10
54.53786 -6.1149608E-10
54.68078 -6.5375527E-10
54.82369 -6.8394812E-10
54.96660 -7.0000905E-10
55.10951 -6.9974893E-10
55.25242 -6.8098444E-10
55.39534 -6.4169636E-10
55.53825 -5.8020672E-10
55.68116 -4.9535842E-10
55.82407 -3.8668480E-10
55.96698 -2.5455726E-10
56.10989 -1.0030034E-10
56.25281 7.3732860E-11
56.39572 2.6412958E-10
56.53863 4.6643428E-10
56.68154 6.7521416E-10
56.82445 8.8417373E-10
56.96737 1.0863165E-09
57.11028 1.2741511E-09
57.25319 1.4399371E-09
57.39610 1.5759621E-09
57.53901 1.6748426E-09
57.68192 1.7298349E-09
57.82484 1.7351437E-09
57.96775 1.6862147E-09
58.11066 1.5799968E-09
58.25357 1.4151641E-09
58.39648 1.1922884E-09
58.53939 9.1395891E-10
58.68230 5.8484739E-10
58.82522 2.1172236E-10
58.96813 -1.9658510E-10
59.11104 -6.2925770E-10
59.25395 -1.0736115E-09
59.39687 -1.5152596E-09
59.53978 -1.9383262E-09
59.68269 -2.3257261E-09
59.82560 -2.6595259E-09
59.96851 -2.9214091E-09
60.11142 -3.0932688E-09
60.25433 -3.1579497E-09
60.39725 -3.1001595E-09
60.54016 -2.9075593E-09
60.68307 -2.5720317E-09
60.82598 -2.0911215E-09
60.96889 -1.4696103E-09
61.11180 -7.2118289E-10
61.25471 1.2988353E-10
61.39763 1.0471038E-09
61.54054 1.9803388E-09
61.68345 2.8646641E-09
61.82636 3.6196834E-09
61.96928 4.1494301E-09
62.11219 4.3430135E-09
62.25510 4.0761101E-09
62.39801 3.2134193E-09
62.54092 1.6120862E-09
62.68383 -8.7385477E-10
62.82674 -4.3881947E-09
62.96966 -9.0665093E-09
63.11257 -1.5029642E-08
63.25548 -2.2377046E-08
63.39839 -3.1180420E-08
63.54131 -4.1478049E-08
63.68422 -5.3270380E-08
63.82713 -6.6517508E-08
63.97004 -8.1138836E-08
64.11295 -9.7015793E-08
64.25586 -1.1399774E-07
64.39877 -1.3191173E-07
64.54169 -1.5057634E-07
64.68460 -1.6981944E-07
64.82751 -1.8950024E-07
64.97042 -2.0953529E-07
65.11333 -2.2992735E-07
65.25625 -2.5079740E-07
65.39915 -2.7241714E-07
65.54207 -2.9524253E-07
65.68498 -3.1994472E-07
65.82789 -3.4743792E-07
65.97080 -3.7890126E-07
66.11372 -4.1579261E-07
66.25663 -4.5985212E-07
66.39954 -5.1309308E-07
66.54245 -5.7777839E-07
66.68536 -6.5638045E-07
66.82828 -7.5152377E-07
66.97118 -8.6590887E-07
67.11410 -1.0022181E-06
67.25701 -1.1630032E-06
67.39992 -1.3505552E-06
67.54283 -1.5667622E-06
67.68575 -1.8129534E-06
67.82866 -2.0897351E-06
67.97157 -2.3968228E-06
68.11448 -2.7328754E-06
68.25739 -3.0953349E-06
68.40031 -3.4802777E-06
68.54321 -3.8822841E-06
68.68613 -4.2943329E-06
68.82904 -4.7077256E-06
68.97195 -5.1120428E-06
69.11486 -5.4951465E-06
69.25777 -5.8432188E-06
69.40069 -6.1408546E-06
69.54359 -6.3711973E-06
69.68651 -6.5161244E-06
69.82942 -6.5564786E-06
69.97233 -6.4723476E-06
70.11524 -6.2433769E-06
70.25816 -5.8491182E-06
70.40107 -5.2694077E-06
70.54398 -4.4847525E-06
70.68689 -3.4767363E-06
70.82980 -2.2284125E-06
70.97272 -7.2469231E-07
71.11562 1.0472994E-06
71.25854 3.0978897E-06
71.40145 5.4345783E-06
71.54436 8.0618001E-06
71.68727 1.0980746E-05
71.83018 1.4189271E-05
71.97310 1.7681823E-05
72.11600 2.1449499E-05
72.25892 2.5480114E-05
72.40183 2.9758363E-05
72.54475 3.4266057E-05
72.68765 3.8982369E-05
72.83057 4.3884185E-05
72.97348 4.8946480E-05
73.11639 5.4142667E-05
73.25930 5.9445025E-05
73.40221 6.4825108E-05
73.54513 7.0254166E-05
73.68803 7.5703552E-05
73.83095 8.1145066E-05
73.97386 8.6551285E-05
74.11678 9.1895949E-05
74.25968 9.7154109E-05
74.40260 1.0230237E-04
74.54551 1.0731904E-04
74.68842 1.1218430E-04
74.83133 1.1688017E-04
74.97424 1.2139053E-04
75.11716 1.2570109E-04
75.26006 1.2979934E-04
75.40298 1.3367446E-04
75.54589 1.3731714E-04
75.68880 1.4071955E-04
75.83171 1.4387512E-04
75.97462 1.4677849E-04
76.11754 1.4942534E-04
76.26044 1.5181232E-04
76.40336 1.5393712E-04
76.54627 1.5579817E-04
76.68919 1.5739490E-04
76.83209 1.5872763E-04
76.97501 1.5979768E-04
77.11792 1.6060741E-04
77.26083 1.6116032E-04
77.40374 1.6146120E-04
77.54665 1.6151617E-04
77.68957 1.6133288E-04
77.83247 1.6092055E-04
77.97539 1.6029003E-04
78.11830 1.5945392E-04
78.26122 1.5842653E-04
78.40412 1.5722385E-04
78.54704 1.5586354E-04
78.68995 1.5436474E-04
78.83286 1.5274796E-04
78.97577 1.5103488E-04
79.11868 1.4924804E-04
79.26160 1.4741048E-04
79.40450 1.4554558E-04
79.54742 1.4367649E-04
79.69033 1.4182585E-04
79.83324 1.4001528E-04
79.97615 1.3826502E-04
80.11906 1.3659352E-04
80.26198 1.3501699E-04
80.40488 1.3354908E-04
80.54780 1.3220050E-04
80.69071 1.3097875E-04
80.83363 1.2988795E-04
80.97653 1.2892860E-04
81.11945 1.2809754E-04
81.26236 1.2738796E-04
81.40527 1.2678945E-04
81.54818 1.2628820E-04
81.69109 1.2586713E-04
81.83401 1.2550630E-04
81.97691 1.2518319E-04
82.11983 1.2487316E-04
82.26274 1.2454990E-04
82.40565 1.2418586E-04
82.54856 1.2375282E-04
82.69147 1.2322233E-04
82.83439 1.2256615E-04
82.97730 1.2175681E-04
83.12021 1.2076792E-04
83.26312 1.1957459E-04
83.40604 1.1815377E-04
83.54894 1.1648441E-04
83.69186 1.1454777E-04
83.83477 1.1232743E-04
83.97768 1.0980943E-04
84.12059 1.0698227E-04
84.26350 1.0383683E-04
84.40642 1.0036631E-04
84.54933 9.6566087E-05
84.69224 9.2433518E-05
84.83515 8.7967834E-05
84.97807 8.3169914E-05
85.12097 7.8042089E-05
85.26389 7.2588038E-05
85.40680 6.6812609E-05
85.54971 6.0721730E-05
85.69262 5.4322372E-05
85.83553 4.7622525E-05
85.97845 4.0631239E-05
86.12135 3.3358716E-05
86.26427 2.5816453E-05
86.40718 1.8017419E-05
86.55009 9.9762701E-06
86.69300 1.7095656E-06
86.83591 -6.7639603E-06
86.97883 -1.5423191E-05
87.12174 -2.4244398E-05
87.26465 -3.3201086E-05
87.40756 -4.2263851E-05
87.55048 -5.1400362E-05
87.69338 -6.0575367E-05
87.83630 -6.9750851E-05
87.97921 -7.8886267E-05
88.12212 -8.7938854E-05
88.26503 -9.6864096E-05
88.40794 -1.0561624E-04
88.55086 -1.1414898E-04
88.69377 -1.2241621E-04
88.83668 -1.3037263E-04
88.97959 -1.3797474E-04
89.12251 -1.4518159E-04
89.26541 -1.5195562E-04
89.40833 -1.5826346E-04
89.55124 -1.6407657E-04
89.69415 -1.6937201E-04
89.83706 -1.7413285E-04
89.97997 -1.7834853E-04
90.12289 -1.8201520E-04
90.26580 -1.8513558E-04
90.40871 -1.8771905E-04
90.55162 -1.8978119E-04
90.69453 -1.9134341E-04
90.83744 -1.9243224E-04
90.98035 -1.9307865E-04
91.12327 -1.9331703E-04
91.26618 -1.9318436E-04
91.40909 -1.9271900E-04
91.55200 -1.9195976E-04
91.69492 -1.9094464E-04
91.83783 -1.8970999E-04
91.98074 -1.8828927E-04
92.12365 -1.8671241E-04
92.26656 -1.8500492E-04
92.40947 -1.8318731E-04
92.55238 -1.8127463E-04
92.69530 -1.7927628E-04
92.83821 -1.7719592E-04
92.98112 -1.7503159E-04
93.12403 -1.7277608E-04
93.26694 -1.7041745E-04
93.40986 -1.6793965E-04
93.55276 -1.6532346E-04
93.69568 -1.6254728E-04
93.83859 -1.5958831E-04
93.98150 -1.5642354E-04
94.12441 -1.5303089E-04
94.26733 -1.4939031E-04
94.41024 -1.4548484E-04
94.55315 -1.4130154E-04
94.69606 -1.3683239E-04
94.83897 -1.3207493E-04
94.98188 -1.2703295E-04
95.12479 -1.2171677E-04
95.26771 -1.1614350E-04
95.41062 -1.1033705E-04
95.55353 -1.0432797E-04
95.69644 -9.8153003E-05
95.83936 -9.1854650E-05
95.98227 -8.5480395E-05
96.12518 -7.9081838E-05
96.26809 -7.2713767E-05
96.41100 -6.6433022E-05
96.55391 -6.0297421E-05
96.69682 -5.4364529E-05
96.83974 -4.8690516E-05
96.98265 -4.3328986E-05
97.12556 -3.8329905E-05
97.26847 -3.3738575E-05
97.41138 -2.9594767E-05
97.55430 -2.5931933E-05
97.69720 -2.2776634E-05
97.84012 -2.0148056E-05
97.98303 -1.8057743E-05
98.12594 -1.6509477E-05
98.26885 -1.5499334E-05
98.41177 -1.5015889E-05
98.55468 -1.5040569E-05
98.69759 -1.5548136E-05
98.84050 -1.6507291E-05
98.98341 -1.7881357E-05
99.12633 -1.9629058E-05
99.26923 -2.1705331E-05
99.41215 -2.4062172E-05
99.55506 -2.6649494E-05
99.69797 -2.9415973E-05
99.84088 -3.2309868E-05
99.98380 -3.5279794E-05
100.1267 -3.8275430E-05
100.2696 -4.1248175E-05
100.4125 -4.4151722E-05
100.5554 -4.6942547E-05
100.6984 -4.9580314E-05
100.8413 -5.2028237E-05
100.9842 -5.4253298E-05
101.1271 -5.6226454E-05
101.2700 -5.7922734E-05
101.4129 -5.9321319E-05
101.5558 -6.0405524E-05
101.6987 -6.1162762E-05
101.8416 -6.1584476E-05
101.9846 -6.1666033E-05
102.1275 -6.1406616E-05
102.2704 -6.0809067E-05
102.4133 -5.9879800E-05
102.5562 -5.8628644E-05
102.6991 -5.7068752E-05
102.8420 -5.5216467E-05
102.9849 -5.3091266E-05
103.1279 -5.0715651E-05
103.2708 -4.8115093E-05
103.4137 -4.5317949E-05
103.5566 -4.2355390E-05
103.6995 -3.9261286E-05
103.8424 -3.6072106E-05
103.9853 -3.2826727E-05
104.1282 -2.9566239E-05
104.2711 -2.6333671E-05
104.4141 -2.3173645E-05
104.5570 -2.0131967E-05
104.6999 -1.7255126E-05
104.8428 -1.4589738E-05
104.9857 -1.2181884E-05
105.1286 -1.0076384E-05
105.2715 -8.3160267E-06
105.4144 -6.9407438E-06
105.5574 -5.9867371E-06
105.7003 -5.4856259E-06
105.8432 -5.4635889E-06
105.9861 -5.9405565E-06
106.1290 -6.9294711E-06
106.2719 -8.4356316E-06
106.4148 -1.0456160E-05
106.5577 -1.2979624E-05
106.7006 -1.5985790E-05
106.8436 -1.9445577E-05
106.9865 -2.3321172E-05
107.1294 -2.7566364E-05
107.2723 -3.2127035E-05
107.4152 -3.6941852E-05
107.5581 -4.1943149E-05
107.7010 -4.7057922E-05
107.8439 -5.2208990E-05
107.9869 -5.7316283E-05
108.1298 -6.2298153E-05
108.2727 -6.7072833E-05
108.4156 -7.1559800E-05
108.5585 -7.5681208E-05
108.7014 -7.9363264E-05
108.8443 -8.2537430E-05
108.9872 -8.5141655E-05
109.1301 -8.7121349E-05
109.2731 -8.8430228E-05
109.4160 -8.9030989E-05
109.5589 -8.8895809E-05
109.7018 -8.8006615E-05
109.8447 -8.6355198E-05
109.9876 -8.3943130E-05
110.1305 -8.0781530E-05
110.2734 -7.6890698E-05
110.4164 -7.2299641E-05
110.5593 -6.7045476E-05
110.7022 -6.1172861E-05
110.8451 -5.4733293E-05
110.9880 -4.7784466E-05
111.1309 -4.0389656E-05
111.2738 -3.2617096E-05
111.4167 -2.4539433E-05
111.5596 -1.6233220E-05
111.7026 -7.7784625E-06
111.8455 7.4177626E-07
111.9884 9.2417486E-06
112.1313 1.7633374E-05
112.2742 2.5826590E-05
112.4171 3.3729728E-05
112.5600 4.1249939E-05
112.7029 4.8293681E-05
112.8458 5.4767308E-05
112.9888 6.0577750E-05
113.1317 6.5633343E-05
113.2746 6.9844762E-05
113.4175 7.3126103E-05
113.5604 7.5396070E-05
113.7033 7.6579323E-05
113.8462 7.6607859E-05
113.9891 7.5422540E-05
114.1321 7.2974595E-05
114.2750 6.9227164E-05
114.4179 6.4156826E-05
114.5608 5.7755009E-05
114.7037 5.0029317E-05
114.8466 4.1004681E-05
114.9895 3.0724306E-05
115.1324 1.9250354E-05
115.2754 6.6643756E-06
115.4183 -6.9325920E-06
115.5612 -2.1420292E-05
115.7041 -3.6659814E-05
115.8470 -5.2494583E-05
115.9899 -6.8751709E-05
116.1328 -8.5243671E-05
116.2757 -1.0177038E-04
116.4186 -1.1812153E-04
116.5616 -1.3407934E-04
116.7045 -1.4942136E-04
116.8474 -1.6392372E-04
116.9903 -1.7736426E-04
117.1332 -1.8952601E-04
117.2761 -2.0020052E-04
117.4190 -2.0919125E-04
117.5619 -2.1631675E-04
117.7048 -2.2141384E-04
117.8478 -2.2434031E-04
117.9907 -2.2497753E-04
118.1336 -2.2323258E-04
118.2765 -2.1903995E-04
118.4194 -2.1236288E-04
118.5623 -2.0319399E-04
118.7052 -1.9155568E-04
118.8481 -1.7749962E-04
118.9911 -1.6110603E-04
119.1340 -1.4248207E-04
119.2769 -1.2176003E-04
119.4198 -9.9094759E-05
119.5627 -7.4660769E-05
119.7056 -4.8648886E-05
119.8485 -2.1262636E-05
119.9914 7.2856701E-06
120.1343 3.6778903E-05
120.2773 6.6999266E-05
120.4202 9.7732285E-05
120.5631 1.2877067E-04
120.7060 1.5991791E-04
120.8489 1.9099156E-04
120.9918 2.2182599E-04
121.1347 2.5227474E-04
121.2776 2.8221222E-04
121.4206 3.1153471E-04
121.5635 3.4016103E-04
121.7064 3.6803231E-04
121.8493 3.9511116E-04
121.9922 4.2138048E-04
122.1351 4.4684141E-04
122.2780 4.7151116E-04
122.4209 4.9542030E-04
122.5639 5.1860989E-04
122.7068 5.4112822E-04
122.8497 5.6302763E-04
122.9926 5.8436173E-04
123.1355 6.0518208E-04
123.2784 6.2553567E-04
123.4213 6.4546248E-04
123.5642 6.6499348E-04
123.7071 6.8414921E-04
123.8501 7.0293876E-04
123.9930 7.2135916E-04
124.1359 7.3939550E-04
124.2788 7.5702119E-04
124.4217 7.7419920E-04
124.5646 7.9088309E-04
124.7075 8.0701866E-04
124.8504 8.2254596E-04
124.9933 8.3740137E-04
125.1363 8.5151935E-04
125.2792 8.6483487E-04
125.4221 8.7728543E-04
125.5650 8.8881253E-04
125.7079 8.9936372E-04
125.8508 9.0889371E-04
125.9937 9.1736560E-04
126.1366 9.2475140E-04
126.2795 9.3103270E-04
126.4225 9.3620055E-04
126.5654 9.4025576E-04
126.7083 9.4320823E-04
126.8512 9.4507675E-04
126.9941 9.4588834E-04
127.1370 9.4567769E-04
127.2799 9.4448705E-04
127.4228 9.4236556E-04
127.5658 9.3936920E-04
127.7087 9.3556085E-04
127.8516 9.3101052E-04
127.9945 9.2579599E-04
128.1374 9.2000305E-04
128.2803 9.1372646E-04
128.4232 9.0707088E-04
128.5661 9.0015156E-04
128.7090 8.9309522E-04
128.8520 8.8604033E-04
128.9949 8.7913749E-04
129.1378 8.7254943E-04
129.2807 8.6645049E-04
129.4236 8.6102536E-04
129.5665 8.5646810E-04
129.7094 8.5297908E-04
129.8523 8.5076317E-04
129.9953 8.5002556E-04
130.1382 8.5096894E-04
130.2811 8.5378805E-04
130.4240 8.5866585E-04
130.5669 8.6576806E-04
130.7098 8.7523833E-04
130.8527 8.8719284E-04
130.9956 9.0171566E-04
131.1385 9.1885385E-04
131.2815 9.3861355E-04
131.4244 9.6095633E-04
131.5673 9.8579680E-04
131.7102 1.0130004E-03
131.8531 1.0423835E-03
131.9960 1.0737128E-03
132.1389 1.1067080E-03
132.2818 1.1410431E-03
132.4248 1.1763520E-03
132.5677 1.2122317E-03
132.7106 1.2482493E-03
132.8535 1.2839484E-03
132.9964 1.3188566E-03
133.1393 1.3524933E-03
133.2822 1.3843783E-03
133.4251 1.4140403E-03
133.5681 1.4410260E-03
133.7110 1.4649072E-03
133.8539 1.4852902E-03
133.9968 1.5018225E-03
134.1397 1.5141998E-03
134.2826 1.5221714E-03
134.4255 1.5255468E-03
134.5684 1.5241973E-03
134.7113 1.5180614E-03
134.8542 1.5071448E-03
134.9972 1.4915216E-03
135.1401 1.4713341E-03
135.2830 1.4467915E-03
135.4259 1.4181660E-03
135.5688 1.3857908E-03
135.7117 1.3500544E-03
135.8546 1.3113960E-03
135.9975 1.2702988E-03
136.1405 1.2272833E-03
136.2834 1.1828996E-03
136.4263 1.1377201E-03
136.5692 1.0923303E-03
136.7121 1.0473197E-03
136.8550 1.0032739E-03
136.9979 9.6076378E-04
137.1408 9.2033716E-04
137.2838 8.8250899E-04
137.4267 8.4775221E-04
137.5696 8.1648870E-04
137.7125 7.8908051E-04
137.8554 7.6582201E-04
137.9983 7.4693176E-04
138.1412 7.3254597E-04
138.2841 7.2271243E-04
138.4270 7.1738526E-04
138.5700 7.1642100E-04
138.7129 7.1957568E-04
138.8558 7.2650349E-04
138.9987 7.3675660E-04
139.1416 7.4978650E-04
139.2845 7.6494721E-04
139.4274 7.8149978E-04
139.5703 7.9861830E-04
139.7133 8.1539835E-04
139.8562 8.3086605E-04
139.9991 8.4398914E-04
140.1420 8.5368974E-04
140.2849 8.5885776E-04
140.4278 8.5836614E-04
140.5707 8.5108634E-04
140.7136 8.3590503E-04
140.8566 8.1174105E-04
140.9995 7.7756279E-04
141.1424 7.3240488E-04
141.2853 6.7538524E-04
141.4282 6.0572097E-04
141.5711 5.2274368E-04
141.7140 4.2591320E-04
141.8569 3.1483042E-04
141.9998 1.8924795E-04
142.1427 4.9079332E-05
142.2857 -1.0559434E-04
142.4286 -2.7451885E-04
142.5715 -4.5726486E-04
142.7144 -6.5322703E-04
142.8573 -8.6162623E-04
143.0002 -1.0815136E-03
143.1431 -1.3117766E-03
143.2860 -1.5511478E-03
143.4290 -1.7982144E-03
143.5719 -2.0514317E-03
143.7148 -2.3091347E-03
143.8577 -2.5695553E-03
144.0006 -2.8308374E-03
144.1435 -3.0910533E-03
144.2864 -3.3482241E-03
144.4293 -3.6003347E-03
144.5723 -3.8453564E-03
144.7152 -4.0812623E-03
144.8581 -4.3060491E-03
145.0010 -4.5177536E-03
145.1439 -4.7144727E-03
145.2868 -4.8943791E-03
145.4297 -5.0557400E-03
145.5726 -5.1969336E-03
145.7155 -5.3164628E-03
145.8585 -5.4129707E-03
146.0014 -5.4852534E-03
146.1443 -5.5322722E-03
146.2872 -5.5531631E-03
146.4301 -5.5472492E-03
146.5730 -5.5140434E-03
146.7159 -5.4532592E-03
146.8588 -5.3648129E-03
147.0018 -5.2488279E-03
147.1447 -5.1056328E-03
147.2876 -4.9357647E-03
147.4305 -4.7399653E-03
147.5734 -4.5191753E-03
147.7163 -4.2745303E-03
147.8592 -4.0073511E-03
148.0021 -3.7191371E-03
148.1451 -3.4115508E-03
148.2880 -3.0864098E-03
148.4309 -2.7456684E-03
148.5738 -2.3914054E-03
148.7167 -2.0258045E-03
148.8596 -1.6511392E-03
149.0025 -1.2697523E-03
149.1454 -8.8403764E-04
149.2883 -4.9642060E-04
149.4312 -1.0933782E-04
149.5742 2.7478216E-04
149.7171 6.5353879E-04
149.8600 1.0245781E-03
150.0029 1.3856114E-03
150.1458 1.7344328E-03
150.2887 2.0689359E-03
150.4316 2.3871292E-03
150.5745 2.6871504E-03
150.7175 2.9672792E-03
150.8604 3.2259487E-03
151.0033 3.4617556E-03
151.1462 3.6734692E-03
151.2891 3.8600375E-03
151.4320 4.0205941E-03
151.5749 4.1544619E-03
151.7178 4.2611561E-03
151.8607 4.3403846E-03
152.0037 4.3920511E-03
152.1466 4.4162520E-03
152.2895 4.4132737E-03
152.4324 4.3835915E-03
152.5753 4.3278635E-03
152.7182 4.2469241E-03
152.8611 4.1417805E-03
153.0040 4.0136003E-03
153.1470 3.8637081E-03
153.2899 3.6935697E-03
153.4328 3.5047852E-03
153.5757 3.2990754E-03
153.7186 3.0782686E-03
153.8615 2.8442868E-03
154.0044 2.5991304E-03
154.1473 2.3448616E-03
154.2903 2.0835893E-03
154.4332 1.8174498E-03
154.5761 1.5485897E-03
154.7190 1.2791472E-03
154.8619 1.0112335E-03
155.0048 7.4691366E-04
155.1477 4.8818864E-04
155.2906 2.3697683E-04
155.4335 -4.9032556E-06
155.5765 -2.3574980E-04
155.7194 -4.5399289E-04
155.8623 -6.5820868E-04
156.0052 -8.4713148E-04
156.1481 -1.0196652E-03
156.2910 -1.1748908E-03
156.4339 -1.3120740E-03
156.5768 -1.4306688E-03
156.7197 -1.5303196E-03
156.8627 -1.6108607E-03
157.0056 -1.6723140E-03
157.1485 -1.7148838E-03
157.2914 -1.7389491E-03
157.4343 -1.7450552E-03
157.5772 -1.7339020E-03
157.7201 -1.7063315E-03
157.8630 -1.6633139E-03
158.0060 -1.6059318E-03
158.1489 -1.5353641E-03
158.2918 -1.4528695E-03
158.4347 -1.3597690E-03
158.5776 -1.2574289E-03
158.7205 -1.1472435E-03
158.8634 -1.0306188E-03
159.0063 -9.0895582E-04
159.1492 -7.8363589E-04
159.2922 -6.5600639E-04
159.4351 -5.2736729E-04
159.5780 -3.9895953E-04
159.7209 -2.7195376E-04
159.8638 -1.4744165E-04
160.0067 -2.6427193E-05
160.1496 9.0179499E-05
160.2925 2.0156791E-04
160.4355 3.0703112E-04
160.5784 4.0596817E-04
160.7213 4.9788592E-04
160.8642 5.8239931E-04
161.0071 6.5923011E-04
161.1500 7.2820496E-04
161.2929 7.8925205E-04
161.4358 8.4239681E-04
161.5788 8.8775641E-04
161.7217 9.2553336E-04
161.8646 9.5600804E-04
162.0075 9.7953051E-04
162.1504 9.9651096E-04
162.2933 1.0074107E-03
162.4362 1.0127306E-03
162.5791 1.0130008E-03
162.7220 1.0087695E-03
162.8650 1.0005905E-03
163.0079 9.8901289E-04
163.1508 9.7456918E-04
163.2937 9.5776404E-04
163.4366 9.3906501E-04
163.5795 9.1889239E-04
163.7224 8.9761149E-04
163.8653 8.7552518E-04
164.0083 8.5286883E-04
164.1512 8.2980614E-04
164.2941 8.0642762E-04
164.4370 7.8274985E-04
164.5799 7.5871742E-04
164.7228 7.3420675E-04
164.8657 7.0903148E-04
165.0086 6.8294996E-04
165.1515 6.5567438E-04
165.2944 6.2688050E-04
165.4374 5.9621967E-04
165.5803 5.6333124E-04
165.7232 5.2785513E-04
165.8661 4.8944587E-04
166.0090 4.4778467E-04
166.1519 4.0259265E-04
166.2948 3.5364259E-04
166.4377 3.0076940E-04
166.5807 2.4387965E-04
166.7236 1.8295913E-04
166.8665 1.1807869E-04
167.0094 4.9398077E-05
167.1523 -2.2832504E-05
167.2952 -9.8272532E-05
167.4381 -1.7649397E-04
167.5810 -2.5698583E-04
167.7240 -3.3916073E-04
167.8669 -4.2236340E-04
168.0098 -5.0588039E-04
168.1527 -5.8895152E-04
168.2956 -6.7078200E-04
168.4385 -7.5055572E-04
168.5814 -8.2744838E-04
168.7243 -9.0064161E-04
168.8672 -9.6933567E-04
169.0102 -1.0327629E-03
169.1531 -1.0902002E-03
169.2960 -1.1409791E-03
169.4389 -1.1844977E-03
169.5818 -1.2202280E-03
169.7247 -1.2477241E-03
169.8676 -1.2666276E-03
170.0105 -1.2766727E-03
170.1535 -1.2776888E-03
170.2964 -1.2696021E-03
170.4393 -1.2524350E-03
170.5822 -1.2263060E-03
170.7251 -1.1914258E-03
170.8680 -1.1480949E-03
171.0109 -1.0966979E-03
171.1538 -1.0376988E-03
171.2968 -9.7163423E-04
171.4397 -8.9910679E-04
171.5826 -8.2077802E-04
171.7255 -7.3736045E-04
171.8684 -6.4960989E-04
172.0113 -5.5831764E-04
172.1542 -4.6430240E-04
172.2971 -3.6840240E-04
172.4400 -2.7146740E-04
172.5829 -1.7435131E-04
172.7259 -7.7904246E-05
172.8688 1.7034748E-05
173.0117 1.0964485E-04
173.1546 1.9913075E-04
173.2975 2.8472958E-04
173.4404 3.6571742E-04
173.5833 4.4141628E-04
173.7262 5.1120011E-04
173.8692 5.7450117E-04
174.0121 6.3081592E-04
174.1550 6.7971041E-04