-7.200000 2.0765666E-18
-7.057088 2.0714331E-18
-6.914176 2.0614176E-18
-6.771265 2.0469138E-18
-6.628353 2.0284468E-18
-6.485441 2.0066620E-18
-6.342530 1.9823098E-18
-6.199618 1.9562199E-18
-6.056706 1.9292735E-18
-5.913795 1.9023665E-18
-5.770883 1.8763695E-18
-5.627971 1.8520855E-18
-5.485059 1.8302089E-18
-5.342147 1.8112879E-18
-5.199236 1.7956981E-18
-5.056324 1.7836235E-18
-4.913413 1.7750545E-18
-4.770501 1.7697972E-18
-4.627589 1.7674955E-18
-4.484677 1.7676618E-18
-4.341765 1.7697180E-18
-4.198854 1.7730350E-18
-4.055942 1.7769746E-18
-3.913030 1.7809219E-18
-3.770118 1.7843190E-18
-3.627207 1.7866812E-18
-3.484295 1.7876113E-18
-3.341383 1.7868059E-18
-3.198472 1.7840545E-18
-3.055560 1.7792355E-18
-2.912648 1.7723151E-18
-2.769737 1.7633406E-18
-2.626825 1.7524413E-18
-2.483913 1.7398268E-18
-2.341001 1.7257892E-18
-2.198090 1.7107012E-18
-2.055178 1.6950135E-18
-1.912266 1.6792476E-18
-1.769354 1.6639784E-18
-1.626443 1.6498129E-18
-1.483531 1.6373577E-18
-1.340619 1.6271869E-18
-1.197708 1.6197990E-18
-1.054796 1.6155799E-18
-0.9118841 1.6147692E-18
-0.7689723 1.6174334E-18
-0.6260606 1.6234549E-18
-0.4831489 1.6325285E-18
-0.3402372 1.6441808E-18
-0.1973254 1.6577956E-18
-5.4413714E-02 1.6726570E-18
8.8498011E-02 1.6879959E-18
0.2314097 1.7030430E-18
0.3743215 1.7170758E-18
0.5172332 1.7294614E-18
0.6601449 1.7396874E-18
0.8030567 1.7473808E-18
0.9459684 1.7523093E-18
1.088880 1.7543740E-18
1.231792 1.7535875E-18
1.374704 1.7500507E-18
1.517615 1.7439242E-18
1.660527 1.7354063E-18
1.803439 1.7247148E-18
1.946350 1.7120819E-18
2.089262 1.6977576E-18
2.232174 1.6820205E-18
2.375086 1.6651940E-18
2.517997 1.6476638E-18
2.660909 1.6298878E-18
2.803821 1.6124008E-18
2.946733 1.5958009E-18
3.089644 1.5807242E-18
3.232556 1.5678055E-18
3.375468 1.5576299E-18
3.518379 1.5506767E-18
3.661291 1.5472671E-18
3.804203 1.5475201E-18
3.947115 1.5513272E-18
4.090026 1.5583444E-18
4.232938 1.5680102E-18
4.375850 1.5795871E-18
4.518762 1.5922198E-18
4.661673 1.6050066E-18
4.804585 1.6170739E-18
4.947497 1.6276488E-18
5.090408 1.6361118E-18
5.233320 1.6420356E-18
5.376232 1.6451950E-18
5.519144 1.6455560E-18
5.662055 1.6432455E-18
5.804967 1.6385049E-18
5.947879 1.6316392E-18
6.090790 1.6229681E-18
6.233702 1.6127903E-18
6.376614 1.6013605E-18
6.519526 1.5888889E-18
6.662437 1.5755575E-18
6.805349 1.5615517E-18
6.948261 1.5470980E-18
7.091173 1.5325020E-18
7.234084 1.5181732E-18
7.376996 1.5046326E-18
7.519908 1.4924931E-18
7.662819 1.4824157E-18
7.805731 1.4750434E-18
7.948643 1.4709205E-18
8.091555 1.4704107E-18
8.234467 1.4736244E-18
8.377378 1.4803744E-18
8.520289 1.4901680E-18
8.663201 1.5022406E-18
8.806113 1.5156326E-18
8.949025 1.5292959E-18
9.091937 1.5422163E-18
9.234848 1.5535352E-18
9.377760 1.5626409E-18
9.520672 1.5692172E-18
9.663584 1.5732345E-18
9.806496 1.5748826E-18
9.949407 1.5744570E-18
10.09232 1.5722203E-18
10.23523 1.5682629E-18
10.37814 1.5624061E-18
10.52105 1.5541711E-18
10.66397 1.5428369E-18
10.80688 1.5275973E-18
10.94979 1.5077971E-18
11.09270 1.4832215E-18
11.23561 1.4543785E-18
11.37852 1.4227213E-18
11.52144 1.3907308E-18
11.66435 1.3618095E-18
11.80726 1.3399435E-18
11.95017 1.3291321E-18
12.09308 1.3326378E-18
12.23599 1.3521418E-18
12.37891 1.3869707E-18
12.52182 1.4335622E-18
12.66473 1.4853766E-18
12.80764 1.5334128E-18
12.95055 1.5674164E-18
13.09346 1.5777448E-18
13.23638 1.5576831E-18
13.37929 1.5058346E-18
13.52220 1.4280542E-18
13.66511 1.3383014E-18
13.80802 1.2578491E-18
13.95094 1.2124452E-18
14.09385 1.2274098E-18
14.23676 1.3211248E-18
14.37967 1.4979420E-18
14.52258 1.7420362E-18
14.66549 2.0140438E-18
14.80841 2.2522966E-18
14.95132 2.3799603E-18
15.09423 2.3184402E-18
15.23714 2.0059920E-18
15.38005 1.4188871E-18
15.52296 5.9097547E-19
15.66588 -3.7353548E-19
15.80879 -1.2993630E-18
15.95170 -1.9556982E-18
16.09461 -2.0897974E-18
16.23752 -1.4768188E-18
16.38043 2.0166818E-20
16.52335 2.3902366E-18
16.66626 5.4281217E-18
16.80917 8.7155521E-18
16.95208 1.1642989E-17
17.09499 1.3479093E-17
17.23791 1.3487077E-17
17.38082 1.1076727E-17
17.52373 5.9701666E-18
17.66664 -1.6494935E-18
17.80955 -1.1042199E-17
17.95246 -2.0901721E-17
18.09538 -2.9458128E-17
18.23829 -3.4700389E-17
18.38120 -3.4705279E-17
18.52411 -2.8033780E-17
18.66702 -1.4133251E-17
18.80993 6.3320614E-18
18.95285 3.1303823E-17
19.09576 5.7375676E-17
19.23867 8.0105090E-17
19.38158 9.4591379E-17
19.52449 9.6269437E-17
19.66740 8.1817248E-17
19.81032 5.0032301E-17
19.95323 2.5093510E-18
20.09614 -5.6044775E-17
20.23905 -1.1798801E-16
20.38196 -1.7347489E-16
20.52488 -2.1171769E-16
20.66779 -2.2265230E-16
20.81070 -1.9879049E-16
20.95361 -1.3697146E-16
21.09652 -3.9696159E-17
21.23943 8.4249669E-17
21.38235 2.2010221E-16
21.52526 3.4845008E-16
21.66817 4.4752753E-16
21.81108 4.9624362E-16
21.95399 4.7757470E-16
22.09690 3.8184264E-16
22.23981 2.0936439E-16
22.38273 -2.8004418E-17
22.52564 -3.0679875E-16
22.66855 -5.9353563E-16
22.81146 -8.4794430E-16
22.95437 -1.0275850E-15
23.09729 -1.0934004E-15
23.24020 -1.0155826E-15
23.38311 -7.7904426E-16
23.52602 -3.8776107E-16
23.66893 1.3269201E-16
23.81184 7.3495900E-16
23.95476 1.3524371E-15
24.09767 1.9046412E-15
24.24058 2.3052304E-15
24.38349 2.4722003E-15
24.52640 2.3394059E-15
24.66932 1.8682440E-15
24.81223 1.0580299E-15
24.95514 -4.6579166E-17
25.09805 -1.3527847E-15
25.24096 -2.7229130E-15
25.38387 -3.9846780E-15
25.52678 -4.9485486E-15
25.66970 -5.4312417E-15
25.81261 -5.2831452E-15
25.95552 -4.4162608E-15
26.09843 -2.8283720E-15
26.24134 -6.1874957E-16
26.38426 2.0089055E-15
26.52717 4.7593392E-15
26.67008 7.2753710E-15
26.81299 9.1824597E-15
26.95590 1.0143379E-14
27.09881 9.9154498E-15
27.24173 8.4009050E-15
27.38464 5.6805583E-15
27.52755 2.0222840E-15
27.67046 -2.1409588E-15
27.81337 -6.2640170E-15
27.95629 -9.7681364E-15
28.09920 -1.2134414E-14
28.24211 -1.2996876E-14
28.38502 -1.2217845E-14
28.52793 -9.9292006E-15
28.67084 -6.5275184E-15
28.81376 -2.6184042E-15
28.95667 1.0853347E-15
29.09958 3.8972968E-15
29.24249 5.3002761E-15
29.38540 5.0708051E-15
29.52831 3.3580088E-15
29.67122 6.9479074E-16
29.81414 -2.0700227E-15
29.95705 -3.9157054E-15
30.09996 -3.8513313E-15
30.24287 -1.1427611E-15
30.38578 4.4768889E-15
30.52870 1.2657443E-14
30.67161 2.2380811E-14
30.81452 3.2033319E-14
30.95743 3.9605262E-14
31.10034 4.2998184E-14
31.24325 4.0398145E-14
31.38617 3.0656071E-14
31.52908 1.3608133E-14
31.67199 -9.7276101E-15
31.81490 -3.7127385E-14
31.95781 -6.5334863E-14
32.10072 -9.0424846E-14
32.24364 -1.0831820E-13
32.38655 -1.1538138E-13
32.52946 -1.0902452E-13
32.67237 -8.8206372E-14
32.81528 -5.3761879E-14
32.95819 -8.4903169E-15
33.10111 4.3027464E-14
33.24402 9.4876242E-14
33.38693 1.4047532E-13
33.52984 1.7339400E-13
33.67275 1.8821670E-13
33.81567 1.8135011E-13
33.95858 1.5166826E-13
34.10149 1.0090455E-13
34.24440 3.3725840E-14
34.38731 -4.2547058E-14
34.53022 -1.1857176E-13
34.67313 -1.8393316E-13
34.81605 -2.2833601E-13
34.95896 -2.4293645E-13
35.10187 -2.2167875E-13
35.24478 -1.6248418E-13
35.38770 -6.8129977E-14
35.53061 5.3337892E-14
35.67352 1.8878730E-13
35.81643 3.2085985E-13
35.95934 4.2952141E-13
36.10225 4.9422749E-13
36.24516 4.9653304E-13
36.38808 4.2288159E-13
36.53099 2.6723445E-13
36.67390 3.3162736E-14
36.81681 -2.6496874E-13
36.95972 -6.0202467E-13
37.10263 -9.4351241E-13
37.24555 -1.2483907E-12
37.38846 -1.4730940E-12
37.53137 -1.5763901E-12
37.67428 -1.5245407E-12
37.81719 -1.2961286E-12
37.96011 -8.8591303E-13
38.10302 -3.0715423E-13
38.24593 4.0797647E-13
38.38884 1.2100500E-12
38.53175 2.0359717E-12
38.67466 2.8141367E-12
38.81758 3.4705665E-12
38.96049 3.9353382E-12
39.10340 4.1486072E-12
39.24631 4.0656389E-12
39.38922 3.6604461E-12
39.53214 2.9278685E-12
39.67505 1.8841784E-12
39.81796 5.6646143E-13
39.96087 -9.6885661E-13
40.10378 -2.6479975E-12
40.24669 -4.3820949E-12
40.38961 -6.0696955E-12
40.53252 -7.5996640E-12
40.67543 -8.8548448E-12
40.81834 -9.7169026E-12
40.96125 -1.0072732E-11
41.10416 -9.8225941E-12
41.24707 -8.8898151E-12
41.38999 -7.2314472E-12
41.53290 -4.8488431E-12
41.67581 -1.7967562E-12
41.81872 1.8106323E-12
41.96163 5.7982967E-12
42.10455 9.9348073E-12
42.24746 1.3943287E-11
42.39037 1.7518795E-11
42.53328 2.0351209E-11
42.67619 2.2151758E-11
42.81910 2.2680810E-11
42.96202 2.1773930E-11
43.10493 1.9363270E-11
43.24784 1.5491594E-11
43.39075 1.0316876E-11
43.53366 4.1063797E-12
43.67657 -2.7797998E-12
43.81948 -9.9145856E-12
43.96240 -1.6836955E-11
44.10531 -2.3089156E-11
44.24822 -2.8254529E-11
44.39113 -3.1992277E-11
44.53405 -3.4065670E-11
44.67696 -3.4360841E-11
44.81987 -3.2894118E-11
44.96278 -2.9807084E-11
45.10569 -2.5349530E-11
45.24860 -1.9851972E-11
45.39151 -1.3690267E-11
45.53443 -7.2459838E-12
45.67734 -8.6669663E-13
45.82025 5.1693380E-12
45.96316 1.0679847E-11
46.10608 1.5592940E-11
46.24899 1.9946761E-11
46.39190 2.3873422E-11
46.53481 2.7568033E-11
46.67772 3.1245541E-11
46.82063 3.5089893E-11
46.96354 3.9201503E-11
47.10646 4.3549851E-11
47.24937 4.7938296E-11
47.39228 5.1987303E-11
47.53519 5.5140999E-11
47.67810 5.6699399E-11
47.82101 5.5876078E-11
47.96392 5.1877863E-11
48.10684 4.4000220E-11
48.24975 3.1729671E-11
48.39266 1.4842835E-11
48.53557 -6.5089418E-12
48.67849 -3.1739819E-11
48.82140 -5.9803586E-11
48.96431 -8.9208051E-11
49.10722 -1.1807291E-10
49.25013 -1.4423070E-10
49.39304 -1.6536648E-10
49.53595 -1.7918866E-10
49.67887 -1.8361992E-10
49.82178 -1.7699468E-10
49.96469 -1.5824811E-10
50.10760 -1.2708049E-10
50.25051 -8.4080888E-11
50.39342 -3.0795758E-11
50.53634 3.0270217E-11
50.67925 9.5729272E-11
50.82216 1.6146562E-10
50.96507 2.2286802E-10
51.10798 2.7513064E-10
51.25090 3.1360603E-10
51.39381 3.3418673E-10
51.53672 3.3368669E-10
51.67963 3.1018921E-10
51.82254 2.6332753E-10
51.96545 1.9446567E-10
52.10837 1.0675322E-10
52.25128 5.0367119E-12
52.39419 -1.0437798E-10
52.53710 -2.1410362E-10
52.68001 -3.1616787E-10
52.82293 -4.0259179E-10
52.96584 -4.6600535E-10
53.10875 -5.0024762E-10
53.25166 -5.0089871E-10
53.39457 -4.6569482E-10
53.53748 -3.9478729E-10
53.68040 -2.9082006E-10
53.82331 -1.5881663E-10
53.96622 -5.8847757E-12
54.10913 1.5923533E-10
54.25204 3.2674177E-10
54.39495 4.8641124E-10
54.53786 6.2825761E-10
54.68078 7.4315637E-10
54.82369 8.2339102E-10
54.96660 8.6308555E-10
55.10951 8.5850199E-10
55.25242 8.0819568E-10
55.39534 7.1303236E-10
55.53825 5.7608573E-10
55.68116 4.0243908E-10
55.82407 1.9891915E-10
55.96698 -2.6208983E-11
56.10989 -2.6356275E-10
56.25281 -5.0296217E-10
56.39572 -7.3374046E-10
56.53863 -9.4504726E-10
56.68154 -1.1261521E-09
56.82445 -1.2667623E-09
56.96737 -1.3573724E-09
57.11028 -1.3896551E-09
57.25319 -1.3569028E-09
57.39610 -1.2545153E-09
57.53901 -1.0805167E-09
57.68192 -8.3607266E-10
57.82484 -5.2596311E-10
57.96775 -1.5895993E-10
58.11066 2.5195215E-10
58.25357 6.8956857E-10
58.39648 1.1327271E-09
58.53939 1.5568781E-09
58.68230 1.9349855E-09
58.82522 2.2387552E-09
58.96813 2.4401623E-09
59.11104 2.5132199E-09
59.25395 2.4358997E-09
59.39687 2.1920994E-09
59.53978 1.7735178E-09
59.68269 1.1812971E-09
59.82560 4.2726972E-10
59.96851 -4.6533802E-10
60.11142 -1.4618978E-09
60.25433 -2.5171885E-09
60.39725 -3.5771264E-09
60.54016 -4.5814676E-09
60.68307 -5.4674931E-09
60.82598 -6.1746213E-09
60.96889 -6.6498140E-09
61.11180 -6.8535786E-09
61.25471 -6.7662764E-09
61.39763 -6.3943797E-09
61.54054 -5.7762515E-09
61.68345 -4.9869686E-09
61.82636 -4.1417088E-09
61.96928 -3.3972072E-09
62.11219 -2.9508529E-09
62.25510 -3.0370804E-09
62.39801 -3.9208574E-09
62.54092 -5.8881735E-09
62.68383 -9.2337000E-09
62.82674 -1.4245932E-08
62.96966 -2.1190345E-08
63.11257 -3.0291282E-08
63.25548 -4.1713470E-08
63.39839 -5.5544135E-08
63.54131 -7.1776853E-08
63.68422 -9.0298172E-08
63.82713 -1.1087814E-07
63.97004 -1.3316561E-07
64.11295 -1.5668927E-07
64.25586 -1.8086489E-07
64.39877 -2.0500926E-07
64.54169 -2.2836092E-07
64.68460 -2.5010735E-07
64.82751 -2.6941811E-07
64.97042 -2.8548322E-07
65.11333 -2.9755498E-07
65.25625 -3.0499251E-07
65.39915 -3.0730587E-07
65.54207 -3.0419858E-07
65.68498 -2.9560516E-07
65.82789 -2.8172124E-07
65.97080 -2.6302337E-07
66.11372 -2.4027506E-07
66.25663 -2.1451646E-07
66.39954 -1.8703477E-07
66.54245 -1.5931241E-07
66.68536 -1.3295161E-07
66.82828 -1.0957280E-07
66.97118 -9.0687017E-08
67.11410 -7.7541529E-08
67.25701 -7.0940011E-08
67.39992 -7.1038990E-08
67.54283 -7.7124277E-08
67.68575 -8.7370864E-08
67.82866 -9.8592388E-08
67.97157 -1.0598635E-07
68.11448 -1.0288259E-07
68.25739 -8.0503710E-08
68.40031 -2.7745019E-08
68.54321 6.9013723E-08
68.68613 2.2605965E-07
68.82904 4.6244799E-07
68.97195 8.0004628E-07
69.11486 1.2635153E-06
69.25777 1.8802161E-06
69.40069 2.6800428E-06
69.54359 3.6951735E-06
69.68651 4.9597434E-06
69.82942 6.5094350E-06
69.97233 8.3809937E-06
70.11524 1.0611676E-05
70.25816 1.3238630E-05
70.40107 1.6298231E-05
70.54398 1.9825373E-05
70.68689 2.3852748E-05
70.82980 2.8410106E-05
70.97272 3.3523538E-05
71.11562 3.9214774E-05
71.25854 4.5500557E-05
71.40145 5.2392046E-05
71.54436 5.9894341E-05
71.68727 6.8006069E-05
71.83018 7.6719138E-05
71.97310 8.6018532E-05
72.11600 9.5882337E-05
72.25892 1.0628183E-04
72.40183 1.1718177E-04
72.54475 1.2854073E-04
72.68765 1.4031168E-04
72.83057 1.5244262E-04
72.97348 1.6487735E-04
73.11639 1.7755624E-04
73.25930 1.9041730E-04
73.40221 2.0339704E-04
73.54513 2.1643149E-04
73.68803 2.2945726E-04
73.83095 2.4241245E-04
73.97386 2.5523765E-04
74.11678 2.6787681E-04
74.25968 2.8027792E-04
74.40260 2.9239382E-04
74.54551 3.0418264E-04
74.68842 3.1560828E-04
74.83133 3.2664058E-04
74.97424 3.3725551E-04
75.11716 3.4743513E-04
75.26006 3.5716742E-04
75.40298 3.6644595E-04
75.54589 3.7526965E-04
75.68880 3.8364204E-04
75.83171 3.9157091E-04
75.97462 3.9906762E-04
76.11754 4.0614637E-04
76.26044 4.1282372E-04
76.40336 4.1911774E-04
76.54627 4.2504759E-04
76.68919 4.3063279E-04
76.83209 4.3589290E-04
76.97501 4.4084695E-04
77.11792 4.4551323E-04
77.26083 4.4990890E-04
77.40374 4.5404999E-04
77.54665 4.5795116E-04
77.68957 4.6162592E-04
77.83247 4.6508646E-04
77.97539 4.6834396E-04
78.11830 4.7140865E-04
78.26122 4.7429011E-04
78.40412 4.7699726E-04
78.54704 4.7953881E-04
78.68995 4.8192320E-04
78.83286 4.8415884E-04
78.97577 4.8625417E-04
79.11868 4.8821772E-04
79.26160 4.9005792E-04
79.40450 4.9178320E-04
79.54742 4.9340178E-04
79.69033 4.9492135E-04
79.83324 4.9634895E-04
79.97615 4.9769075E-04
80.11906 4.9895153E-04
80.26198 5.0013466E-04
80.40488 5.0124171E-04
80.54780 5.0227199E-04
80.69071 5.0322281E-04
80.83363 5.0408882E-04
80.97653 5.0486234E-04
81.11945 5.0553307E-04
81.26236 5.0608820E-04
81.40527 5.0651253E-04
81.54818 5.0678884E-04
81.69109 5.0689804E-04
81.83401 5.0681928E-04
81.97691 5.0653081E-04
82.11983 5.0600991E-04
82.26274 5.0523359E-04
82.40565 5.0417887E-04
82.54856 5.0282339E-04
82.69147 5.0114549E-04
82.83439 4.9912476E-04
82.97730 4.9674232E-04
83.12021 4.9398059E-04
83.26312 4.9082411E-04
83.40604 4.8725886E-04
83.54894 4.8327260E-04
83.69186 4.7885446E-04
83.83477 4.7399505E-04
83.97768 4.6868584E-04
84.12059 4.6291907E-04
84.26350 4.5668721E-04
84.40642 4.4998273E-04
84.54933 4.4279784E-04
84.69224 4.3512409E-04
84.83515 4.2695220E-04
84.97807 4.1827193E-04
85.12097 4.0907215E-04
85.26389 3.9934073E-04
85.40680 3.8906510E-04
85.54971 3.7823216E-04
85.69262 3.6682925E-04
85.83553 3.5484426E-04
85.97845 3.4226672E-04
86.12135 3.2908830E-04
86.26427 3.1530377E-04
86.40718 3.0091178E-04
86.55009 2.8591574E-04
86.69300 2.7032456E-04
86.83591 2.5415342E-04
86.97883 2.3742442E-04
87.12174 2.2016688E-04
87.26465 2.0241787E-04
87.40756 1.8422215E-04
87.55048 1.6563214E-04
87.69338 1.4670765E-04
87.83630 1.2751533E-04
87.97921 1.0812803E-04
88.12212 8.8623769E-05
88.26503 6.9084854E-05
88.40794 4.9596543E-05
88.55086 3.0245810E-05
88.69377 1.1119944E-05
88.83668 -7.6947963E-06
88.97959 -2.6114601E-05
89.12251 -4.4059452E-05
89.26541 -6.1454273E-05
89.40833 -7.8230114E-05
89.55124 -9.4325056E-05
89.69415 -1.0968497E-04
89.83706 -1.2426407E-04
89.97997 -1.3802528E-04
90.12289 -1.5094032E-04
90.26580 -1.6298961E-04
90.40871 -1.7416201E-04
90.55162 -1.8445424E-04
90.69453 -1.9387034E-04
90.83744 -2.0242071E-04
90.98035 -2.1012138E-04
91.12327 -2.1699285E-04
91.26618 -2.2305921E-04
91.40909 -2.2834708E-04
91.55200 -2.3288459E-04
91.69492 -2.3670054E-04
91.83783 -2.3982351E-04
91.98074 -2.4228124E-04
92.12365 -2.4410000E-04
92.26656 -2.4530423E-04
92.40947 -2.4591628E-04
92.55238 -2.4595630E-04
92.69530 -2.4544221E-04
92.83821 -2.4438999E-04
92.98112 -2.4281381E-04
93.12403 -2.4072648E-04
93.26694 -2.3813982E-04
93.40986 -2.3506505E-04
93.55276 -2.3151330E-04
93.69568 -2.2749603E-04
93.83859 -2.2302530E-04
93.98150 -2.1811418E-04
94.12441 -2.1277690E-04
94.26733 -2.0702899E-04
94.41024 -2.0088736E-04
94.55315 -1.9437016E-04
94.69606 -1.8749677E-04
94.83897 -1.8028734E-04
94.98188 -1.7276275E-04
95.12479 -1.6494414E-04
95.26771 -1.5685256E-04
95.41062 -1.4850874E-04
95.55353 -1.3993270E-04
95.69644 -1.3114348E-04
95.83936 -1.2215904E-04
95.98227 -1.1299610E-04
96.12518 -1.0367022E-04
96.26809 -9.4195857E-05
96.41100 -8.4586689E-05
96.55391 -7.4855940E-05
96.69682 -6.5016779E-05
96.83974 -5.5082925E-05
96.98265 -4.5069140E-05
97.12556 -3.4991870E-05
97.26847 -2.4869792E-05
97.41138 -1.4724370E-05
97.55430 -4.5802858E-06
97.69720 5.5341952E-06
97.84012 1.5587022E-05
97.98303 2.5542307E-05
98.12594 3.5360434E-05
98.26885 4.4998360E-05
98.41177 5.4410066E-05
98.55468 6.3547202E-05
98.69759 7.2359850E-05
98.84050 8.0797450E-05
98.98341 8.8809786E-05
99.12633 9.6348012E-05
99.26923 1.0336577E-04
99.41215 1.0982023E-04
99.55506 1.1567309E-04
99.69797 1.2089150E-04
99.84088 1.2544880E-04
99.98380 1.2932521E-04
100.1267 1.3250824E-04
100.2696 1.3499295E-04
100.4125 1.3678202E-04
100.5554 1.3788558E-04
100.6984 1.3832093E-04
100.8413 1.3811198E-04
100.9842 1.3728865E-04
101.1271 1.3588612E-04
101.2700 1.3394396E-04
101.4129 1.3150528E-04
101.5558 1.2861585E-04
101.6987 1.2532331E-04
101.8416 1.2167625E-04
101.9846 1.1772371E-04
102.1275 1.1351447E-04
102.2704 1.0909663E-04
102.4133 1.0451733E-04
102.5562 9.9822508E-05
102.6991 9.5056821E-05
102.8420 9.0263602E-05
102.9849 8.5484979E-05
103.1279 8.0761987E-05
103.2708 7.6134631E-05
103.4137 7.1642055E-05
103.5566 6.7322580E-05
103.6995 6.3213702E-05
103.8424 5.9352053E-05
103.9853 5.5773169E-05
104.1282 5.2511226E-05
104.2711 4.9598657E-05
104.4141 4.7065645E-05
104.5570 4.4939567E-05
104.6999 4.3244341E-05
104.8428 4.1999752E-05
104.9857 4.1220766E-05
105.1286 4.0916872E-05
105.2715 4.1091505E-05
105.4144 4.1741561E-05
105.5574 4.2857042E-05
105.7003 4.4420896E-05
105.8432 4.6409044E-05
105.9861 4.8790625E-05
106.1290 5.1528452E-05
106.2719 5.4579716E-05
106.4148 5.7896883E-05
106.5577 6.1428778E-05
106.7006 6.5121843E-05
106.8436 6.8921479E-05
106.9865 7.2773444E-05
107.1294 7.6625322E-05
107.2723 8.0427882E-05
107.4152 8.4136336E-05
107.5581 8.7711502E-05
107.7010 9.1120717E-05
107.8439 9.4338517E-05
107.9869 9.7347081E-05
108.1298 1.0013638E-04
108.2727 1.0270398E-04
108.4156 1.0505469E-04
108.5585 1.0719983E-04
108.7014 1.0915630E-04
108.8443 1.1094546E-04
108.9872 1.1259185E-04
109.1301 1.1412185E-04
109.2731 1.1556222E-04
109.4160 1.1693874E-04
109.5589 1.1827487E-04
109.7018 1.1959062E-04
109.8447 1.2090148E-04
109.9876 1.2221768E-04
110.1305 1.2354365E-04
110.2734 1.2487778E-04
110.4164 1.2621246E-04
110.5593 1.2753429E-04
110.7022 1.2882479E-04
110.8451 1.3006106E-04
110.9880 1.3121679E-04
111.1309 1.3226342E-04
111.2738 1.3317128E-04
111.4167 1.3391086E-04
111.5596 1.3445398E-04
111.7026 1.3477502E-04
111.8455 1.3485184E-04
111.9884 1.3466664E-04
112.1313 1.3420660E-04
112.2742 1.3346426E-04
112.4171 1.3243778E-04
112.5600 1.3113080E-04
112.7029 1.2955211E-04
112.8458 1.2771529E-04
112.9888 1.2563793E-04
113.1317 1.2334093E-04
113.2746 1.2084754E-04
113.4175 1.1818256E-04
113.5604 1.1537135E-04
113.7033 1.1243912E-04
113.8462 1.0941018E-04
113.9891 1.0630730E-04
114.1321 1.0315147E-04
114.2750 9.9961522E-05
114.4179 9.6754236E-05
114.5608 9.3544404E-05
114.7037 9.0345202E-05
114.8466 8.7168613E-05
114.9895 8.4025996E-05
115.1324 8.0928716E-05
115.2754 7.7888748E-05
115.4183 7.4919277E-05
115.5612 7.2035255E-05
115.7041 6.9253809E-05
115.8470 6.6594519E-05
115.9899 6.4079562E-05
116.1328 6.1733648E-05
116.2757 5.9583756E-05
116.4186 5.7658766E-05
116.5616 5.5988865E-05
116.7045 5.4604818E-05
116.8474 5.3537180E-05
116.9903 5.2815438E-05
117.1332 5.2467076E-05
117.2761 5.2516683E-05
117.4190 5.2985175E-05
117.5619 5.3889038E-05
117.7048 5.5239685E-05
117.8478 5.7043115E-05
117.9907 5.9299517E-05
118.1336 6.2003266E-05
118.2765 6.5142936E-05
118.4194 6.8701585E-05
118.5623 7.2657102E-05
118.7052 7.6982717E-05
118.8481 8.1647559E-05
118.9911 8.6617285E-05
119.1340 9.1854694E-05
119.2769 9.7320277E-05
119.4198 1.0297271E-04
119.5627 1.0876921E-04
119.7056 1.1466585E-04
119.8485 1.2061751E-04
119.9914 1.2657788E-04
120.1343 1.3249926E-04
120.2773 1.3833215E-04
120.4202 1.4402477E-04
120.5631 1.4952270E-04
120.7060 1.5476820E-04
120.8489 1.5969992E-04
120.9918 1.6425257E-04
121.1347 1.6835681E-04
121.2776 1.7193927E-04
121.4206 1.7492317E-04
121.5635 1.7722882E-04
121.7064 1.7877478E-04
121.8493 1.7947919E-04
121.9922 1.7926146E-04
122.1351 1.7804414E-04
122.2780 1.7575505E-04
122.4209 1.7232947E-04
122.5639 1.6771247E-04
122.7068 1.6186107E-04
122.8497 1.5474629E-04
122.9926 1.4635507E-04
123.1355 1.3669173E-04
123.2784 1.2577910E-04
123.4213 1.1365931E-04
123.5642 1.0039394E-04
123.7071 8.6063759E-05
123.8501 7.0767877E-05
123.9930 5.4622524E-05
124.1359 3.7759208E-05
124.2788 2.0322479E-05
124.4217 2.4673718E-06
124.5646 -1.5643413E-05
124.7075 -3.3842607E-05
124.8504 -5.1961524E-05
124.9933 -6.9833208E-05
125.1363 -8.7295404E-05
125.2792 -1.0419349E-04
125.4221 -1.2038289E-04
125.5650 -1.3573130E-04
125.7079 -1.5012032E-04
125.8508 -1.6344669E-04
125.9937 -1.7562298E-04
126.1366 -1.8657772E-04
126.2795 -1.9625529E-04
126.4225 -2.0461493E-04
126.5654 -2.1162986E-04
126.7083 -2.1728569E-04
126.8512 -2.2157900E-04
126.9941 -2.2451546E-04
127.1370 -2.2610815E-04
127.2799 -2.2637598E-04
127.4228 -2.2534218E-04
127.5658 -2.2303317E-04
127.7087 -2.1947753E-04
127.8516 -2.1470561E-04
127.9945 -2.0874933E-04
128.1374 -2.0164244E-04
128.2803 -1.9342102E-04
128.4232 -1.8412452E-04
128.5661 -1.7379697E-04
128.7090 -1.6248826E-04
128.8520 -1.5025561E-04
128.9949 -1.3716509E-04
129.1378 -1.2329294E-04
129.2807 -1.0872679E-04
129.4236 -9.3566538E-05
129.5665 -7.7924800E-05
129.7094 -6.1926847E-05
129.8523 -4.5710283E-05
129.9953 -2.9423905E-05
130.1382 -1.3226205E-05
130.2811 2.7168965E-06
130.4240 1.8234507E-05
130.5669 3.3153996E-05
130.7098 4.7304329E-05
130.8527 6.0519800E-05
130.9956 7.2643990E-05
131.1385 8.3533596E-05
131.2815 9.3062299E-05
131.4244 1.0112431E-04
131.5673 1.0763773E-04
131.7102 1.1254723E-04
131.8531 1.1582633E-04
131.9960 1.1747887E-04
132.1389 1.1753983E-04
132.2818 1.1607527E-04
132.4248 1.1318160E-04
132.5677 1.0898365E-04
132.7106 1.0363245E-04
132.8535 9.7301854E-05
132.9964 9.0184556E-05
133.1393 8.2487706E-05
133.2822 7.4427851E-05
133.4251 6.6225613E-05
133.5681 5.8100293E-05
133.7110 5.0264291E-05
133.8539 4.2917673E-05
133.9968 3.6243098E-05
134.1397 3.0401001E-05
134.2826 2.5525456E-05
134.4255 2.1720487E-05
134.5684 1.9057410E-05
134.7113 1.7572484E-05
134.8542 1.7265926E-05
134.9972 1.8101331E-05
135.1401 2.0006330E-05
135.2830 2.2873715E-05
135.4259 2.6563650E-05
135.5688 3.0906631E-05
135.7117 3.5706820E-05
135.8546 4.0746279E-05
135.9975 4.5789573E-05
136.1405 5.0588798E-05
136.2834 5.4888893E-05
136.4263 5.8433230E-05
136.5692 6.0969029E-05
136.7121 6.2253108E-05
136.8550 6.2057290E-05
136.9979 6.0173632E-05
137.1408 5.6419485E-05
137.2838 5.0642117E-05
137.4267 4.2722910E-05
137.5696 3.2581149E-05
137.7125 2.0177160E-05
137.8554 5.5152523E-06
137.9983 -1.1354388E-05
138.1412 -3.0334106E-05
138.2841 -5.1277821E-05
138.4270 -7.3990843E-05
138.5700 -9.8230194E-05
138.7129 -1.2370567E-04
138.8558 -1.5008161E-04
138.9987 -1.7697905E-04
139.1416 -2.0397897E-04
139.2845 -2.3062578E-04
139.4274 -2.5643158E-04
139.5703 -2.8088113E-04
139.7133 -3.0343706E-04
139.8562 -3.2354594E-04
139.9991 -3.4064474E-04
140.1420 -3.5416737E-04
140.2849 -3.6355210E-04
140.4278 -3.6824873E-04
140.5707 -3.6772626E-04
140.7136 -3.6148040E-04
140.8566 -3.4904128E-04
140.9995 -3.2998071E-04
141.1424 -3.0391954E-04
141.2853 -2.7053428E-04
141.4282 -2.2956365E-04
141.5711 -1.8081418E-04
141.7140 -1.2416563E-04
141.8569 -5.9575123E-05
141.9998 1.2919097E-05
142.1427 9.3194918E-05
142.2857 1.8104470E-04
142.4286 2.7617411E-04
142.5715 3.7820256E-04
142.7144 4.8666398E-04
142.8573 6.0100900E-04
143.0002 7.2060787E-04
143.1431 8.4475451E-04
143.2860 9.7267132E-04
143.4290 1.1035142E-03
143.5719 1.2363798E-03
143.7148 1.3703119E-03
143.8577 1.5043096E-03
144.0006 1.6373347E-03
144.1435 1.7683215E-03
144.2864 1.8961850E-03
144.4293 2.0198305E-03
144.5723 2.1381641E-03
144.7152 2.2501005E-03
144.8581 2.3545751E-03
145.0010 2.4505530E-03
145.1439 2.5370389E-03
145.2868 2.6130858E-03
145.4297 2.6778062E-03
145.5726 2.7303805E-03
145.7155 2.7700656E-03
145.8585 2.7962034E-03
146.0014 2.8082281E-03
146.1443 2.8056749E-03
146.2872 2.7881835E-03
146.4301 2.7555069E-03
146.5730 2.7075130E-03
146.7159 2.6441908E-03
146.8588 2.5656517E-03
147.0018 2.4721310E-03
147.1447 2.3639887E-03
147.2876 2.2417076E-03
147.4305 2.1058933E-03
147.5734 1.9572685E-03
147.7163 1.7966698E-03
147.8592 1.6250412E-03
148.0021 1.4434269E-03
148.1451 1.2529638E-03
148.2880 1.0548714E-03
148.4309 8.5044152E-04
148.5738 6.4102741E-04
148.7167 4.2803079E-04
148.8596 2.1288979E-04
149.0025 -2.9350542E-06
149.1454 -2.1797426E-04
149.2883 -4.3076367E-04
149.4312 -6.3985860E-04
149.5742 -8.4384816E-04
149.7171 -1.0413687E-03
149.8600 -1.2311175E-03
150.0029 -1.4118655E-03
150.1458 -1.5824690E-03
150.2887 -1.7418814E-03
150.4316 -1.8891626E-03
150.5745 -2.0234878E-03
150.7175 -2.1441556E-03
150.8604 -2.2505927E-03
151.0033 -2.3423606E-03
151.1462 -2.4191565E-03
151.2891 -2.4808163E-03
151.4320 -2.5273138E-03
151.5749 -2.5587594E-03
151.7178 -2.5753975E-03
151.8607 -2.5776010E-03
152.0037 -2.5658663E-03
152.1466 -2.5408063E-03
152.2895 -2.5031413E-03
152.4324 -2.4536911E-03
152.5753 -2.3933630E-03
152.7182 -2.3231423E-03
152.8611 -2.2440790E-03
153.0040 -2.1572765E-03
153.1470 -2.0638795E-03
153.2899 -1.9650583E-03
153.4328 -1.8619988E-03
153.5757 -1.7558865E-03
153.7186 -1.6478950E-03
153.8615 -1.5391719E-03
154.0044 -1.4308268E-03
154.1473 -1.3239182E-03
154.2903 -1.2194427E-03
154.4332 -1.1183234E-03
154.5761 -1.0213999E-03
154.7190 -9.2941831E-04
154.8619 -8.4302458E-04
155.0048 -7.6275546E-04
155.1477 -6.8903371E-04
155.2906 -6.2216300E-04
155.4335 -5.6232465E-04
155.5765 -5.0957571E-04
155.7194 -4.6384876E-04
155.8623 -4.2495297E-04
156.0052 -3.9257691E-04
156.1481 -3.6629281E-04
156.2910 -3.4556258E-04
156.4339 -3.2974526E-04
156.5768 -3.1810591E-04
156.7197 -3.0982643E-04
156.8627 -3.0401725E-04
157.0056 -2.9973040E-04
157.1485 -2.9597388E-04
157.2914 -2.9172702E-04
157.4343 -2.8595611E-04
157.5772 -2.7763133E-04
157.7201 -2.6574312E-04
157.8630 -2.4931939E-04
158.0060 -2.2744176E-04
158.1489 -1.9926179E-04
158.2918 -1.6401621E-04
158.4347 -1.2104100E-04
158.5776 -6.9784415E-05
158.7205 -9.8182927E-06
158.8634 5.9152517E-05
159.0063 1.3728235E-04
159.1492 2.2457904E-04
159.2922 3.2090090E-04
159.4351 4.2595490E-04
159.5780 5.3929817E-04
159.7209 6.6034123E-04
159.8638 7.8835373E-04
160.0067 9.2247175E-04
160.1496 1.0617077E-03
160.2925 1.2049618E-03
160.4355 1.3510352E-03
160.5784 1.4986448E-03
160.7213 1.6464385E-03
160.8642 1.7930124E-03
161.0071 1.9369272E-03
161.1500 2.0767271E-03
161.2929 2.2109563E-03
161.4358 2.3381761E-03
161.5788 2.4569842E-03
161.7217 2.5660286E-03
161.8646 2.6640240E-03
162.0075 2.7497669E-03
162.1504 2.8221474E-03
162.2933 2.8801633E-03
162.4362 2.9229280E-03
162.5791 2.9496830E-03
162.7220 2.9598030E-03
162.8650 2.9528034E-03
163.0079 2.9283459E-03
163.1508 2.8862404E-03
163.2937 2.8264495E-03
163.4366 2.7490866E-03
163.5795 2.6544177E-03
163.7224 2.5428589E-03
163.8653 2.4149737E-03
164.0083 2.2714685E-03
164.1512 2.1131879E-03
164.2941 1.9411088E-03
164.4370 1.7563327E-03
164.5799 1.5600770E-03
164.7228 1.3536665E-03
164.8657 1.1385226E-03
165.0086 9.1615214E-04
165.1515 6.8813510E-04
165.2944 4.5611159E-04
165.4374 2.2176783E-04
165.5803 -1.3178632E-05
165.7232 -2.4699428E-04
165.8661 -4.7794584E-04
166.0090 -7.0431642E-04
166.1519 -9.2442287E-04
166.2948 -1.1366323E-03
166.4377 -1.3393791E-03
166.5807 -1.5311821E-03
166.7236 -1.7106601E-03
166.8665 -1.8765479E-03
167.0094 -2.0277100E-03
167.1523 -2.1631543E-03
167.2952 -2.2820437E-03
167.4381 -2.3837045E-03
167.5810 -2.4676365E-03
167.7240 -2.5335161E-03
167.8669 -2.5812013E-03
168.0098 -2.6107307E-03
168.1527 -2.6223222E-03
168.2956 -2.6163689E-03
168.4385 -2.5934309E-03
168.5814 -2.5542262E-03
168.7243 -2.4996193E-03
168.8672 -2.4306062E-03
169.0102 -2.3482994E-03
169.1531 -2.2539110E-03
169.2960 -2.1487330E-03
169.4389 -2.0341196E-03
169.5818 -1.9114661E-03
169.7247 -1.7821904E-03
169.8676 -1.6477129E-03
170.0105 -1.5094379E-03
170.1535 -1.3687364E-03
170.2964 -1.2269296E-03
170.4393 -1.0852739E-03
170.5822 -9.4494864E-04
170.7251 -8.0704474E-04
170.8680 -6.7255652E-04
171.0109 -5.4237497E-04
171.1538 -4.1728327E-04
171.2968 -2.9795500E-04
171.4397 -1.8495369E-04
171.5826 -7.8734818E-05
171.7255 2.0350983E-05
171.8684 1.1205292E-04
172.0113 1.9621382E-04
172.1542 2.7276334E-04
172.2971 3.4171008E-04
172.4400 4.0313369E-04
172.5829 4.5717621E-04
172.7259 5.0403475E-04
172.8688 5.4395315E-04
173.0117 5.7721516E-04
173.1546 6.0413772E-04
173.2975 6.2506518E-04
173.4404 6.4036431E-04
173.5833 6.5042026E-04
173.7262 6.5563299E-04
173.8692 6.5641478E-04
174.0121 6.5318792E-04
174.1550 6.4638350E-04
174.2979 6.3643971E-04
174.4408 6.2380137E-04
174.5837 6.0891832E-04
174.7266 5.9224491E-04
174.8695 5.7423819E-04
175.0125 5.5535638E-04
175.1554 5.3605641E-04
175.2983 5.1679136E-04
175.4412 4.9800682E-04
175.5841 4.8013678E-04
175.7270 4.6359911E-04