  -1.23749995         0.00000000    
  -1.07249999         0.00000000    
 -0.907500029         0.00000000    
 -0.742500007        -3.41329528E-16
 -0.577499986        -2.41405512E-15
 -0.412499994        -1.20908558E-14
 -0.247500002        -5.39610809E-14
  -8.25000033E-02    -2.14449836E-13
   8.25000033E-02    -7.54401749E-13
  0.247500002        -2.37246724E-12
  0.412499994        -6.71172276E-12
  0.577499986        -1.70115970E-11
  0.742500007        -3.81810208E-11
  0.907500029        -7.46040035E-11
   1.07249999        -1.23656266E-10
   1.23749995        -1.64881109E-10
   1.40250003        -1.49834020E-10
   1.56750000        -3.64635449E-12
   1.73249996         3.48685913E-10
   1.89750004         9.25349908E-10
   2.06250000         1.61077018E-09
   2.22749996         2.08946260E-09
   2.39249992         1.83436366E-09
   2.55749989         1.88584037E-10
   2.72250009        -3.44642870E-09
   2.88750005        -9.34327637E-09
   3.05250001        -1.71660108E-08
   3.21749997        -2.57554902E-08
   3.38249993        -3.30587540E-08
   3.54749990        -3.62540398E-08
   3.71250010        -3.20958371E-08
   3.87750006        -1.74824013E-08
   4.04250002         9.77473658E-09
   4.20749998         5.00427646E-08
   4.37249994         1.00962374E-07
   4.53749990         1.56789895E-07
   4.70249987         2.08313750E-07
   4.86749983         2.43662157E-07
   5.03249979         2.50157029E-07
   5.19750023         2.17055558E-07
   5.36250019         1.38638512E-07
   5.52750015         1.68055578E-08
   5.69250011        -1.37721997E-07
   5.85750008        -3.06222574E-07
   6.02250004        -4.64899585E-07
   6.18750000        -5.89330057E-07
   6.35249996        -6.59330112E-07
   6.51749992        -6.62952345E-07
   6.68249989        -5.98575014E-07
   6.84749985        -4.74622084E-07
   7.01249981        -3.07143978E-07
   7.17749977        -1.16049691E-07
   7.34250021         7.89665293E-08
   7.50750017         2.61842217E-07
   7.67250013         4.22261110E-07
   7.83750010         5.56202735E-07
   8.00249958         6.64977506E-07
   8.16749954         7.53006418E-07
   8.33250046         8.24747644E-07
   8.49750042         8.81342544E-07
   8.66250038         9.17756040E-07
   8.82750034         9.21364801E-07
   8.99250031         8.72916814E-07
   9.15750027         7.50401853E-07
   9.32250023         5.35570166E-07
   9.48750019         2.21786152E-07
   9.65250015        -1.79043113E-07
   9.81750011        -6.33106424E-07
   9.98250008        -1.08701408E-06
   10.1475000        -1.47644198E-06
   10.3125000        -1.73963372E-06
   10.4775000        -1.83231134E-06
   10.6424999        -1.73945125E-06
   10.8074999        -1.47983280E-06
   10.9724998        -1.10129065E-06
   11.1374998        -6.67649942E-07
   11.3024998        -2.41314581E-07
   11.4674997         1.32781551E-07
   11.6324997         4.36443315E-07
   11.7974997         6.77647733E-07
   11.9624996         8.80691346E-07
   12.1274996         1.07105575E-06
   12.2924995         1.26091788E-06
   12.4575005         1.44082833E-06
   12.6225004         1.58054661E-06
   12.7875004         1.63840377E-06
   12.9525003         1.57538580E-06
   13.1175003         1.36864048E-06
   13.2825003         1.01981095E-06
   13.4475002         5.55978829E-07
   13.6125002         2.39119711E-08
   13.7775002        -5.19562207E-07
   13.9425001        -1.01766000E-06
   14.1075001        -1.42175884E-06
   14.2725000        -1.69674081E-06
   14.4375000        -1.82413839E-06
   14.6025000        -1.80399832E-06
   14.7674999        -1.65562778E-06
   14.9324999        -1.41623946E-06
   15.0974998        -1.13588180E-06
   15.2624998        -8.67692165E-07
   15.4274998        -6.54403323E-07
   15.5924997        -5.14430440E-07
   15.7574997        -4.32500769E-07
   15.9224997        -3.59593372E-07
   16.0874996        -2.24525408E-07
   16.2525005         4.45016433E-08
   16.4174995         4.94249150E-07
   16.5825005         1.12508826E-06
   16.7474995         1.88199920E-06
   16.9125004         2.66249549E-06
   17.0774994         3.34044398E-06
   17.2425003         3.79902804E-06
   17.4074993         3.96243968E-06
   17.5725002         3.81581913E-06
   17.7374992         3.40675365E-06
   17.9025002         2.82796964E-06
   18.0674992         2.18744458E-06
   18.2325001         1.57645161E-06
   18.3974991         1.04638207E-06
   18.5625000         6.01497732E-07
   18.7275009         2.08519509E-07
   18.8924999        -1.82299544E-07
   19.0575008        -6.13698433E-07
   19.2224998        -1.10453618E-06
   19.3875008        -1.64486812E-06
   19.5524998        -2.20295988E-06
   19.7175007        -2.73951991E-06
   19.8824997        -3.22235360E-06
   20.0475006        -3.63570348E-06
   20.2124996        -3.98183465E-06
   20.3775005        -4.27607256E-06
   20.5424995        -4.53872781E-06
   20.7075005        -4.78733909E-06
   20.8724995        -5.03095634E-06
   21.0375004        -5.26613121E-06
   21.2024994        -5.47341187E-06
   21.3675003        -5.61393063E-06
   21.5324993        -5.62766900E-06
   21.6975002        -5.43666329E-06
   21.8624992        -4.95629592E-06
   22.0275002        -4.11537076E-06
   22.1924992        -2.88151000E-06
   22.3575001        -1.28443469E-06
   22.5224991         5.72029649E-07
   22.6875000         2.51658139E-06
   22.8525009         4.33776040E-06
   23.0174999         5.82696748E-06
   23.1825008         6.82597556E-06
   23.3474998         7.26471808E-06
   23.5125008         7.17692183E-06
   23.6774998         6.68721259E-06
   23.8425007         5.97204416E-06
   24.0074997         5.20512413E-06
   24.1725006         4.50341486E-06
   24.3374996         3.89018487E-06
   24.5025005         3.28695705E-06
   24.6674995         2.53776898E-06
   24.8325005         1.45947683E-06
   24.9974995        -9.60430881E-08
   25.1625004        -2.18588252E-06
   25.3274994        -4.74298349E-06
   25.4925003        -7.57654743E-06
   25.6574993        -1.04074034E-05
   25.8225002        -1.29301525E-05
   25.9874992        -1.48862873E-05
   26.1525002        -1.61291264E-05
   26.3174992        -1.66629197E-05
   26.4825001        -1.66447953E-05
   26.6474991        -1.63475634E-05
   26.8125000        -1.60916570E-05
   26.9775009        -1.61628686E-05
   27.1424999        -1.67368780E-05
   27.3075008        -1.78305017E-05
   27.4724998        -1.92931111E-05
   27.6375008        -2.08414403E-05
   27.8024998        -2.21296141E-05
   27.9675007        -2.28367462E-05
   28.1324997        -2.27497294E-05
   28.2975006        -2.18197074E-05
   28.4624996        -2.01773873E-05
   28.6275005        -1.81026371E-05
   28.7924995        -1.59552292E-05
   28.9575005        -1.40835027E-05
   29.1224995        -1.27336962E-05
   29.2875004        -1.19834331E-05
   29.4524994        -1.17178206E-05
   29.6175003        -1.16566453E-05
   29.7824993        -1.14281038E-05
   29.9475002        -1.06714169E-05
   30.1124992        -9.14128486E-06
   30.2775002        -6.78468223E-06
   30.4424992        -3.76672028E-06
   30.6075001        -4.36215828E-07
   30.7724991         2.76061951E-06
   30.9375000         5.39400889E-06
   31.1025009         7.15898523E-06
   31.2674999         7.94726384E-06
   31.4325008         7.86343935E-06
   31.5974998         7.18400861E-06
   31.7625008         6.27485633E-06
   31.9274998         5.49388506E-06
   32.0924988         5.10734662E-06
   32.2574997         5.24158304E-06
   32.4225006         5.87972318E-06
   32.5875015         6.89959325E-06
   32.7524986         8.13876159E-06
   32.9174995         9.46689488E-06
   33.0825005         1.08451486E-05
   33.2475014         1.23563605E-05
   33.4124985         1.41971241E-05
   33.5774994         1.66324080E-05
   33.7425003         1.99232236E-05
   33.9075012         2.42458154E-05
   34.0724983         2.96242415E-05
   34.2374992         3.58954276E-05
   34.4025002         4.27169398E-05
   34.5675011         4.96156281E-05
   34.7324982         5.60637927E-05
   34.8974991         6.15633471E-05
   35.0625000         6.57188284E-05
   35.2275009         6.82865939E-05
   35.3925018         6.91957466E-05
   35.5574989         6.85436098E-05
   35.7224998         6.65711050E-05
   35.8875008         6.36233599E-05
   36.0525017         6.00992353E-05
   36.2174988         5.63943941E-05
   36.3824997         5.28450801E-05
   36.5475006         4.96832981E-05
   36.7125015         4.70145969E-05
   36.8774986         4.48251158E-05
   37.0424995         4.30158907E-05
   37.2075005         4.14529277E-05
   37.3725014         4.00165081E-05
   37.5374985         3.86348656E-05
   37.7024994         3.72956711E-05
   37.8675003         3.60385711E-05
   38.0325012         3.49381698E-05
   38.1974983         3.40862534E-05
   38.3624992         3.35760596E-05
   38.5275002         3.34845863E-05
   38.6925011         3.38474456E-05
   38.8574982         3.46262968E-05
   39.0224991         3.56788114E-05
   39.1875000         3.67487119E-05
   39.3525009         3.74919946E-05
   39.5175018         3.75431664E-05
   39.6824989         3.66067652E-05
   39.8474998         3.45437802E-05
   40.0125008         3.14189529E-05
   40.1775017         2.74869581E-05
   40.3424988         2.31184822E-05
   40.5074997         1.86912494E-05
   40.6725006         1.44844189E-05
   40.8375015         1.06119442E-05
   41.0024986         7.01341060E-06
   41.1674995         3.49845118E-06
   41.3325005        -1.76529440E-07
   41.4975014        -4.22605490E-06
   41.6624985        -8.76896866E-06
   41.8274994        -1.37877496E-05
   41.9925003        -1.91155086E-05
   42.1575012        -2.44493822E-05
   42.3224983        -2.93904359E-05
   42.4874992        -3.35100558E-05
   42.6525002        -3.64371990E-05
   42.8175011        -3.79501762E-05
   42.9824982        -3.80462297E-05
   43.1474991        -3.69607842E-05
   43.3125000        -3.51201124E-05
   43.4775009        -3.30341463E-05
   43.6425018        -3.11607728E-05
   43.8074989        -2.97873321E-05
   43.9724998        -2.89706677E-05
   44.1375008        -2.85551650E-05
   44.3025017        -2.82578258E-05
   44.4674988        -2.77845738E-05
   44.6324997        -2.69336579E-05
   44.7975006        -2.56524254E-05
   44.9625015        -2.40365662E-05
   45.1274986        -2.22842045E-05
   45.2924995        -2.06302957E-05
   45.4575005        -1.92859206E-05
   45.6225014        -1.83962802E-05
   45.7874985        -1.80186089E-05
   45.9524994        -1.81144387E-05
   46.1175003        -1.85519184E-05
   46.2825012        -1.91192739E-05
   46.4474983        -1.95541033E-05
   46.6124992        -1.95904049E-05
   46.7775002        -1.90166684E-05
   46.9425011        -1.77292914E-05
   47.1074982        -1.57625964E-05
   47.2724991        -1.32828127E-05
   47.4375000        -1.05467307E-05
   47.6025009        -7.83939868E-06
   47.7675018        -5.41225836E-06
   47.9324989        -3.44016235E-06
   48.0974998        -2.00490376E-06
   48.2625008        -1.10065594E-06
   48.4275017        -6.49920821E-07
   48.5924988        -5.19760476E-07
   48.7574997        -5.35268043E-07
   48.9225006        -4.94404787E-07
   49.0875015        -1.90284666E-07
   49.2524986         5.57622059E-07
   49.4174995         1.86992236E-06
   49.5825005         3.78335130E-06
   49.7475014         6.24699351E-06
   49.9124985         9.14079737E-06
   50.0774994         1.23077125E-05
   50.2425003         1.55841317E-05
   50.4075012         1.88152626E-05
   50.5724983         2.18517162E-05
   50.7374992         2.45356987E-05
   50.9025002         2.66922580E-05
   51.0675011         2.81390567E-05
   51.2324982         2.87175135E-05
   51.3974991         2.83352601E-05
   51.5625000         2.70017354E-05
   51.7275009         2.48401993E-05
   51.8925018         2.20696420E-05
   52.0574989         1.89629518E-05
   52.2224998         1.57966169E-05
   52.3875008         1.28073179E-05
   52.5525017         1.01635733E-05
   52.7174988         7.95128744E-06
   52.8824997         6.16685065E-06
   53.0475006         4.71374960E-06
   53.2125015         3.40601605E-06
   53.3774986         1.98835687E-06
   53.5424995         1.82149975E-07
   53.7075005        -2.24332712E-06
   53.8725014        -5.39009534E-06
   54.0374985        -9.16865611E-06
   54.2024994        -1.32815148E-05
   54.3675003        -1.72683995E-05
   54.5325012        -2.06058994E-05
   54.6974983        -2.28320787E-05
   54.8624992        -2.36553387E-05
   55.0275002        -2.30121150E-05
   55.1925011        -2.10577218E-05
   55.3574982        -1.80997959E-05
   55.5224991        -1.45031936E-05
   55.6875000        -1.06011166E-05
   55.8525009        -6.63861283E-06
   56.0175018        -2.75760362E-06
   56.1824989         9.84136932E-07
   56.3474998         4.57661781E-06
   56.5125008         8.01993792E-06
   56.6775017         1.12946800E-05
   56.8424988         1.43429679E-05
   57.0074997         1.70601506E-05
   57.1725006         1.92988045E-05
   57.3375015         2.08890906E-05
   57.5024986         2.16778371E-05
   57.6674995         2.15813798E-05
   57.8325005         2.06368186E-05
   57.9975014         1.90295141E-05
   58.1624985         1.70773783E-05
   58.3274994         1.51664317E-05
   58.4925003         1.36528879E-05
   58.6575012         1.27646990E-05
   58.8224983         1.25408178E-05
   58.9874992         1.28346373E-05
   59.1525002         1.33829817E-05
   59.3175011         1.39142030E-05
   59.4824982         1.42512936E-05
   59.6474991         1.43670641E-05
   59.8125000         1.43685811E-05
   59.9775009         1.44185615E-05
   60.1425018         1.46285793E-05
   60.3074989         1.49709394E-05
   60.4724998         1.52479861E-05
   60.6375008         1.51335580E-05
   60.8025017         1.42722820E-05
   60.9674988         1.24004928E-05
   61.1324997         9.44603653E-06
   61.2975006         5.57396970E-06
   61.4625015         1.16544254E-06
   61.6274986        -3.26115446E-06
   61.7924995        -7.16223258E-06
   61.9575005        -1.00841098E-05
   62.1225014        -1.17544778E-05
   62.2874985        -1.21321063E-05
   62.4524994        -1.14067107E-05
   62.6175003        -9.95020582E-06
   62.7825012        -8.22885249E-06
   62.9474983        -6.69350220E-06
   63.1124992        -5.67153529E-06
   63.2775002        -5.28705687E-06
   63.4425011        -5.43260876E-06
   63.6074982        -5.80449750E-06
   63.7724991        -5.99647865E-06
   63.9375000        -5.62783862E-06
   64.1025009        -4.46871445E-06
   64.2675018        -2.52349878E-06
   64.4325027        -4.45218191E-08
   64.5975037         2.53016378E-06
   64.7624969         4.69637735E-06
   64.9274979         6.02344153E-06
   65.0924988         6.27029385E-06
   65.2574997         5.44312843E-06
   65.4225006         3.77965239E-06
   65.5875015         1.66919597E-06
   65.7525024        -4.62421838E-07
   65.9175034        -2.26554016E-06
   66.0824966        -3.54336134E-06
   66.2474976        -4.27395798E-06
   66.4124985        -4.57797341E-06
   66.5774994        -4.64918912E-06
   66.7425003        -4.67443078E-06
   66.9075012        -4.76922696E-06
   67.0725021        -4.94755795E-06
   67.2375031        -5.13160921E-06
   67.4024963        -5.19491550E-06
   67.5674973        -5.02300691E-06
   67.7324982        -4.57133228E-06
   67.8974991        -3.90111927E-06
   68.0625000        -3.17935815E-06
   68.2275009        -2.63832976E-06
   68.3925018        -2.50164976E-06
   68.5575027        -2.89538707E-06
   68.7225037        -3.77126912E-06
   68.8874969        -4.87073430E-06
   69.0524979        -5.75101376E-06
   69.2174988        -5.87767681E-06
   69.3824997        -4.76591731E-06
   69.5475006        -2.13268913E-06
   69.7125015         1.98826365E-06
   69.8775024         7.21064362E-06
   70.0425034         1.28594957E-05
   70.2074966         1.81237683E-05
   70.3724976         2.22564195E-05
   70.5374985         2.47633925E-05
   70.7024994         2.55249706E-05
   70.8675003         2.48142896E-05
   71.0325012         2.32105631E-05
   71.1975021         2.14365755E-05
   71.3625031         2.01702496E-05
   71.5274963         1.98829202E-05
   71.6924973         2.07432768E-05
   71.8574982         2.26029333E-05
   72.0224991         2.50559769E-05
   72.1875000         2.75479397E-05
   72.3525009         2.95026475E-05
   72.5175018         3.04372606E-05
   72.6825027         3.00433694E-05
   72.8475037         2.82221044E-05
   73.0124969         2.50718094E-05
   73.1774979         2.08367928E-05
   73.3424988         1.58340572E-05
   73.5074997         1.03796319E-05
   73.6725006         4.73535283E-06
   73.8375015        -9.10615256E-07
   74.0025024        -6.42881241E-06
   74.1675034        -1.17118525E-05
   74.3324966        -1.66373684E-05
   74.4974976        -2.10511007E-05
   74.6624985        -2.47805274E-05
   74.8274994        -2.76742248E-05
   74.9925003        -2.96489034E-05
   75.1575012        -3.07213741E-05
   75.3225021        -3.10084979E-05
   75.4875031        -3.06921720E-05
   75.6524963        -2.99613021E-05
   75.8174973        -2.89520412E-05
   75.9824982        -2.77071304E-05
   76.1474991        -2.61666555E-05
   76.3125000        -2.41905909E-05
   76.4775009        -2.16042990E-05
   76.6425018        -1.82544427E-05
   76.8075027        -1.40639158E-05
   76.9725037        -9.07722097E-06
   77.1374969        -3.48868821E-06
   77.3024979         2.35499533E-06
   77.4674988         7.98676410E-06
   77.6324997         1.28898746E-05
   77.7975006         1.66003447E-05
   77.9625015         1.88191989E-05
   78.1275024         1.95010452E-05
   78.2925034         1.88849899E-05
   78.4574966         1.74482702E-05
   78.6224976         1.57885770E-05
   78.7874985         1.44682153E-05
   78.9524994         1.38696087E-05
   79.1175003         1.41089176E-05
   79.2825012         1.50330052E-05
   79.4475021         1.62936431E-05
   79.6125031         1.74658016E-05
   79.7774963         1.81656105E-05
   79.9424973         1.81316100E-05
   80.1074982         1.72547007E-05
   80.2724991         1.55653888E-05
   80.4375000         1.32004952E-05
   80.6025009         1.03701750E-05
   80.7675018         7.33366232E-06
   80.9325027         4.37829976E-06
   81.0975037         1.79056644E-06
   81.2624969        -1.86350547E-07
   81.4274979        -1.40080272E-06
   81.5924988        -1.82802057E-06
   81.7574997        -1.57323200E-06
   81.9225006        -8.35293065E-07
   82.0875015         1.57492337E-07
   82.2525024         1.21264054E-06
   82.4175034         2.21138612E-06
   82.5824966         3.10456130E-06
   82.7474976         3.87431101E-06
   82.9124985         4.48831815E-06
   83.0774994         4.87745547E-06
   83.2425003         4.95426275E-06
   83.4075012         4.66524943E-06
   83.5725021         4.04797311E-06
   83.7375031         3.25690075E-06
   83.9024963         2.53514645E-06
   84.0674973         2.13631756E-06
   84.2324982         2.22798258E-06
   84.3974991         2.82101973E-06
   84.5625000         3.75998047E-06
   84.7275009         4.78257516E-06
   84.8925018         5.62447349E-06
   85.0575027         6.12454505E-06
   85.2225037         6.28547514E-06
   85.3874969         6.26511519E-06
   85.5524979         6.30452678E-06
   85.7174988         6.62479988E-06
   85.8824997         7.33460729E-06
   86.0475006         8.38158485E-06
   86.2125015         9.55930045E-06
   86.3775024         1.05594581E-05
   86.5425034         1.10458632E-05
   86.7074966         1.07265441E-05
   86.8724976         9.40956306E-06
   87.0374985         7.03876731E-06
   87.2024994         3.71116948E-06
   87.3675003        -3.23964031E-07
   87.5325012        -4.68891722E-06
   87.6975021        -8.92992193E-06
   87.8625031        -1.25972392E-05
   88.0274963        -1.53389119E-05
   88.1924973        -1.69813593E-05
   88.3574982        -1.75659952E-05
   88.5224991        -1.73213066E-05
   88.6875000        -1.65724450E-05
   88.8525009        -1.56166952E-05
   89.0175018        -1.46105140E-05
   89.1825027        -1.35131568E-05
   89.3475037        -1.21115745E-05
   89.5124969        -1.01192009E-05
   89.6774979        -7.31121054E-06
   89.8424988        -3.64363768E-06
   90.0074997         6.89698936E-07
   90.1725006         5.28352621E-06
   90.3375015         9.61931801E-06
   90.5025024         1.31981496E-05
   90.6675034         1.56617498E-05
   90.8324966         1.68646839E-05
   90.9974976         1.68821334E-05
   91.1624985         1.59610372E-05
   91.3274994         1.44378737E-05
   91.4925003         1.26500117E-05
   91.6575012         1.08615850E-05
   91.8225021         9.21543051E-06
   91.9875031         7.71566829E-06
   92.1524963         6.24274571E-06
   92.3174973         4.60147794E-06
   92.4824982         2.59833223E-06
   92.6474991         1.34706070E-07
   92.8125000        -2.70888586E-06
   92.9775009        -5.63017329E-06
   93.1425018        -8.13188853E-06
   93.3075027        -9.62634658E-06
   93.4725037        -9.59688896E-06
   93.6374969        -7.76765319E-06
   93.8024979        -4.22115181E-06
   93.9674988         5.84929921E-07
   94.1324997         5.91651769E-06
   94.2975006         1.09495004E-05
   94.4625015         1.49816660E-05
   94.6275024         1.75982277E-05
   94.7925034         1.87376227E-05
   94.9574966         1.86436155E-05
   95.1224976         1.77325837E-05
   95.2874985         1.64329613E-05
   95.4524994         1.50564747E-05
   95.6175003         1.37399047E-05
   95.7825012         1.24632379E-05
   95.9475021         1.11209920E-05
   96.1125031         9.60952275E-06
   96.2774963         7.89674232E-06
   96.4424973         6.05593459E-06
   96.6074982         4.26182487E-06
   96.7724991         2.75698358E-06
   96.9375000         1.79850576E-06
   97.1025009         1.59319177E-06
   97.2675018         2.23018014E-06
   97.4325027         3.62532478E-06
   97.5975037         5.49810511E-06
   97.7624969         7.40207770E-06
   97.9274979         8.81802316E-06
   98.0924988         9.29548878E-06
   98.2574997         8.60228556E-06
   98.4225006         6.82621794E-06
   98.5875015         4.38031657E-06
   98.7525024         1.89364232E-06
   98.9175034         1.39029073E-08
   99.0824966        -8.13058534E-07
   99.2474976        -5.06601452E-07
   99.4124985         6.05877858E-07
   99.5774994         1.88619299E-06
   99.7425003         2.58962586E-06
   99.9075012         2.10372173E-06
   100.072502         1.39152149E-07
   100.237503        -3.18778348E-06
   100.402496        -7.39874849E-06
   100.567497        -1.17965401E-05
   100.732498        -1.56529859E-05
   100.897499        -1.83823740E-05
   101.062500        -1.96576148E-05
   101.227501        -1.94520362E-05
   101.392502        -1.80121879E-05
   101.557503        -1.57791255E-05
   101.722504        -1.32782188E-05
   101.887497        -1.09963657E-05
   102.052498        -9.26651592E-06
   102.217499        -8.18295302E-06
   102.382500        -7.57235330E-06
   102.547501        -7.03867499E-06
   102.712502        -6.08130085E-06
   102.877502        -4.25955204E-06
   103.042503        -1.35355492E-06
   103.207497         2.53598409E-06
   103.372498         6.99084103E-06
   103.537498         1.13874103E-05
   103.702499         1.50825235E-05
   103.867500         1.76077756E-05
   104.032501         1.88028862E-05
   104.197502         1.88423801E-05
   104.362503         1.81516098E-05
   104.527496         1.72499367E-05
   104.692497         1.65827023E-05
   104.857498         1.64007779E-05
   105.022499         1.67206526E-05
   105.187500         1.73630178E-05
   105.352501         1.80400166E-05
   105.517502         1.84512974E-05
   105.682503         1.83574903E-05
   105.847504         1.76188169E-05
   106.012497         1.62043161E-05
   106.177498         1.41851260E-05
   106.342499         1.17217087E-05
   106.507500         9.04586796E-06
   106.672501         6.43205203E-06
   106.837502         4.15405566E-06
   107.002502         2.43182421E-06
   107.167503         1.38258849E-06
   107.332497         9.94008587E-07
   107.497498         1.13096019E-06
   107.662498         1.57435977E-06
   107.827499         2.07700259E-06
   107.992500         2.41539874E-06
   108.157501         2.42154897E-06
   108.322502         1.99133842E-06
   108.487503         1.07907351E-06
   108.652496        -3.07114306E-07
   108.817497        -2.09952987E-06
   108.982498        -4.15772365E-06
   109.147499        -6.26228984E-06
   109.312500        -8.13305905E-06
   109.477501        -9.48009983E-06
   109.642502        -1.00786247E-05
   109.807503        -9.84239432E-06
   109.972504        -8.86403177E-06
   110.137497        -7.39937013E-06
   110.302498        -5.79373454E-06
   110.467499        -4.37193967E-06
   110.632500        -3.33023991E-06
   110.797501        -2.67003679E-06
   110.962502        -2.19881417E-06
   111.127502        -1.59924264E-06
   111.292503        -5.42733176E-07
   111.457497         1.19163610E-06
   111.622498         3.63284425E-06
   111.787498         6.59563420E-06
   111.952499         9.72641828E-06
   112.117500         1.26014293E-05
   112.282501         1.48449644E-05
   112.447502         1.62301094E-05
   112.612503         1.67307862E-05
   112.777496         1.65097754E-05
   112.942497         1.58474504E-05
   113.107498         1.50344886E-05
   113.272499         1.42632007E-05
   113.437500         1.35527853E-05
   113.602501         1.27332833E-05
   113.767502         1.14945515E-05
   113.932503         9.48647448E-06
   114.097504         6.44122747E-06
   114.262497         2.28206090E-06
   114.427498        -2.81306802E-06
   114.592499        -8.41248311E-06
   114.757500        -1.38991209E-05
   114.922501        -1.85920780E-05
   115.087502        -2.18938967E-05
   115.252502        -2.34284325E-05
   115.417503        -2.31333943E-05
   115.582497        -2.12790255E-05
   115.747498        -1.84004348E-05
   115.912498        -1.51541608E-05
   116.077499        -1.21342000E-05
   116.242500        -9.70072961E-06
   116.407501        -7.87787576E-06
   116.572502        -6.36039204E-06
   116.737503        -4.63541846E-06
   116.902496        -2.18470859E-06
   117.067497         1.29976445E-06
   117.232498         5.76363755E-06
   117.397499         1.07592423E-05
   117.562500         1.55517791E-05
   117.727501         1.93293581E-05
   117.892502         2.14465599E-05
   118.057503         2.16203171E-05
   118.222504         2.00156501E-05
   118.387497         1.71987413E-05
   118.552498         1.39791027E-05
   118.717499         1.11945237E-05
   118.882500         9.50258436E-06
   119.047501         9.23176503E-06
   119.212502         1.03220227E-05
   119.377502         1.23595737E-05
   119.542503         1.46907205E-05
   119.707497         1.65868678E-05
   119.872498         1.74256929E-05
   120.037498         1.68494171E-05
   120.202499         1.48611562E-05
   120.367500         1.18283833E-05
   120.532501         8.38253618E-06
   120.697502         5.23424751E-06
   120.862503         2.95556606E-06
   121.027496         1.79999211E-06
   121.192497         1.62638901E-06
   121.357498         1.96077872E-06
   121.522499         2.17993352E-06
   121.687500         1.75193099E-06
   121.852501         4.42992160E-07
   122.017502        -1.58959756E-06
   122.182503        -3.85448629E-06
   122.347504        -5.70948987E-06
   122.512497        -6.59787747E-06
   122.677498        -6.24608674E-06
   122.842499        -4.75077877E-06
   123.007500        -2.53058943E-06
   123.172501        -1.71587985E-07
   123.337502         1.76795891E-06
   123.502502         2.92178856E-06
   123.667503         3.19969172E-06
   123.832497         2.77899244E-06
   123.997498         2.02374622E-06
   124.162498         1.36842914E-06
   124.327499         1.20146433E-06
   124.492500         1.77202219E-06
   124.657501         3.13142937E-06
   124.822502         5.11484041E-06
   124.987503         7.36850689E-06
   125.152496         9.42599036E-06
   125.317497         1.08264057E-05
   125.482498         1.12496664E-05
   125.647499         1.06265243E-05
   125.812500         9.17736907E-06
   125.977501         7.35116782E-06
   126.142502         5.67195502E-06
   126.307503         4.54115434E-06
   126.472504         4.07033622E-06
   126.637497         4.01543821E-06
   126.802498         3.84764598E-06
   126.967499         2.94175743E-06
   127.132500         8.13845077E-07
   127.297501        -2.68143094E-06
   127.462502        -7.26787539E-06
   127.627502        -1.23078189E-05
   127.792503        -1.69789037E-05
   127.957497        -2.05003744E-05
   128.122498        -2.23305451E-05
   128.287506        -2.22770741E-05
   128.452499        -2.05000670E-05
   128.617493        -1.74259148E-05
   128.782501        -1.36124781E-05
   128.947495        -9.60926354E-06
   129.112503        -5.84514146E-06
   129.277496        -2.56063436E-06
   129.442505         2.10213727E-07
   129.607498         2.60978686E-06
   129.772507         4.88417527E-06
   129.937500         7.28024133E-06
   130.102493         9.93586582E-06
   130.267502         1.27966932E-05
   130.432495         1.55930938E-05
   130.597504         1.78963601E-05
   130.762497         1.92456228E-05
   130.927505         1.93069500E-05
   131.092499         1.80074167E-05
   131.257507         1.55901689E-05
   131.422501         1.25631723E-05
   131.587494         9.55480664E-06
   131.752502         7.12657766E-06
   131.917496         5.61043407E-06
   132.082504         5.02811463E-06
   132.247498         5.11764210E-06