  -1.23749995         0.00000000    
  -1.07249999         0.00000000    
 -0.907500029         0.00000000    
 -0.742500007         1.66238983E-15
 -0.577499986         1.41238433E-14
 -0.412499994         7.10729828E-14
 -0.247500002         2.72955080E-13
  -8.25000033E-02     8.58403734E-13
   8.25000033E-02     2.24339406E-12
  0.247500002         4.84004807E-12
  0.412499994         8.43964395E-12
  0.577499986         1.13808355E-11
  0.742500007         1.08223248E-11
  0.907500029         6.49371095E-12
   1.07249999         9.47571969E-12
   1.23749995         5.32352461E-11
   1.40250003         1.97400804E-10
   1.56750000         5.10698484E-10
   1.73249996         1.02476605E-09
   1.89750004         1.66781766E-09
   2.06250000         2.20994756E-09
   2.22749996         2.26565655E-09
   2.39249992         1.38913836E-09
   2.55749989        -7.40176032E-10
   2.72250009        -4.09704626E-09
   2.88750005        -8.14986922E-09
   3.05250001        -1.18536931E-08
   3.21749997        -1.38366678E-08
   3.38249993        -1.27332163E-08
   3.54749990        -7.54282503E-09
   3.71250010         2.12066431E-09
   3.87750006         1.59593920E-08
   4.04250002         3.30568533E-08
   4.20749998         5.19379242E-08
   4.37249994         7.04767089E-08
   4.53749990         8.56166835E-08
   4.70249987         9.30558244E-08
   4.86749983         8.72168542E-08
   5.03249979         6.18565750E-08
   5.19750023         1.15085106E-08
   5.36250019        -6.63751720E-08
   5.52750015        -1.69094179E-07
   5.69250011        -2.86964621E-07
   5.85750008        -4.02985762E-07
   6.02250004        -4.94451911E-07
   6.18750000        -5.36546850E-07
   6.35249996        -5.07360483E-07
   6.51749992        -3.93256983E-07
   6.68249989        -1.93267610E-07
   6.84749985         7.87241845E-08
   7.01249981         3.94785872E-07
   7.17749977         7.16785109E-07
   7.34250021         1.00252032E-06
   7.50750017         1.21268249E-06
   7.67250013         1.31690399E-06
   7.83750010         1.29740340E-06
   8.00249958         1.14954207E-06
   8.16749954         8.79710569E-07
   8.33250046         5.01970021E-07
   8.49750042         3.53268703E-08
   8.66250038        -4.96846098E-07
   8.82750034        -1.06485652E-06
   8.99250031        -1.62928768E-06
   9.15750027        -2.13839076E-06
   9.32250023        -2.52880591E-06
   9.48750019        -2.73130513E-06
   9.65250015        -2.68152235E-06
   9.81750011        -2.33366973E-06
   9.98250008        -1.67381120E-06
   10.1475000        -7.28979103E-07
   10.3125000         4.30607059E-07
   10.4775000         1.69713496E-06
   10.6424999         2.93753828E-06
   10.8074999         4.01008447E-06
   10.9724998         4.78222455E-06
   11.1374998         5.14708199E-06
   11.3024998         5.03681258E-06
   11.4674997         4.43188219E-06
   11.6324997         3.36574067E-06
   11.7974997         1.92439325E-06
   11.9624996         2.40229383E-07
   12.1274996        -1.52039729E-06
   12.2924995        -3.17565309E-06
   12.4575005        -4.55128111E-06
   12.6225004        -5.50515961E-06
   12.7875004        -5.94898302E-06
   12.9525003        -5.86231818E-06
   13.1175003        -5.29525551E-06
   13.2825003        -4.35819902E-06
   13.4475002        -3.20047229E-06
   13.6125002        -1.98246835E-06
   13.7775002        -8.47933222E-07
   13.9425001         9.70449960E-08
   14.1075001         7.93905656E-07
   14.2725000         1.22949837E-06
   14.4375000         1.42496265E-06
   14.6025000         1.42119802E-06
   14.7674999         1.26687473E-06
   14.9324999         1.01289390E-06
   15.0974998         7.13618931E-07
   15.2624998         4.31603894E-07
   15.4274998         2.40506267E-07
   15.5924997         2.21331888E-07
   15.7574997         4.50002233E-07
   15.9224997         9.78276148E-07
   16.0874996         1.81361531E-06
   16.2525005         2.90509661E-06
   16.4174995         4.14126362E-06
   16.5825005         5.36227071E-06
   16.7474995         6.38407300E-06
   16.9125004         7.02851275E-06
   17.0774994         7.15127862E-06
   17.2425003         6.66065807E-06
   17.4074993         5.52322626E-06
   17.5725002         3.75703121E-06
   17.7374992         1.41678004E-06
   17.9025002        -1.42240663E-06
   18.0674992        -4.67657947E-06
   18.2325001        -8.25669485E-06
   18.3974991        -1.20653594E-05
   18.5625000        -1.59909323E-05
   18.7275009        -1.99046626E-05
   18.8924999        -2.36649867E-05
   19.0575008        -2.71292411E-05
   19.2224998        -3.01686923E-05
   19.3875008        -3.26802037E-05
   19.5524998        -3.45885783E-05
   19.7175007        -3.58381294E-05
   19.8824997        -3.63780418E-05
   20.0475006        -3.61509701E-05
   20.2124996        -3.50950577E-05
   20.3775005        -3.31646806E-05
   20.5424995        -3.03664783E-05
   20.7075005        -2.67980067E-05
   20.8724995        -2.26713091E-05
   21.0375004        -1.83060238E-05
   21.2024994        -1.40864904E-05
   21.3675003        -1.03912143E-05
   21.5324993        -7.51545122E-06
   21.6975002        -5.61278102E-06
   21.8624992        -4.67668588E-06
   22.0275002        -4.56943735E-06
   22.1924992        -5.08814264E-06
   22.3575001        -6.04356592E-06
   22.5224991        -7.32210719E-06
   22.6875000        -8.90749834E-06
   22.8525009        -1.08542481E-05
   23.0174999        -1.32237001E-05
   23.1825008        -1.60086911E-05
   23.3474998        -1.90782994E-05
   23.5125008        -2.21679875E-05
   23.6774998        -2.49245022E-05
   23.8425007        -2.69949378E-05
   24.0074997        -2.81323519E-05
   24.1725006        -2.82825185E-05
   24.3374996        -2.76206611E-05
   24.5025005        -2.65223207E-05
   24.6674995        -2.54736387E-05
   24.8325005        -2.49465174E-05
   24.9974995        -2.52757745E-05
   25.1625004        -2.65748440E-05
   25.3274994        -2.87136118E-05
   25.4925003        -3.13614000E-05
   25.6574993        -3.40775041E-05
   25.8225002        -3.64184816E-05
   25.9874992        -3.80299098E-05
   26.1525002        -3.87002947E-05
   26.3174992        -3.83712722E-05
   26.4825001        -3.71138813E-05
   26.6474991        -3.50891605E-05
   26.8125000        -3.25104702E-05
   26.9775009        -2.96163507E-05
   27.1424999        -2.66526495E-05
   27.3075008        -2.38561424E-05
   27.4724998        -2.14325246E-05
   27.6375008        -1.95280390E-05
   27.8024998        -1.82019521E-05
   27.9675007        -1.74113266E-05
   28.1324997        -1.70173844E-05
   28.2975006        -1.68148254E-05
   28.4624996        -1.65763086E-05
   28.6275005        -1.60985692E-05
   28.7924995        -1.52372450E-05
   28.9575005        -1.39236072E-05
   29.1224995        -1.21644352E-05
   29.2875004        -1.00316074E-05
   29.4524994        -7.64821743E-06
   29.6175003        -5.17400395E-06
   29.7824993        -2.78801349E-06
   29.9475002        -6.64828633E-07
   30.1124992         1.05617596E-06
   30.2775002         2.30277874E-06
   30.4424992         3.09206439E-06
   30.6075001         3.53151108E-06
   30.7724991         3.79377320E-06
   30.9375000         4.06990648E-06
   31.1025009         4.51493224E-06
   31.2674999         5.20326739E-06
   31.4325008         6.10782172E-06
   31.5974998         7.10747054E-06
   31.7625008         8.01776150E-06
   31.9274998         8.63348305E-06
   32.0924988         8.77107686E-06
   32.2574997         8.30251702E-06
   32.4225006         7.17685407E-06
   32.5875015         5.42845009E-06
   32.7524986         3.17130730E-06
   32.9174995         5.78617801E-07
   33.0825005        -2.15148475E-06
   33.2475014        -4.83815347E-06
   33.4124985        -7.35619597E-06
   33.5774994        -9.65578965E-06
   33.7425003        -1.17525506E-05
   33.9075012        -1.36877979E-05
   34.0724983        -1.54727823E-05
   34.2374992        -1.70407711E-05
   34.4025002        -1.82310796E-05
   34.5675011        -1.88177237E-05
   34.7324982        -1.85764984E-05
   34.8974991        -1.73665630E-05
   35.0625000        -1.51946197E-05
   35.2275009        -1.22356623E-05
   35.3925018        -8.80140669E-06
   35.5574989        -5.26791700E-06
   35.7224998        -1.98854059E-06
   35.8875008         7.78963624E-07
   36.0525017         2.91118386E-06
   36.2174988         4.41895281E-06
   36.3824997         5.41749796E-06
   36.5475006         6.08277514E-06
   36.7125015         6.60869182E-06
   36.8774986         7.17375451E-06
   37.0424995         7.91914499E-06
   37.2075005         8.93661399E-06
   37.3725014         1.02641470E-05
   37.5374985         1.18882508E-05
   37.7024994         1.37518482E-05
   37.8675003         1.57654977E-05
   38.0325012         1.78183363E-05
   38.1974983         1.97858408E-05
   38.3624992         2.15347591E-05
   38.5275002         2.29295329E-05
   38.6925011         2.38459561E-05
   38.8574982         2.41942544E-05
   39.0224991         2.39462679E-05
   39.1875000         2.31538761E-05
   39.3525009         2.19438898E-05
   39.5175018         2.04815442E-05
   39.6824989         1.89088132E-05
   39.8474998         1.72788314E-05
   40.0125008         1.55151174E-05
   40.1775017         1.34186275E-05
   40.3424988         1.07275682E-05
   40.5074997         7.21220567E-06
   40.6725006         2.77012100E-06
   40.8375015        -2.51505412E-06
   41.0024986        -8.37477273E-06
   41.1674995        -1.44162141E-05
   41.3325005        -2.02191441E-05
   41.4975014        -2.54333299E-05
   41.6624985        -2.98440336E-05
   41.8274994        -3.33884236E-05
   41.9925003        -3.61256571E-05
   42.1575012        -3.81785103E-05
   42.3224983        -3.96703690E-05
   42.4874992        -4.06775653E-05
   42.6525002        -4.12081572E-05
   42.8175011        -4.12087647E-05
   42.9824982        -4.05947285E-05
   43.1474991        -3.92950169E-05
   43.3125000        -3.73009825E-05
   43.4775009        -3.47059613E-05
   43.6425018        -3.17220038E-05
   43.8074989        -2.86631694E-05
   43.9724998        -2.58931632E-05
   44.1375008        -2.37475269E-05
   44.3025017        -2.24519172E-05
   44.4674988        -2.20630027E-05
   44.6324997        -2.24530777E-05
   44.7975006        -2.33448627E-05
   44.9625015        -2.43847353E-05
   45.1274986        -2.52292812E-05
   45.2924995        -2.56175463E-05
   45.4575005        -2.54104689E-05
   45.6225014        -2.45947813E-05
   45.7874985        -2.32626426E-05
   45.9524994        -2.15840355E-05
   46.1175003        -1.97844984E-05
   46.2825012        -1.81300093E-05
   46.4474983        -1.69109426E-05
   46.6124992        -1.64144913E-05
   46.7775002        -1.68811548E-05
   46.9425011        -1.84522105E-05
   47.1074982        -2.11242204E-05
   47.2724991        -2.47280150E-05
   47.4375000        -2.89417949E-05
   47.6025009        -3.33352073E-05
   47.7675018        -3.74301562E-05
   47.9324989        -4.07605294E-05
   48.0974998        -4.29184875E-05
   48.2625008        -4.35852598E-05
   48.4275017        -4.25532380E-05
   48.5924988        -3.97473814E-05
   48.7574997        -3.52473508E-05
   48.9225006        -2.93013527E-05
   49.0875015        -2.23162151E-05
   49.2524986        -1.48111521E-05
   49.4174995        -7.33566321E-06
   49.5825005        -3.69558933E-07
   49.7475014         5.76374578E-06
   49.9124985         1.09391740E-05
   50.0774994         1.52100592E-05
   50.2425003         1.87333771E-05
   50.4075012         2.16702119E-05
   50.5724983         2.41027337E-05
   50.7374992         2.60024754E-05
   50.9025002         2.72628131E-05
   51.0675011         2.77803356E-05
   51.2324982         2.75481489E-05
   51.3974991         2.67179930E-05
   51.5625000         2.56005187E-05
   51.7275009         2.45977371E-05
   51.8925018         2.40883546E-05
   52.0574989         2.43042286E-05
   52.2224998         2.52391856E-05
   52.3875008         2.66198495E-05
   52.5525017         2.79482829E-05
   52.7174988         2.86057457E-05
   52.8824997         2.79919896E-05
   53.0475006         2.56678159E-05
   53.2125015         2.14691663E-05
   53.3774986         1.55666930E-05
   53.5424995         8.45449995E-06
   53.7075005         8.65163713E-07
   53.8725014        -6.37525818E-06
   54.0374985        -1.25214456E-05
   54.2024994        -1.70689509E-05
   54.3675003        -1.98551243E-05
   54.5325012        -2.10685175E-05
   54.6974983        -2.11608822E-05
   54.8624992        -2.06878231E-05
   55.0275002        -2.01297298E-05
   55.1925011        -1.97526879E-05
   55.3574982        -1.95550674E-05
   55.5224991        -1.93142787E-05
   55.6875000        -1.87118785E-05
   55.8525009        -1.74883589E-05
   56.0175018        -1.55717171E-05
   56.1824989        -1.31379602E-05
   56.3474998        -1.05891258E-05
   56.5125008        -8.46280363E-06
   56.6775017        -7.30552847E-06
   56.8424988        -7.54615712E-06
   57.0074997        -9.39741130E-06
   57.1725006        -1.28012662E-05
   57.3375015        -1.74232937E-05
   57.5024986        -2.26951888E-05
   57.6674995        -2.79012165E-05
   57.8325005        -3.22991837E-05
   57.9975014        -3.52575044E-05
   58.1624985        -3.63798463E-05
   58.3274994        -3.55837838E-05
   58.4925003        -3.31066876E-05
   58.6575012        -2.94309211E-05
   58.8224983        -2.51468118E-05
   58.9874992        -2.07942212E-05
   59.1525002        -1.67322341E-05
   59.3175011        -1.30764720E-05
   59.4824982        -9.71853751E-06
   59.6474991        -6.41300448E-06
   59.8125000        -2.89648756E-06
   59.9775009         1.00162811E-06
   60.1425018         5.28667442E-06
   60.3074989         9.77591117E-06
   60.4724998         1.41202636E-05
   60.6375008         1.78570917E-05
   60.8025017         2.04810258E-05
   60.9674988         2.15243181E-05
   61.1324997         2.06403056E-05
   61.2975006         1.76801004E-05
   61.4625015         1.27463372E-05
   61.6274986         6.20477613E-06
   61.7924995        -1.35929986E-06
   61.9575005        -9.23752668E-06
   62.1225014        -1.67260532E-05
   62.2874985        -2.32489656E-05
   62.4524994        -2.84416328E-05
   62.6175003        -3.21722146E-05
   62.7825012        -3.45025292E-05
   62.9474983        -3.56104647E-05
   63.1124992        -3.57057434E-05
   63.2775002        -3.49657530E-05
   63.4425011        -3.35030963E-05
   63.6074982        -3.13608252E-05
   63.7724991        -2.85234128E-05
   63.9375000        -2.49341902E-05
   64.1025009        -2.05188680E-05
   64.2675018        -1.52217763E-05
   64.4325027        -9.05933030E-06
   64.5975037        -2.18343052E-06
   64.7624969         5.06761626E-06
   64.9274979         1.21607991E-05
   65.0924988         1.84254623E-05
   65.2574997         2.31759477E-05
   65.4225006         2.58710497E-05
   65.5875015         2.62598642E-05
   65.7525024         2.44608073E-05
   65.9175034         2.09402588E-05
   66.0824966         1.63925415E-05
   66.2474976         1.15589401E-05
   66.4124985         7.04502463E-06
   66.5774994         3.19398396E-06
   66.7425003         5.07692484E-08
   66.9075012        -2.58171417E-06
   67.0725021        -5.02336752E-06
   67.2375031        -7.57965654E-06
   67.4024963        -1.04296450E-05
   67.5674973        -1.35671908E-05
   67.7324982        -1.68029092E-05
   67.8974991        -1.98175403E-05
   68.0625000        -2.22475810E-05
   68.2275009        -2.37809436E-05
   68.3925018        -2.42411006E-05
   68.5575027        -2.36406049E-05
   68.7225037        -2.21894061E-05
   68.8874969        -2.02513656E-05
   69.0524979        -1.82550375E-05
   69.2174988        -1.65796300E-05
   69.3824997        -1.54490099E-05
   69.5475006        -1.48689924E-05
   69.7125015        -1.46320453E-05
   69.8775024        -1.43913257E-05
   70.0425034        -1.37805273E-05
   70.2074966        -1.25382085E-05
   70.3724976        -1.05930139E-05
   70.5374985        -8.08126879E-06
   70.7024994        -5.29442968E-06
   70.8675003        -2.57996840E-06
   71.0325012        -2.34225894E-07
   71.1975021         1.57580746E-06
   71.3625031         2.84042380E-06
   71.5274963         3.68465203E-06
   71.6924973         4.31191575E-06
   71.8574982         4.93705556E-06
   72.0224991         5.72788804E-06
   72.1875000         6.76495802E-06
   72.3525009         8.02064369E-06
   72.5175018         9.35557273E-06
   72.6825027         1.05319359E-05
   72.8475037         1.12456846E-05
   73.0124969         1.11783356E-05
   73.1774979         1.00628076E-05
   73.3424988         7.74944147E-06
   73.5074997         4.25329335E-06
   73.6725006        -2.33638360E-07
   73.8375015        -5.37114556E-06
   74.0025024        -1.07320629E-05
   74.1675034        -1.58764578E-05
   74.3324966        -2.04166972E-05
   74.4974976        -2.40587342E-05
   74.6624985        -2.66176812E-05
   74.8274994        -2.80167515E-05
   74.9925003        -2.82818710E-05
   75.1575012        -2.75389102E-05
   75.3225021        -2.60104134E-05
   75.4875031        -2.40008721E-05
   75.6524963        -2.18595451E-05
   75.8174973        -1.99189344E-05
   75.9824982        -1.84205874E-05
   76.1474991        -1.74511461E-05
   76.3125000        -1.69134200E-05
   76.4775009        -1.65482852E-05
   76.6425018        -1.60068103E-05
   76.8075027        -1.49545940E-05
   76.9725037        -1.31790384E-05
   77.1374969        -1.06684965E-05
   77.3024979        -7.63994558E-06
   77.4674988        -4.50552989E-06
   77.6324997        -1.78347545E-06
   77.7975006         2.78799472E-08
   77.9625015         5.84733243E-07
   78.1275024        -1.91742416E-07
   78.2925034        -2.06054983E-06
   78.4574966        -4.48380888E-06
   78.6224976        -6.73257364E-06
   78.7874985        -8.05818217E-06
   78.9524994        -7.88981743E-06
   79.1175003        -6.00519797E-06
   79.2825012        -2.62237768E-06
   79.4475021         1.62116714E-06
   79.6125031         5.80479764E-06
   79.7774963         8.94453024E-06
   79.9424973         1.02386784E-05
   80.1074982         9.27288511E-06
   80.2724991         6.12934173E-06
   80.4375000         1.37202721E-06
   80.6025009        -4.08639244E-06
   80.7675018        -9.19994272E-06
   80.9325027        -1.30320050E-05
   81.0975037        -1.49663556E-05
   81.2624969        -1.48378740E-05
   81.4274979        -1.29547652E-05
   81.5924988        -1.00098632E-05
   81.7574997        -6.90421712E-06
   81.9225006        -4.52635595E-06
   82.0875015        -3.54084182E-06
   82.2525024        -4.23716256E-06
   82.4175034        -6.47481602E-06
   82.5824966        -9.73582974E-06
   82.7474976        -1.32683199E-05
   82.9124985        -1.62814358E-05
   83.0774994        -1.81398264E-05
   83.2425003        -1.85077297E-05
   83.4075012        -1.74078468E-05
   83.5725021        -1.51837512E-05
   83.7375031        -1.23802274E-05
   83.9024963        -9.57733664E-06
   84.0674973        -7.22592995E-06
   84.2324982        -5.53174641E-06
   84.3974991        -4.42156215E-06
   84.5625000        -3.60092508E-06
   84.7275009        -2.68466601E-06
   84.8925018        -1.35688765E-06
   85.0575027         4.94599362E-07
   85.2225037         2.71761428E-06
   85.3874969         4.93176685E-06
   85.5524979         6.64909567E-06
   85.7174988         7.43478495E-06
   85.8824997         7.04820786E-06
   86.0475006         5.51313451E-06
   86.2125015         3.09522284E-06
   86.3775024         2.02293975E-07
   86.5425034        -2.74812669E-06
   86.7074966        -5.44157729E-06
   86.8724976        -7.72262956E-06
   87.0374985        -9.58627970E-06
   87.2024994        -1.11250220E-05
   87.3675003        -1.24651870E-05
   87.5325012        -1.37203542E-05
   87.6975021        -1.49713396E-05
   87.8625031        -1.62636661E-05
   88.0274963        -1.76060785E-05
   88.1924973        -1.89605689E-05
   88.3574982        -2.02289903E-05
   88.5224991        -2.12521118E-05
   88.6875000        -2.18349887E-05
   88.8525009        -2.17979123E-05
   89.0175018        -2.10341768E-05
   89.1825027        -1.95469420E-05
   89.3475037        -1.74450870E-05
   89.5124969        -1.48994577E-05
   89.6774979        -1.20839695E-05
   89.8424988        -9.13603526E-06
   90.0074997        -6.15994213E-06
   90.1725006        -3.26975305E-06
   90.3375015        -6.40725773E-07
   90.5025024         1.47257936E-06
   90.6675034         2.77884533E-06
   90.8324966         3.04678383E-06
   90.9974976         2.21504979E-06
   91.1624985         4.58865969E-07
   91.3274994        -1.82833139E-06
   91.4925003        -4.14099304E-06
   91.6575012        -6.01499687E-06
   91.8225021        -7.16426985E-06
   91.9875031        -7.54428129E-06
   92.1524963        -7.32209855E-06
   92.3174973        -6.77675553E-06
   92.4824982        -6.18234026E-06
   92.6474991        -5.72537283E-06
   92.8125000        -5.48071330E-06
   92.9775009        -5.43434408E-06
   93.1425018        -5.51900030E-06
   93.3075027        -5.63229605E-06
   93.4725037        -5.63230469E-06
   93.6374969        -5.33383718E-06
   93.8024979        -4.53891516E-06
   93.9674988        -3.11735926E-06
   94.1324997        -1.11643158E-06
   94.2975006         1.15545572E-06
   94.4625015         3.13306555E-06
   94.6275024         4.11885549E-06
   94.7925034         3.50379241E-06
   94.9574966         1.00612192E-06
   95.1224976        -3.17283843E-06
   95.2874985        -8.35222909E-06
   95.4524994        -1.35474120E-05
   95.6175003        -1.77579295E-05
   95.7825012        -2.02596220E-05
   95.9475021        -2.07930516E-05
   96.1125031        -1.95873345E-05
   96.2774963        -1.72286236E-05
   96.4424973        -1.44418655E-05
   96.6074982        -1.18767121E-05
   96.7724991        -9.96838753E-06
   96.9375000        -8.89769672E-06
   97.1025009        -8.62845081E-06
   97.2675018        -8.97806240E-06
   97.4325027        -9.68397399E-06
   97.5975037        -1.04537812E-05
   97.7624969        -1.10097017E-05
   97.9274979        -1.11423760E-05
   98.0924988        -1.07731794E-05
   98.2574997        -1.00014349E-05
   98.4225006        -9.10220115E-06
   98.5875015        -8.45332943E-06
   98.7525024        -8.40371194E-06
   98.9175034        -9.13007261E-06
   99.0824966        -1.05455465E-05
   99.2474976        -1.23070195E-05
   99.4124985        -1.39249960E-05
   99.5774994        -1.49308744E-05
   99.7425003        -1.50281230E-05
   99.9075012        -1.41621013E-05
   100.072502        -1.24847875E-05
   100.237503        -1.02437270E-05
   100.402496        -7.66092398E-06
   100.567497        -4.86784438E-06
   100.732498        -1.92723041E-06
   100.897499         1.07923813E-06
   101.062500         3.95781308E-06
   101.227501         6.36976119E-06
   101.392502         7.89272235E-06
   101.557503         8.15889962E-06
   101.722504         7.00920646E-06
   101.887497         4.58998875E-06
   102.052498         1.34359459E-06
   102.217499        -2.10749317E-06
   102.382500        -5.13610394E-06
   102.547501        -7.27590577E-06
   102.712502        -8.31851776E-06
   102.877502        -8.31963462E-06
   103.042503        -7.53174709E-06
   103.207497        -6.30517479E-06
   103.372498        -4.99831049E-06
   103.537498        -3.91797721E-06
   103.702499        -3.28712667E-06
   103.867500        -3.22485903E-06
   104.032501        -3.72860904E-06
   104.197502        -4.66392748E-06
   104.362503        -5.77975925E-06
   104.527496        -6.76472473E-06
   104.692497        -7.34117430E-06
   104.857498        -7.36866104E-06
   105.022499        -6.91300784E-06
   105.187500        -6.24289351E-06
   105.352501        -5.74349451E-06
   105.517502        -5.77395258E-06
   105.682503        -6.52388735E-06
   105.847504        -7.92857463E-06
   106.012497        -9.67943924E-06
   106.177498        -1.13266742E-05
   106.342499        -1.24329690E-05
   106.507500        -1.27187786E-05
   106.672501        -1.21472049E-05
   106.837502        -1.09245666E-05
   107.002502        -9.42649513E-06
   107.167503        -8.08359800E-06
   107.332497        -7.26691042E-06
   107.497498        -7.20331082E-06
   107.662498        -7.93390427E-06
   107.827499        -9.31445902E-06
   107.992500        -1.10510973E-05
   108.157501        -1.27646499E-05
   108.322502        -1.40769216E-05
   108.487503        -1.47071269E-05
   108.652496        -1.45573767E-05
   108.817497        -1.37588531E-05
   108.982498        -1.26530531E-05
   109.147499        -1.16995898E-05
   109.312500        -1.13294518E-05
   109.477501        -1.17888794E-05
   109.642502        -1.30306234E-05
   109.807503        -1.46981683E-05
   109.972504        -1.62168708E-05
   110.137497        -1.69662035E-05
   110.302498        -1.64759313E-05
   110.467499        -1.45796203E-05
   110.632500        -1.14750619E-05
   110.797501        -7.67566871E-06
   110.962502        -3.87456248E-06
   111.127502        -7.68920586E-07
   111.292503         1.10201177E-06
   111.457497         1.46463094E-06
   111.622498         3.46687386E-07
   111.787498        -1.95431517E-06
   111.952499        -4.95093900E-06
   112.117500        -8.07027027E-06
   112.282501        -1.07617434E-05
   112.447502        -1.25913493E-05
   112.612503        -1.33086342E-05
   112.777496        -1.28758838E-05
   112.942497        -1.14540799E-05
   113.107498        -9.34879608E-06
   113.272499        -6.92972799E-06
   113.437500        -4.54569408E-06
   113.602501        -2.45843216E-06
   113.767502        -8.11441851E-07
   113.932503         3.63391024E-07
   114.097504         1.11257532E-06
   114.262497         1.52020255E-06
   114.427498         1.67669589E-06
   114.592499         1.66449308E-06
   114.757500         1.55637281E-06
   114.922501         1.41515170E-06
   115.087502         1.28480838E-06
   115.252502         1.17151933E-06
   115.417503         1.02347030E-06
   115.582497         7.24157701E-07
   115.747498         1.11125701E-07
   115.912498        -9.78509547E-07
   116.077499        -2.64746336E-06
   116.242500        -4.88316618E-06
   116.407501        -7.52891765E-06
   116.572502        -1.02938639E-05
   116.737503        -1.28014799E-05
   116.902496        -1.46641833E-05
   117.067497        -1.55649414E-05
   117.232498        -1.53266465E-05
   117.397499        -1.39550912E-05
   117.562500        -1.16479878E-05
   117.727501        -8.76829381E-06
   117.892502        -5.78483105E-06
   118.057503        -3.18797174E-06
   118.222504        -1.39380961E-06
   118.387497        -6.55798715E-07
   118.552498        -1.00566899E-06
   118.717499        -2.24269434E-06
   118.882500        -3.98042857E-06
   119.047501        -5.74432534E-06
   119.212502        -7.09695087E-06
   119.377502        -7.75632543E-06
   119.542503        -7.67247730E-06
   119.707497        -7.03849946E-06
   119.872498        -6.23181859E-06
   120.037498        -5.70245811E-06
   120.202499        -5.84093505E-06
   120.367500        -6.86398289E-06
   120.532501        -8.75013393E-06
   120.697502        -1.12419693E-05
   120.862503        -1.39128051E-05
   121.027496        -1.62784327E-05
   121.192497        -1.79233793E-05
   121.357498        -1.86080415E-05
   121.522499        -1.83285374E-05
   121.687500        -1.73135359E-05
   121.852501        -1.59590309E-05
   122.017502        -1.47185083E-05
   122.182503        -1.39782915E-05
   122.347504        -1.39524855E-05
   122.512497        -1.46271695E-05
   122.677498        -1.57696923E-05
   122.842499        -1.69997911E-05
   123.007500        -1.79006092E-05
   123.172501        -1.81357991E-05
   123.337502        -1.75377627E-05
   123.502502        -1.61419212E-05
   123.667503        -1.41595629E-05
   123.832497        -1.19015049E-05
   123.997498        -9.67967480E-06
   124.162498        -7.71902432E-06
   124.327499        -6.10628103E-06
   124.492500        -4.78797074E-06
   124.657501        -3.61330558E-06
   124.822502        -2.40364147E-06
   124.987503        -1.02359752E-06
   125.152496         5.68841642E-07
   125.317497         2.30638648E-06
   125.482498         4.03109334E-06
   125.647499         5.53721429E-06
   125.812500         6.62240882E-06
   125.977501         7.13233021E-06
   126.142502         6.98909253E-06
   126.307503         6.20136052E-06
   126.472504         4.85959345E-06
   126.637497         3.12214524E-06
   126.802498         1.19628805E-06
   126.967499        -6.85026862E-07
   127.132500        -2.29188549E-06
   127.297501        -3.43174088E-06
   127.462502        -3.98570091E-06
   127.627502        -3.93867822E-06
   127.792503        -3.39298504E-06
   127.957497        -2.55695204E-06
   128.122498        -1.70681938E-06
   128.287506        -1.12939654E-06
   128.452499        -1.06066386E-06
   128.617493        -1.63771074E-06
   128.782501        -2.87682747E-06
   128.947495        -4.68116241E-06
   129.112503        -6.87121792E-06
   129.277496        -9.22496838E-06
   129.442505        -1.15142439E-05
   129.607498        -1.35299242E-05
   129.772507        -1.50969436E-05
   129.937500        -1.60860600E-05
   130.102493        -1.64291014E-05
   130.267502        -1.61382432E-05
   130.432495        -1.53215278E-05
   130.597504        -1.41818318E-05
   130.762497        -1.29885566E-05
   130.927505        -1.20210934E-05
   131.092499        -1.14967888E-05
   131.257507        -1.15070388E-05
   131.422501        -1.19868409E-05
   131.587494        -1.27331796E-05
   131.752502        -1.34695192E-05
   131.917496        -1.39350750E-05
   132.082504        -1.39669282E-05
   132.247498        -1.35453065E-05