  -1.23749995         0.00000000    
  -1.07249999         0.00000000    
 -0.907500029         0.00000000    
 -0.742500007         3.24244239E-16
 -0.577499986         2.44160889E-15
 -0.412499994         1.00443183E-14
 -0.247500002         2.75207459E-14
  -8.25000033E-02     4.11006305E-14
   8.25000033E-02    -6.33708174E-14
  0.247500002        -7.32228297E-13
  0.412499994        -3.18346261E-12
  0.577499986        -9.87321509E-12
  0.742500007        -2.43136483E-11
  0.907500029        -4.91623443E-11
   1.07249999        -8.20045698E-11
   1.23749995        -1.10346815E-10
   1.40250003        -1.10469592E-10
   1.56750000        -5.65043012E-11
   1.73249996         5.68469716E-11
   1.89750004         1.83449367E-10
   2.06250000         2.03926098E-10
   2.22749996        -6.30933431E-11
   2.39249992        -7.99029731E-10
   2.55749989        -2.07748041E-09
   2.72250009        -3.74628861E-09
   2.88750005        -5.35839373E-09
   3.05250001        -6.20664320E-09
   3.21749997        -5.47982859E-09
   3.38249993        -2.49771048E-09
   3.54749990         3.06667736E-09
   3.71250010         1.10734160E-08
   3.87750006         2.09506581E-08
   4.04250002         3.18226547E-08
   4.20749998         4.25960849E-08
   4.37249994         5.18701100E-08
   4.53749990         5.76454617E-08
   4.70249987         5.69941321E-08
   4.86749983         4.60153977E-08
   5.03249979         2.04250803E-08
   5.19750023        -2.30696369E-08
   5.36250019        -8.48355413E-08
   5.52750015        -1.60453013E-07
   5.69250011        -2.39788108E-07
   5.85750008        -3.07723042E-07
   6.02250004        -3.46758327E-07
   6.18750000        -3.40974083E-07
   6.35249996        -2.80211708E-07
   6.51749992        -1.63112446E-07
   6.68249989         2.01834993E-09
   6.84749985         1.98774870E-07
   7.01249981         4.06003522E-07
   7.17749977         6.01701799E-07
   7.34250021         7.66178914E-07
   7.50750017         8.83713369E-07
   7.67250013         9.42746738E-07
   7.83750010         9.35317530E-07
   8.00249958         8.56642316E-07
   8.16749954         7.05418927E-07
   8.33250046         4.84793702E-07
   8.49750042         2.03389462E-07
   8.66250038        -1.24340772E-07
   8.82750034        -4.78818492E-07
   8.99250031        -8.36895595E-07
   9.15750027        -1.17360423E-06
   9.32250023        -1.46346156E-06
   9.48750019        -1.68119720E-06
   9.65250015        -1.80247309E-06
   9.81750011        -1.80558197E-06
   9.98250008        -1.67487713E-06
   10.1475000        -1.40575821E-06
   10.3125000        -1.00982356E-06
   10.4775000        -5.17922217E-07
   10.6424999         2.11241069E-08
   10.8074999         5.47189472E-07
   10.9724998         1.00001955E-06
   11.1374998         1.33206356E-06
   11.3024998         1.51901395E-06
   11.4674997         1.56445833E-06
   11.6324997         1.49687344E-06
   11.7974997         1.35983930E-06
   11.9624996         1.19880690E-06
   12.1274996         1.04897356E-06
   12.2924995         9.28274460E-07
   12.4575005         8.37328571E-07
   12.6225004         7.65285165E-07
   12.7875004         6.98134897E-07
   12.9525003         6.25246059E-07
   13.1175003         5.41088866E-07
   13.2825003         4.41778042E-07
   13.4475002         3.18988725E-07
   13.6125002         1.55497588E-07
   13.7775002        -7.38591908E-08
   13.9425001        -3.94602750E-07
   14.1075001        -8.20729440E-07
   14.2725000        -1.34360926E-06
   14.4375000        -1.92717812E-06
   14.6025000        -2.51260440E-06
   14.7674999        -3.03141678E-06
   14.9324999        -3.42201156E-06
   15.0974998        -3.64257971E-06
   15.2624998        -3.67494818E-06
   15.4274998        -3.51810536E-06
   15.5924997        -3.17529634E-06
   15.7574997        -2.64197342E-06
   15.9224997        -1.90174785E-06
   16.0874996        -9.33693400E-07
   16.2525005         2.71383499E-07
   16.4174995         1.69299994E-06
   16.5825005         3.27028420E-06
   16.7474995         4.90482444E-06
   16.9125004         6.47773186E-06
   17.0774994         7.87542194E-06
   17.2425003         9.01477415E-06
   17.4074993         9.85853421E-06
   17.5725002         1.04159053E-05
   17.7374992         1.07292017E-05
   17.9025002         1.08528238E-05
   18.0674992         1.08331578E-05
   18.2325001         1.06968091E-05
   18.3974991         1.04504770E-05
   18.5625000         1.00907246E-05
   18.7275009         9.61793285E-06
   18.8924999         9.04737226E-06
   19.0575008         8.41177189E-06
   19.2224998         7.75350873E-06
   19.3875008         7.10899076E-06
   19.5524998         6.49146523E-06
   19.7175007         5.87979184E-06
   19.8824997         5.21921129E-06
   20.0475006         4.43594263E-06
   20.2124996         3.46208230E-06
   20.3775005         2.26269185E-06
   20.5424995         8.55344524E-07
   20.7075005        -6.85327620E-07
   20.8724995        -2.23989650E-06
   21.0375004        -3.66832796E-06
   21.2024994        -4.83661051E-06
   21.3675003        -5.63618323E-06
   21.5324993        -5.99115538E-06
   21.6975002        -5.85544694E-06
   21.8624992        -5.20773392E-06
   22.0275002        -4.05283345E-06
   22.1924992        -2.43296722E-06
   22.3575001        -4.43631222E-07
   22.5224991         1.75838488E-06
   22.6875000         3.96791893E-06
   22.8525009         5.97052485E-06
   23.0174999         7.59947216E-06
   23.1825008         8.78987885E-06
   23.3474998         9.60509988E-06
   23.5125008         1.02185477E-05
   23.6774998         1.08522108E-05
   23.8425007         1.16930887E-05
   24.0074997         1.28207666E-05
   24.1725006         1.41762112E-05
   24.3374996         1.55844591E-05
   24.5025005         1.68196093E-05
   24.6674995         1.76816902E-05
   24.8325005         1.80510797E-05
   24.9974995         1.78990995E-05
   25.1625004         1.72568198E-05
   25.3274994         1.61650914E-05
   25.4925003         1.46366010E-05
   25.6574993         1.26510186E-05
   25.8225002         1.01832047E-05
   25.9874992         7.24405027E-06
   26.1525002         3.90588002E-06
   26.3174992         2.93961477E-07
   26.4825001        -3.45305239E-06
   26.6474991        -7.23090352E-06
   26.8125000        -1.09964894E-05
   26.9775009        -1.47562623E-05
   27.1424999        -1.85227400E-05
   27.3075008        -2.22669460E-05
   27.4724998        -2.58998589E-05
   27.6375008        -2.93003632E-05
   27.8024998        -3.23786226E-05
   27.9675007        -3.51386989E-05
   28.1324997        -3.76986100E-05
   28.2975006        -4.02453625E-05
   28.4624996        -4.29378160E-05
   28.6275005        -4.58022987E-05
   28.7924995        -4.86757344E-05
   28.9575005        -5.12314255E-05
   29.1224995        -5.30821198E-05
   29.2875004        -5.39155917E-05
   29.4524994        -5.36007028E-05
   29.6175003        -5.22171467E-05
   29.7824993        -5.00016140E-05
   29.9475002        -4.72448846E-05
   30.1124992        -4.41958255E-05
   30.2775002        -4.10173961E-05
   30.4424992        -3.78047007E-05
   30.6075001        -3.46367560E-05
   30.7724991        -3.16155420E-05
   30.9375000        -2.88583433E-05
   31.1025009        -2.64444388E-05
   31.2674999        -2.43521663E-05
   31.4325008        -2.24347186E-05
   31.5974998        -2.04634471E-05
   31.7625008        -1.82266813E-05
   31.9274998        -1.56348542E-05
   32.0924988        -1.27726389E-05
   32.2574997        -9.86425403E-06
   32.4225006        -7.16557315E-06
   32.5875015        -4.83889926E-06
   32.7524986        -2.87777743E-06
   32.9174995        -1.12202520E-06
   33.0825005         6.47791694E-07
   33.2475014         2.59243507E-06
   33.4124985         4.74126637E-06
   33.5774994         7.00567898E-06
   33.7425003         9.26772009E-06
   33.9075012         1.14875556E-05
   34.0724983         1.37617144E-05
   34.2374992         1.62932338E-05
   34.4025002         1.92874686E-05
   34.5675011         2.28321023E-05
   34.7324982         2.68299536E-05
   34.8974991         3.10229952E-05
   35.0625000         3.50936425E-05
   35.2275009         3.87864930E-05
   35.3925018         4.19853422E-05
   35.5574989         4.47103339E-05
   35.7224998         4.70487685E-05
   35.8875008         4.90702405E-05
   36.0525017         5.07798395E-05
   36.2174988         5.21322363E-05
   36.3824997         5.30858197E-05
   36.5475006         5.36486841E-05
   36.7125015         5.38754030E-05
   36.8774986         5.38100830E-05
   37.0424995         5.34125611E-05
   37.2075005         5.25222677E-05
   37.3725014         5.08948760E-05
   37.5374985         4.83014228E-05
   37.7024994         4.46368249E-05
   37.8675003         3.99737073E-05
   38.0325012         3.45271183E-05
   38.1974983         2.85494589E-05
   38.3624992         2.22192484E-05
   38.5275002         1.55932739E-05
   38.6925011         8.65343372E-06
   38.8574982         1.41953569E-06
   39.0224991        -5.94522862E-06
   39.1875000        -1.31095458E-05
   39.3525009        -1.96568708E-05
   39.5175018        -2.52373047E-05
   39.6824989        -2.97054339E-05
   39.8474998        -3.31662886E-05
   40.0125008        -3.59046462E-05
   40.1775017        -3.82412145E-05
   40.3424988        -4.04008606E-05
   40.5074997        -4.24660211E-05
   40.6725006        -4.44303041E-05
   40.8375015        -4.62998105E-05
   41.0024986        -4.81573334E-05
   41.1674995        -5.01299037E-05
   41.3325005        -5.22691880E-05
   41.4975014        -5.44230788E-05
   41.6624985        -5.61988963E-05
   41.8274994        -5.70741468E-05
   41.9925003        -5.66225972E-05
   42.1575012        -5.47430827E-05
   42.3224983        -5.17590634E-05
   42.4874992        -4.83153890E-05
   42.6525002        -4.51073902E-05
   42.8175011        -4.25746439E-05
   42.9824982        -4.07190200E-05
   43.1474991        -3.91446883E-05
   43.3125000        -3.72978975E-05
   43.4775009        -3.47745008E-05
   43.6425018        -3.15262514E-05
   43.8074989        -2.78561020E-05
   43.9724998        -2.42140868E-05
   44.1375008        -2.09193986E-05
   44.3025017        -1.79742601E-05
   44.4674988        -1.50781079E-05
   44.6324997        -1.18299522E-05
   44.7975006        -7.99427471E-06
   44.9625015        -3.66809104E-06
   45.1274986         7.53404720E-07
   45.2924995         4.79344726E-06
   45.4575005         8.16245119E-06
   45.6225014         1.09157008E-05
   45.7874985         1.34023012E-05
   45.9524994         1.60336549E-05
   46.1175003         1.90110313E-05
   46.2825012         2.21808332E-05
   46.4474983         2.51134352E-05
   46.6124992         2.73681544E-05
   46.7775002         2.87914481E-05
   46.9425011         2.96672952E-05
   47.1074982         3.06176662E-05
   47.2724991         3.22934720E-05
   47.4375000         3.50208538E-05
   47.6025009         3.86009560E-05
   47.7675018         4.23815000E-05
   47.9324989         4.55693189E-05
   48.0974998         4.76177302E-05
   48.2625008         4.84789271E-05
   48.4275017         4.85847740E-05
   48.5924988         4.85691889E-05
   48.7574997         4.88877449E-05
   48.9225006         4.95450513E-05
   49.0875015         5.00782189E-05
   49.2524986         4.98007757E-05
   49.4174995         4.81676725E-05
   49.5825005         4.50591906E-05
   49.7475014         4.08329943E-05
   49.9124985         3.61280581E-05
   50.0774994         3.15433717E-05
   50.2425003         2.73791575E-05
   50.4075012         2.35830958E-05
   50.5724983         1.99177812E-05
   50.7374992         1.62329106E-05
   50.9025002         1.26645218E-05
   51.0675011         9.62921604E-06
   51.2324982         7.60662579E-06
   51.3974991         6.83411554E-06
   51.5625000         7.09691585E-06
   51.7275009         7.74801083E-06
   51.8925018         7.96252880E-06
   52.0574989         7.09548067E-06
   52.2224998         4.94877486E-06
   52.3875008         1.80151881E-06
   52.5525017        -1.80935274E-06
   52.7174988        -5.42861926E-06
   52.8824997        -8.94336972E-06
   53.0475006        -1.26101559E-05
   53.2125015        -1.68291808E-05
   53.3774986        -2.17950219E-05
   53.5424995        -2.72307698E-05
   53.7075005        -3.23726017E-05
   53.8725014        -3.62350402E-05
   54.0374985        -3.80299571E-05
   54.2024994        -3.75230520E-05
   54.3675003        -3.51414674E-05
   54.5325012        -3.17786471E-05
   54.6974983        -2.84040798E-05
   54.8624992        -2.56854219E-05
   55.0275002        -2.38136945E-05
   55.1925011        -2.26006014E-05
   55.3574982        -2.17610759E-05
   55.5224991        -2.11937841E-05
   55.6875000        -2.10840990E-05
   55.8525009        -2.17687229E-05
   56.0175018        -2.34503877E-05
   56.1824989        -2.59460285E-05
   56.3474998        -2.86364721E-05
   56.5125008        -3.06682850E-05
   56.6775017        -3.13080891E-05
   56.8424988        -3.02550707E-05
   57.0074997        -2.77353556E-05
   57.1725006        -2.43239665E-05
   57.3375015        -2.05959022E-05
   57.5024986        -1.68072802E-05
   57.6674995        -1.27914891E-05
   57.8325005        -8.13166116E-06
   57.9975014        -2.50988114E-06
   58.1624985         3.97192571E-06
   58.3274994         1.06930065E-05
   58.4925003         1.67072376E-05
   58.6575012         2.11346924E-05
   58.8224983         2.35438511E-05
   58.9874992         2.41202033E-05
   59.1525002         2.35341558E-05
   59.3175011         2.25858930E-05
   59.4824982         2.18235818E-05
   59.6474991         2.13384901E-05
   59.8125000         2.08340898E-05
   59.9775009         1.99090318E-05
   60.1425018         1.83760694E-05
   60.3074989         1.64263420E-05
   60.4724998         1.45453159E-05
   60.6375008         1.32346740E-05
   60.8025017         1.27073117E-05
   60.9674988         1.27364028E-05
   61.1324997         1.27483763E-05
   61.2975006         1.21084249E-05
   61.4625015         1.04381679E-05
   61.6274986         7.79018228E-06
   61.7924995         4.58973818E-06
   61.9575005         1.38867574E-06
   62.1225014        -1.41854184E-06
   62.2874985        -3.75072909E-06
   62.4524994        -5.78245590E-06
   62.6175003        -7.71630675E-06
   62.7825012        -9.52959817E-06
   62.9474983        -1.08565382E-05
   63.1124992        -1.10894607E-05
   63.2775002        -9.65669278E-06
   63.4425011        -6.33186255E-06
   63.6074982        -1.40749967E-06
   63.7724991         4.36393611E-06
   63.9375000         1.00359794E-05
   64.1025009         1.48086820E-05
   64.2675018         1.82775530E-05
   64.4325027         2.04795142E-05
   64.5975037         2.17349861E-05
   64.7624969         2.23895422E-05
   64.9274979         2.26016691E-05
   65.0924988         2.22853978E-05
   65.2574997         2.12233408E-05
   65.4225006         1.92704556E-05
   65.5875015         1.65231831E-05
   65.7525024         1.33541334E-05
   65.9175034         1.02910635E-05
   66.0824966         7.80506980E-06
   66.2474976         6.11971336E-06
   66.4124985         5.13740724E-06
   66.5774994         4.51379628E-06
   66.7425003         3.83314136E-06
   66.9075012         2.78983612E-06
   67.0725021         1.28657439E-06
   67.2375031        -5.88235935E-07
   67.4024963        -2.67342330E-06
   67.5674973        -4.86187446E-06
   67.7324982        -7.16369550E-06
   67.8974991        -9.67012238E-06
   68.0625000        -1.24424678E-05
   68.2275009        -1.53949240E-05
   68.3925018        -1.82456770E-05
   68.5575027        -2.05752694E-05
   68.7225037        -2.19741523E-05
   68.8874969        -2.22125982E-05
   69.0524979        -2.13508683E-05
   69.2174988        -1.97330610E-05
   69.3824997        -1.78615483E-05
   69.5475006        -1.62042397E-05
   69.7125015        -1.50176784E-05
   69.8775024        -1.42616127E-05
   70.0425034        -1.36394092E-05
   70.2074966        -1.27433259E-05
   70.3724976        -1.12393054E-05
   70.5374985        -9.01185831E-06
   70.7024994        -6.21050594E-06
   70.8675003        -3.18443767E-06
   71.0325012        -3.40550656E-07
   71.1975021         2.00929844E-06
   71.3625031         3.74577030E-06
   71.5274963         4.94705728E-06
   71.6924973         5.80812912E-06
   71.8574982         6.51960499E-06
   72.0224991         7.16753993E-06
   72.1875000         7.70166389E-06
   72.3525009         7.98339352E-06
   72.5175018         7.88393663E-06
   72.6825027         7.37740856E-06
   72.8475037         6.57691317E-06
   73.0124969         5.69203712E-06
   73.1774979         4.92890649E-06
   73.3424988         4.38641428E-06
   73.5074997         4.00635463E-06
   73.6725006         3.60725653E-06
   73.8375015         2.98544228E-06
   74.0025024         2.02753313E-06
   74.1675034         7.69355211E-07
   74.3324966        -6.35152389E-07
   74.4974976        -2.01856574E-06
   74.6624985        -3.31388833E-06
   74.8274994        -4.60036972E-06
   74.9925003        -6.03752960E-06
   75.1575012        -7.70965926E-06
   75.3225021        -9.46529599E-06
   75.4875031        -1.08566001E-05
   75.6524963        -1.12437183E-05
   75.8174973        -1.00445423E-05
   75.9824982        -7.02381385E-06
   76.1474991        -2.47693083E-06
   76.3125000         2.79968708E-06
   76.4775009         7.76064280E-06
   76.6425018         1.14825734E-05
   76.8075027         1.34855609E-05
   76.9725037         1.38568821E-05
   77.1374969         1.31276247E-05
   77.3024979         1.19779697E-05
   77.4674988         1.09306748E-05
   77.6324997         1.01878404E-05
   77.7975006         9.67610958E-06
   77.9625015         9.24170308E-06
   78.1275024         8.85174995E-06
   78.2925034         8.66230130E-06
   78.4574966         8.90453521E-06
   78.6224976         9.66366952E-06
   78.7874985         1.07041378E-05
   78.9524994         1.14780551E-05
   79.1175003         1.13473034E-05
   79.2825012         9.91454090E-06
   79.4475021         7.27741781E-06
   79.6125031         4.04726779E-06
   79.7774963         1.09905318E-06
   79.9424973        -8.26620351E-07
   80.1074982        -1.45706156E-06
   80.2724991        -1.07287713E-06
   80.4375000        -2.98356923E-07
   80.6025009         2.81973854E-07
   80.7675018         4.58509675E-07
   80.9325027         4.88671049E-07
   81.0975037         8.93379763E-07
   81.2624969         2.08003075E-06
   81.4274979         4.01823308E-06
   81.5924988         6.16541138E-06
   81.7574997         7.69318740E-06
   81.9225006         7.88867237E-06
   82.0875015         6.50273842E-06
   82.2525024         3.85085013E-06
   82.4175034         6.20319099E-07
   82.5824966        -2.48920924E-06
   82.7474976        -5.07268123E-06
   82.9124985        -7.09825190E-06
   83.0774994        -8.73355111E-06
   83.2425003        -1.00597708E-05
   83.4075012        -1.08867016E-05
   83.5725021        -1.08156246E-05
   83.7375031        -9.53118251E-06
   83.9024963        -7.14147745E-06
   84.0674973        -4.33205742E-06
   84.2324982        -2.19404069E-06
   84.3974991        -1.77772552E-06
   84.5625000        -3.59675437E-06
   84.7275009        -7.35639014E-06
   84.8925018        -1.20676759E-05
   85.0575027        -1.64982230E-05
   85.2225037        -1.97225763E-05
   85.3874969        -2.14813081E-05
   85.5524979        -2.21703431E-05
   85.7174988        -2.24941123E-05
   85.8824997        -2.30027399E-05
   86.0475006        -2.37852582E-05
   86.2125015        -2.44808016E-05
   86.3775024        -2.45680858E-05
   86.5425034        -2.37253098E-05
   86.7074966        -2.20201982E-05
   86.8724976        -1.98101698E-05
   87.0374985        -1.74277920E-05
   87.2024994        -1.48721338E-05
   87.3675003        -1.17291565E-05
   87.5325012        -7.40054020E-06
   87.6975021        -1.51912582E-06
   87.8625031         5.70234806E-06
   88.0274963         1.34184875E-05
   88.1924973         2.04538264E-05
   88.3574982         2.58057971E-05
   88.5224991         2.90660555E-05
   88.6875000         3.05192516E-05
   88.8525009         3.08666458E-05
   89.0175018         3.07455193E-05
   89.1825027         3.03384695E-05
   89.3475037         2.93124485E-05
   89.5124969         2.71257213E-05
   89.6774979         2.35124717E-05
   89.8424988         1.88384311E-05
   90.0074997         1.40899410E-05
   90.1725006         1.04749697E-05
   90.3375015         8.84949623E-06
   90.5025024         9.29489670E-06
   90.6675034         1.10917208E-05
   90.8324966         1.31079141E-05
   90.9974976         1.43791749E-05
   91.1624985         1.45491967E-05
   91.3274994         1.39246622E-05
   91.4925003         1.31330507E-05
   91.6575012         1.26111363E-05
   91.8225021         1.22540250E-05
   91.9875031         1.14554668E-05
   92.1524963         9.52740993E-06
   92.3174973         6.24511176E-06
   92.4824982         2.17043430E-06
   92.6474991        -1.47869696E-06
   92.8125000        -3.38278642E-06
   92.9775009        -2.81243138E-06
   93.1425018        -7.10114207E-08
   93.3075027         3.57579938E-06
   93.4725037         6.46907574E-06
   93.6374969         7.33077104E-06
   93.8024979         5.83041265E-06
   93.9674988         2.64299342E-06
   94.1324997        -1.02230047E-06
   94.2975006        -4.14960505E-06
   94.4625015        -6.48721152E-06
   94.6275024        -8.64146114E-06
   94.7925034        -1.16463461E-05
   94.9574966        -1.62602355E-05
   95.1224976        -2.23968054E-05
   95.2874985        -2.90222997E-05
   95.4524994        -3.45885092E-05
   95.6175003        -3.77688812E-05
   95.7825012        -3.80940510E-05
   95.9475021        -3.61385646E-05
   96.1125031        -3.31607880E-05
   96.2774963        -3.04019377E-05
   96.4424973        -2.84370471E-05
   96.6074982        -2.69365464E-05
   96.7724991        -2.49625027E-05
   96.9375000        -2.16209137E-05
   97.1025009        -1.66908449E-05
   97.2675018        -1.08647682E-05
   97.4325027        -5.45393414E-06
   97.5975037        -1.71513193E-06
   97.7624969        -1.71543462E-07
   97.9274979        -3.09429481E-07
   98.0924988        -8.28403358E-07
   98.2574997        -3.18678559E-07
   98.4225006         1.99797591E-06
   98.5875015         5.86503847E-06
   98.7525024         1.01456417E-05
   98.9175034         1.34520806E-05
   99.0824966         1.49098259E-05
   99.2474976         1.46420671E-05
   99.4124985         1.37116695E-05
   99.5774994         1.35501223E-05
   99.7425003         1.51786880E-05
   99.9075012         1.86372490E-05
   100.072502         2.29236357E-05
   100.237503         2.64733972E-05
   100.402496         2.79250526E-05
   100.567497         2.67705473E-05
   100.732498         2.35598927E-05
   100.897499         1.95710563E-05
   101.062500         1.61383741E-05
   101.227501         1.40039538E-05
   101.392502         1.30287917E-05
   101.557503         1.23950249E-05
   101.722504         1.11631225E-05
   101.887497         8.86334419E-06
   102.052498         5.79523385E-06
   102.217499         2.87937269E-06
   102.382500         1.15433511E-06
   102.547501         1.20219727E-06
   102.712502         2.81696066E-06
   102.877502         5.09037363E-06
   103.042503         6.85990972E-06
   103.207497         7.27112911E-06
   103.372498         6.15392355E-06
   103.537498         4.02303340E-06
   103.702499         1.72249588E-06
   103.867500        -7.48499289E-08
   104.032501        -1.23111795E-06
   104.197502        -2.17367347E-06
   104.362503        -3.58521515E-06
   104.527496        -5.93596451E-06
   104.692497        -9.12597989E-06
   104.857498        -1.24438266E-05
   105.022499        -1.48749004E-05
   105.187500        -1.56030001E-05
   105.352501        -1.44437236E-05
   105.517502        -1.19818769E-05
   105.682503        -9.33740648E-06
   105.847504        -7.67356687E-06
   106.012497        -7.68866084E-06
   106.177498        -9.33520096E-06
   106.342499        -1.18908765E-05
   106.507500        -1.43293646E-05
   106.672501        -1.57967461E-05
   106.837502        -1.59604861E-05
   107.002502        -1.50762698E-05
   107.167503        -1.37674815E-05
   107.332497        -1.26536070E-05
   107.497498        -1.20268178E-05
   107.662498        -1.17344316E-05
   107.827499        -1.13072356E-05
   107.992500        -1.02449931E-05
   108.157501        -8.29705550E-06
   108.322502        -5.59142109E-06
   108.487503        -2.55603982E-06
   108.652496         3.10070305E-07
   108.817497         2.68200438E-06
   108.982498         4.53577559E-06
   109.147499         6.09345125E-06
   109.312500         7.62586524E-06
   109.477501         9.23025073E-06
   109.642502         1.07130472E-05
   109.807503         1.16503807E-05
   109.972504         1.16017682E-05
   110.137497         1.03678331E-05
   110.302498         8.15482144E-06
   110.467499         5.55232828E-06
   110.632500         3.32350919E-06
   110.797501         2.10172220E-06
   110.962502         2.13609383E-06
   111.127502         3.20642812E-06
   111.292503         4.74651870E-06
   111.457497         6.11462201E-06
   111.622498         6.88026921E-06
   111.787498         6.99161501E-06
   111.952499         6.74878493E-06
   112.117500         6.60475871E-06
   112.282501         6.89838134E-06
   112.447502         7.65372988E-06
   112.612503         8.54339851E-06
   112.777496         9.03016462E-06
   112.942497         8.61418721E-06
   113.107498         7.06431911E-06
   113.272499         4.52486756E-06
   113.437500         1.45452327E-06
   113.602501        -1.56268754E-06
   113.767502        -4.03610466E-06
   113.932503        -5.71265127E-06
   114.097504        -6.58932822E-06
   114.262497        -6.80939911E-06
   114.427498        -6.51714981E-06
   114.592499        -5.76152161E-06
   114.757500        -4.50376137E-06
   114.922501        -2.71914291E-06
   115.087502        -5.24533561E-07
   115.252502         1.75536979E-06
   115.417503         3.63910772E-06
   115.582497         4.64808181E-06
   115.747498         4.50282050E-06
   115.912498         3.25701262E-06
   116.077499         1.29565967E-06
   116.242500        -8.10440497E-07
   116.407501        -2.52901873E-06
   116.572502        -3.56342048E-06
   116.737503        -3.92910670E-06
   116.902496        -3.87708860E-06
   117.067497        -3.70963744E-06
   117.232498        -3.58814873E-06
   117.397499        -3.43583383E-06
   117.562500        -2.98713371E-06
   117.727501        -1.95750772E-06
   117.892502        -2.42332817E-07
   118.057503         1.96355495E-06
   118.222504         4.19433945E-06
   118.387497         5.88206512E-06
   118.552498         6.58537374E-06
   118.717499         6.16619855E-06
   118.882500         4.82884434E-06
   119.047501         3.00615989E-06
   119.212502         1.15492594E-06
   119.377502        -4.33475179E-07
   119.542503        -1.71354645E-06
   119.707497        -2.82532210E-06
   119.872498        -3.93811388E-06
   120.037498        -5.09380743E-06
   120.202499        -6.14211649E-06
   120.367500        -6.80590620E-06
   120.532501        -6.83925464E-06
   120.697502        -6.18643844E-06
   120.862503        -5.04738045E-06
   121.027496        -3.80658571E-06
   121.192497        -2.85998590E-06
   121.357498        -2.43364775E-06
   121.522499        -2.49538061E-06
   121.687500        -2.80945210E-06
   121.852501        -3.10323117E-06
   122.017502        -3.24842472E-06
   122.182503        -3.34735728E-06
   122.347504        -3.66613699E-06
   122.512497        -4.44501939E-06
   122.677498        -5.69248414E-06
   122.842499        -7.08833113E-06
   123.007500        -8.06815387E-06
   123.172501        -8.06290427E-06
   123.337502        -6.77667958E-06
   123.502502        -4.35514676E-06
   123.667503        -1.34696108E-06
   123.832497         1.53247311E-06
   123.997498         3.71830606E-06
   124.162498         5.03042247E-06
   124.327499         5.70141901E-06
   124.492500         6.18554350E-06
   124.657501         6.85582154E-06
   124.822502         7.75970602E-06
   124.987503         8.57297618E-06
   125.152496         8.78201445E-06
   125.317497         7.99544705E-06
   125.482498         6.20961146E-06
   125.647499         3.87304863E-06
   125.812500         1.70428962E-06
   125.977501         3.55014691E-07
   126.142502         9.98616940E-08
   126.307503         7.22964273E-07
   126.472504         1.66395921E-06
   126.637497         2.34164418E-06
   126.802498         2.47291928E-06
   126.967499         2.20619222E-06
   127.132500         1.99340457E-06
   127.297501         2.27551413E-06
   127.462502         3.16712817E-06
   127.627502         4.33186278E-06
   127.792503         5.13452596E-06
   127.957497         4.99671341E-06
   128.122498         3.75903528E-06
   128.287506         1.83799580E-06
   128.452499         7.11732753E-08
   128.617493        -6.84547558E-07
   128.782501         5.16519716E-09
   128.947495         1.90901301E-06
   129.112503         4.22475978E-06
   129.277496         5.97069311E-06
   129.442505         6.47079423E-06
   129.607498         5.67645839E-06
   129.772507         4.15331033E-06
   129.937500         2.74198442E-06
   130.102493         2.07882999E-06
   130.267502         2.23900634E-06
   130.432495         2.69735438E-06
   130.597504         2.62767708E-06
   130.762497         1.37452366E-06
   130.927505        -1.16364583E-06
   131.092499        -4.45191290E-06
   131.257507        -7.58261194E-06
   131.422501        -9.73924944E-06
   131.587494        -1.06038833E-05
   131.752502        -1.04831606E-05
   131.917496        -1.00856469E-05
   132.082504        -1.00789421E-05
   132.247498        -1.06799180E-05