  -1.23749995         0.00000000    
  -1.07249999         0.00000000    
 -0.907500029         0.00000000    
 -0.742500007         0.00000000    
 -0.577499986         0.00000000    
 -0.412499994         0.00000000    
 -0.247500002         0.00000000    
  -8.25000033E-02     0.00000000    
   8.25000033E-02     0.00000000    
  0.247500002         0.00000000    
  0.412499994         0.00000000    
  0.577499986         0.00000000    
  0.742500007         0.00000000    
  0.907500029         0.00000000    
   1.07249999         0.00000000    
   1.23749995         0.00000000    
   1.40250003         0.00000000    
   1.56750000         0.00000000    
   1.73249996         0.00000000    
   1.89750004         0.00000000    
   2.06250000         0.00000000    
   2.22749996         0.00000000    
   2.39249992         0.00000000    
   2.55749989         0.00000000    
   2.72250009         0.00000000    
   2.88750005         0.00000000    
   3.05250001         0.00000000    
   3.21749997         0.00000000    
   3.38249993         0.00000000    
   3.54749990         0.00000000    
   3.71250010         0.00000000    
   3.87750006         0.00000000    
   4.04250002         0.00000000    
   4.20749998         0.00000000    
   4.37249994         0.00000000    
   4.53749990         0.00000000    
   4.70249987         0.00000000    
   4.86749983         0.00000000    
   5.03249979         0.00000000    
   5.19750023        -1.46296485E-35
   5.36250019        -1.06906215E-33
   5.52750015        -5.33154242E-33
   5.69250011        -1.11814573E-32
   5.85750008        -1.56115803E-32
   6.02250004        -7.08746833E-33
   6.18750000         2.53901343E-32
   6.35249996         7.97161494E-32
   6.51749992         1.82133716E-31
   6.68249989         3.05874586E-31
   6.84749985         4.65017854E-31
   7.01249981        -9.00592019E-31
   7.17749977        -1.20584708E-29
   7.34250021        -3.17751899E-29
   7.50750017        -3.66716953E-29
   7.67250013         8.30684881E-30
   7.83750010         1.23467132E-28
   8.00249958         3.24956069E-28
   8.16749954         5.49080749E-28
   8.33250046         6.08625785E-28
   8.49750042         2.10570082E-28
   8.66250038        -9.40018769E-28
   8.82750034        -2.89488013E-27
   8.99250031        -5.07250581E-27
   9.15750027        -5.99662285E-27
   9.32250023        -3.39602193E-27
   9.48750019         5.00151141E-27
   9.65250015         1.98389135E-26
   9.81750011         3.80491404E-26
   9.98250008         5.13501796E-26
   10.1475000         4.68707254E-26
   10.3125000         1.13289632E-26
   10.4775000        -6.10099354E-26
   10.6424999        -1.58713662E-25
   10.8074999        -2.46752758E-25
   10.9724998        -2.69789296E-25
   11.1374998        -1.70408648E-25
   11.3024998         7.80454298E-26
   11.4674997         4.33632402E-25
   11.6324997         7.62295423E-25
   11.7974997         8.52497624E-25
   11.9624996         4.85131559E-25
   12.1274996        -4.45163577E-25
   12.2924995        -1.79275109E-24
   12.4575005        -3.07372907E-24
   12.6225004        -3.50614633E-24
   12.7875004        -2.23137531E-24
   12.9525003         1.29447253E-24
   13.1175003         6.84231996E-24
   13.2825003         1.30732388E-23
   13.4475002         1.75429633E-23
   13.6125002         1.72087293E-23
   13.7775002         9.44124745E-24
   13.9425001        -6.67490080E-24
   14.1075001        -2.91720037E-23
   14.2725000        -5.26731640E-23
   14.4375000        -6.89365476E-23
   14.6025000        -6.86304381E-23
   14.7674999        -4.41232213E-23
   14.9324999         7.29256232E-24
   15.0974998         8.05591446E-23
   15.2624998         1.61266532E-22
   15.4274998         2.26090363E-22
   15.5924997         2.45841319E-22
   15.7574997         1.91473228E-22
   15.9224997         4.30027201E-23
   16.0874996        -1.99462091E-22
   16.2525005        -5.04687711E-22
   16.4174995        -8.03115786E-22
   16.5825005        -9.88888465E-22
   16.7474995        -9.36684806E-22
   16.9125004        -5.36474640E-22
   17.0774994         2.56637834E-22
   17.2425003         1.36899765E-21
   17.4074993         2.57173118E-21
   17.5725002         3.48571002E-21
   17.7374992         3.64876234E-21
   17.9025002         2.64997629E-21
   18.0674992         3.10271262E-22
   18.2325001        -3.14031082E-21
   18.3974991        -6.95880150E-21
   18.5625000        -9.93002456E-21
   18.7275009        -1.05962975E-20
   18.8924999        -7.66797316E-21
   19.0575008        -5.40036859E-22
   19.2224998         1.02203375E-20
   19.3875008         2.25818498E-20
   19.5524998         3.31058102E-20
   19.7175007         3.74425663E-20
   19.8824997         3.12595011E-20
   20.0475006         1.14789913E-20
   20.2124996        -2.23977052E-20
   20.3775005        -6.71743682E-20
   20.5424995        -1.15370977E-19
   20.7075005        -1.55457959E-19
   20.8724995        -1.73132702E-19
   21.0375004        -1.53720932E-19
   21.2024994        -8.55786586E-20
   21.3675003         3.59046566E-20
   21.5324993         2.04416582E-19
   21.6975002         3.99943687E-19
   21.8624992         5.88241376E-19
   22.0275002         7.23558146E-19
   22.1924992         7.55131682E-19
   22.3575001         6.37133282E-19
   22.5224991         3.40686640E-19
   22.6875000        -1.34407738E-19
   22.8525009        -7.51205211E-19
   23.0174999        -1.43326453E-18
   23.1825008        -2.07032326E-18
   23.3474998        -2.53224263E-18
   23.5125008        -2.68944500E-18
   23.6774998        -2.43625618E-18
   23.8425007        -1.71256362E-18
   24.0074997        -5.19393583E-19
   24.1725006         1.07454318E-18
   24.3374996         2.93595351E-18
   24.5025005         4.87782700E-18
   24.6674995         6.67437685E-18
   24.8325005         8.07603977E-18
   24.9974995         8.82195320E-18
   25.1625004         8.65036037E-18
   25.3274994         7.31101351E-18
   25.4925003         4.58660814E-18
   25.6574993         3.30959590E-19
   25.8225002        -5.47112022E-18
   25.9874992        -1.26239400E-17
   26.1525002        -2.06325480E-17
   26.3174992        -2.86283206E-17
   26.4825001        -3.53399450E-17
   26.6474991        -3.91444464E-17
   26.8125000        -3.82272189E-17
   26.9775009        -3.08631244E-17
   27.1424999        -1.58038944E-17
   27.3075008         7.27659866E-18
   27.4724998         3.73604958E-17
   27.6375008         7.17923222E-17
   27.8024998         1.06223060E-16
   27.9675007         1.34880084E-16
   28.1324997         1.51202978E-16
   28.2975006         1.48814001E-16
   28.4624996         1.22711331E-16
   28.6275005         7.05002330E-17
   28.7924995        -6.56883522E-18
   28.9575005        -1.02989280E-16
   29.1224995        -2.09001078E-16
   29.2875004        -3.11301496E-16
   29.4524994        -3.94435503E-16
   29.6175003        -4.42712728E-16
   29.7824993        -4.42396917E-16
   29.9475002        -3.83858867E-16
   30.1124992        -2.63390215E-16
   30.2775002        -8.44310994E-17
   30.4424992         1.41938582E-16
   30.6075001         3.97292995E-16
   30.7724991         6.56900785E-16
   30.9375000         8.91421709E-16
   31.1025009         1.06915664E-15
   31.2674999         1.15876309E-15
   31.4325008         1.13236404E-15
   31.5974998         9.68974246E-16
   31.7625008         6.58110825E-16
   31.9274998         2.03348603E-16
   32.0924988        -3.74578483E-16
   32.2574997        -1.03569249E-15
   32.4225006        -1.72039803E-15
   32.5875015        -2.35153880E-15
   32.7524986        -2.83947911E-15
   32.9174995        -3.09047404E-15
   33.0825005        -3.01808978E-15
   33.2475014        -2.55678145E-15
   33.4124985        -1.67607417E-15
   33.5774994        -3.93246375E-16
   33.7425003         1.21784947E-15
   33.9075012         3.02406835E-15
   34.0724983         4.83801884E-15
   34.2374992         6.43158935E-15
   34.4025002         7.55747868E-15
   34.5675011         7.97705052E-15
   34.7324982         7.49183701E-15
   34.8974991         5.97533125E-15
   35.0625000         3.40150305E-15
   35.2275009        -1.33426774E-16
   35.3925018        -4.39907112E-15
   35.5574989        -9.03143205E-15
   35.7224998        -1.35479998E-14
   35.8875008        -1.73787783E-14
   36.0525017        -1.99136887E-14
   36.2174988        -2.05653196E-14
   36.3824997        -1.88439945E-14
   36.5475006        -1.44394655E-14
   36.7125015        -7.30069640E-15
   36.8774986         2.29746845E-15
   37.0424995         1.37136277E-14
   37.2075005         2.59380513E-14
   37.3725014         3.76403485E-14
   37.5374985         4.72722379E-14
   37.7024994         5.32236405E-14
   37.8675003         5.40213558E-14
   38.0325012         4.85500007E-14
   38.1974983         3.62667389E-14
   38.3624992         1.73764693E-14
   38.5275002        -7.06589591E-15
   38.6925011        -3.51533886E-14
   38.8574982        -6.42404559E-14
   39.0224991        -9.11705200E-14
   39.1875000        -1.12597641E-13
   39.3525009        -1.25365132E-13
   39.5175018        -1.26892407E-13
   39.6824989        -1.15517838E-13
   39.8474998        -9.07515098E-14
   40.0125008        -5.34059694E-14
   40.1775017        -5.59346635E-15
   40.3424988         4.94021396E-14
   40.5074997         1.07353850E-13
   40.6725006         1.63387722E-13
   40.8375015         2.12315110E-13
   41.0024986         2.48979006E-13
   41.1674995         2.68605369E-13
   41.3325005         2.67162703E-13
   41.4975014         2.41737538E-13
   41.6624985         1.90928192E-13
   41.8274994         1.15242451E-13
   41.9925003         1.74597512E-14
   42.1575012        -9.71083972E-14
   42.3224983        -2.20546197E-13
   42.4874992        -3.42542401E-13
   42.6525002        -4.50957034E-13
   42.8175011        -5.32782314E-13
   42.9824982        -5.75472666E-13
   43.1474991        -5.68539681E-13
   43.3125000        -5.05231816E-13
   43.4775009        -3.84052951E-13
   43.6425018        -2.09845853E-13
   43.8074989         5.81850352E-15
   43.9724998         2.45132988E-13
   44.1375008         4.85495324E-13
   44.3025017         7.01810246E-13
   44.4674988         8.69401176E-13
   44.6324997         9.67141731E-13
   44.7975006         9.80334737E-13
   44.9625015         9.02866865E-13
   45.1274986         7.38256244E-13
   45.2924995         4.99384822E-13
   45.4575005         2.06929878E-13
   45.6225014        -1.13252256E-13
   45.7874985        -4.33344387E-13
   45.9524994        -7.26826151E-13
   46.1175003        -9.71208682E-13
   46.2825012        -1.14979966E-12
   46.4474983        -1.25226825E-12
   46.6124992        -1.27405074E-12
   46.7775002        -1.21490751E-12
   46.9425011        -1.07715215E-12
   47.1074982        -8.64160739E-13
   47.2724991        -5.79719703E-13
   47.4375000        -2.28562259E-13
   47.6025009         1.81870551E-13
   47.7675018         6.38779123E-13
   47.9324989         1.12114170E-12
   48.0974998         1.59753710E-12
   48.2625008         2.02559172E-12
   48.4275017         2.35380574E-12
   48.5924988         2.52611885E-12
   48.7574997         2.48902678E-12
   48.9225006         2.20046876E-12
   49.0875015         1.63917469E-12
   49.2524986         8.12839921E-13
   49.4174995        -2.36557085E-13
   49.5825005        -1.43169829E-12
   49.7475014        -2.66397169E-12
   49.9124985        -3.80267953E-12
   50.0774994        -4.70862281E-12
   50.2425003        -5.25050272E-12
   50.4075012        -5.32201887E-12
   50.5724983        -4.85731941E-12
   50.7374992        -3.84258814E-12
   50.9025002        -2.32203254E-12
   51.0675011        -3.97304802E-13
   51.2324982         1.77973413E-12
   51.3974991         4.02009329E-12
   51.5625000         6.11503599E-12
   51.7275009         7.85575598E-12
   51.8925018         9.05320263E-12
   52.0574989         9.55607034E-12
   52.2224998         9.26537493E-12
   52.3875008         8.14460131E-12
   52.5525017         6.22490471E-12
   52.7174988         3.60527493E-12
   52.8824997         4.47834342E-13
   53.0475006        -3.03144532E-12
   53.2125015        -6.57627642E-12
   53.3774986        -9.90739695E-12
   53.5424995        -1.27430271E-11
   53.7075005        -1.48213750E-11
   53.8725014        -1.59235611E-11
   54.0374985        -1.58948844E-11
   54.2024994        -1.46620112E-11
   54.3675003        -1.22437954E-11
   54.5325012        -8.75388911E-12
   54.6974983        -4.39431954E-12
   54.8624992         5.59636701E-13
   55.0275002         5.78168416E-12
   55.1925011         1.09212058E-11
   55.3574982         1.56312411E-11
   55.5224991         1.95945031E-11
   55.6875000         2.25447317E-11
   55.8525009         2.42815924E-11
   56.0175018         2.46784346E-11
   56.1824989         2.36833886E-11
   56.3474998         2.13151146E-11
   56.5125008         1.76551187E-11
   56.6775017         1.28387136E-11
   56.8424988         7.04644893E-12
   57.0074997         4.97260002E-13
   57.1725006        -6.55620089E-12
   57.3375015        -1.38305114E-11
   57.5024986        -2.10139493E-11
   57.6674995        -2.77702739E-11
   57.8325005        -3.37456764E-11
   57.9975014        -3.85803021E-11
   58.1624985        -4.19249011E-11
   58.3274994        -4.34617967E-11
   58.4925003        -4.29283727E-11
   58.6575012        -4.01402002E-11
   58.8224983        -3.50108414E-11
   58.9874992        -2.75657882E-11
   59.1525002        -1.79491283E-11
   59.3175011        -6.42293033E-12
   59.4824982         6.63922736E-12
   59.6474991         2.07625601E-11
   59.8125000         3.53829119E-11
   59.9775009         4.98589711E-11
   60.1425018         6.34848077E-11
   60.3074989         7.55044846E-11
   60.4724998         8.51314783E-11
   60.6375008         9.15761772E-11
   60.8025017         9.40838241E-11
   60.9674988         9.19836499E-11
   61.1324997         8.47476325E-11
   61.2975006         7.20543764E-11
   61.4625015         5.38519437E-11
   61.6274986         3.04116489E-11
   61.7924995         2.36528744E-12
   61.9575005        -2.92809388E-11
   62.1225014        -6.31599217E-11
   62.2874985        -9.75862516E-11
   62.4524994        -1.30626870E-10
   62.6175003        -1.60196120E-10
   62.7825012        -1.84170304E-10
   62.9474983        -2.00516062E-10
   63.1124992        -2.07426076E-10
   63.2775002        -2.03456058E-10
   63.4425011        -1.87655724E-10
   63.6074982        -1.59686001E-10
   63.7724991        -1.19913107E-10
   63.9375000        -6.94694302E-11
   64.1025009        -1.02700114E-11
   64.2675018         5.50245058E-11
   64.4325027         1.23105637E-10
   64.5975037         1.90177110E-10
   64.7624969         2.52172810E-10
   64.9274979         3.05020981E-10
   65.0924988         3.44935497E-10
   65.2574997         3.68710090E-10
   65.4225006         3.73987230E-10
   65.5875015         3.59473812E-10
   65.7525024         3.25077715E-10
   65.9175034         2.71947243E-10
   66.0824966         2.02404357E-10
   66.2474976         1.19775245E-10
   66.4124985         2.81349822E-11
   66.5774994        -6.80048795E-11
   66.7425003        -1.64027847E-10
   66.9075012        -2.55521437E-10
   67.0725021        -3.38525069E-10
   67.2375031        -4.09688672E-10
   67.4024963        -4.66330419E-10
   67.5674973        -5.06401643E-10
   67.7324982        -5.28385558E-10
   67.8974991        -5.31171440E-10
   68.0625000        -5.13949217E-10
   68.2275009        -4.76167383E-10
   68.3925018        -4.17579665E-10
   68.5575027        -3.38385708E-10
   68.7225037        -2.39447184E-10
   68.8874969        -1.22538382E-10
   69.0524979         9.42217658E-12
   69.2174988         1.52217530E-10
   69.3824997         3.00306169E-10
   69.5475006         4.46957749E-10
   69.7125015         5.84561732E-10
   69.8775024         7.05093595E-10
   70.0425034         8.00697564E-10
   70.2074966         8.64326277E-10
   70.3724976         8.90363505E-10
   70.5374985         8.75154449E-10
   70.7024994         8.17376611E-10
   70.8675003         7.18202164E-10
   71.0325012         5.81231951E-10
   71.1975021         4.12211043E-10
   71.3625031         2.18569302E-10
   71.5274963         8.85419949E-12
   71.6924973        -2.07863476E-10
   71.8574982        -4.22531676E-10
   72.0224991        -6.26544372E-10
   72.1875000        -8.12020229E-10
   72.3525009        -9.71933312E-10
   72.5175018        -1.10012721E-09
   72.6825027        -1.19126820E-09
   72.8475037        -1.24080224E-09
   73.0124969        -1.24497368E-09
   73.1774979        -1.20094190E-09
   73.3424988        -1.10700771E-09
   73.5074997        -9.62925295E-10
   73.6725006        -7.70254915E-10
   73.8375015        -5.32691613E-10
   74.0025024        -2.56302146E-10
   74.1675034         5.03879369E-11
   74.3324966         3.76498888E-10
   74.4974976         7.09110048E-10
   74.6624985         1.03377074E-09
   74.8274994         1.33517741E-09
   74.9925003         1.59796310E-09
   75.1575012         1.80754034E-09
   75.3225021         1.95093208E-09
   75.4875031         2.01753036E-09
   75.6524963         1.99974037E-09
   75.8174973         1.89346694E-09
   75.9824982         1.69843084E-09
   76.1474991         1.41829914E-09
   76.3125000         1.06063236E-09
   76.4775009         6.36653286E-10
   76.6425018         1.60845795E-10
   76.8075027        -3.49601681E-10
   76.9725037        -8.75489181E-10
   77.1374969        -1.39640899E-09
   77.3024979        -1.89162042E-09
   77.4674988        -2.34094855E-09
   77.6324997        -2.72564438E-09
   77.7975006        -3.02914249E-09
   77.9625015        -3.23765081E-09
   78.1275024        -3.34052830E-09
   78.2925034        -3.33041950E-09
   78.4574966        -3.20316396E-09
   78.6224976        -2.95752622E-09
   78.7874985        -2.59483102E-09
   78.9524994        -2.11861773E-09
   79.1175003        -1.53442126E-09
   79.2825012        -8.49778026E-10
   79.4475021        -7.45019185E-11
   79.6125031         7.78779430E-10
   79.7774963         1.69391179E-09
   79.9424973         2.65046651E-09
   80.1074982         3.62313579E-09
   80.2724991         4.58146143E-09
   80.4375000         5.49005152E-09
   80.6025009         6.30937880E-09
   80.7675018         6.99717795E-09
   80.9325027         7.51037632E-09
   81.0975037         7.80740095E-09
   81.2624969         7.85068366E-09
   81.4274979         7.60913998E-09
   81.5924988         7.06042913E-09
   81.7574997         6.19281515E-09
   81.9225006         5.00651343E-09
   82.0875015         3.51445428E-09
   82.2525024         1.74245052E-09
   82.4175034        -2.71204392E-10
   82.5824966        -2.47663556E-09
   82.7474976        -4.81369833E-09
   82.9124985        -7.21358484E-09
   83.0774994        -9.60065716E-09
   83.2425003        -1.18943957E-08
   83.4075012        -1.40114453E-08
   83.5725021        -1.58677320E-08
   83.7375031        -1.73806747E-08
   83.9024963        -1.84715496E-08
   84.0674973        -1.90680201E-08
   84.2324982        -1.91068992E-08
   84.3974991        -1.85370670E-08
   84.5625000        -1.73224954E-08
   84.7275009        -1.54452202E-08
   84.8925018        -1.29080622E-08
   85.0575027        -9.73685488E-09
   85.2225037        -5.98192651E-09
   85.3874969        -1.71860826E-09
   85.5524979         2.95343283E-09
   85.7174988         7.91214561E-09
   85.8824997         1.30163595E-08
   86.0475006         1.81102955E-08
   86.2125015         2.30291022E-08
   86.3775024         2.76051679E-08
   86.5425034         3.16747588E-08
   86.7074966         3.50845824E-08
   86.8724976         3.76978555E-08
   87.0374985         3.93994100E-08
   87.2024994         4.00995930E-08
   87.3675003         3.97367685E-08
   87.5325012         3.82784080E-08
   87.6975021         3.57209728E-08
   87.8625031         3.20887281E-08
   88.0274963         2.74319412E-08
   88.1924973         2.18246790E-08
   88.3574982         1.53624633E-08
   88.5224991         8.15990298E-09
   88.6875000         3.48191281E-10
   88.8525009        -7.92764698E-09
   89.0175018        -1.65121090E-08
   89.1825027        -2.52433843E-08
   89.3475037        -3.39586137E-08
   89.5124969        -4.25002398E-08
   89.6774979        -5.07232940E-08
   89.8424988        -5.85032360E-08
   90.0074997        -6.57436487E-08
   90.1725006        -7.23830667E-08
   90.3375015        -7.84000349E-08
   90.5025024        -8.38156282E-08
   90.6675034        -8.86928433E-08
   90.8324966        -9.31325985E-08
   90.9974976        -9.72663585E-08
   91.1624985        -1.01245867E-07
   91.3274994        -1.05231003E-07
   91.4925003        -1.09376643E-07
   91.6575012        -1.13820015E-07
   91.8225021        -1.18669774E-07
   91.9875031        -1.23997765E-07
   92.1524963        -1.29834447E-07
   92.3174973        -1.36168083E-07
   92.4824982        -1.42947783E-07
   92.6474991        -1.50089647E-07
   92.8125000        -1.57485246E-07
   92.9775009        -1.65011343E-07
   93.1425018        -1.72539600E-07
   93.3075027        -1.79945573E-07
   93.4725037        -1.87116086E-07
   93.6374969        -1.93954634E-07
   93.8024979        -2.00385003E-07
   93.9674988        -2.06353064E-07
   94.1324997        -2.11827640E-07
   94.2975006        -2.16800544E-07
   94.4625015        -2.21286868E-07
   94.6275024        -2.25325394E-07
   94.7925034        -2.28979800E-07
   94.9574966        -2.32340398E-07
   95.1224976        -2.35526443E-07
   95.2874985        -2.38688443E-07
   95.4524994        -2.42010117E-07
   95.6175003        -2.45709572E-07
   95.7825012        -2.50038909E-07
   95.9475021        -2.55281947E-07
   96.1125031        -2.61749449E-07
   96.2774963        -2.69771562E-07
   96.4424973        -2.79687555E-07
   96.6074982        -2.91832578E-07
   96.7724991        -3.06522310E-07
   96.9375000        -3.24036108E-07
   97.1025009        -3.44599471E-07
   97.2675018        -3.68367751E-07
   97.4325027        -3.95411718E-07
   97.5975037        -4.25706958E-07
   97.7624969        -4.59127705E-07
   97.9274979        -4.95445875E-07
   98.0924988        -5.34336209E-07
   98.2574997        -5.75386082E-07
   98.4225006        -6.18109937E-07
   98.5875015        -6.61967363E-07
   98.7525024        -7.06382764E-07
   98.9175034        -7.50765935E-07
   99.0824966        -7.94532241E-07
   99.2474976        -8.37121092E-07
   99.4124985        -8.78012543E-07
   99.5774994        -9.16741328E-07
   99.7425003        -9.52908749E-07
   99.9075012        -9.86191480E-07
   100.072502        -1.01634896E-06
   100.237503        -1.04322771E-06
   100.402496        -1.06676316E-06
   100.567497        -1.08697998E-06
   100.732498        -1.10398844E-06
   100.897499        -1.11797726E-06
   101.062500        -1.12920418E-06
   101.227501        -1.13798171E-06
   101.392502        -1.14466036E-06
   101.557503        -1.14960847E-06
   101.722504        -1.15319119E-06
   101.887497        -1.15574835E-06
   102.052498        -1.15757393E-06
   102.217499        -1.15889918E-06
   102.382500        -1.15987848E-06
   102.547501        -1.16058311E-06
   102.712502        -1.16100011E-06
   102.877502        -1.16103979E-06
   103.042503        -1.16054878E-06
   103.207497        -1.15933096E-06
   103.372498        -1.15717376E-06
   103.537498        -1.15387627E-06
   103.702499        -1.14928059E-06
   103.867500        -1.14330157E-06
   104.032501        -1.13595161E-06
   104.197502        -1.12735995E-06
   104.362503        -1.11778354E-06
   104.527496        -1.10760720E-06
   104.692497        -1.09733276E-06
   104.857498        -1.08755910E-06
   105.022499        -1.07895164E-06
   105.187500        -1.07220637E-06
   105.352501        -1.06801076E-06
   105.517502        -1.06700293E-06
   105.682503        -1.06973607E-06
   105.847504        -1.07664653E-06
   106.012497        -1.08803044E-06
   106.177498        -1.10402857E-06
   106.342499        -1.12461760E-06
   106.507500        -1.14960869E-06
   106.672501        -1.17865000E-06
   106.837502        -1.21123173E-06
   107.002502        -1.24669305E-06
   107.167503        -1.28422892E-06
   107.332497        -1.32289972E-06
   107.497498        -1.36164283E-06
   107.662498        -1.39928989E-06
   107.827499        -1.43459090E-06
   107.992500        -1.46624814E-06
   108.157501        -1.49295818E-06
   108.322502        -1.51346501E-06
   108.487503        -1.52661789E-06
   108.652496        -1.53143446E-06
   108.817497        -1.52716120E-06
   108.982498        -1.51332881E-06
   109.147499        -1.48979643E-06
   109.312500        -1.45677950E-06
   109.477501        -1.41486044E-06
   109.642502        -1.36497727E-06
   109.807503        -1.30839078E-06
   109.972504        -1.24663222E-06
   110.137497        -1.18143350E-06
   110.302498        -1.11464431E-06
   110.467499        -1.04814171E-06
   110.632500        -9.83738119E-07
   110.797501        -9.23094433E-07
   110.962502        -8.67642598E-07
   111.127502        -8.18523574E-07
   111.292503        -7.76543175E-07
   111.457497        -7.42148586E-07
   111.622498        -7.15425301E-07
   111.787498        -6.96113318E-07
   111.952499        -6.83640451E-07
   112.117500        -6.77168430E-07
   112.282501        -6.75648607E-07
   112.447502        -6.77880905E-07
   112.612503        -6.82573955E-07
   112.777496        -6.88401030E-07
   112.942497        -6.94050527E-07
   113.107498        -6.98269162E-07
   113.272499        -6.99898862E-07
   113.437500        -6.97906955E-07
   113.602501        -6.91412652E-07
   113.767502        -6.79708762E-07
   113.932503        -6.62281536E-07
   114.097504        -6.38825213E-07
   114.262497        -6.09252425E-07
   114.427498        -5.73696809E-07
   114.592499        -5.32506078E-07
   114.757500        -4.86224394E-07
   114.922501        -4.35562498E-07
   115.087502        -3.81357751E-07
   115.252502        -3.24524507E-07
   115.417503        -2.65999660E-07
   115.582497        -2.06687076E-07
   115.747498        -1.47405316E-07
   115.912498        -8.88435068E-08
   116.077499        -3.15289377E-08
   116.242500         2.41917402E-08
   116.407501         7.81557574E-08
   116.572502         1.30373877E-07
   116.737503         1.81007493E-07
   116.902496         2.30337520E-07
   117.067497         2.78727839E-07
   117.232498         3.26587895E-07
   117.397499         3.74336594E-07
   117.562500         4.22370249E-07
   117.727501         4.71034781E-07
   117.892502         5.20602498E-07
   118.057503         5.71252315E-07
   118.222504         6.23053154E-07
   118.387497         6.75949366E-07
   118.552498         7.29749559E-07
   118.717499         7.84118356E-07
   118.882500         8.38574351E-07
   119.047501         8.92494029E-07
   119.212502         9.45125123E-07
   119.377502         9.95608957E-07
   119.542503         1.04301228E-06
   119.707497         1.08636846E-06
   119.872498         1.12472446E-06
   120.037498         1.15719320E-06
   120.202499         1.18300466E-06
   120.367500         1.20155573E-06
   120.532501         1.21245239E-06
   120.697502         1.21554206E-06
   120.862503         1.21093467E-06
   121.027496         1.19901006E-06
   121.192497         1.18041362E-06
   121.357498         1.15603837E-06
   121.522499         1.12699797E-06
   121.687500         1.09459052E-06
   121.852501         1.06025436E-06
   122.017502         1.02551996E-06
   122.182503         9.91956199E-07
   122.347504         9.61115916E-07
   122.512497         9.34479431E-07
   122.677498         9.13401436E-07
   122.842499         8.99059899E-07
   123.007500         8.92411265E-07
   123.172501         8.94151526E-07
   123.337502         9.04683645E-07
   123.502502         9.24091353E-07
   123.667503         9.52118285E-07
   123.832497         9.88151328E-07
   123.997498         1.03121010E-06
   124.162498         1.07994242E-06
   124.327499         1.13262968E-06
   124.492500         1.18720482E-06
   124.657501         1.24128746E-06
   124.822502         1.29223974E-06
   124.987503         1.33724348E-06
   125.152496         1.37340226E-06
   125.317497         1.39786459E-06
   125.482498         1.40796396E-06
   125.647499         1.40137149E-06
   125.812500         1.37624875E-06
   125.977501         1.33139304E-06
   126.142502         1.26635973E-06
   126.307503         1.18155106E-06
   126.472504         1.07826020E-06
   126.637497         9.58662440E-07
   126.802498         8.25750135E-07
   126.967499         6.83213557E-07
   127.132500         5.35273045E-07
   127.297501         3.86475563E-07
   127.462502         2.41467831E-07
   127.627502         1.04762925E-07
   127.792503        -1.94852845E-08
   127.957497        -1.27685354E-07
   128.122498        -2.16977625E-07
   128.287506        -2.85361182E-07
   128.452499        -3.31772640E-07
   128.617493        -3.56114782E-07
   128.782501        -3.59236026E-07
   128.947495        -3.42865007E-07
   129.112503        -3.09507243E-07
   129.277496        -2.62312540E-07
   129.442505        -2.04922259E-07
   129.607498        -1.41306572E-07
   129.772507        -7.55979812E-08
   129.937500        -1.19288552E-08
   130.102493         4.57236915E-08
   130.267502         9.36813151E-08
   130.432495         1.28694055E-07
   130.597504         1.48052422E-07
   130.762497         1.49678414E-07
   130.927505         1.32191715E-07
   131.092499         9.49470618E-08
   131.257507         3.80408096E-08
   131.422501        -3.77144360E-08
   131.587494        -1.30845550E-07
   131.752502        -2.39302011E-07
   131.917496        -3.60560563E-07
   132.082504        -4.91746619E-07
   132.247498        -6.29763576E-07