  -1.23749995         0.00000000    
  -1.07249999         0.00000000    
 -0.907500029         0.00000000    
 -0.742500007         0.00000000    
 -0.577499986         0.00000000    
 -0.412499994         0.00000000    
 -0.247500002         0.00000000    
  -8.25000033E-02     0.00000000    
   8.25000033E-02     0.00000000    
  0.247500002         0.00000000    
  0.412499994         0.00000000    
  0.577499986         0.00000000    
  0.742500007         0.00000000    
  0.907500029         0.00000000    
   1.07249999         0.00000000    
   1.23749995         0.00000000    
   1.40250003         0.00000000    
   1.56750000         0.00000000    
   1.73249996         0.00000000    
   1.89750004         0.00000000    
   2.06250000         0.00000000    
   2.22749996         0.00000000    
   2.39249992         0.00000000    
   2.55749989         0.00000000    
   2.72250009         0.00000000    
   2.88750005         0.00000000    
   3.05250001         0.00000000    
   3.21749997         0.00000000    
   3.38249993         0.00000000    
   3.54749990         0.00000000    
   3.71250010         0.00000000    
   3.87750006         0.00000000    
   4.04250002         0.00000000    
   4.20749998         0.00000000    
   4.37249994         0.00000000    
   4.53749990         0.00000000    
   4.70249987         0.00000000    
   4.86749983         0.00000000    
   5.03249979         0.00000000    
   5.19750023        -2.26724147E-35
   5.36250019        -1.65678747E-33
   5.52750015        -4.73313976E-33
   5.69250011        -9.83878119E-33
   5.85750008        -1.57337392E-32
   6.02250004        -2.07525417E-32
   6.18750000        -2.87842949E-32
   6.35249996        -4.03009892E-32
   6.51749992        -6.71700806E-32
   6.68249989        -1.54933611E-31
   6.84749985        -2.95576385E-31
   7.01249981         1.03784387E-30
   7.17749977         7.74805529E-30
   7.34250021         2.26375055E-29
   7.50750017         3.69275069E-29
   7.67250013         3.66263005E-29
   7.83750010        -5.38325518E-30
   8.00249958        -1.04984211E-28
   8.16749954        -3.04115220E-28
   8.33250046        -5.93058974E-28
   8.49750042        -9.13912499E-28
   8.66250038        -1.12828083E-27
   8.82750034        -1.05283801E-27
   8.99250031        -5.28630503E-28
   9.15750027         4.56571449E-28
   9.32250023         1.63986598E-27
   9.48750019         2.42712490E-27
   9.65250015         1.96855848E-27
   9.81750011        -5.19556725E-28
   9.98250008        -5.24798654E-27
   10.1475000        -1.12624639E-26
   10.3125000        -1.60317706E-26
   10.4775000        -1.54828081E-26
   10.6424999        -4.75696222E-27
   10.8074999         2.02131417E-26
   10.9724998         6.03773368E-26
   11.1374998         1.10808198E-25
   11.3024998         1.58108113E-25
   11.4674997         1.79058668E-25
   11.6324997         1.42234333E-25
   11.7974997         1.49339335E-26
   11.9624996        -2.22313723E-25
   12.1274996        -5.53377395E-25
   12.2924995        -9.00769009E-25
   12.4575005        -1.10845449E-24
   12.6225004        -9.52659392E-25
   12.7875004        -2.02208309E-25
   12.9525003         1.26037037E-24
   13.1175003         3.27317125E-24
   13.2825003         5.24273842E-24
   13.4475002         6.10497916E-24
   13.6125002         4.51335210E-24
   13.7775002        -6.73838033E-25
   13.9425001        -9.65168320E-24
   14.1075001        -2.08912030E-23
   14.2725000        -3.07147916E-23
   14.4375000        -3.36773398E-23
   14.6025000        -2.40606662E-23
   14.7674999         1.61381161E-24
   14.9324999         4.17367341E-23
   15.0974998         8.76644021E-23
   15.2624998         1.24109808E-22
   15.4274998         1.32846600E-22
   15.5924997         9.94873193E-23
   15.7574997         2.14032447E-23
   15.9224997        -8.66421962E-23
   16.0874996        -1.92960805E-22
   16.2525005        -2.57857955E-22
   16.4174995        -2.49955841E-22
   16.5825005        -1.64493793E-22
   16.7474995        -3.47484015E-23
   16.9125004         7.24653938E-23
   17.0774994         8.15979040E-23
   17.2425003        -5.12402014E-23
   17.4074993        -2.97591933E-22
   17.5725002        -5.37919127E-22
   17.7374992        -5.84981382E-22
   17.9025002        -2.55556678E-22
   18.0674992         5.26716949E-22
   18.2325001         1.63901941E-21
   18.3974991         2.73187727E-21
   18.5625000         3.31002219E-21
   18.7275009         2.92620857E-21
   18.8924999         1.43436824E-21
   19.0575008        -8.07018741E-22
   19.2224998        -2.91325116E-21
   19.3875008        -3.72993429E-21
   19.5524998        -2.36426738E-21
   19.7175007         1.15386031E-21
   19.8824997         5.35647914E-21
   20.0475006         7.29645759E-21
   20.2124996         3.22996217E-21
   20.3775005        -9.95263309E-21
   20.5424995        -3.28437071E-20
   20.7075005        -6.17903271E-20
   20.8724995        -8.80940438E-20
   21.0375004        -9.88206182E-20
   21.2024994        -7.95198837E-20
   21.3675003        -1.85605290E-20
   21.5324993         8.78469365E-20
   21.6975002         2.31308418E-19
   21.8624992         3.89022112E-19
   22.0275002         5.24740788E-19
   22.1924992         5.93284283E-19
   22.3575001         5.48165199E-19
   22.5224991         3.51254854E-19
   22.6875000        -1.68688881E-20
   22.8525009        -5.47219525E-19
   23.0174999        -1.19453990E-18
   23.1825008        -1.87255307E-18
   23.3474998        -2.45407427E-18
   23.5125008        -2.77847631E-18
   23.6774998        -2.66944832E-18
   23.8425007        -1.96535032E-18
   24.0074997        -5.61946907E-19
   24.1725006         1.53719688E-18
   24.3374996         4.17310220E-18
   24.5025005         7.00203425E-18
   24.6674995         9.50177655E-18
   24.8325005         1.10272705E-17
   24.9974995         1.09192936E-17
   25.1625004         8.65468487E-18
   25.3274994         4.00999749E-18
   25.4925003        -2.80211548E-18
   25.6574993        -1.10674450E-17
   25.8225002        -1.96093140E-17
   25.9874992        -2.69431155E-17
   26.1525002        -3.15267020E-17
   26.3174992        -3.20575832E-17
   26.4825001        -2.77489317E-17
   26.6474991        -1.85160029E-17
   26.8125000        -5.02445800E-18
   26.9775009         1.14113329E-17
   27.1424999         2.90501033E-17
   27.3075008         4.60009995E-17
   27.4724998         6.04770209E-17
   27.6375008         7.09556522E-17
   27.8024998         7.62124710E-17
   27.9675007         7.52411294E-17
   28.1324997         6.71201017E-17
   28.2975006         5.09166592E-17
   28.4624996         2.57219504E-17
   28.6275005        -9.11641792E-18
   28.7924995        -5.35508821E-17
   28.9575005        -1.06233906E-16
   29.1224995        -1.63884795E-16
   29.2875004        -2.20801121E-16
   29.4524994        -2.68720726E-16
   29.6175003        -2.97227646E-16
   29.7824993        -2.94835890E-16
   29.9475002        -2.50773924E-16
   30.1124992        -1.57333061E-16
   30.2775002        -1.24608737E-17
   30.4424992         1.77894177E-16
   30.6075001         3.98289371E-16
   30.7724991         6.23741192E-16
   30.9375000         8.21556314E-16
   31.1025009         9.55144103E-16
   31.2674999         9.89473819E-16
   31.4325008         8.97380374E-16
   31.5974998         6.65572232E-16
   31.7625008         2.99087704E-16
   31.9274998        -1.76864807E-16
   32.0924988        -7.18247940E-16
   32.2574997        -1.26661442E-15
   32.4225006        -1.75582518E-15
   32.5875015        -2.11983696E-15
   32.7524986        -2.30024481E-15
   32.9174995        -2.25257930E-15
   33.0825005        -1.95094769E-15
   33.2475014        -1.39124802E-15
   33.4124985        -5.93546797E-16
   33.5774994         3.95880383E-16
   33.7425003         1.50295906E-15
   33.9075012         2.62571172E-15
   34.0724983         3.63752836E-15
   34.2374992         4.39597352E-15
   34.4025002         4.75865820E-15
   34.5675011         4.60600508E-15
   34.7324982         3.86828343E-15
   34.8974991         2.55173800E-15
   35.0625000         7.56839767E-16
   35.2275009        -1.31851245E-15
   35.3925018        -3.39608204E-15
   35.5574989        -5.15595774E-15
   35.7224998        -6.29271534E-15
   35.8875008        -6.57954526E-15
   36.0525017        -5.92671791E-15
   36.2174988        -4.41940160E-15
   36.3824997        -2.32215162E-15
   36.5475006        -4.32628861E-17
   36.7125015         1.93915551E-15
   36.8774986         3.17792278E-15
   37.0424995         3.36454362E-15
   37.2075005         2.41937682E-15
   37.3725014         5.40087795E-16
   37.5374985        -1.80922892E-15
   37.7024994        -3.97420617E-15
   37.8675003        -5.24253975E-15
   38.0325012        -5.00859306E-15
   38.1974983        -2.93518134E-15
   38.3624992         9.26479450E-16
   38.5275002         6.09256569E-15
   38.6925011         1.16978274E-14
   38.8574982         1.66409668E-14
   39.0224991         1.98001202E-14
   39.1875000         2.02749415E-14
   39.3525009         1.76013226E-14
   39.5175018         1.18866166E-14
   39.6824989         3.82816075E-15
   39.8474998        -5.39724989E-15
   40.0125008        -1.43556262E-14
   40.1775017        -2.16453578E-14
   40.3424988        -2.61915835E-14
   40.5074997        -2.74785535E-14
   40.6725006        -2.56638989E-14
   40.8375015        -2.15422874E-14
   41.0024986        -1.63580307E-14
   41.1674995        -1.14995336E-14
   41.3325005        -8.13706097E-15
   41.4975014        -6.88308544E-15
   41.6624985        -7.55725675E-15
   41.8274994        -9.12470562E-15
   41.9925003        -9.84641327E-15
   42.1575012        -7.63910047E-15
   42.3224983        -5.93172091E-16
   42.4874992         1.24473270E-14
   42.6525002         3.13709934E-14
   42.8175011         5.44875695E-14
   42.9824982         7.85311960E-14
   43.1474991         9.90367659E-14
   43.3125000         1.11067581E-13
   43.4775009         1.10184560E-13
   43.6425018         9.34712784E-14
   43.8074989         6.03878452E-14
   43.9724998         1.32351846E-14
   44.1375008        -4.29244077E-14
   44.3025017        -1.00934621E-13
   44.4674988        -1.52712681E-13
   44.6324997        -1.90704508E-13
   44.7975006        -2.09330844E-13
   44.9625015        -2.06107226E-13
   45.1274986        -1.82171972E-13
   45.2924995        -1.42072457E-13
   45.4575005        -9.28148685E-14
   45.6225014        -4.23477239E-14
   45.7874985         2.21842037E-15
   45.9524994         3.62749076E-14
   46.1175003         5.88848564E-14
   46.2825012         7.31568330E-14
   46.4474983         8.56701049E-14
   46.6124992         1.04984564E-13
   46.7775002         1.39466672E-13
   46.9425011         1.94828704E-13
   47.1074982         2.71882560E-13
   47.2724991         3.65022492E-13
   47.4375000         4.61859012E-13
   47.6025009         5.44243958E-13
   47.7675018         5.90664724E-13
   47.9324989         5.79713686E-13
   48.0974998         4.94086597E-13
   48.2625008         3.24404674E-13
   48.4275017         7.21251604E-14
   48.5924988        -2.49073250E-13
   48.7574997        -6.13800243E-13
   48.9225006        -9.87377931E-13
   49.0875015        -1.32984227E-12
   49.2524986        -1.60087416E-12
   49.4174995        -1.76483903E-12
   49.5825005        -1.79510085E-12
   49.7475014        -1.67694190E-12
   49.9124985        -1.40874107E-12
   50.0774994        -1.00143082E-12
   50.2425003        -4.76615221E-13
   50.4075012         1.36017242E-13
   50.5724983         8.01307642E-13
   50.7374992         1.48071171E-12
   50.9025002         2.13361902E-12
   51.0675011         2.71804974E-12
   51.2324982         3.19121465E-12
   51.3974991         3.51060652E-12
   51.5625000         3.63622457E-12
   51.7275009         3.53421394E-12
   51.8925018         3.18169297E-12
   52.0574989         2.57198733E-12
   52.2224998         1.71907356E-12
   52.3875008         6.59895587E-13
   52.5525017        -5.46517746E-13
   52.7174988        -1.82359032E-12
   52.8824997        -3.08499472E-12
   53.0475006        -4.24444117E-12
   53.2125015        -5.22555003E-12
   53.3774986        -5.96969436E-12
   53.5424995        -6.44001779E-12
   53.7075005        -6.62064761E-12
   53.8725014        -6.51125811E-12
   54.0374985        -6.11834194E-12
   54.2024994        -5.44552467E-12
   54.3675003        -4.48575985E-12
   54.5325012        -3.21815816E-12
   54.6974983        -1.61145088E-12
   54.8624992         3.65193986E-13
   55.0275002         2.72488759E-12
   55.1925011         5.44187612E-12
   55.3574982         8.43055140E-12
   55.5224991         1.15295612E-11
   55.6875000         1.44960337E-11
   55.8525009         1.70140430E-11
   56.0175018         1.87194739E-11
   56.1824989         1.92407253E-11
   56.3474998         1.82513987E-11
   56.5125008         1.55280198E-11
   56.6775017         1.10035462E-11
   56.8424988         4.80654102E-12
   57.0074997        -2.72300888E-12
   57.1725006        -1.10471953E-11
   57.3375015        -1.94742902E-11
   57.5024986        -2.72292553E-11
   57.6674995        -3.35413398E-11
   57.8325005        -3.77356792E-11
   57.9975014        -3.93146106E-11
   58.1624985        -3.80157815E-11
   58.3274994        -3.38382967E-11
   58.4925003        -2.70339254E-11
   58.6575012        -1.80667061E-11
   58.8224983        -7.54988520E-12
   58.9874992         3.82754462E-12
   59.1525002         1.53714246E-11
   59.3175011         2.64389725E-11
   59.4824982         3.64739697E-11
   59.6474991         4.50187491E-11
   59.8125000         5.17059867E-11
   59.9775009         5.62377367E-11
   60.1425018         5.83611770E-11
   60.3074989         5.78506826E-11
   60.4724998         5.45039985E-11
   60.6375008         4.81567876E-11
   60.8025017         3.87156453E-11
   60.9674988         2.62052463E-11
   61.1324997         1.08216162E-11
   61.2975006        -7.01905374E-12
   61.4625015        -2.66473857E-11
   61.6274986        -4.71338905E-11
   61.7924995        -6.73152853E-11
   61.9575005        -8.58566135E-11
   62.1225014        -1.01345814E-10
   62.2874985        -1.12411844E-10
   62.4524994        -1.17852686E-10
   62.6175003        -1.16756951E-10
   62.7825012        -1.08603355E-10
   62.9474983        -9.33254724E-11
   63.1124992        -7.13347367E-11
   63.2775002        -4.35015045E-11
   63.4425011        -1.10998728E-11
   63.6074982         2.42736994E-11
   63.7724991         6.07968467E-11
   63.9375000         9.65229840E-11
   64.1025009         1.29482272E-10
   64.2675018         1.57779304E-10
   64.4325027         1.79687779E-10
   64.5975037         1.93743008E-10
   64.7624969         1.98830535E-10
   64.9274979         1.94266200E-10
   65.0924988         1.79858961E-10
   65.2574997         1.55946353E-10
   65.4225006         1.23393962E-10
   65.5875015         8.35539138E-11
   65.7525024         3.81841919E-11
   65.9175034        -1.06630538E-11
   66.0824966        -6.07716308E-11
   66.2474976        -1.09895260E-10
   66.4124985        -1.55882349E-10
   66.5774994        -1.96783173E-10
   66.7425003        -2.30933966E-10
   66.9075012        -2.57018018E-10
   67.0725021        -2.74103601E-10
   67.2375031        -2.81658613E-10
   67.4024963        -2.79541529E-10
   67.5674973        -2.67966482E-10
   67.7324982        -2.47442900E-10
   67.8974991        -2.18694632E-10
   68.0625000        -1.82568391E-10
   68.2275009        -1.39946860E-10
   68.3925018        -9.16839868E-11
   68.5575027        -3.85772941E-11
   68.7225037         1.86142733E-11
   68.8874969         7.91092400E-11
   69.0524979         1.42011208E-10
   69.2174988         2.06205525E-10
   69.3824997         2.70268752E-10
   69.5475006         3.32411376E-10
   69.7125015         3.90469740E-10
   69.8775024         4.41952447E-10
   70.0425034         4.84140006E-10
   70.2074966         5.14229714E-10
   70.3724976         5.29514932E-10
   70.5374985         5.27584920E-10
   70.7024994         5.06532039E-10
   70.8675003         4.65147698E-10
   71.0325012         4.03088202E-10
   71.1975021         3.20985988E-10
   71.3625031         2.20484742E-10
   71.5274963         1.04181601E-10
   71.6924973        -2.45267348E-11
   71.8574982        -1.61679600E-10
   72.0224991        -3.03035236E-10
   72.1875000        -4.44351028E-10
   72.3525009        -5.81606763E-10
   72.5175018        -7.11121328E-10
   72.6825027        -8.29536995E-10
   72.8475037        -9.33673139E-10
   73.0124969        -1.02028908E-09
   73.1774979        -1.08582321E-09
   73.3424988        -1.12619181E-09
   73.5074997        -1.13673504E-09
   73.6725006        -1.11237197E-09
   73.8375015        -1.04799514E-09
   74.0025024        -9.39085032E-10
   74.1675034        -7.82479526E-10
   74.3324966        -5.77190629E-10
   74.4974976        -3.25138028E-10
   74.6624985        -3.16650976E-11
   74.8274994         2.94275659E-10
   74.9925003         6.40340503E-10
   75.1575012         9.91431492E-10
   75.3225021         1.33070532E-09
   75.4875031         1.64084857E-09
   75.6524963         1.90546823E-09
   75.8174973         2.11042783E-09
   75.9824982         2.24495711E-09
   76.1474991         2.30240005E-09
   76.3125000         2.28051467E-09
   76.4775009         2.18130092E-09
   76.6425018         2.01041073E-09
   76.8075027         1.77624204E-09
   76.9725037         1.48887380E-09
   77.1374969         1.15900578E-09
   77.3024979         7.97064803E-10
   77.4674988         4.12595541E-10
   77.6324997         1.39989149E-11
   77.7975006        -3.91391614E-10
   77.9625015        -7.96968325E-10
   78.1275024        -1.19637522E-09
   78.2925034        -1.58305191E-09
   78.4574966        -1.94994332E-09
   78.6224976        -2.28948371E-09
   78.7874985        -2.59388822E-09
   78.9524994        -2.85571167E-09
   79.1175003        -3.06856185E-09
   79.2825012        -3.22780203E-09
   79.4475021        -3.33105898E-09
   79.6125031        -3.37840178E-09
   79.7774963        -3.37208839E-09
   79.9424973        -3.31588756E-09
   80.1074982        -3.21406435E-09
   80.2724991        -3.07018300E-09
   80.4375000        -2.88593571E-09
   80.6025009        -2.66018874E-09
   80.7675018        -2.38844233E-09
   80.9325027        -2.06280171E-09
   81.0975037        -1.67251835E-09
   81.2624969        -1.20506427E-09
   81.4274979        -6.47641718E-10
   81.5924988         1.10194310E-11
   81.7574997         7.78756781E-10
   81.9225006         1.65817071E-09
   82.0875015         2.64510147E-09
   82.2525024         3.72755116E-09
   82.4175034         4.88517715E-09
   82.5824966         6.08942008E-09
   82.7474976         7.30424521E-09
   82.9124985         8.48746673E-09
   83.0774994         9.59249657E-09
   83.2425003         1.05703961E-08
   83.4075012         1.13720331E-08
   83.5725021         1.19502097E-08
   83.7375031         1.22616015E-08
   83.9024963         1.22684423E-08
   84.0674973         1.19398598E-08
   84.2324982         1.12528973E-08
   84.3974991         1.01932240E-08
   84.5625000         8.75556871E-09
   84.7275009         6.94397739E-09
   84.8925018         4.77192641E-09
   85.0575027         2.26237451E-09
   85.2225037        -5.52180746E-10
   85.3874969        -3.62965169E-09
   85.5524979        -6.91828816E-09
   85.7174988        -1.03566418E-08
   85.8824997        -1.38736587E-08
   86.0475006        -1.73890200E-08
   86.2125015        -2.08138839E-08
   86.3775024        -2.40521647E-08
   86.5425034        -2.70024678E-08
   86.7074966        -2.95607627E-08
   86.8724976        -3.16237347E-08
   87.0374985        -3.30926753E-08
   87.2024994        -3.38776402E-08
   87.3675003        -3.39015855E-08
   87.5325012        -3.31039978E-08
   87.6975021        -3.14437116E-08
   87.8625031        -2.89004962E-08
   88.0274963        -2.54753818E-08
   88.1924973        -2.11895514E-08
   88.3574982        -1.60821347E-08
   88.5224991        -1.02071409E-08
   88.6875000        -3.62999786E-09
   88.8525009         3.57589602E-09
   89.0175018         1.13322143E-08
   89.1825027         1.95582306E-08
   89.3475037         2.81726660E-08
   89.5124969         3.70951092E-08
   89.6774979         4.62471803E-08
   89.8424988         5.55536452E-08
   90.0074997         6.49438476E-08
   90.1725006         7.43534514E-08
   90.3375015         8.37264338E-08
   90.5025024         9.30173343E-08
   90.6675034         1.02193127E-07
   90.8324966         1.11234726E-07
   90.9974976         1.20137557E-07
   91.1624985         1.28910685E-07
   91.3274994         1.37574929E-07
   91.4925003         1.46159252E-07
   91.6575012         1.54696082E-07
   91.8225021         1.63215773E-07
   91.9875031         1.71740624E-07
   92.1524963         1.80279400E-07
   92.3174973         1.88822867E-07
   92.4824982         1.97341109E-07
   92.6474991         2.05783195E-07
   92.8125000         2.14079492E-07
   92.9775009         2.22146681E-07
   93.1425018         2.29895051E-07
   93.3075027         2.37237671E-07
   93.4725037         2.44100306E-07
   93.6374969         2.50431526E-07
   93.8024979         2.56211905E-07
   93.9674988         2.61461338E-07
   94.1324997         2.66244200E-07
   94.2975006         2.70671762E-07
   94.4625015         2.74901595E-07
   94.6275024         2.79133957E-07
   94.7925034         2.83605317E-07
   94.9574966         2.88579457E-07
   95.1224976         2.94336331E-07
   95.2874985         3.01159957E-07
   95.4524994         3.09325856E-07
   95.6175003         3.19089310E-07
   95.7825012         3.30675789E-07
   95.9475021         3.44274184E-07
   96.1125031         3.60033226E-07
   96.2774963         3.78062111E-07
   96.4424973         3.98433741E-07
   96.6074982         4.21190350E-07
   96.7724991         4.46350015E-07
   96.9375000         4.73912564E-07
   97.1025009         5.03863419E-07
   97.2675018         5.36174412E-07
   97.4325027         5.70801092E-07
   97.5975037         6.07677009E-07
   97.7624969         6.46705587E-07
   97.9274979         6.87750230E-07
   98.0924988         7.30626255E-07
   98.2574997         7.75094577E-07
   98.4225006         8.20859384E-07
   98.5875015         8.67571885E-07
   98.7525024         9.14838779E-07
   98.9175034         9.62236982E-07
   99.0824966         1.00933175E-06
   99.2474976         1.05569814E-06
   99.4124985         1.10094061E-06
   99.5774994         1.14471140E-06
   99.7425003         1.18672358E-06
   99.9075012         1.22675681E-06
   100.072502         1.26465739E-06
   100.237503         1.30032970E-06
   100.402496         1.33372521E-06
   100.567497         1.36482504E-06
   100.732498         1.39362442E-06
   100.897499         1.42011811E-06
   101.062500         1.44428918E-06
   101.227501         1.46610512E-06
   101.392502         1.48551783E-06
   101.557503         1.50247160E-06
   101.722504         1.51691472E-06
   101.887497         1.52881375E-06
   102.052498         1.53816916E-06
   102.217499         1.54502754E-06
   102.382500         1.54949055E-06
   102.547501         1.55171779E-06
   102.712502         1.55192129E-06
   102.877502         1.55035571E-06
   103.042503         1.54730083E-06
   103.207497         1.54304405E-06
   103.372498         1.53786095E-06
   103.537498         1.53200165E-06
   103.702499         1.52568214E-06
   103.867500         1.51908466E-06
   104.032501         1.51236782E-06
   104.197502         1.50568371E-06
   104.362503         1.49920140E-06
   104.527496         1.49312996E-06
   104.692497         1.48774041E-06
   104.857498         1.48337779E-06
   105.022499         1.48046252E-06
   105.187500         1.47947640E-06
   105.352501         1.48093602E-06
   105.517502         1.48535241E-06
   105.682503         1.49318350E-06
   105.847504         1.50478411E-06
   106.012497         1.52036114E-06
   106.177498         1.53993847E-06
   106.342499         1.56333817E-06
   106.507500         1.59018168E-06
   106.672501         1.61990749E-06
   106.837502         1.65180825E-06
   107.002502         1.68507893E-06
   107.167503         1.71887075E-06
   107.332497         1.75234459E-06
   107.497498         1.78471623E-06
   107.662498         1.81528821E-06
   107.827499         1.84346595E-06
   107.992500         1.86875570E-06
   108.157501         1.89074706E-06
   108.322502         1.90908554E-06
   108.487503         1.92343896E-06
   108.652496         1.93346727E-06
   108.817497         1.93880078E-06
   108.982498         1.93903179E-06
   109.147499         1.93372671E-06
   109.312500         1.92245216E-06
   109.477501         1.90481842E-06
   109.642502         1.88053252E-06
   109.807503         1.84945054E-06
   109.972504         1.81162738E-06
   110.137497         1.76735102E-06
   110.302498         1.71715919E-06
   110.467499         1.66183167E-06
   110.632500         1.60236084E-06
   110.797501         1.53990061E-06
   110.962502         1.47570108E-06
   111.127502         1.41103249E-06
   111.292503         1.34711013E-06
   111.457497         1.28502654E-06
   111.622498         1.22569827E-06
   111.787498         1.16983210E-06
   111.952499         1.11791360E-06
   112.117500         1.07021833E-06
   112.282501         1.02684055E-06
   112.447502         9.87734666E-07
   112.612503         9.52762150E-07
   112.777496         9.21735591E-07
   112.942497         8.94453478E-07
   113.107498         8.70720896E-07
   113.272499         8.50352421E-07
   113.437500         8.33158992E-07
   113.602501         8.18921364E-07
   113.767502         8.07354581E-07
   113.932503         7.98071255E-07
   114.097504         7.90549620E-07
   114.262497         7.84113183E-07
   114.427498         7.77926630E-07
   114.592499         7.71010491E-07
   114.757500         7.62275306E-07
   114.922501         7.50571189E-07
   115.087502         7.34749619E-07
   115.252502         7.13729207E-07
   115.417503         6.86558963E-07
   115.582497         6.52471556E-07
   115.747498         6.10920893E-07
   115.912498         5.61600700E-07
   116.077499         5.04442767E-07
   116.242500         4.39598438E-07
   116.407501         3.67406102E-07
   116.572502         2.88352396E-07
   116.737503         2.03032528E-07
   116.902496         1.12117448E-07
   117.067497         1.63311551E-08
   117.232498        -8.35585539E-08
   117.397499        -1.86735477E-07
   117.562500        -2.92319044E-07
   117.727501        -3.99341673E-07
   117.892502        -5.06724177E-07
   118.057503        -6.13256361E-07
   118.222504        -7.17588932E-07
   118.387497        -8.18241460E-07
   118.552498        -9.13629322E-07
   118.717499        -1.00211093E-06
   118.882500        -1.08205245E-06
   119.047501        -1.15190676E-06
   119.212502        -1.21029859E-06
   119.377502        -1.25611109E-06
   119.542503        -1.28856368E-06
   119.707497        -1.30727335E-06
   119.872498        -1.31229626E-06
   120.037498        -1.30414458E-06
   120.202499        -1.28377462E-06
   120.367500        -1.25255303E-06
   120.532501        -1.21220012E-06
   120.697502        -1.16471676E-06
   120.862503        -1.11230327E-06
   121.027496        -1.05727372E-06
   121.192497        -1.00197474E-06
   121.357498        -9.48711488E-07
   121.522499        -8.99683869E-07
   121.687500        -8.56934264E-07
   121.852501        -8.22304344E-07
   122.017502        -7.97398513E-07
   122.182503        -7.83549410E-07
   122.347504        -7.81782319E-07
   122.512497        -7.92776859E-07
   122.677498        -8.16825661E-07
   122.842499        -8.53792415E-07
   123.007500        -9.03075602E-07
   123.172501        -9.63583602E-07
   123.337502        -1.03372872E-06
   123.502502        -1.11144664E-06
   123.667503        -1.19424419E-06
   123.832497        -1.27927785E-06
   123.997498        -1.36345761E-06
   124.162498        -1.44357136E-06
   124.327499        -1.51641939E-06
   124.492500        -1.57894920E-06
   124.657501        -1.62838035E-06
   124.822502        -1.66231075E-06
   124.987503        -1.67879750E-06
   125.152496        -1.67641190E-06
   125.317497        -1.65426752E-06
   125.482498        -1.61202820E-06
   125.647499        -1.54989846E-06
   125.812500        -1.46860521E-06
   125.977501        -1.36937490E-06
   126.142502        -1.25391023E-06
   126.307503        -1.12436646E-06
   126.472504        -9.83325208E-07
   126.637497        -8.33761817E-07
   126.802498        -6.79000152E-07
   126.967499        -5.22648349E-07
   127.132500        -3.68511536E-07
   127.297501        -2.20478015E-07
   127.462502        -8.23796995E-08
   127.627502         4.21690878E-08
   127.792503         1.49947851E-07
   127.957497         2.38310705E-07
   128.122498         3.05358952E-07
   128.287506         3.50091625E-07
   128.452499         3.72519395E-07
   128.617493         3.73728966E-07
   128.782501         3.55885902E-07
   128.947495         3.22170649E-07
   129.112503         2.76645153E-07
   129.277496         2.24055498E-07
   129.442505         1.69581412E-07
   129.607498         1.18550211E-07
   129.772507         7.61367787E-08
   129.937500         4.70721062E-08
   130.102493         3.53844385E-08
   130.267502         4.41926851E-08
   130.432495         7.55665752E-08
   130.597504         1.30460876E-07
   130.762497         2.08723989E-07
   130.927505         3.09172236E-07
   131.092499         4.29717602E-07
   131.257507         5.67530378E-07
   131.422501         7.19218917E-07
   131.587494         8.81008873E-07
   131.752502         1.04890853E-06
   131.917496         1.21885091E-06
   132.082504         1.38681094E-06
   132.247498         1.54889926E-06