  -1.23749995         0.00000000    
  -1.07249999         0.00000000    
 -0.907500029         0.00000000    
 -0.742500007         0.00000000    
 -0.577499986         0.00000000    
 -0.412499994         0.00000000    
 -0.247500002         0.00000000    
  -8.25000033E-02     0.00000000    
   8.25000033E-02     0.00000000    
  0.247500002         0.00000000    
  0.412499994         0.00000000    
  0.577499986         0.00000000    
  0.742500007         0.00000000    
  0.907500029         0.00000000    
   1.07249999         0.00000000    
   1.23749995         0.00000000    
   1.40250003         0.00000000    
   1.56750000         0.00000000    
   1.73249996         0.00000000    
   1.89750004         0.00000000    
   2.06250000         0.00000000    
   2.22749996         0.00000000    
   2.39249992         0.00000000    
   2.55749989         0.00000000    
   2.72250009         0.00000000    
   2.88750005         0.00000000    
   3.05250001         0.00000000    
   3.21749997         0.00000000    
   3.38249993         0.00000000    
   3.54749990         0.00000000    
   3.71250010         0.00000000    
   3.87750006         0.00000000    
   4.04250002         0.00000000    
   4.20749998         0.00000000    
   4.37249994         0.00000000    
   4.53749990         0.00000000    
   4.70249987         0.00000000    
   4.86749983         0.00000000    
   5.03249979         0.00000000    
   5.19750023         0.00000000    
   5.36250019         0.00000000    
   5.52750015         0.00000000    
   5.69250011         0.00000000    
   5.85750008         0.00000000    
   6.02250004         0.00000000    
   6.18750000         0.00000000    
   6.35249996         0.00000000    
   6.51749992         0.00000000    
   6.68249989         0.00000000    
   6.84749985         0.00000000    
   7.01249981        -1.32098474E-33
   7.17749977        -1.41289379E-33
   7.34250021         9.83792087E-33
   7.50750017         2.30138681E-32
   7.67250013         2.35475117E-32
   7.83750010         4.02324285E-32
   8.00249958         1.38381969E-31
   8.16749954         1.58324630E-31
   8.33250046         4.58723975E-32
   8.49750042        -3.50484079E-31
   8.66250038        -1.28331934E-30
   8.82750034        -2.00224379E-30
   8.99250031        -1.62350196E-30
   9.15750027         7.66229442E-31
   9.32250023         1.88497873E-30
   9.48750019         7.45543205E-30
   9.65250015         1.21794282E-29
   9.81750011         1.09711946E-29
   9.98250008        -1.55995398E-30
   10.1475000        -5.24555428E-29
   10.3125000        -1.68910291E-28
   10.4775000        -3.38253676E-28
   10.6424999        -4.72650749E-28
   10.8074999        -4.25487469E-28
   10.9724998        -1.80864563E-29
   11.1374998         8.41302533E-28
   11.3024998         2.02526883E-27
   11.4674997         3.09426357E-27
   11.6324997         3.30626242E-27
   11.7974997         1.82841260E-27
   11.9624996        -1.84512659E-27
   12.1274996        -7.37728159E-27
   12.2924995        -1.31946154E-26
   12.4575005        -1.65309316E-26
   12.6225004        -1.41289888E-26
   12.7875004        -3.59548164E-27
   12.9525003         1.49506983E-26
   13.1175003         3.76422761E-26
   13.2825003         5.68429996E-26
   13.4475002         6.28577989E-26
   13.6125002         4.72397089E-26
   13.7775002         6.71234657E-27
   13.9425001        -5.38654872E-26
   14.1075001        -1.21020014E-25
   14.2725000        -1.75364876E-25
   14.4375000        -1.96809678E-25
   14.6025000        -1.70365594E-25
   14.7674999        -9.02676771E-26
   14.9324999         3.89864735E-26
   15.0974998         2.04277393E-25
   15.2624998         3.86077402E-25
   15.4274998         5.58746777E-25
   15.5924997         6.87978661E-25
   15.7574997         7.27383890E-25
   15.9224997         6.18769823E-25
   16.0874996         3.00931232E-25
   16.2525005        -2.71148109E-25
   16.4174995        -1.09971480E-24
   16.5825005        -2.11748687E-24
   16.7474995        -3.16868505E-24
   16.9125004        -4.00293543E-24
   17.0774994        -4.28384840E-24
   17.2425003        -3.61525408E-24
   17.4074993        -1.59607180E-24
   17.5725002         2.07538595E-24
   17.7374992         7.42810361E-24
   17.9025002         1.39836608E-23
   18.0674992         2.05253230E-23
   18.2325001         2.50060750E-23
   18.3974991         2.47693836E-23
   18.5625000         1.72101208E-23
   18.7275009         8.39966273E-25
   18.8924999        -2.35309304E-23
   19.0575008        -5.20221708E-23
   19.2224998        -7.79143149E-23
   19.3875008        -9.32352558E-23
   19.5524998        -9.14857327E-23
   19.7175007        -7.05630526E-23
   19.8824997        -3.44131987E-23
   20.0475006         7.98719458E-24
   20.2124996         4.68016471E-23
   20.3775005         7.75265108E-23
   20.5424995         1.06373905E-22
   20.7075005         1.51164682E-22
   20.8724995         2.34906344E-22
   21.0375004         3.72042479E-22
   21.2024994         5.51377725E-22
   21.3675003         7.23212178E-22
   21.5324993         7.99164009E-22
   21.6975002         6.70070115E-22
   21.8624992         2.40446697E-22
   22.0275002        -5.30363228E-22
   22.1924992        -1.59606509E-21
   22.3575001        -2.81539827E-21
   22.5224991        -3.97459517E-21
   22.6875000        -4.83214397E-21
   22.8525009        -5.16383169E-21
   23.0174999        -4.78134264E-21
   23.1825008        -3.50864570E-21
   23.3474998        -1.12698370E-21
   23.5125008         2.66737838E-21
   23.6774998         8.22526671E-21
   23.8425007         1.57644905E-20
   24.0074997         2.50310152E-20
   24.1725006         3.48661152E-20
   24.3374996         4.28376257E-20
   24.5025005         4.51596509E-20
   24.6674995         3.71224765E-20
   24.8325005         1.41569102E-20
   24.9974995        -2.65308423E-20
   25.1625004        -8.40533699E-20
   25.3274994        -1.52176379E-19
   25.4925003        -2.18511003E-19
   25.6574993        -2.65125009E-19
   25.8225002        -2.70898264E-19
   25.9874992        -2.15575430E-19
   26.1525002        -8.50407133E-20
   26.3174992         1.23040932E-19
   26.4825001         3.94328010E-19
   26.6474991         6.94853273E-19
   26.8125000         9.71144988E-19
   26.9775009         1.15432021E-18
   27.1424999         1.16868451E-18
   27.3075008         9.44825031E-19
   27.4724998         4.36406067E-19
   27.6375008        -3.61197824E-19
   27.8024998        -1.39356152E-18
   27.9675007        -2.53554246E-18
   28.1324997        -3.59045231E-18
   28.2975006        -4.30499698E-18
   28.4624996        -4.40316057E-18
   28.6275005        -3.63871747E-18
   28.7924995        -1.86106932E-18
   28.9575005         9.16458940E-19
   29.1224995         4.46146357E-18
   29.2875004         8.29834704E-18
   29.4524994         1.17314361E-17
   29.6175003         1.39252068E-17
   29.7824993         1.40407093E-17
   29.9475002         1.14138459E-17
   30.1124992         5.74756522E-18
   30.2775002        -2.72041485E-18
   30.4424992        -1.31169686E-17
   30.6075001        -2.39383720E-17
   30.7724991        -3.31857252E-17
   30.9375000        -3.86350024E-17
   31.1025009        -3.82193971E-17
   31.2674999        -3.04746903E-17
   31.4325008        -1.49751885E-17
   31.5974998         7.32621874E-18
   31.7625008         3.39416855E-17
   31.9274998         6.09487719E-17
   32.0924988         8.33893282E-17
   32.2574997         9.59624272E-17
   32.4225006         9.39501880E-17
   32.5875015         7.42552492E-17
   32.7524986         3.63767133E-17
   32.9174995        -1.68812525E-17
   33.0825005        -7.91738041E-17
   33.2475014        -1.41016374E-16
   33.4124985        -1.90897629E-16
   33.5774994        -2.17052113E-16
   33.7425003        -2.09688340E-16
   33.9075012        -1.63320684E-16
   34.0724983        -7.87453113E-17
   34.2374992         3.58334310E-17
   34.4025002         1.64950561E-16
   34.5675011         2.87543916E-16
   34.7324982         3.80096771E-16
   34.8974991         4.20885219E-16
   35.0625000         3.94634794E-16
   35.2275009         2.96653649E-16
   35.3925018         1.35445386E-16
   35.5574989        -6.70463437E-17
   35.7224998        -2.78030624E-16
   35.8875008        -4.59209966E-16
   36.0525017        -5.74130737E-16
   36.2174988        -5.96214739E-16
   36.3824997        -5.15749627E-16
   36.5475006        -3.44060522E-16
   36.7125015        -1.13438967E-16
   36.8774986         1.27842974E-16
   37.0424995         3.25056887E-16
   37.2075005         4.29555766E-16
   37.3725014         4.11808228E-16
   37.5374985         2.71843657E-16
   37.7024994         4.40874726E-17
   37.8675003        -2.05636994E-16
   38.0325012        -3.91667876E-16
   38.1974983        -4.27414334E-16
   38.3624992        -2.48389712E-16
   38.5275002         1.65490227E-16
   38.6925011         7.73952374E-16
   38.8574982         1.47192250E-15
   39.0224991         2.09997679E-15
   39.1875000         2.47016089E-15
   39.3525009         2.40408555E-15
   39.5175018         1.77673673E-15
   39.6824989         5.56937504E-16
   39.8474998        -1.16540352E-15
   40.0125008        -3.17371366E-15
   40.1775017        -5.14572304E-15
   40.3424988        -6.70055196E-15
   40.5074997        -7.46559424E-15
   40.6725006        -7.15157710E-15
   40.8375015        -5.62090979E-15
   41.0024986        -2.93414860E-15
   41.1674995         6.37467308E-16
   41.3325005         4.63931423E-15
   41.4975014         8.49838490E-15
   41.6624985         1.16156931E-14
   41.8274994         1.34692486E-14
   41.9925003         1.37075731E-14
   42.1575012         1.22148131E-14
   42.3224983         9.13368925E-15
   42.4874992         4.84108298E-15
   42.6525002        -1.19138003E-16
   42.8175011        -5.13226961E-15
   42.9824982        -9.61790834E-15
   43.1474991        -1.31221573E-14
   43.3125000        -1.53779729E-14
   43.4775009        -1.63220081E-14
   43.6425018        -1.60662380E-14
   43.8074989        -1.48332969E-14
   43.9724998        -1.28728916E-14
   44.1375008        -1.03814086E-14
   44.3025017        -7.44631916E-15
   44.4674988        -4.03119539E-15
   44.6324997        -7.43017219E-18
   44.7975006         4.77303405E-15
   44.9625015         1.03805251E-14
   45.1274986         1.67100220E-14
   45.2924995         2.34092751E-14
   45.4575005         2.98547672E-14
   45.6225014         3.51880526E-14
   45.7874985         3.84124563E-14
   45.9524994         3.85368990E-14
   46.1175003         3.47433569E-14
   46.2825012         2.65493567E-14
   46.4474983         1.39379415E-14
   46.6124992        -2.56593745E-15
   46.7775002        -2.18838382E-14
   46.9425011        -4.24379024E-14
   47.1074982        -6.22633997E-14
   47.2724991        -7.91682665E-14
   47.4375000        -9.09274419E-14
   47.6025009        -9.55010810E-14
   47.7675018        -9.12663364E-14
   47.9324989        -7.72501366E-14
   48.0974998        -5.33440750E-14
   48.2625008        -2.04745634E-14
   48.4275017         1.93068133E-14
   48.5924988         6.28497430E-14
   48.7574997         1.06079208E-13
   48.9225006         1.44330443E-13
   49.0875015         1.72831665E-13
   49.2524986         1.87290030E-13
   49.4174995         1.84507479E-13
   49.5825005         1.62933279E-13
   49.7475014         1.23056554E-13
   49.9124985         6.75563257E-14
   50.0774994         1.15826239E-15
   50.2425003        -6.98086405E-14
   50.4075012        -1.38113791E-13
   50.5724983        -1.96498281E-13
   50.7374992        -2.38600535E-13
   50.9025002        -2.59800672E-13
   51.0675011        -2.57855233E-13
   51.2324982        -2.33222648E-13
   51.3974991        -1.89021813E-13
   51.5625000        -1.30621141E-13
   51.7275009        -6.49094358E-14
   51.8925018         6.51535255E-16
   52.0574989         5.90617439E-14
   52.2224998         1.04761245E-13
   52.3875008         1.34417217E-13
   52.5525017         1.47412139E-13
   52.7174988         1.45963130E-13
   52.8824997         1.34846195E-13
   53.0475006         1.20740874E-13
   53.2125015         1.11248101E-13
   53.3774986         1.13667668E-13
   53.5424995         1.33654332E-13
   53.7075005         1.73903738E-13
   53.8725014         2.33049040E-13
   54.0374985         3.04972302E-13
   54.2024994         3.78732202E-13
   54.3675003         4.39270609E-13
   54.5325012         4.68976095E-13
   54.6974983         4.50046738E-13
   54.8624992         3.67428120E-13
   55.0275002         2.11938431E-13
   55.1925011        -1.69392207E-14
   55.3574982        -3.09157241E-13
   55.5224991        -6.43596667E-13
   55.6875000        -9.89267153E-13
   55.8525009        -1.30825526E-12
   56.0175018        -1.56013917E-12
   56.1824989        -1.70729164E-12
   56.3474998        -1.72026434E-12
   56.5125008        -1.58237789E-12
   56.6775017        -1.29271095E-12
   56.8424988        -8.66925347E-13
   57.0074997        -3.35706181E-13
   57.1725006         2.58988740E-13
   57.3375015         8.69293082E-13
   57.5024986         1.44752721E-12
   57.6674995         1.95200952E-12
   57.8325005         2.35158833E-12
   57.9975014         2.62813664E-12
   58.1624985         2.77661726E-12
   58.3274994         2.80279229E-12
   58.4925003         2.71909860E-12
   58.6575012         2.53957836E-12
   58.8224983         2.27494347E-12
   58.9874992         1.92882602E-12
   59.1525002         1.49606130E-12
   59.3175011         9.63450890E-13
   59.4824982         3.13033291E-13
   59.6474991        -4.72563395E-13
   59.8125000        -1.40343520E-12
   59.9775009        -2.47533678E-12
   60.1425018        -3.66327628E-12
   60.3074989        -4.91676404E-12
   60.4724998        -6.15761435E-12
   60.6375008        -7.28106724E-12
   60.8025017        -8.16076373E-12
   60.9674988        -8.65785221E-12
   61.1324997        -8.63410038E-12
   61.2975006        -7.96826841E-12
   61.4625015        -6.57440682E-12
   61.6274986        -4.41997697E-12
   61.7924995        -1.54119024E-12
   61.9575005         1.94729302E-12
   62.1225014         5.85087968E-12
   62.2874985         9.90352939E-12
   62.4524994         1.37866238E-11
   62.6175003         1.71569477E-11
   62.7825012         1.96808524E-11
   62.9474983         2.10702653E-11
   63.1124992         2.11155243E-11
   63.2775002         1.97102265E-11
   63.4425011         1.68642374E-11
   63.6074982         1.27029767E-11
   63.7724991         7.45324288E-12
   63.9375000         1.41818469E-12
   64.1025009        -5.05425606E-12
   64.2675018        -1.16040346E-11
   64.4325027        -1.78876081E-11
   64.5975037        -2.35982588E-11
   64.7624969        -2.84759941E-11
   64.9274979        -3.23071153E-11
   65.0924988        -3.49160215E-11
   65.2574997        -3.61534136E-11
   65.4225006        -3.58858880E-11
   65.5875015        -3.39915943E-11
   65.7525024        -3.03651444E-11
   65.9175034        -2.49328422E-11
   66.0824966        -1.76768149E-11
   66.2474976        -8.66439732E-12
   66.4124985         1.92254762E-12
   66.5774994         1.37641643E-11
   66.7425003         2.63905842E-11
   66.9075012         3.91854570E-11
   67.0725021         5.14074235E-11
   67.2375031         6.22295479E-11
   67.4024963         7.07947034E-11
   67.5674973         7.62828273E-11
   67.7324982         7.79845563E-11
   67.8974991         7.53744497E-11
   68.0625000         6.81765408E-11
   68.2275009         5.64148693E-11
   68.3925018         4.04419831E-11
   68.5575027         2.09400778E-11
   68.7225037        -1.10868823E-12
   68.8874969        -2.44831135E-11
   69.0524979        -4.78118795E-11
   69.2174988        -6.96833632E-11
   69.3824997        -8.87656060E-11
   69.5475006        -1.03922752E-10
   69.7125015        -1.14313163E-10
   69.8775024        -1.19455321E-10
   70.0425034        -1.19250651E-10
   70.2074966        -1.13958593E-10
   70.3724976        -1.04125909E-10
   70.5374985        -9.04808936E-11
   70.7024994        -7.38097708E-11
   70.8675003        -5.48373846E-11
   71.0325012        -3.41353196E-11
   71.1975021        -1.20766383E-11
   71.3625031         1.11513663E-11
   71.5274963         3.54762261E-11
   71.6924973         6.08232770E-11
   71.8574982         8.69755587E-11
   72.0224991         1.13440590E-10
   72.1875000         1.39355569E-10
   72.3525009         1.63457373E-10
   72.5175018         1.84133084E-10
   72.6825027         1.99552222E-10
   72.8475037         2.07865752E-10
   73.0124969         2.07443410E-10
   73.1774979         1.97111064E-10
   73.3424988         1.76348117E-10
   73.5074997         1.45409074E-10
   73.6725006         1.05345836E-10
   73.8375015         5.79236936E-11
   74.0025024         5.44268580E-12
   74.1675034        -4.95067216E-11
   74.3324966        -1.04312711E-10
   74.4974976        -1.56589838E-10
   74.6624985        -2.04363526E-10
   74.8274994        -2.46161397E-10
   74.9925003        -2.81000556E-10
   75.1575012        -3.08280179E-10
   75.3225021        -3.27609578E-10
   75.4875031        -3.38614775E-10
   75.6524963        -3.40772049E-10
   75.8174973        -3.33312461E-10
   75.9824982        -3.15226012E-10
   76.1474991        -2.85375334E-10
   76.3125000        -2.42704246E-10
   76.4775009        -1.86508683E-10
   76.6425018        -1.16723173E-10
   76.8075027        -3.41720298E-11
   76.9725037         5.92601523E-11
   77.1374969         1.60570571E-10
   77.3024979         2.65707872E-10
   77.4674988         3.69764247E-10
   77.6324997         4.67268724E-10
   77.7975006         5.52548951E-10
   77.9625015         6.20121898E-10
   78.1275024         6.65076660E-10
   78.2925034         6.83415435E-10
   78.4574966         6.72329581E-10
   78.6224976         6.30396957E-10
   78.7874985         5.57695223E-10
   78.9524994         4.55835092E-10
   79.1175003         3.27918415E-10
   79.2825012         1.78432116E-10
   79.4475021         1.30845725E-11
   79.6125031        -1.61407748E-10
   79.7774963        -3.37578160E-10
   79.9424973        -5.07506315E-10
   80.1074982        -6.63145872E-10
   80.2724991        -7.96673505E-10
   80.4375000        -9.00844288E-10
   80.6025009        -9.69338498E-10
   80.7675018        -9.97082639E-10
   80.9325027        -9.80530546E-10
   81.0975037        -9.17894982E-10
   81.2624969        -8.09322498E-10
   81.4274979        -6.57012278E-10
   81.5924988        -4.65275068E-10
   81.7574997        -2.40529319E-10
   81.9225006         8.77399889E-12
   82.0875015         2.72312783E-10
   82.2525024         5.38158296E-10
   82.4175034         7.93158206E-10
   82.5824966         1.02344588E-09
   82.7474976         1.21506916E-09
   82.9124985         1.35471534E-09
   83.0774994         1.43049239E-09
   83.2425003         1.43271284E-09
   83.4075012         1.35462153E-09
   83.5725021         1.19301402E-09
   83.7375031         9.48697787E-10
   83.9024963         6.26772578E-10
   84.0674973         2.36714481E-10
   84.2324982        -2.07730333E-10
   84.3974991        -6.88834711E-10
   84.5625000        -1.18535171E-09
   84.7275009        -1.67314507E-09
   84.8925018        -2.12599316E-09
   85.0575027        -2.51657717E-09
   85.2225037        -2.81766388E-09
   85.3874969        -3.00347347E-09
   85.5524979        -3.05120640E-09
   85.7174988        -2.94265945E-09
   85.8824997        -2.66582489E-09
   86.0475006        -2.21633423E-09
   86.2125015        -1.59858737E-09
   86.3775024        -8.26406055E-10
   86.5425034         7.69115743E-11
   86.7074966         1.07921372E-09
   86.8724976         2.14079998E-09
   87.0374985         3.21632831E-09
   87.2024994         4.25717683E-09
   87.3675003         5.21405674E-09
   87.5325012         6.03964434E-09
   87.6975021         6.69100375E-09
   87.8625031         7.13162640E-09
   88.0274963         7.33295069E-09
   88.1924973         7.27532123E-09
   88.3574982         6.94841429E-09
   88.5224991         6.35120712E-09
   88.6875000         5.49162094E-09
   88.8525009         4.38595071E-09
   89.0175018         3.05819792E-09
   89.1825027         1.53935531E-09
   89.3475037        -1.33326489E-10
   89.5124969        -1.91714244E-09
   89.6774979        -3.76485021E-09
   89.8424988        -5.62577540E-09
   90.0074997        -7.44714779E-09
   90.1725006        -9.17566556E-09
   90.3375015        -1.07592300E-08
   90.5025024        -1.21487540E-08
   90.6675034        -1.32998901E-08
   90.8324966        -1.41745193E-08
   90.9974976        -1.47418726E-08
   91.1624985        -1.49791770E-08
   91.3274994        -1.48717954E-08
   91.4925003        -1.44128931E-08
   91.6575012        -1.36027207E-08
   91.8225021        -1.24476722E-08
   91.9875031        -1.09592522E-08
   92.1524963        -9.15313692E-09
   92.3174973        -7.04845826E-09
   92.4824982        -4.66740557E-09
   92.6474991        -2.03520178E-09
   92.8125000         8.19541879E-10
   92.9775009         3.86413079E-09
   93.1425018         7.06084435E-09
   93.3075027         1.03658531E-08
   93.4725037         1.37281582E-08
   93.6374969         1.70886967E-08
   93.8024979         2.03798241E-08
   93.9674988         2.35252990E-08
   94.1324997         2.64409579E-08
   94.2975006         2.90361317E-08
   94.4625015         3.12158726E-08
   94.6275024         3.28839320E-08
   94.7925034         3.39463533E-08
   94.9574966         3.43155229E-08
   95.1224976         3.39143504E-08
   95.2874985         3.26803189E-08
   95.4524994         3.05690833E-08
   95.6175003         2.75572756E-08
   95.7825012         2.36443665E-08
   95.9475021         1.88533438E-08
   96.1125031         1.32302267E-08
   96.2774963         6.84240575E-09
   96.4424973        -2.23971508E-10
   96.6074982        -7.86742493E-09
   96.7724991        -1.59750631E-08
   96.9375000        -2.44267930E-08
   97.1025009        -3.30995356E-08
   97.2675018        -4.18712638E-08
   97.4325027        -5.06247346E-08
   97.5975037        -5.92507625E-08
   97.7624969        -6.76509799E-08
   97.9274979        -7.57400400E-08
   98.0924988        -8.34471408E-08
   98.2574997        -9.07169451E-08
   98.4225006        -9.75097691E-08
   98.5875015        -1.03801170E-07
   98.7525024        -1.09580945E-07
   98.9175034        -1.14851638E-07
   99.0824966        -1.19626876E-07
   99.2474976        -1.23929581E-07
   99.4124985        -1.27790329E-07
   99.5774994        -1.31246082E-07
   99.7425003        -1.34339302E-07
   99.9075012        -1.37117382E-07
   100.072502        -1.39632576E-07
   100.237503        -1.41941911E-07
   100.402496        -1.44107304E-07
   100.567497        -1.46195362E-07
   100.732498        -1.48277039E-07
   100.897499        -1.50426970E-07
   101.062500        -1.52722436E-07
   101.227501        -1.55242276E-07
   101.392502        -1.58065532E-07
   101.557503        -1.61270066E-07
   101.722504        -1.64930910E-07
   101.887497        -1.69118437E-07
   102.052498        -1.73895984E-07
   102.217499        -1.79316856E-07
   102.382500        -1.85420646E-07
   102.547501        -1.92228853E-07
   102.712502        -1.99740370E-07
   102.877502        -2.07927002E-07
   103.042503        -2.16730257E-07
   103.207497        -2.26059967E-07
   103.372498        -2.35795866E-07
   103.537498        -2.45792563E-07
   103.702499        -2.55888352E-07
   103.867500        -2.65917578E-07
   104.032501        -2.75725625E-07
   104.197502        -2.85185308E-07
   104.362503        -2.94212782E-07
   104.527496        -3.02781473E-07
   104.692497        -3.10931597E-07
   104.857498        -3.18774795E-07
   105.022499        -3.26492398E-07
   105.187500        -3.34327865E-07
   105.352501        -3.42573856E-07
   105.517502        -3.51555144E-07
   105.682503        -3.61609409E-07
   105.847504        -3.73067365E-07
   106.012497        -3.86233694E-07
   106.177498        -4.01370556E-07
   106.342499        -4.18683584E-07
   106.507500        -4.38311076E-07
   106.672501        -4.60315647E-07
   106.837502        -4.84678083E-07
   107.002502        -5.11292455E-07
   107.167503        -5.39962173E-07
   107.332497        -5.70397162E-07
   107.497498        -6.02212026E-07
   107.662498        -6.34926948E-07
   107.827499        -6.67971676E-07
   107.992500        -7.00695125E-07
   108.157501        -7.32380329E-07
   108.322502        -7.62267121E-07
   108.487503        -7.89580952E-07
   108.652496        -8.13568249E-07
   108.817497        -8.33535694E-07
   108.982498        -8.48891432E-07
   109.147499        -8.59184354E-07
   109.312500        -8.64138485E-07
   109.477501        -8.63678963E-07
   109.642502        -8.57946588E-07
   109.807503        -8.47298793E-07
   109.972504        -8.32296450E-07
   110.137497        -8.13676991E-07
   110.302498        -7.92315518E-07
   110.467499        -7.69176268E-07
   110.632500        -7.45260252E-07
   110.797501        -7.21550975E-07
   110.962502        -6.98964755E-07
   111.127502        -6.78307686E-07
   111.292503        -6.60242961E-07
   111.457497        -6.45270347E-07
   111.622498        -6.33717150E-07
   111.787498        -6.25740654E-07
   111.952499        -6.21339666E-07
   112.117500        -6.20373896E-07
   112.282501        -6.22586924E-07
   112.447502        -6.27632119E-07
   112.612503        -6.35098786E-07
   112.777496        -6.44537067E-07
   112.942497        -6.55481585E-07
   113.107498        -6.67472818E-07
   113.272499        -6.80077221E-07
   113.437500        -6.92904791E-07
   113.602501        -7.05626292E-07
   113.767502        -7.17987120E-07
   113.932503        -7.29818510E-07
   114.097504        -7.41044971E-07
   114.262497        -7.51684922E-07
   114.427498        -7.61844660E-07
   114.592499        -7.71704265E-07
   114.757500        -7.81494919E-07
   114.922501        -7.91469802E-07
   115.087502        -8.01869703E-07
   115.252502        -8.12886412E-07
   115.417503        -8.24627989E-07
   115.582497        -8.37088805E-07
   115.747498        -8.50127890E-07
   115.912498        -8.63458069E-07
   116.077499        -8.76647277E-07
   116.242500        -8.89131684E-07
   116.407501        -9.00240821E-07
   116.572502        -9.09230891E-07
   116.737503        -9.15325586E-07
   116.902496        -9.17759564E-07
   117.067497        -9.15822170E-07
   117.232498        -9.08898642E-07
   117.397499        -8.96506208E-07
   117.562500        -8.78323647E-07
   117.727501        -8.54213397E-07
   117.892502        -8.24235542E-07
   118.057503        -7.88654063E-07
   118.222504        -7.47935474E-07
   118.387497        -7.02740067E-07
   118.552498        -6.53905715E-07
   118.717499        -6.02424279E-07
   118.882500        -5.49410856E-07
   119.047501        -4.96066093E-07
   119.212502        -4.43632018E-07
   119.377502        -3.93343214E-07
   119.542503        -3.46374264E-07
   119.707497        -3.03787118E-07
   119.872498        -2.66481095E-07
   120.037498        -2.35148008E-07
   120.202499        -2.10236578E-07
   120.367500        -1.91927981E-07
   120.532501        -1.80124871E-07
   120.697502        -1.74454811E-07
   120.862503        -1.74287749E-07
   121.027496        -1.78766683E-07
   121.192497        -1.86849689E-07
   121.357498        -1.97360606E-07
   121.522499        -2.09045410E-07
   121.687500        -2.20631534E-07
   121.852501        -2.30887309E-07
   122.017502        -2.38678439E-07
   122.182503        -2.43019286E-07
   122.347504        -2.43117114E-07
   122.512497        -2.38406358E-07
   122.677498        -2.28571864E-07
   122.842499        -2.13559019E-07
   123.007500        -1.93569704E-07
   123.172501        -1.69043417E-07
   123.337502        -1.40624195E-07
   123.502502        -1.09114580E-07
   123.667503        -7.54198766E-08
   123.832497        -4.04861993E-08
   123.997498        -5.23737675E-09
   124.162498         2.94841289E-08
   124.327499         6.29672456E-08
   124.492500         9.46692111E-08
   124.657501         1.24236550E-07
   124.822502         1.51509298E-07
   124.987503         1.76509644E-07
   125.152496         1.99418253E-07
   125.317497         2.20542233E-07
   125.482498         2.40280741E-07
   125.647499         2.59092218E-07
   125.812500         2.77467592E-07
   125.977501         2.95910752E-07
   126.142502         3.14926154E-07
   126.307503         3.35010895E-07
   126.472504         3.56647206E-07
   126.637497         3.80291283E-07
   126.802498         4.06354360E-07
   126.967499         4.35174599E-07
   127.132500         4.66979600E-07
   127.297501         5.01843260E-07
   127.462502         5.39641576E-07
   127.627502         5.80014841E-07
   127.792503         6.22342952E-07
   127.957497         6.65739833E-07
   128.122498         7.09072253E-07
   128.287506         7.51003824E-07
   128.452499         7.90063609E-07
   128.617493         8.24733604E-07
   128.782501         8.53549807E-07
   128.947495         8.75206183E-07
   129.112503         8.88653688E-07
   129.277496         8.93183653E-07
   129.442505         8.88489978E-07
   129.607498         8.74702664E-07
   129.772507         8.52392418E-07
   129.937500         8.22544564E-07
   130.102493         7.86506916E-07
   130.267502         7.45914519E-07
   130.432495         7.02598470E-07
   130.597504         6.58484169E-07
   130.762497         6.15486044E-07
   130.927505         5.75404954E-07
   131.092499         5.39833934E-07
   131.257507         5.10076973E-07
   131.422501         4.87086481E-07
   131.587494         4.71421657E-07
   131.752502         4.63231203E-07
   131.917496         4.62260715E-07
   132.082504         4.67884774E-07
   132.247498         4.79161372E-07