  -1.23749995         0.00000000    
  -1.07249999         0.00000000    
 -0.907500029         0.00000000    
 -0.742500007         0.00000000    
 -0.577499986         0.00000000    
 -0.412499994         0.00000000    
 -0.247500002         0.00000000    
  -8.25000033E-02     0.00000000    
   8.25000033E-02     0.00000000    
  0.247500002         0.00000000    
  0.412499994         0.00000000    
  0.577499986         0.00000000    
  0.742500007         0.00000000    
  0.907500029         0.00000000    
   1.07249999         0.00000000    
   1.23749995         0.00000000    
   1.40250003         0.00000000    
   1.56750000         0.00000000    
   1.73249996         0.00000000    
   1.89750004         0.00000000    
   2.06250000         0.00000000    
   2.22749996         0.00000000    
   2.39249992         0.00000000    
   2.55749989         0.00000000    
   2.72250009         0.00000000    
   2.88750005         0.00000000    
   3.05250001         0.00000000    
   3.21749997         0.00000000    
   3.38249993         0.00000000    
   3.54749990         0.00000000    
   3.71250010         0.00000000    
   3.87750006         0.00000000    
   4.04250002         0.00000000    
   4.20749998         0.00000000    
   4.37249994         0.00000000    
   4.53749990         0.00000000    
   4.70249987         0.00000000    
   4.86749983         0.00000000    
   5.03249979         0.00000000    
   5.19750023         0.00000000    
   5.36250019         0.00000000    
   5.52750015         0.00000000    
   5.69250011         0.00000000    
   5.85750008         0.00000000    
   6.02250004         0.00000000    
   6.18750000         0.00000000    
   6.35249996         0.00000000    
   6.51749992         0.00000000    
   6.68249989         0.00000000    
   6.84749985         0.00000000    
   7.01249981        -1.28701332E-33
   7.17749977        -2.19168369E-33
   7.34250021         1.71274288E-32
   7.50750017        -2.43322078E-33
   7.67250013        -1.30687101E-31
   7.83750010        -1.82878321E-31
   8.00249958         5.14831966E-32
   8.16749954         1.71136978E-31
   8.33250046         1.15040977E-31
   8.49750042         3.52639989E-32
   8.66250038         2.01650840E-32
   8.82750034        -4.56567742E-31
   8.99250031        -2.27599480E-30
   9.15750027        -4.45926998E-30
   9.32250023        -1.04645531E-29
   9.48750019        -1.16061090E-29
   9.65250015        -9.10257837E-30
   9.81750011         1.51087985E-29
   9.98250008         6.44124441E-29
   10.1475000         1.38545069E-28
   10.3125000         2.41205488E-28
   10.4775000         2.88336316E-28
   10.6424999         1.96479328E-28
   10.8074999        -7.15043260E-29
   10.9724998        -4.95771297E-28
   11.1374998        -9.83051940E-28
   11.3024998        -1.42102574E-27
   11.4674997        -1.69445031E-27
   11.6324997        -1.67467447E-27
   11.7974997        -1.15426095E-27
   11.9624996         2.49107627E-28
   12.1274996         3.05497710E-27
   12.2924995         7.64256611E-27
   12.4575005         1.36418718E-26
   12.6225004         1.91608382E-26
   12.7875004         2.02954405E-26
   12.9525003         1.16150246E-26
   13.1175003        -1.17777388E-26
   13.2825003        -5.06187514E-26
   13.4475002        -9.73751906E-26
   13.6125002        -1.33960057E-25
   13.7775002        -1.34047128E-25
   13.9425001        -7.17747437E-26
   14.1075001         6.42095183E-26
   14.2725000         2.56322207E-25
   14.4375000         4.51253386E-25
   14.6025000         5.68575047E-25
   14.7674999         5.27257619E-25
   14.9324999         2.83150948E-25
   15.0974998        -1.39163692E-25
   15.2624998        -6.40376477E-25
   15.4274998        -1.07880979E-24
   15.5924997        -1.33419167E-24
   15.7574997        -1.37215689E-24
   15.9224997        -1.26489152E-24
   16.0874996        -1.13385581E-24
   16.2525005        -1.02074785E-24
   16.4174995        -7.50147162E-25
   16.5825005         1.09473543E-25
   16.7474995         2.08867077E-24
   16.9125004         5.45015361E-24
   17.0774994         9.74105167E-24
   17.2425003         1.35291807E-23
   17.4074993         1.46208253E-23
   17.5725002         1.09063396E-23
   17.7374992         1.64304857E-24
   17.9025002        -1.14174829E-23
   18.0674992        -2.38896838E-23
   18.2325001        -3.02611272E-23
   18.3974991        -2.70028729E-23
   18.5625000        -1.61601612E-23
   18.7275009        -7.31865310E-24
   18.8924999        -1.56226708E-23
   19.0575008        -5.46171003E-23
   19.2224998        -1.25140678E-22
   19.3875008        -2.04580587E-22
   19.5524998        -2.43046379E-22
   19.7175007        -1.72741113E-22
   19.8824997         6.70670483E-23
   20.0475006         4.94105565E-22
   20.2124996         1.04867842E-21
   20.3775005         1.57815438E-21
   20.5424995         1.85596186E-21
   20.7075005         1.64051999E-21
   20.8724995         7.63024335E-22
   21.0375004        -7.83804723E-22
   21.2024994        -2.79272876E-21
   21.3675003        -4.85539954E-21
   21.5324993        -6.45036169E-21
   21.6975002        -7.08162974E-21
   21.8624992        -6.41558173E-21
   22.0275002        -4.35564028E-21
   22.1924992        -1.01626701E-21
   22.3575001         3.39245954E-21
   22.5224991         8.69959663E-21
   22.6875000         1.48192589E-20
   22.8525009         2.16115314E-20
   23.0174999         2.85371237E-20
   23.1825008         3.42071204E-20
   23.3474998         3.60536590E-20
   23.5125008         3.04108719E-20
   23.6774998         1.32428635E-20
   23.8425007        -1.84328039E-20
   24.0074997        -6.46638169E-20
   24.1725006        -1.20756414E-19
   24.3374996        -1.76257881E-19
   24.5025005        -2.15410588E-19
   24.6674995        -2.19472135E-19
   24.8325005        -1.70802651E-19
   24.9974995        -5.80579719E-20
   25.1625004         1.18628091E-19
   25.3274994         3.43780243E-19
   25.4925003         5.85203710E-19
   25.6574993         7.95833104E-19
   25.8225002         9.18979256E-19
   25.9874992         8.96611155E-19
   26.1525002         6.79921681E-19
   26.3174992         2.41200774E-19
   26.4825001        -4.14166102E-19
   26.6474991        -1.23710051E-18
   26.8125000        -2.12775607E-18
   26.9775009        -2.93483557E-18
   27.1424999        -3.46471486E-18
   27.3075008        -3.50353672E-18
   27.4724998        -2.85387775E-18
   27.6375008        -1.38433918E-18
   27.8024998         9.14197635E-19
   27.9675007         3.87696203E-18
   28.1324997         7.13360726E-18
   28.2975006         1.01127743E-17
   28.4624996         1.20959407E-17
   28.6275005         1.23253766E-17
   28.7924995         1.01587606E-17
   28.9575005         5.24881626E-18
   29.1224995        -2.28629888E-18
   29.2875004        -1.17437164E-17
   29.4524994        -2.18089064E-17
   29.6175003        -3.06520379E-17
   29.7824993        -3.61591615E-17
   29.9475002        -3.62838210E-17
   30.1124992        -2.94767598E-17
   30.2775002        -1.51264583E-17
   30.4424992         6.07342393E-18
   30.6075001         3.19179551E-17
   30.7724991         5.87238016E-17
   30.9375000         8.16526129E-17
   31.1025009         9.53355037E-17
   31.2674999         9.47576420E-17
   31.4325008         7.63041028E-17
   31.5974998         3.88124228E-17
   31.7625008        -1.55654513E-17
   31.9274998        -8.09091033E-17
   32.0924988        -1.47682630E-16
   32.2574997        -2.03632292E-16
   32.4225006        -2.35456022E-16
   32.5875015        -2.31121331E-16
   32.7524986        -1.82538604E-16
   32.9174995        -8.81377552E-17
   33.0825005         4.52080476E-17
   33.2475014         2.01480286E-16
   33.4124985         3.56490201E-16
   33.5774994         4.80742496E-16
   33.7425003         5.44043015E-16
   33.9075012         5.21292081E-16
   34.0724983         3.98520346E-16
   34.2374992         1.77956964E-16
   34.4025002        -1.19133344E-16
   34.5675011        -4.52891576E-16
   34.7324982        -7.69140592E-16
   34.8974991        -1.00733361E-15
   35.0625000        -1.11119987E-15
   35.2275009        -1.04035107E-15
   35.3925018        -7.80603912E-16
   35.5574989        -3.50660470E-16
   35.7224998         1.96817767E-16
   35.8875008         7.80827158E-16
   36.0525017         1.30413989E-15
   36.2174988         1.67030503E-15
   36.3824997         1.80260872E-15
   36.5475006         1.66121647E-15
   36.7125015         1.25457491E-15
   36.8774986         6.41856792E-16
   37.0424995        -7.52156456E-17
   37.2075005        -7.70679862E-16
   37.3725014        -1.31989788E-15
   37.5374985        -1.62743087E-15
   37.7024994        -1.65102063E-15
   37.8675003        -1.41549105E-15
   38.0325012        -1.01186492E-15
   38.1974983        -5.79824704E-16
   38.3624992        -2.75378855E-16
   38.5275002        -2.29478404E-16
   38.6925011        -5.06442270E-16
   38.8574982        -1.07251873E-15
   39.0224991        -1.78411503E-15
   39.1875000        -2.40203424E-15
   39.3525009        -2.63282976E-15
   39.5175018        -2.19214858E-15
   39.6824989        -8.79000712E-16
   39.8474998         1.35432394E-15
   40.0125008         4.35317675E-15
   40.1775017         7.74651949E-15
   40.3424988         1.09763916E-14
   40.5074997         1.33711528E-14
   40.6725006         1.42537959E-14
   40.8375015         1.30685690E-14
   41.0024986         9.50397902E-15
   41.1674995         3.58899295E-15
   41.3325005        -4.25756833E-15
   41.4975014        -1.32374089E-14
   41.6624985        -2.22462802E-14
   41.8274994        -3.00035265E-14
   41.9925003        -3.52211580E-14
   42.1575012        -3.67891041E-14
   42.3224983        -3.39502460E-14
   42.4874992        -2.64396083E-14
   42.6525002        -1.45666357E-14
   42.8175011         7.73053090E-16
   42.9824982         1.81608963E-14
   43.1474991         3.57883177E-14
   43.3125000         5.16452048E-14
   43.4775009         6.37426987E-14
   43.6425018         7.03444803E-14
   43.8074989         7.01799865E-14
   43.9724998         6.26145999E-14
   44.1375008         4.77573439E-14
   44.3025017         2.64934321E-14
   44.4674988         4.37198412E-16
   44.6324997        -2.81912487E-14
   44.7975006        -5.67550937E-14
   44.9625015        -8.24395484E-14
   45.1274986        -1.02519630E-13
   45.2924995        -1.14633563E-13
   45.4575005        -1.17036128E-13
   45.6225014        -1.08806308E-13
   45.7874985        -8.99849178E-14
   45.9524994        -6.16231987E-14
   46.1175003        -2.57310364E-14
   46.2825012         1.48753538E-14
   46.4474983         5.68137998E-14
   46.6124992         9.64403118E-14
   46.7775002         1.30184112E-13
   46.9425011         1.54876722E-13
   47.1074982         1.68040901E-13
   47.2724991         1.68112269E-13
   47.4375000         1.54577414E-13
   47.6025009         1.28023148E-13
   47.7675018         9.01003312E-14
   47.9324989         4.34118107E-14
   48.0974998        -8.66497849E-15
   48.2625008        -6.22097995E-14
   48.4275017        -1.13035903E-13
   48.5924988        -1.56999034E-13
   48.7574997        -1.90323831E-13
   48.9225006        -2.09926382E-13
   49.0875015        -2.13706142E-13
   49.2524986        -2.00778616E-13
   49.4174995        -1.71623349E-13
   49.5825005        -1.28130308E-13
   49.7475014        -7.35387635E-14
   49.9124985        -1.22737344E-14
   50.0774994         5.03110737E-14
   50.2425003         1.08276438E-13
   50.4075012         1.55526511E-13
   50.5724983         1.86330281E-13
   50.7374992         1.95939307E-13
   50.9025002         1.81290367E-13
   51.0675011         1.41747792E-13
   51.2324982         7.97968462E-14
   51.3974991         1.55379385E-15
   51.5625000        -8.30739083E-14
   51.7275009        -1.60748137E-13
   51.8925018        -2.15719613E-13
   52.0574989        -2.31569755E-13
   52.2224998        -1.93623112E-13
   52.3875008        -9.18367961E-14
   52.5525017         7.61809168E-14
   52.7174988         3.02508317E-13
   52.8824997         5.67180742E-13
   53.0475006         8.37976661E-13
   53.2125015         1.07219897E-12
   53.3774986         1.22069846E-12
   53.5424995         1.23403664E-12
   53.7075005         1.07025977E-12
   53.8725014         7.03326395E-13
   54.0374985         1.30887692E-13
   54.2024994        -6.20047904E-13
   54.3675003        -1.49094691E-12
   54.5325012        -2.39410640E-12
   54.6974983        -3.21994276E-12
   54.8624992        -3.84883878E-12
   55.0275002        -4.16634435E-12
   55.1925011        -4.07978859E-12
   55.3574982        -3.53389475E-12
   55.5224991        -2.52286733E-12
   55.6875000        -1.09674607E-12
   55.8525009         6.39458267E-13
   56.0175018         2.53428745E-12
   56.1824989         4.40529948E-12
   56.3474998         6.05959857E-12
   56.5125008         7.31671668E-12
   56.6775017         8.03066467E-12
   56.8424988         8.10801946E-12
   57.0074997         7.51942258E-12
   57.1725006         6.30282718E-12
   57.3375015         4.55803060E-12
   57.5024986         2.43330703E-12
   57.6674995         1.06139700E-13
   57.8325005        -2.23905183E-12
   57.9975014        -4.43285729E-12
   58.1624985        -6.33920260E-12
   58.3274994        -7.86736822E-12
   58.4925003        -8.97603779E-12
   58.6575012        -9.66901819E-12
   58.8224983        -9.98364585E-12
   58.9874992        -9.97409620E-12
   59.1525002        -9.69263558E-12
   59.3175011        -9.17223155E-12
   59.4824982        -8.41378009E-12
   59.6474991        -7.38055103E-12
   59.8125000        -6.00150008E-12
   59.9775009        -4.18373322E-12
   60.1425018        -1.83304977E-12
   60.3074989         1.11997933E-12
   60.4724998         4.69211085E-12
   60.6375008         8.82222073E-12
   60.8025017         1.33534555E-11
   60.9674988         1.80268005E-11
   61.1324997         2.24888354E-11
   61.2975006         2.63144714E-11
   61.4625015         2.90433008E-11
   61.6274986         3.02260300E-11
   61.7924995         2.94758384E-11
   61.9575005         2.65184801E-11
   62.1225014         2.12349530E-11
   62.2874985         1.36913059E-11
   62.4524994         4.15174796E-12
   62.6175003        -6.92667278E-12
   62.7825012        -1.89173538E-11
   62.9474983        -3.10628398E-11
   63.1124992        -4.25248899E-11
   63.2775002        -5.24411833E-11
   63.4425011        -5.99840316E-11
   63.6074982        -6.44174228E-11
   63.7724991        -6.51496634E-11
   63.9375000        -6.17801088E-11
   64.1025009        -5.41387352E-11
   64.2675018        -4.23171741E-11
   64.4325027        -2.66889774E-11
   64.5975037        -7.91606451E-12
   64.7624969         1.30625632E-11
   64.9274979         3.50633689E-11
   65.0924988         5.67146156E-11
   65.2574997         7.65367422E-11
   65.4225006         9.30439822E-11
   65.5875015         1.04861030E-10
   65.7525024         1.10845062E-10
   65.9175034         1.10200842E-10
   66.0824966         1.02575261E-10
   66.2474976         8.81178949E-11
   66.4124985         6.74970496E-11
   66.5774994         4.18652786E-11
   66.7425003         1.27747517E-11
   66.9075012        -1.79500390E-11
   67.0725021        -4.83685245E-11
   67.2375031        -7.65907476E-11
   67.4024963        -1.00934469E-10
   67.5674973        -1.20053828E-10
   67.7324982        -1.33025160E-10
   67.8974991        -1.39381756E-10
   68.0625000        -1.39097095E-10
   68.2275009        -1.32522909E-10
   68.3925018        -1.20294760E-10
   68.5575027        -1.03222195E-10
   68.7225037        -8.21816989E-11
   68.8874969        -5.80295673E-11
   69.0524979        -3.15476291E-11
   69.2174988        -3.42844958E-12
   69.3824997         2.57013074E-11
   69.5475006         5.52276419E-11
   69.7125015         8.44810333E-11
   69.8775024         1.12670838E-10
   70.0425034         1.38839995E-10
   70.2074966         1.61854696E-10
   70.3724976         1.80437290E-10
   70.5374985         1.93244282E-10
   70.7024994         1.98982553E-10
   70.8675003         1.96550623E-10
   71.0325012         1.85185769E-10
   71.1975021         1.64595046E-10
   71.3625031         1.35047806E-10
   71.5274963         9.74126266E-11
   71.6924973         5.31277210E-11
   71.8574982         4.10535017E-12
   72.0224991        -4.74184303E-11
   72.1875000        -9.90680385E-11
   72.3525009        -1.48519405E-10
   72.5175018        -1.93669830E-10
   72.6825027        -2.32763003E-10
   72.8475037        -2.64454209E-10
   73.0124969        -2.87811441E-10
   73.1774979        -3.02259995E-10
   73.3424988        -3.07487202E-10
   73.5074997        -3.03330860E-10
   73.6725006        -2.89678032E-10
   73.8375015        -2.66398459E-10
   74.0025024        -2.33331993E-10
   74.1675034        -1.90339147E-10
   74.3324966        -1.37411360E-10
   74.4974976        -7.48257081E-11
   74.6624985        -3.31613730E-12
   74.8274994         7.57712643E-11
   74.9925003         1.60372882E-10
   75.1575012         2.47678267E-10
   75.3225021         3.34191480E-10
   75.4875031         4.15882967E-10
   75.6524963         4.88418306E-10
   75.8174973         5.47438817E-10
   75.9824982         5.88864402E-10
   76.1474991         6.09186313E-10
   76.3125000         6.05722750E-10
   76.4775009         5.76813874E-10
   76.6425018         5.21943433E-10
   76.8075027         4.41781584E-10
   76.9725037         3.38155198E-10
   77.1374969         2.13959045E-10
   77.3024979         7.30279379E-11
   77.4674988        -8.00090272E-11
   77.6324997        -2.39875564E-10
   77.7975006        -4.00787015E-10
   77.9625015        -5.56582058E-10
   78.1275024        -7.00857150E-10
   78.2925034        -8.27117597E-10
   78.4574966        -9.28961130E-10
   78.6224976        -1.00030562E-09
   78.7874985        -1.03566544E-09
   78.9524994        -1.03047670E-09
   79.1175003        -9.81459025E-10
   79.2825012        -8.86999918E-10
   79.4475021        -7.47530982E-10
   79.6125031        -5.65862190E-10
   79.7774963        -3.47425255E-10
   79.9424973        -1.00377713E-10
   80.1074982         1.64481886E-10
   80.2724991         4.34024122E-10
   80.4375000         6.93342772E-10
   80.6025009         9.26545340E-10
   80.7675018         1.11774756E-09
   80.9325027         1.25221533E-09
   81.0975037         1.31757594E-09
   81.2624969         1.30500522E-09
   81.4274979         1.21028654E-09
   81.5924988         1.03463393E-09
   81.7574997         7.85179866E-10
   81.9225006         4.75042394E-10
   82.0875015         1.22924532E-10
   82.2525024        -2.47763171E-10
   82.4175034        -6.10219320E-10
   82.5824966        -9.35922229E-10
   82.7474976        -1.19654098E-09
   82.9124985        -1.36594680E-09
   83.0774994        -1.42218826E-09
   83.2425003        -1.34928901E-09
   83.4075012        -1.13874621E-09
   83.5725021        -7.90624011E-10
   83.7375031        -3.14158116E-10
   83.9024963         2.72181749E-10
   84.0674973         9.41189016E-10
   84.2324982         1.65795389E-09
   84.3974991         2.38137465E-09
   84.5625000         3.06606029E-09
   84.7275009         3.66452335E-09
   84.8925018         4.12956025E-09
   85.0575027         4.41671899E-09
   85.2225037         4.48676563E-09
   85.3874969         4.30805169E-09
   85.5524979         3.85867871E-09
   85.7174988         3.12835691E-09
   85.8824997         2.11984230E-09
   86.0475006         8.49844306E-10
   86.2125015        -6.50666465E-10
   86.3775024        -2.33681496E-09
   86.5425034        -4.15085299E-09
   86.7074966        -6.02386763E-09
   86.8724976        -7.87812748E-09
   87.0374985        -9.63001234E-09
   87.2024994        -1.11934373E-08
   87.3675003        -1.24836399E-08
   87.5325012        -1.34211726E-08
   87.6975021        -1.39358747E-08
   87.8625031        -1.39706247E-08
   88.0274963        -1.34846330E-08
   88.1924973        -1.24560762E-08
   88.3574982        -1.08839178E-08
   88.5224991        -8.78879192E-09
   88.6875000        -6.21286045E-09
   88.8525009        -3.21863625E-09
   89.0175018         1.13236566E-10
   89.1825027         3.68715702E-09
   89.3475037         7.39655004E-09
   89.5124969         1.11284466E-08
   89.6774979         1.47683661E-08
   89.8424988         1.82051849E-08
   90.0074997         2.13356497E-08
   90.1725006         2.40682052E-08
   90.3375015         2.63258979E-08
   90.5025024         2.80481096E-08
   90.6675034         2.91910514E-08
   90.8324966         2.97269640E-08
   90.9974976         2.96421785E-08
   91.1624985         2.89342559E-08
   91.3274994         2.76086034E-08
   91.4925003         2.56750337E-08
   91.6575012         2.31447821E-08
   91.8225021         2.00284749E-08
   91.9875031         1.63354255E-08
   92.1524963         1.20744490E-08
   92.3174973         7.25624538E-09
   92.4824982         1.89714311E-09
   92.6474991        -3.97615718E-09
   92.8125000        -1.03213402E-08
   92.9775009        -1.70753474E-08
   93.1425018        -2.41500206E-08
   93.3075027        -3.14291597E-08
   93.4725037        -3.87675172E-08
   93.6374969        -4.59920599E-08
   93.8024979        -5.29056479E-08
   93.9674988        -5.92928870E-08
   94.1324997        -6.49277112E-08
   94.2975006        -6.95821285E-08
   94.4625015        -7.30353378E-08
   94.6275024        -7.50825961E-08
   94.7925034        -7.55431557E-08
   94.9574966        -7.42670352E-08
   95.1224976        -7.11401711E-08
   95.2874985        -6.60881128E-08
   95.4524994        -5.90782854E-08
   95.6175003        -5.01208817E-08
   95.7825012        -3.92688939E-08
   95.9475021        -2.66173110E-08
   96.1125031        -1.23018076E-08
   96.2774963         3.50307028E-09
   96.4424973         2.05862722E-08
   96.6074982         3.87034191E-08
   96.7724991         5.75810724E-08
   96.9375000         7.69224613E-08
   97.1025009         9.64147659E-08
   97.2675018         1.15737969E-07
   97.4325027         1.34574989E-07
   97.5975037         1.52622491E-07
   97.7624969         1.69601762E-07
   97.9274979         1.85268746E-07
   98.0924988         1.99422459E-07
   98.2574997         2.11911086E-07
   98.4225006         2.22635279E-07
   98.5875015         2.31548356E-07
   98.7525024         2.38653541E-07
   98.9175034         2.43998329E-07
   99.0824966         2.47667202E-07
   99.2474976         2.49772938E-07
   99.4124985         2.50448096E-07
   99.5774994         2.49837143E-07
   99.7425003         2.48090288E-07
   99.9075012         2.45359189E-07
   100.072502         2.41794964E-07
   100.237503         2.37548008E-07
   100.402496         2.32769708E-07
   100.567497         2.27614905E-07
   100.732498         2.22244950E-07
   100.897499         2.16830387E-07
   101.062500         2.11552589E-07
   101.227501         2.06604071E-07
   101.392502         2.02186826E-07
   101.557503         1.98508801E-07
   101.722504         1.95778256E-07
   101.887497         1.94196659E-07
   102.052498         1.93950356E-07
   102.217499         1.95201636E-07
   102.382500         1.98079761E-07
   102.547501         2.02672766E-07
   102.712502         2.09020527E-07
   102.877502         2.17109815E-07
   103.042503         2.26871947E-07
   103.207497         2.38183461E-07
   103.372498         2.50870471E-07
   103.537498         2.64716419E-07
   103.702499         2.79473426E-07
   103.867500         2.94876969E-07
   104.032501         3.10663069E-07
   104.197502         3.26587156E-07
   104.362503         3.42443627E-07
   104.527496         3.58084776E-07
   104.692497         3.73437786E-07
   104.857498         3.88517833E-07
   105.022499         4.03436758E-07
   105.187500         4.18404710E-07
   105.352501         4.33725148E-07
   105.517502         4.49781879E-07
   105.682503         4.67018879E-07
   105.847504         4.85912892E-07
   106.012497         5.06940637E-07
   106.177498         5.30542536E-07
   106.342499         5.57083979E-07
   106.507500         5.86817919E-07
   106.672501         6.19850027E-07
   106.837502         6.56109705E-07
   107.002502         6.95328595E-07
   107.167503         7.37028586E-07
   107.332497         7.80520224E-07
   107.497498         8.24912547E-07
   107.662498         8.69134112E-07
   107.827499         9.11964150E-07
   107.992500         9.52074117E-07
   108.157501         9.88076977E-07
   108.322502         1.01858313E-06
   108.487503         1.04226035E-06
   108.652496         1.05789547E-06
   108.817497         1.06445577E-06
   108.982498         1.06114624E-06
   109.147499         1.04745993E-06
   109.312500         1.02321792E-06
   109.477501         9.88597890E-07
   109.642502         9.44144972E-07
   109.807503         8.90767410E-07
   109.972504         8.29712803E-07
   110.137497         7.62527634E-07
   110.302498         6.91000480E-07
   110.467499         6.17091132E-07
   110.632500         5.42850842E-07
   110.797501         4.70336175E-07
   110.962502         4.01522158E-07
   111.127502         3.38220076E-07
   111.292503         2.82003839E-07
   111.457497         2.34149994E-07
   111.622498         1.95594495E-07
   111.787498         1.66907853E-07
   111.952499         1.48289800E-07
   112.117500         1.39582696E-07
   112.282501         1.40301537E-07
   112.447502         1.49678243E-07
   112.612503         1.66717072E-07
   112.777496         1.90257737E-07
   112.942497         2.19042477E-07
   113.107498         2.51783234E-07
   113.272499         2.87225419E-07
   113.437500         3.24203654E-07
   113.602501         3.61687654E-07
   113.767502         3.98815303E-07
   113.932503         4.34911613E-07
   114.097504         4.69494438E-07
   114.262497         5.02266232E-07
   114.427498         5.33093555E-07
   114.592499         5.61975469E-07
   114.757500         5.89003776E-07
   114.922501         6.14317230E-07
   115.087502         6.38052256E-07
   115.252502         6.60295257E-07
   115.417503         6.81038955E-07
   115.582497         7.00146757E-07
   115.747498         7.17327737E-07
   115.912498         7.32123624E-07
   116.077499         7.43909368E-07
   116.242500         7.51905816E-07
   116.407501         7.55206031E-07
   116.572502         7.52812753E-07
   116.737503         7.43687565E-07
   116.902496         7.26806661E-07
   117.067497         7.01223257E-07
   117.232498         6.66131655E-07
   117.397499         6.20928688E-07
   117.562500         5.65270511E-07
   117.727501         4.99121256E-07
   117.892502         4.22790890E-07
   118.057503         3.36960568E-07
   118.222504         2.42693972E-07
   118.387497         1.41431528E-07
   118.552498         3.49677691E-08
   118.717499        -7.45907940E-08
   118.882500        -1.84886574E-07
   119.047501        -2.93388581E-07
   119.212502        -3.97485650E-07
   119.377502        -4.94589642E-07
   119.542503        -5.82245093E-07
   119.707497        -6.58240253E-07
   119.872498        -7.20712819E-07
   120.037498        -7.68246139E-07
   120.202499        -7.99946974E-07
   120.367500        -8.15500869E-07
   120.532501        -8.15197723E-07
   120.697502        -7.99926738E-07
   120.862503        -7.71137820E-07
   121.027496        -7.30773365E-07
   121.192497        -6.81172935E-07
   121.357498        -6.24957806E-07
   121.522499        -5.64902564E-07
   121.687500        -5.03800891E-07
   121.852501        -4.44333978E-07
   122.017502        -3.88950440E-07
   122.182503        -3.39763545E-07
   122.347504        -2.98472941E-07
   122.512497        -2.66312725E-07
   122.677498        -2.44028286E-07
   122.842499        -2.31879739E-07
   123.007500        -2.29669922E-07
   123.172501        -2.36793255E-07
   123.337502        -2.52301504E-07
   123.502502        -2.74983222E-07
   123.667503        -3.03452168E-07
   123.832497        -3.36240504E-07
   123.997498        -3.71892412E-07
   124.162498        -4.09052802E-07
   124.327499        -4.46546522E-07
   124.492500        -4.83445092E-07
   124.657501        -5.19117066E-07
   124.822502        -5.53260861E-07
   124.987503        -5.85917917E-07
   125.152496        -6.17465275E-07
   125.317497        -6.48586081E-07
   125.482498        -6.80218363E-07
   125.647499        -7.13483644E-07
   125.812500        -7.49597291E-07
   125.977501        -7.89767228E-07
   126.142502        -8.35085473E-07
   126.307503        -8.86420821E-07
   126.472504        -9.44317662E-07
   126.637497        -1.00890793E-06
   126.802498        -1.07984101E-06
   126.967499        -1.15623800E-06
   127.132500        -1.23667223E-06
   127.297501        -1.31918307E-06
   127.462502        -1.40132443E-06
   127.627502        -1.48024708E-06
   127.792503        -1.55281396E-06
   127.957497        -1.61574269E-06
   128.122498        -1.66576729E-06
   128.287506        -1.69981081E-06
   128.452499        -1.71515819E-06
   128.617493        -1.70961948E-06
   128.782501        -1.68167378E-06
   128.947495        -1.63058235E-06
   129.112503        -1.55646455E-06
   129.277496        -1.46032824E-06
   129.442505        -1.34405138E-06
   129.607498        -1.21031474E-06
   129.772507        -1.06248956E-06
   129.937500        -9.04487308E-07
   130.102493        -7.40581754E-07
   130.267502        -5.75213221E-07
   130.432495        -4.12789433E-07
   130.597504        -2.57492673E-07
   130.762497        -1.13106140E-07
   130.927505         1.71290182E-08
   131.092499         1.30619014E-07
   131.257507         2.25477606E-07
   131.422501         3.00540506E-07
   131.587494         3.55335374E-07
   131.752502         3.90013838E-07
   131.917496         4.05254212E-07
   132.082504         4.02146100E-07
   132.247498         3.82067952E-07