  -1.23749995         0.00000000    
  -1.07249999         0.00000000    
 -0.907500029         0.00000000    
 -0.742500007         0.00000000    
 -0.577499986         0.00000000    
 -0.412499994         0.00000000    
 -0.247500002         0.00000000    
  -8.25000033E-02     0.00000000    
   8.25000033E-02     0.00000000    
  0.247500002         0.00000000    
  0.412499994         0.00000000    
  0.577499986         0.00000000    
  0.742500007         0.00000000    
  0.907500029         0.00000000    
   1.07249999         0.00000000    
   1.23749995         0.00000000    
   1.40250003         0.00000000    
   1.56750000         0.00000000    
   1.73249996         0.00000000    
   1.89750004         0.00000000    
   2.06250000         0.00000000    
   2.22749996         0.00000000    
   2.39249992         0.00000000    
   2.55749989         0.00000000    
   2.72250009         0.00000000    
   2.88750005         0.00000000    
   3.05250001        -3.05585662E-33
   3.21749997        -1.49467516E-32
   3.38249993        -2.46170998E-32
   3.54749990         1.98486468E-32
   3.71250010         2.07936699E-31
   3.87750006         6.70444237E-31
   4.04250002         1.03375277E-30
   4.20749998        -6.35447420E-30
   4.37249994        -5.34130610E-29
   4.53749990        -1.33792933E-28
   4.70249987        -2.02506767E-28
   4.86749983        -1.01202407E-28
   5.03249979         4.53348501E-28
   5.19750023         1.75760521E-27
   5.36250019         3.80399514E-27
   5.52750015         5.72805847E-27
   5.69250011         5.18674581E-27
   5.85750008        -1.63750788E-27
   6.02250004        -1.84519034E-26
   6.18750000        -4.49268365E-26
   6.35249996        -7.10978455E-26
   6.51749992        -7.34278387E-26
   6.68249989        -1.86740556E-26
   6.84749985         1.18143125E-25
   7.01249981         3.21353287E-25
   7.17749977         5.01065219E-25
   7.34250021         4.88242778E-25
   7.50750017         9.52340187E-26
   7.67250013        -7.41313941E-25
   7.83750010        -1.77499581E-24
   8.00249958        -2.34111375E-24
   8.16749954        -1.49809784E-24
   8.33250046         1.45336952E-24
   8.49750042         6.14372840E-24
   8.66250038         1.03921025E-23
   8.82750034         1.02252009E-23
   8.99250031         1.31835539E-24
   9.15750027        -1.80377953E-23
   9.32250023        -4.34350065E-23
   9.48750019        -6.24934410E-23
   9.65250015        -5.72828885E-23
   9.81750011        -1.24297823E-23
   9.98250008         7.28571422E-23
   10.1475000         1.74771654E-22
   10.3125000         2.45540820E-22
   10.4775000         2.31505205E-22
   10.6424999         1.07182026E-22
   10.8074999        -8.93080159E-23
   10.9724998        -2.45862903E-22
   11.1374998        -2.18208645E-22
   11.3024998         6.79081823E-23
   11.4674997         4.85244625E-22
   11.6324997         6.21967776E-22
   11.7974997        -1.48858545E-22
   11.9624996        -2.36913029E-21
   12.1274996        -5.98570025E-21
   12.2924995        -9.80918269E-21
   12.4575005        -1.12764040E-20
   12.6225004        -6.90647586E-21
   12.7875004         6.30679052E-21
   12.9525003         2.87160209E-20
   13.1175003         5.57668432E-20
   13.2825003         7.68921700E-20
   13.4475002         7.69132308E-20
   13.6125002         4.07734385E-20
   13.7775002        -3.88613265E-20
   13.9425001        -1.53373115E-19
   14.1075001        -2.73126844E-19
   14.2725000        -3.49768979E-19
   14.4375000        -3.28544068E-19
   14.6025000        -1.69627136E-19
   14.7674999         1.27420685E-19
   14.9324999         5.06166861E-19
   15.0974998         8.53950297E-19
   15.2624998         1.02783509E-18
   15.4274998         9.03912988E-19
   15.5924997         4.36139043E-19
   15.7574997        -2.98850481E-19
   15.9224997        -1.09643566E-18
   16.0874996        -1.67403902E-18
   16.2525005        -1.77152040E-18
   16.4174995        -1.27148010E-18
   16.5825005        -2.89675807E-19
   16.7474995         8.15916274E-19
   16.9125004         1.54643525E-18
   17.0774994         1.45980741E-18
   17.2425003         4.01517631E-19
   17.4074993        -1.32829645E-18
   17.5725002        -2.96613960E-18
   17.7374992        -3.48381591E-18
   17.9025002        -1.96492019E-18
   18.0674992         1.95308965E-18
   18.2325001         7.73425701E-18
   18.3974991         1.38514405E-17
   18.5625000         1.80282658E-17
   18.7275009         1.77881899E-17
   18.8924999         1.11788182E-17
   19.0575008        -2.51539731E-18
   19.2224998        -2.22457801E-17
   19.3875008        -4.49672752E-17
   19.5524998        -6.57430445E-17
   19.7175007        -7.82011191E-17
   19.8824997        -7.53875337E-17
   20.0475006        -5.11023613E-17
   20.2124996        -1.77640076E-18
   20.3775005         7.12352525E-17
   20.5424995         1.59411852E-16
   20.7075005         2.45753851E-16
   20.8724995         3.05526637E-16
   21.0375004         3.10036876E-16
   21.2024994         2.33704358E-16
   21.3675003         6.34753785E-17
   21.5324993        -1.91757049E-16
   21.6975002        -4.95057300E-16
   21.8624992        -7.82051809E-16
   22.0275002        -9.70367191E-16
   22.1924992        -9.77613982E-16
   22.3575001        -7.44658745E-16
   22.5224991        -2.58382954E-16
   22.6875000         4.32973305E-16
   22.8525009         1.21781707E-15
   23.0174999         1.93548977E-15
   23.1825008         2.40550856E-15
   23.3474998         2.46619000E-15
   23.5125008         2.01417574E-15
   23.6774998         1.03570668E-15
   23.8425007        -3.77806791E-16
   24.0074997        -2.03392622E-15
   24.1725006        -3.66292791E-15
   24.3374996        -4.95738103E-15
   24.5025005        -5.62131298E-15
   24.6674995        -5.42155212E-15
   24.8325005        -4.23374257E-15
   24.9974995        -2.07604705E-15
   25.1625004         8.75354764E-16
   25.3274994         4.29322461E-15
   25.4925003         7.73017853E-15
   25.6574993         1.06712607E-14
   25.8225002         1.26015124E-14
   25.9874992         1.30780269E-14
   26.1525002         1.17944832E-14
   26.3174992         8.62779036E-15
   26.4825001         3.66167557E-15
   26.6474991        -2.81096079E-15
   26.8125000        -1.02991795E-14
   26.9775009        -1.81289801E-14
   27.1424999        -2.54567943E-14
   27.3075008        -3.12861445E-14
   27.4724998        -3.45042530E-14
   27.6375008        -3.39640628E-14
   27.8024998        -2.86358021E-14
   27.9675007        -1.78372535E-14
   28.1324997        -1.52300060E-15
   28.2975006         1.94232244E-14
   28.4624996         4.29812537E-14
   28.6275005         6.59754030E-14
   28.7924995         8.43320639E-14
   28.9575005         9.36529839E-14
   29.1224995         9.00638207E-14
   29.2875004         7.12037444E-14
   29.4524994         3.71404703E-14
   29.6175003        -9.04693360E-15
   29.7824993        -6.12528759E-14
   29.9475002        -1.11036533E-13
   30.1124992        -1.49000360E-13
   30.2775002        -1.66647295E-13
   30.4424992        -1.58339962E-13
   30.6075001        -1.22890196E-13
   30.7724991        -6.43296655E-14
   30.9375000         8.43464313E-15
   31.1025009         8.31169172E-14
   31.2674999         1.46432210E-13
   31.4325008         1.86826168E-13
   31.5974998         1.96883200E-13
   31.7625008         1.74787119E-13
   31.9274998         1.24443235E-13
   32.0924988         5.42416149E-14
   32.2574997        -2.51590012E-14
   32.4225006        -1.03342966E-13
   32.5875015        -1.72160422E-13
   32.7524986        -2.26627297E-13
   32.9174995        -2.64440840E-13
   33.0825005        -2.84333429E-13
   33.2475014        -2.83930513E-13
   33.4124985        -2.58026646E-13
   33.5774994        -1.98151825E-13
   33.7425003        -9.39611819E-14
   33.9075012         6.35646863E-14
   34.0724983         2.77710526E-13
   34.2374992         5.41467641E-13
   34.4025002         8.34073967E-13
   34.5675011         1.11977452E-12
   34.7324982         1.34952965E-12
   34.8974991         1.46586096E-12
   35.0625000         1.41048078E-12
   35.2275009         1.13392162E-12
   35.3925018         6.06074219E-13
   35.5574989        -1.73635683E-13
   35.7224998        -1.16786810E-12
   35.8875008        -2.29636687E-12
   36.0525017        -3.43602122E-12
   36.2174988        -4.42759111E-12
   36.3824997        -5.09023639E-12
   36.5475006        -5.24396932E-12
   36.7125015        -4.73859884E-12
   36.8774986        -3.48581971E-12
   37.0424995        -1.48926260E-12
   37.2075005         1.13383727E-12
   37.3725014         4.14569030E-12
   37.5374985         7.20050929E-12
   37.7024994         9.87837590E-12
   37.8675003         1.17382605E-11
   38.0325012         1.23839246E-11
   38.1974983         1.15331373E-11
   38.3624992         9.07889909E-12
   38.5275002         5.13162863E-12
   38.6925011         3.34971309E-14
   38.8574982        -5.66028995E-12
   39.0224991        -1.12340701E-11
   39.1875000        -1.58945253E-11
   39.3525009        -1.88759841E-11
   39.5175018        -1.95569394E-11
   39.6824989        -1.75735520E-11
   39.8474998        -1.29136354E-11
   40.0125008        -5.97357276E-12
   40.1775017         2.43823885E-12
   40.3424988         1.11635813E-11
   40.5074997         1.88262843E-11
   40.6725006         2.40259566E-11
   40.8375015         2.55717409E-11
   41.0024986         2.27209605E-11
   41.1674995         1.53785300E-11
   41.3325005         4.21189125E-12
   41.4975014        -9.35479558E-12
   41.6624985        -2.32847682E-11
   41.8274994        -3.52030002E-11
   41.9925003        -4.27653815E-11
   42.1575012        -4.40647137E-11
   42.3224983        -3.80028925E-11
   42.4874992        -2.45598507E-11
   42.6525002        -4.90443016E-12
   42.8175011         1.86820247E-11
   42.9824982         4.30678167E-11
   43.1474991         6.46868531E-11
   43.3125000         8.00518332E-11
   43.4775009         8.62921470E-11
   43.6425018         8.16381893E-11
   43.8074989         6.57774182E-11
   43.9724998         4.00200983E-11
   44.1375008         7.23299632E-12
   44.3025017        -2.84727762E-11
   44.4674988        -6.22793206E-11
   44.6324997        -8.93667015E-11
   44.7975006        -1.05690054E-10
   44.9625015        -1.08706537E-10
   45.1274986        -9.79187009E-11
   45.2924995        -7.51144702E-11
   45.4575005        -4.42231217E-11
   45.6225014        -1.07697974E-11
   45.7874985         1.90140213E-11
   45.9524994         3.92934435E-11
   46.1175003         4.57618284E-11
   46.2825012         3.65947377E-11
   46.4474983         1.30368676E-11
   46.6124992        -2.05128241E-11
   46.7775002        -5.69709696E-11
   46.9425011        -8.75546857E-11
   47.1074982        -1.03153951E-10
   47.2724991        -9.58968044E-11
   47.4375000        -6.06750761E-11
   47.6025009         3.60544624E-12
   47.7675018         9.32592337E-11
   47.9324989         1.99694358E-10
   48.0974998         3.10005077E-10
   48.2625008         4.08275663E-10
   48.4275017         4.77491768E-10
   48.5924988         5.01861441E-10
   48.7574997         4.69265626E-10
   48.9225006         3.73500703E-10
   49.0875015         2.15956891E-10
   49.2524986         6.41198900E-12
   49.4174995        -2.37291437E-10
   49.5825005        -4.90772367E-10
   49.7475014        -7.25748017E-10
   49.9124985        -9.13498999E-10
   50.0774994        -1.02871400E-09
   50.2425003        -1.05315834E-09
   50.4075012        -9.78585324E-10
   50.5724983        -8.08383915E-10
   50.7374992        -5.57620505E-10
   50.9025002        -2.51369425E-10
   51.0675011         7.85023851E-11
   51.2324982         3.97668704E-10
   51.3974991         6.74161060E-10
   51.5625000         8.82918738E-10
   51.7275009         1.00932374E-09
   51.8925018         1.05109998E-09
   52.0574989         1.01819297E-09
   52.2224998         9.30567901E-10
   52.3875008         8.14214751E-10
   52.5525017         6.95980606E-10
   52.7174988         5.98093186E-10
   52.8824997         5.33359523E-10
   53.0475006         5.01971187E-10
   53.2125015         4.90634922E-10
   53.3774986         4.74378814E-10
   53.5424995         4.20930152E-10
   53.7075005         2.97078140E-10
   53.8725014         7.60203567E-11
   54.0374985        -2.55578059E-10
   54.2024994        -6.92152835E-10
   54.3675003        -1.20659893E-09
   54.5325012        -1.75119275E-09
   54.6974983        -2.26227992E-09
   54.8624992        -2.66828648E-09
   55.0275002        -2.89999669E-09
   55.1925011        -2.90156543E-09
   55.3574982        -2.64050004E-09
   55.5224991        -2.11490825E-09
   55.6875000        -1.35665101E-09
   55.8525009        -4.29638630E-10
   56.0175018         5.76756642E-10
   56.1824989         1.55843138E-09
   56.3474998         2.41001197E-09
   56.5125008         3.03917402E-09
   56.6775017         3.37975248E-09
   56.8424988         3.40167827E-09
   57.0074997         3.11618509E-09
   57.1725006         2.57533639E-09
   57.3375015         1.86571070E-09
   57.5024986         1.09689224E-09
   57.6674995         3.86188748E-10
   57.8325005        -1.58405414E-10
   57.9975014        -4.54627780E-10
   58.1624985        -4.59325966E-10
   58.3274994        -1.76678824E-10
   58.4925003         3.40234174E-10
   58.6575012         9.95124649E-10
   58.8224983         1.66101377E-09
   58.9874992         2.19808416E-09
   59.1525002         2.47446530E-09
   59.3175011         2.38693953E-09
   59.4824982         1.87837590E-09
   59.6474991         9.49014756E-10
   59.8125000        -3.40468348E-10
   59.9775009        -1.87498017E-09
   60.1425018        -3.49952867E-09
   60.3074989        -5.04023889E-09
   60.4724998        -6.32868336E-09
   60.6375008        -7.22567384E-09
   60.8025017        -7.64065078E-09
   60.9674988        -7.54347251E-09
   61.1324997        -6.96668145E-09
   61.2975006        -5.99795058E-09
   61.4625015        -4.76412287E-09
   61.6274986        -3.40966744E-09
   61.7924995        -2.07328310E-09
   61.9575005        -8.66549388E-10
   62.1225014         1.41971587E-10
   62.2874985         9.34868627E-10
   62.4524994         1.54533653E-09
   62.6175003         2.04847495E-09
   62.7825012         2.54616950E-09
   62.9474983         3.14811577E-09
   63.1124992         3.95188193E-09
   63.2775002         5.02482544E-09
   63.4425011         6.39024655E-09
   63.6074982         8.01951749E-09
   63.7724991         9.83117232E-09
   63.9375000         1.16971561E-08
   64.1025009         1.34556073E-08
   64.2675018         1.49287818E-08
   64.4325027         1.59439661E-08
   64.5975037         1.63546652E-08
   64.7624969         1.60589959E-08
   64.9274979         1.50123363E-08
   65.0924988         1.32318325E-08
   65.2574997         1.07915028E-08
   65.4225006         7.80818876E-09
   65.5875015         4.42033921E-09
   65.7525024         7.63173968E-10
   65.9175034        -3.05512482E-09
   66.0824966        -6.97123870E-09
   66.2474976        -1.09742322E-08
   66.4124985        -1.51000581E-08
   66.5774994        -1.94125871E-08
   66.7425003        -2.39733779E-08
   66.9075012        -2.88048856E-08
   67.0725021        -3.38536346E-08
   67.2375031        -3.89607493E-08
   67.4024963        -4.38466827E-08
   67.5674973        -4.81152576E-08
   67.7324982        -5.12792688E-08
   67.8974991        -5.28063282E-08
   68.0625000        -5.21801162E-08
   68.2275009        -4.89692091E-08
   68.3925018        -4.28935643E-08
   68.5575027        -3.38787238E-08
   68.7225037        -2.20887415E-08
   68.8874969        -7.93192889E-09
   69.0524979         7.96275312E-09
   69.2174988         2.47963836E-08
   69.3824997         4.16715942E-08
   69.5475006         5.76756598E-08
   69.7125015         7.19642514E-08
   69.8775024         8.38352534E-08
   70.0425034         9.27836155E-08
   70.2074966         9.85316149E-08
   70.3724976         1.01031851E-07
   70.5374985         1.00444787E-07
   70.7024994         9.70950538E-08
   70.8675003         9.14132556E-08
   71.0325012         8.38712140E-08
   71.1975021         7.49183684E-08
   71.3625031         6.49265672E-08
   71.5274963         5.41488561E-08
   71.6924973         4.26961115E-08
   71.8574982         3.05332115E-08
   72.0224991         1.74941590E-08
   72.1875000         3.31341043E-09
   72.3525009        -1.23312773E-08
   72.5175018        -2.97706038E-08
   72.6825027        -4.92969221E-08
   72.8475037        -7.11253634E-08
   73.0124969        -9.53680939E-08
   73.1774979        -1.22024716E-07
   73.3424988        -1.50988953E-07
   73.5074997        -1.82069030E-07
   73.6725006        -2.15016428E-07
   73.8375015        -2.49556450E-07
   74.0025024        -2.85413620E-07
   74.1675034        -3.22325775E-07
   74.3324966        -3.60043344E-07
   74.4974976        -3.98313176E-07
   74.6624985        -4.36849433E-07
   74.8274994        -4.75297838E-07
   74.9925003        -5.13200632E-07
   75.1575012        -5.49971901E-07
   75.3225021        -5.84890927E-07
   75.4875031        -6.17119895E-07
   75.6524963        -6.45748628E-07
   75.8174973        -6.69863653E-07
   75.9824982        -6.88636192E-07
   76.1474991        -7.01418003E-07
   76.3125000        -7.07832612E-07
   76.4775009        -7.07848358E-07
   76.6425018        -7.01821023E-07
   76.8075027        -6.90498894E-07
   76.9725037        -6.74985188E-07
   77.1374969        -6.56662621E-07
   77.3024979        -6.37086714E-07
   77.4674988        -6.17862099E-07
   77.6324997        -6.00517012E-07
   77.7975006        -5.86392218E-07
   77.9625015        -5.76558534E-07
   78.1275024        -5.71772773E-07
   78.2925034        -5.72477575E-07
   78.4574966        -5.78841366E-07
   78.6224976        -5.90832144E-07
   78.7874985        -6.08310813E-07
   78.9524994        -6.31127079E-07
   79.1175003        -6.59203238E-07
   79.2825012        -6.92589936E-07
   79.4475021        -7.31485670E-07
   79.6125031        -7.76217576E-07
   79.7774963        -8.27187250E-07
   79.9424973        -8.84794133E-07
   80.1074982        -9.49348873E-07
   80.2724991        -1.02099466E-06
   80.4375000        -1.09964878E-06
   80.6025009        -1.18497553E-06
   80.7675018        -1.27639237E-06
   80.9325027        -1.37310906E-06
   81.0975037        -1.47419019E-06
   81.2624969        -1.57863155E-06
   81.4274979        -1.68543602E-06
   81.5924988        -1.79367612E-06
   81.7574997        -1.90253434E-06
   81.9225006        -2.01131229E-06
   82.0875015        -2.11940551E-06
   82.2525024        -2.22625044E-06
   82.4175034        -2.33124842E-06
   82.5824966        -2.43368345E-06
   82.7474976        -2.53264852E-06
   82.9124985        -2.62699973E-06
   83.0774994        -2.71535328E-06
   83.2425003        -2.79613300E-06
   83.4075012        -2.86767295E-06
   83.5725021        -2.92836125E-06
   83.7375031        -2.97681208E-06
   83.9024963        -3.01203772E-06
   84.0674973        -3.03359548E-06
   84.2324982        -3.04168429E-06
   84.3974991        -3.03717047E-06
   84.5625000        -3.02153330E-06
   84.7275009        -2.99673343E-06
   84.8925018        -2.96501730E-06
   85.0575027        -2.92868049E-06
   85.2225037        -2.88982369E-06
   85.3874969        -2.85013016E-06
   85.5524979        -2.81070425E-06
   85.7174988        -2.77198774E-06
   85.8824997        -2.73377600E-06
   86.0475006        -2.69533462E-06
   86.2125015        -2.65559947E-06
   86.3775024        -2.61344030E-06
   86.5425034        -2.56794829E-06
   86.7074966        -2.51870961E-06
   86.8724976        -2.46602303E-06
   87.0374985        -2.41102930E-06
   87.2024994        -2.35572975E-06
   87.3675003        -2.30288970E-06
   87.5325012        -2.25583108E-06
   87.6975021        -2.21813980E-06
   87.8625031        -2.19332037E-06
   88.0274963        -2.18443870E-06
   88.1924973        -2.19379626E-06
   88.3574982        -2.22267272E-06
   88.5224991        -2.27116880E-06
   88.6875000        -2.33816422E-06
   88.8525009        -2.42139504E-06
   89.0175018        -2.51764141E-06
   89.1825027        -2.62299477E-06
   89.3475037        -2.73318005E-06
   89.5124969        -2.84388898E-06
   89.6774979        -2.95108953E-06
   89.8424988        -3.05128401E-06
   90.0074997        -3.14168688E-06
   90.1725006        -3.22031360E-06
   90.3375015        -3.28597343E-06
   90.5025024        -3.33817707E-06
   90.6675034        -3.37696997E-06
   90.8324966        -3.40271868E-06
   90.9974976        -3.41587611E-06
   91.1624985        -3.41675764E-06
   91.3274994        -3.40536099E-06
   91.4925003        -3.38125528E-06
   91.6575012        -3.34356037E-06
   91.8225021        -3.29102431E-06
   91.9875031        -3.22219103E-06
   92.1524963        -3.13563896E-06
   92.3174973        -3.03025536E-06
   92.4824982        -2.90550634E-06
   92.6474991        -2.76165588E-06
   92.8125000        -2.59989770E-06
   92.9775009        -2.42237002E-06
   93.1425018        -2.23204779E-06
   93.3075027        -2.03251875E-06
   93.4725037        -1.82767485E-06
   93.6374969        -1.62136564E-06
   93.8024979        -1.41706460E-06
   93.9674988        -1.21760627E-06
   94.1324997        -1.02503577E-06
   94.2975006        -8.40599569E-07
   94.4625015        -6.64880474E-07
   94.6275024        -4.98054760E-07
   94.7925034        -3.40226592E-07
   94.9574966        -1.91778938E-07
   95.1224976        -5.36731832E-08
   95.2874985         7.23614519E-08
   95.4524994         1.83794057E-07
   95.6175003         2.77432264E-07
   95.7825012         3.49724331E-07
   95.9475021         3.97187790E-07
   96.1125031         4.16902765E-07
   96.2774963         4.07002773E-07
   96.4424973         3.67092326E-07
   96.6074982         2.98534189E-07
   96.7724991         2.04568295E-07
   96.9375000         9.02476671E-08
   97.1025009        -3.77988805E-08
   97.2675018        -1.71747544E-07
   97.4325027        -3.03060176E-07
   97.5975037        -4.23014825E-07
   97.7624969        -5.23235769E-07
   97.9274979        -5.96179063E-07
   98.0924988        -6.35539777E-07
   98.2574997        -6.36556479E-07
   98.4225006        -5.96201573E-07
   98.5875015        -5.13253724E-07
   98.7525024        -3.88259906E-07
   98.9175034        -2.23399653E-07
   99.0824966        -2.22720402E-08
   99.2474976         2.10368725E-07
   99.4124985         4.68900055E-07
   99.5774994         7.47109766E-07
   99.7425003         1.03844138E-06
   99.9075012         1.33618596E-06
   100.072502         1.63361574E-06
   100.237503         1.92406651E-06
   100.402496         2.20099082E-06
   100.567497         2.45801380E-06
   100.732498         2.68902409E-06
   100.897499         2.88832803E-06
   101.062500         3.05087838E-06
   101.227501         3.17257445E-06
   101.392502         3.25059818E-06
   101.557503         3.28374313E-06
   101.722504         3.27267389E-06
   101.887497         3.22005531E-06
   102.052498         3.13050623E-06
   102.217499         3.01035084E-06
   102.382500         2.86717227E-06
   102.547501         2.70921032E-06
   102.712502         2.54467022E-06
   102.877502         2.38103462E-06
   103.042503         2.22447306E-06
   103.207497         2.07943754E-06
   103.372498         1.94850463E-06
   103.537498         1.83248721E-06
   103.702499         1.73079445E-06
   103.867500         1.64197934E-06
   104.032501         1.56437761E-06
   104.197502         1.49672530E-06
   104.362503         1.43864463E-06
   104.527496         1.39090741E-06
   104.692497         1.35542018E-06
   104.857498         1.33492040E-06
   105.022499         1.33242372E-06
   105.187500         1.35049856E-06
   105.352501         1.39048416E-06
   105.517502         1.45177580E-06
   105.682503         1.53130441E-06
   105.847504         1.62331071E-06
   106.012497         1.71947863E-06
   106.177498         1.80944267E-06
   106.342499         1.88162835E-06
   106.507500         1.92433549E-06
   106.672501         1.92693597E-06
   106.837502         1.88103104E-06
   107.002502         1.78142329E-06
   107.167503         1.62676906E-06
   107.332497         1.41982889E-06
   107.497498         1.16728256E-06
   107.662498         8.79132131E-07
   107.827499         5.67770030E-07
   107.992500         2.46830268E-07
   108.157501        -7.00414233E-08
   108.322502        -3.70353945E-07
   108.487503        -6.43748876E-07
   108.652496        -8.82690586E-07
   108.817497        -1.08281267E-06
   108.982498        -1.24290830E-06
   109.147499        -1.36459607E-06
   109.312500        -1.45173419E-06
   109.477501        -1.50968208E-06
   109.642502        -1.54452209E-06
   109.807503        -1.56234671E-06
   109.972504        -1.56870226E-06
   110.137497        -1.56823978E-06
   110.302498        -1.56458611E-06
   110.467499        -1.56041563E-06
   110.632500        -1.55766725E-06
   110.797501        -1.55784221E-06
   110.962502        -1.56231488E-06
   111.127502        -1.57260206E-06
   111.292503        -1.59055139E-06
   111.457497        -1.61843195E-06
   111.622498        -1.65891629E-06
   111.787498        -1.71496288E-06
   111.952499        -1.78960340E-06
   112.117500        -1.88564866E-06
   112.282501        -2.00532600E-06
   112.447502        -2.14987654E-06
   112.612503        -2.31914032E-06
   112.777496        -2.51117945E-06
   112.942497        -2.72199395E-06
   113.107498        -2.94538995E-06
   113.272499        -3.17306058E-06
   113.437500        -3.39491635E-06
   113.602501        -3.59968180E-06
   113.767502        -3.77573087E-06
   113.932503        -3.91209369E-06
   114.097504        -3.99952432E-06
   114.262497        -4.03149352E-06
   114.427498        -4.00495583E-06
   114.592499        -3.92077209E-06
   114.757500        -3.78369327E-06
   114.922501        -3.60189642E-06
   115.087502        -3.38611812E-06
   115.252502        -3.14850490E-06
   115.417503        -2.90133835E-06
   115.582497        -2.65581434E-06
   115.747498        -2.42103556E-06
   115.912498        -2.20333868E-06
   116.077499        -2.00601789E-06
   116.242500        -1.82944768E-06
   116.407501        -1.67155042E-06
   116.572502        -1.52851783E-06
   116.737503        -1.39567283E-06
   116.902496        -1.26835425E-06
   117.067497        -1.14272507E-06
   117.232498        -1.01642206E-06
   117.397499        -8.88992872E-07
   117.562500        -7.62088291E-07
   117.727501        -6.39401264E-07
   117.892502        -5.26360907E-07
   118.057503        -4.29601727E-07
   118.222504        -3.56247028E-07
   118.387497        -3.13062742E-07
   118.552498        -3.05554295E-07
   118.717499        -3.37102080E-07
   118.882500        -4.08237185E-07
   119.047501        -5.16164221E-07
   119.212502        -6.54617850E-07
   119.377502        -8.14107011E-07
   119.542503        -9.82551342E-07
   119.707497        -1.14625834E-06
   119.872498        -1.29113414E-06
   120.037498        -1.40398186E-06
   120.202499        -1.47372020E-06
   120.367500        -1.49236575E-06
   120.532501        -1.45565571E-06
   120.697502        -1.36324638E-06
   120.862503        -1.21848609E-06
   121.027496        -1.02783019E-06
   121.192497        -8.00008308E-07
   121.357498        -5.45084845E-07
   121.522499        -2.73546334E-07
   121.687500         4.47615411E-09
   121.852501         2.79784160E-07
   122.017502         5.44472243E-07
   122.182503         7.92093545E-07
   122.347504         1.01767728E-06
   122.512497         1.21765049E-06
   122.677498         1.38970393E-06
   122.842499         1.53262488E-06
   123.007500         1.64609901E-06
   123.172501         1.73047488E-06
   123.337502         1.78648600E-06
   123.502502         1.81494579E-06
   123.667503         1.81644498E-06
   123.832497         1.79111100E-06
   123.997498         1.73848741E-06
   124.162498         1.65759400E-06
   124.327499         1.54719396E-06
   124.492500         1.40625968E-06
   124.657501         1.23458562E-06
   124.822502         1.03345280E-06
   124.987503         8.06231640E-07
   125.152496         5.58806619E-07
   125.317497         2.99726395E-07
   125.482498         4.00255509E-08
   125.647499        -2.07287570E-07
   125.812500        -4.28030603E-07
   125.977501        -6.07848222E-07
   126.142502        -7.33303864E-07
   126.307503        -7.92947674E-07
   126.472504        -7.78258766E-07
   126.637497        -6.84387828E-07
   126.802498        -5.10659788E-07
   126.967499        -2.60820087E-07
   127.132500         5.69649501E-08
   127.297501         4.30339924E-07
   127.462502         8.43207545E-07
   127.627502         1.27638521E-06
   127.792503         1.70846170E-06
   127.957497         2.11684664E-06
   128.122498         2.47898356E-06
   128.287506         2.77366848E-06
   128.452499         2.98239411E-06
   128.617493         3.09059965E-06
   128.782501         3.08870813E-06
   128.947495         2.97283304E-06
   129.112503         2.74506897E-06
   129.277496         2.41332782E-06
   129.442505         1.99074111E-06
   129.607498         1.49468860E-06
   129.772507         9.45571799E-07
   129.937500         3.65451257E-07
   130.102493        -2.23320029E-07
   130.267502        -7.99357736E-07
   130.432495        -1.34331913E-06
   130.597504        -1.83872976E-06
   130.762497        -2.27253213E-06
   130.927505        -2.63534025E-06
   131.092499        -2.92140294E-06
   131.257507        -3.12828411E-06
   131.422501        -3.25630367E-06
   131.587494        -3.30778994E-06
   131.752502        -3.28624469E-06
   131.917496        -3.19553214E-06
   132.082504        -3.03923207E-06
   132.247498        -2.82027963E-06