  -1.23749995         0.00000000    
  -1.07249999         0.00000000    
 -0.907500029         0.00000000    
 -0.742500007         0.00000000    
 -0.577499986         0.00000000    
 -0.412499994         0.00000000    
 -0.247500002         0.00000000    
  -8.25000033E-02     0.00000000    
   8.25000033E-02     0.00000000    
  0.247500002         0.00000000    
  0.412499994         0.00000000    
  0.577499986         0.00000000    
  0.742500007         0.00000000    
  0.907500029         0.00000000    
   1.07249999         0.00000000    
   1.23749995         0.00000000    
   1.40250003         0.00000000    
   1.56750000         0.00000000    
   1.73249996         0.00000000    
   1.89750004         0.00000000    
   2.06250000         0.00000000    
   2.22749996         0.00000000    
   2.39249992         0.00000000    
   2.55749989         0.00000000    
   2.72250009         0.00000000    
   2.88750005         0.00000000    
   3.05250001        -9.70824897E-34
   3.21749997        -9.20425154E-33
   3.38249993        -9.92652376E-33
   3.54749990         1.98448837E-32
   3.71250010         1.00114914E-31
   3.87750006         2.81470336E-31
   4.04250002        -5.12852246E-31
   4.20749998        -4.05071742E-30
   4.37249994        -2.67459218E-29
   4.53749990        -8.43205412E-29
   4.70249987        -1.41496532E-28
   4.86749983        -6.65127008E-29
   5.03249979         4.10083111E-28
   5.19750023         1.55779229E-27
   5.36250019         3.33334793E-27
   5.52750015         4.84996153E-27
   5.69250011         3.85230516E-27
   5.85750008        -3.16974827E-27
   6.02250004        -1.93294172E-26
   6.18750000        -4.34782999E-26
   6.35249996        -6.47895591E-26
   6.51749992        -5.89437361E-26
   6.68249989         8.22010320E-27
   6.84749985         1.63152829E-25
   7.01249981         3.91385795E-25
   7.17749977         5.98607524E-25
   7.34250021         5.92233134E-25
   7.50750017         1.21487328E-25
   7.67250013        -9.92792197E-25
   7.83750010        -2.64562727E-24
   8.00249958        -4.22903598E-24
   8.16749954        -4.55980457E-24
   8.33250046        -2.14117360E-24
   8.49750042         4.12154146E-24
   8.66250038         1.38352508E-23
   8.82750034         2.40573751E-23
   8.99250031         2.89472036E-23
   9.15750027         2.09036402E-23
   9.32250023        -6.36181847E-24
   9.48750019        -5.31811210E-23
   9.65250015        -1.09227751E-22
   9.81750011        -1.51315386E-22
   9.98250008        -1.46558959E-22
   10.1475000        -6.27201470E-23
   10.3125000         1.15045089E-22
   10.4775000         3.65510105E-22
   10.6424999         6.18744326E-22
   10.8074999         7.58966838E-22
   10.9724998         6.50056828E-22
   11.1374998         1.84165056E-22
   11.3024998        -6.56197675E-22
   11.4674997        -1.74247474E-21
   11.6324997        -2.77660055E-21
   11.7974997        -3.32307775E-21
   11.9624996        -2.90714908E-21
   12.1274996        -1.16894585E-21
   12.2924995         1.95900138E-21
   12.4575005         6.09971264E-21
   12.6225004         1.03578547E-20
   12.7875004         1.33673688E-20
   12.9525003         1.34866322E-20
   13.1175003         9.14906832E-21
   13.2825003        -6.39533953E-22
   13.4475002        -1.56898132E-20
   13.6125002        -3.39879079E-20
   13.7775002        -5.12045285E-20
   13.9425001        -6.06642823E-20
   14.1075001        -5.41922628E-20
   14.2725000        -2.42255804E-20
   14.4375000         3.27168124E-20
   14.6025000         1.11740960E-19
   14.7674999         1.95865008E-19
   14.9324999         2.55080348E-19
   15.0974998         2.50575988E-19
   15.2624998         1.45586980E-19
   15.4274998        -7.79673368E-20
   15.5924997        -4.01180426E-19
   15.7574997        -7.55466535E-19
   15.9224997        -1.02405074E-18
   16.0874996        -1.06401679E-18
   16.2525005        -7.48947835E-19
   16.4174995        -2.29187756E-20
   16.5825005         1.05231984E-18
   16.7474995         2.27906974E-18
   16.9125004         3.35136878E-18
   17.0774994         3.93055217E-18
   17.2425003         3.74913781E-18
   17.4074993         2.70423416E-18
   17.5725002         8.95318685E-19
   17.7374992        -1.42413360E-18
   17.9025002        -3.97599085E-18
   18.0674992        -6.61677447E-18
   18.2325001        -9.44017475E-18
   18.3974991        -1.27325571E-17
   18.5625000        -1.67334965E-17
   18.7275009        -2.12362509E-17
   18.8924999        -2.51598597E-17
   19.0575008        -2.62940616E-17
   19.2224998        -2.14212052E-17
   19.3875008        -6.93812752E-18
   19.5524998         2.00484079E-17
   19.7175007         6.03486821E-17
   19.8824997         1.11364438E-16
   20.0475006         1.66180003E-16
   20.2124996         2.13391118E-16
   20.3775005         2.37886080E-16
   20.5424995         2.22679933E-16
   20.7075005         1.51807601E-16
   20.8724995         1.41869350E-17
   21.0375004        -1.91812093E-16
   21.2024994        -4.53678523E-16
   21.3675003        -7.41013857E-16
   21.5324993        -1.00427297E-15
   21.6975002        -1.17775230E-15
   21.8624992        -1.18820649E-15
   22.0275002        -9.69296647E-16
   22.1924992        -4.80203412E-16
   22.3575001         2.75353682E-16
   22.5224991         1.23498547E-15
   22.6875000         2.27387244E-15
   22.8525009         3.21523733E-15
   23.0174999         3.85565162E-15
   23.1825008         4.00172330E-15
   23.3474998         3.51115020E-15
   23.5125008         2.32929254E-15
   23.6774998         5.12968076E-16
   23.8425007        -1.76406872E-15
   24.0074997        -4.22557294E-15
   24.1725006        -6.52500396E-15
   24.3374996        -8.29070682E-15
   24.5025005        -9.17822286E-15
   24.6674995        -8.92376061E-15
   24.8325005        -7.39285867E-15
   24.9974995        -4.61776190E-15
   25.1625004        -8.16317786E-16
   25.3274994         3.61470463E-15
   25.4925003         8.13656885E-15
   25.6574993         1.21351708E-14
   25.8225002         1.50091443E-14
   25.9874992         1.62640490E-14
   26.1525002         1.55933853E-14
   26.3174992         1.29291880E-14
   26.4825001         8.45315164E-15
   26.6474991         2.57096776E-15
   26.8125000        -4.13694025E-15
   26.9775009        -1.09708334E-14
   27.1424999        -1.71602607E-14
   27.3075008        -2.19049361E-14
   27.4724998        -2.44207713E-14
   27.6375008        -2.40121084E-14
   27.8024998        -2.01869381E-14
   27.9675007        -1.28138263E-14
   28.1324997        -2.29181239E-15
   28.2975006         1.03216165E-14
   28.4624996         2.32920423E-14
   28.6275005         3.43558596E-14
   28.7924995         4.10548874E-14
   28.9575005         4.12241381E-14
   29.1224995         3.35417390E-14
   29.2875004         1.80092486E-14
   29.4524994        -3.77809771E-15
   29.6175003        -2.86802341E-14
   29.7824993        -5.24222965E-14
   29.9475002        -7.03207837E-14
   30.1124992        -7.81961234E-14
   30.2775002        -7.32831561E-14
   30.4424992        -5.49352976E-14
   30.6075001        -2.49516899E-14
   30.7724991         1.25666096E-14
   30.9375000         5.18242065E-14
   31.1025009         8.62938464E-14
   31.2674999         1.09848450E-13
   31.4325008         1.17844333E-13
   31.5974998         1.07955623E-13
   31.7625008         8.06216869E-14
   31.9274998         3.90579631E-14
   32.0924988        -1.11336619E-14
   32.2574997        -6.26553049E-14
   32.4225006        -1.07382839E-13
   32.5875015        -1.37307876E-13
   32.7524986        -1.45482815E-13
   32.9174995        -1.26934148E-13
   33.0825005        -7.95171424E-14
   33.2475014        -4.65914157E-15
   33.4124985         9.21114517E-14
   33.5774994         2.01000647E-13
   33.7425003         3.08305112E-13
   33.9075012         3.97393950E-13
   34.0724983         4.50305049E-13
   34.2374992         4.49806072E-13
   34.4025002         3.81651714E-13
   34.5675011         2.36724404E-13
   34.7324982         1.27982545E-14
   34.8974991        -2.84205168E-13
   35.0625000        -6.39455448E-13
   35.2275009        -1.02885257E-12
   35.3925018        -1.41901356E-12
   35.5574989        -1.76772941E-12
   35.7224998        -2.02525149E-12
   35.8875008        -2.13694774E-12
   36.0525017        -2.04786405E-12
   36.2174988        -1.70942579E-12
   36.3824997        -1.08796262E-12
   36.5475006        -1.74036824E-13
   36.7125015         1.00907119E-12
   36.8774986         2.39965209E-12
   37.0424995         3.89639536E-12
   37.2075005         5.36283257E-12
   37.3725014         6.63744146E-12
   37.5374985         7.54840548E-12
   37.7024994         7.93118696E-12
   37.8675003         7.64678685E-12
   38.0325012         6.59871897E-12
   38.1974983         4.74733187E-12
   38.3624992         2.12066150E-12
   38.5275002        -1.17864692E-12
   38.6925011        -4.97089305E-12
   38.8574982        -9.00230585E-12
   39.0224991        -1.29548828E-11
   39.1875000        -1.64645346E-11
   39.3525009        -1.91483270E-11
   39.5175018        -2.06401580E-11
   39.6824989        -2.06321835E-11
   39.8474998        -1.89172879E-11
   40.0125008        -1.54264622E-11
   40.1775017        -1.02547372E-11
   40.3424988        -3.67032446E-12
   40.5074997         3.89615727E-12
   40.6725006         1.18826971E-11
   40.8375015         1.96445967E-11
   41.0024986         2.65159873E-11
   41.1674995         3.18776464E-11
   41.3325005         3.52237892E-11
   41.4975014         3.62203392E-11
   41.6624985         3.47473543E-11
   41.8274994         3.09192429E-11
   41.9925003         2.50779363E-11
   42.1575012         1.77566902E-11
   42.3224983         9.61604320E-12
   42.4874992         1.35791476E-12
   42.6525002        -6.37129932E-12
   42.8175011        -1.30740072E-11
   42.9824982        -1.84746489E-11
   43.1474991        -2.25578081E-11
   43.3125000        -2.55606838E-11
   43.4775009        -2.79170905E-11
   43.6425018        -3.01590315E-11
   43.8074989        -3.27908291E-11
   43.9724998        -3.61575596E-11
   44.1375008        -4.03323555E-11
   44.3025017        -4.50457831E-11
   44.4674988        -4.96741849E-11
   44.6324997        -5.32943932E-11
   44.7975006        -5.48004107E-11
   44.9625015        -5.30663014E-11
   45.1274986        -4.71303309E-11
   45.2924995        -3.63702436E-11
   45.4575005        -2.06399932E-11
   45.6225014        -3.43956309E-13
   45.7874985         2.35650683E-11
   45.9524994         4.96646925E-11
   46.1175003         7.62062427E-11
   46.2825012         1.01299684E-10
   46.4474983         1.23111479E-10
   46.6124992         1.40046211E-10
   46.7775002         1.50887136E-10
   46.9425011         1.54878804E-10
   47.1074982         1.51744103E-10
   47.2724991         1.41637840E-10
   47.4375000         1.25047042E-10
   47.6025009         1.02656057E-10
   47.7675018         7.52006651E-11
   47.9324989         4.33399913E-11
   48.0974998         7.57622784E-12
   48.2625008        -3.17509838E-11
   48.4275017        -7.43799536E-11
   48.5924988        -1.19953172E-10
   48.7574997        -1.67778319E-10
   48.9225006        -2.16570040E-10
   49.0875015        -2.64235411E-10
   49.2524986        -3.07770615E-10
   49.4174995        -3.43326007E-10
   49.5825005        -3.66469688E-10
   49.7475014        -3.72643194E-10
   49.9124985        -3.57761182E-10
   50.0774994        -3.18870652E-10
   50.2425003        -2.54764376E-10
   50.4075012        -1.66439293E-10
   50.5724983        -5.73104134E-11
   50.7374992         6.68743810E-11
   50.9025002         1.98425193E-10
   51.0675011         3.28366362E-10
   51.2324982         4.47275467E-10
   51.3974991         5.46196754E-10
   51.5625000         6.17510987E-10
   51.7275009         6.55652421E-10
   51.8925018         6.57586541E-10
   52.0574989         6.22995711E-10
   52.2224998         5.54158663E-10
   52.3875008         4.55552374E-10
   52.5525017         3.33244266E-10
   52.7174988         1.94179811E-10
   52.8824997         4.54903649E-11
   53.0475006        -1.06051001E-10
   53.2125015        -2.54326948E-10
   53.3774986        -3.93880484E-10
   53.5424995        -5.19659427E-10
   53.7075005        -6.26610708E-10
   53.8725014        -7.09296955E-10
   54.0374985        -7.61725683E-10
   54.2024994        -7.77549969E-10
   54.3675003        -7.50712048E-10
   54.5325012        -6.76487144E-10
   54.6974983        -5.52759782E-10
   54.8624992        -3.81284226E-10
   55.0275002        -1.68636188E-10
   55.1925011         7.34011255E-11
   55.3574982         3.28186839E-10
   55.5224991         5.75350101E-10
   55.6875000         7.92597543E-10
   55.8525009         9.57983248E-10
   56.0175018         1.05233888E-09
   56.1824989         1.06153231E-09
   56.3474998         9.78248038E-10
   56.5125008         8.03057620E-10
   56.6775017         5.44649659E-10
   56.8424988         2.19212315E-10
   57.0074997        -1.50938373E-10
   57.1725006        -5.39305878E-10
   57.3375015        -9.17510179E-10
   57.5024986        -1.25769972E-09
   57.6674995        -1.53484903E-09
   57.8325005        -1.72873227E-09
   57.9975014        -1.82539794E-09
   58.1624985        -1.81799342E-09
   58.3274994        -1.70685244E-09
   58.4925003        -1.49882240E-09
   58.6575012        -1.20591215E-09
   58.8224983        -8.43450643E-10
   58.9874992        -4.28037356E-10
   59.1525002         2.43811152E-11
   59.3175011         4.99976338E-10
   59.4824982         9.87794846E-10
   59.6474991         1.47968071E-09
   59.8125000         1.96939842E-09
   59.9775009         2.45113752E-09
   60.1425018         2.91769786E-09
   60.3074989         3.35872352E-09
   60.4724998         3.75934794E-09
   60.6375008         4.09956158E-09
   60.8025017         4.35449898E-09
   60.9674988         4.49570114E-09
   61.1324997         4.49323778E-09
   61.2975006         4.31844427E-09
   61.4625015         3.94691035E-09
   61.6274986         3.36133077E-09
   61.7924995         2.55386268E-09
   61.9575005         1.52773683E-09
   62.1225014         2.97995628E-10
   62.2874985        -1.10862597E-09
   62.4524994        -2.65456213E-09
   62.6175003        -4.29283498E-09
   62.7825012        -5.96882055E-09
   62.9474983        -7.62217933E-09
   63.1124992        -9.18879373E-09
   63.2775002        -1.06026432E-08
   63.4425011        -1.17976349E-08
   63.6074982        -1.27094877E-08
   63.7724991        -1.32778331E-08
   63.9375000        -1.34487150E-08
   64.1025009        -1.31775657E-08
   64.2675018        -1.24326105E-08
   64.4325027        -1.11984173E-08
   64.5975037        -9.47913303E-09
   64.7624969        -7.30082528E-09
   64.9274979        -4.71237493E-09
   65.0924988        -1.78450277E-09
   65.2574997         1.39325029E-09
   65.4225006         4.71746420E-09
   65.5875015         8.07736100E-09
   65.7525024         1.13623235E-08
   65.9175034         1.44696903E-08
   66.0824966         1.73120469E-08
   66.2474976         1.98231440E-08
   66.4124985         2.19616769E-08
   66.5774994         2.37122020E-08
   66.7425003         2.50828247E-08
   66.9075012         2.60995616E-08
   67.0725021         2.67978280E-08
   67.2375031         2.72118719E-08
   67.4024963         2.73633649E-08
   67.5674973         2.72506711E-08
   67.7324982         2.68402260E-08
   67.8974991         2.60614925E-08
   68.0625000         2.48065497E-08
   68.2275009         2.29350388E-08
   68.3925018         2.02845030E-08
   68.5575027         1.66855969E-08
   68.7225037         1.19809389E-08
   68.8874969         6.04576211E-09
   69.0524979        -1.19174826E-09
   69.2174988        -9.73273551E-09
   69.3824997        -1.94945251E-08
   69.5475006        -3.03035428E-08
   69.7125015        -4.18951345E-08
   69.8775024        -5.39203668E-08
   70.0425034        -6.59592843E-08
   70.2074966        -7.75395677E-08
   70.3724976        -8.81588988E-08
   70.5374985        -9.73092469E-08
   70.7024994        -1.04500884E-07
   70.8675003        -1.09284322E-07
   71.0325012        -1.11268129E-07
   71.1975021        -1.10131907E-07
   71.3625031        -1.05633717E-07
   71.5274963        -9.76124284E-08
   71.6924973        -8.59857607E-08
   71.8574982        -7.07451591E-08
   72.0224991        -5.19484580E-08
   72.1875000        -2.97113782E-08
   72.3525009        -4.19871737E-09
   72.5175018         2.43839970E-08
   72.6825027         5.57973756E-08
   72.8475037         8.97727190E-08
   73.0124969         1.26013745E-07
   73.1774979         1.64194915E-07
   73.3424988         2.03957427E-07
   73.5074997         2.44903021E-07
   73.6725006         2.86588033E-07
   73.8375015         3.28518070E-07
   74.0025024         3.70145074E-07
   74.1675034         4.10867301E-07
   74.3324966         4.50032957E-07
   74.4974976         4.86947101E-07
   74.6624985         5.20882963E-07
   74.8274994         5.51097457E-07
   74.9925003         5.76850255E-07
   75.1575012         5.97427118E-07
   75.3225021         6.12165877E-07
   75.4875031         6.20483661E-07
   75.6524963         6.21905258E-07
   75.8174973         6.16090347E-07
   75.9824982         6.02859473E-07
   76.1474991         5.82218433E-07
   76.3125000         5.54378857E-07
   76.4775009         5.19776222E-07
   76.6425018         4.79082132E-07
   76.8075027         4.33210772E-07
   76.9725037         3.83317655E-07
   77.1374969         3.30788964E-07
   77.3024979         2.77220408E-07
   77.4674988         2.24383271E-07
   77.6324997         1.74176620E-07
   77.7975006         1.28565361E-07
   77.9625015         8.95046455E-08
   78.1275024         5.88544609E-08
   78.2925034         3.82895919E-08
   78.4574966         2.92122557E-08
   78.6224976         3.26753202E-08
   78.7874985         4.93231092E-08
   78.9524994         7.93552175E-08
   79.1175003         1.22515885E-07
   79.2825012         1.78109346E-07
   79.4475021         2.45039331E-07
   79.6125031         3.21869550E-07
   79.7774963         4.06900710E-07
   79.9424973         4.98257634E-07
   80.1074982         5.93980587E-07
   80.2724991         6.92112962E-07
   80.4375000         7.90777790E-07
   80.6025009         8.88238276E-07
   80.7675018         9.82937308E-07
   80.9325027         1.07351877E-06
   81.0975037         1.15883142E-06
   81.2624969         1.23792279E-06
   81.4274979         1.31002764E-06
   81.5924988         1.37455777E-06
   81.7574997         1.43109435E-06
   81.9225006         1.47938692E-06
   82.0875015         1.51935728E-06
   82.2525024         1.55110604E-06
   82.4175034         1.57491695E-06
   82.5824966         1.59125796E-06
   82.7474976         1.60077161E-06
   82.9124985         1.60425088E-06
   83.0774994         1.60260163E-06
   83.2425003         1.59678530E-06
   83.4075012         1.58774787E-06
   83.5725021         1.57633883E-06
   83.7375031         1.56322449E-06
   83.9024963         1.54880320E-06
   84.0674973         1.53313283E-06
   84.2324982         1.51587756E-06
   84.3974991         1.49628443E-06
   84.5625000         1.47319668E-06
   84.7275009         1.44511080E-06
   84.8925018         1.41027920E-06
   85.0575027         1.36685344E-06
   85.2225037         1.31305831E-06
   85.3874969         1.24737812E-06
   85.5524979         1.16874048E-06
   85.7174988         1.07667540E-06
   85.8824997         9.71435952E-07
   86.0475006         8.54071232E-07
   86.2125015         7.26444000E-07
   86.3775024         5.91194066E-07
   86.5425034         4.51646542E-07
   86.7074966         3.11670931E-07
   86.8724976         1.75499494E-07
   87.0374985         4.75168918E-08
   87.2024994        -6.79612029E-08
   87.3675003        -1.66904172E-07
   87.5325012        -2.45759225E-07
   87.6975021        -3.01607798E-07
   87.8625031        -3.32280365E-07
   88.0274963        -3.36427973E-07
   88.1924973        -3.13555006E-07
   88.3574982        -2.64020827E-07
   88.5224991        -1.89014813E-07
   88.6875000        -9.05123727E-08
   88.8525009         2.87853155E-08
   89.0175018         1.65524284E-07
   89.1825027         3.15783296E-07
   89.3475037         4.75171248E-07
   89.5124969         6.38938161E-07
   89.6774979         8.02101511E-07
   89.8424988         9.59587965E-07
   90.0074997         1.10638928E-06
   90.1725006         1.23772747E-06
   90.3375015         1.34921913E-06
   90.5025024         1.43702721E-06
   90.6675034         1.49799291E-06
   90.8324966         1.52973269E-06
   90.9974976         1.53070050E-06
   91.1624985         1.50020753E-06
   91.3274994         1.43840396E-06
   91.4925003         1.34622167E-06
   91.6575012         1.22528627E-06
   91.8225021         1.07780284E-06
   91.9875031         9.06430387E-07
   92.1524963         7.14158489E-07
   92.3174973         5.04198965E-07
   92.4824982         2.79905919E-07
   92.6474991         4.47268391E-08
   92.8125000        -1.97816107E-07
   92.9775009        -4.44123913E-07
   93.1425018        -6.90511058E-07
   93.3075027        -9.33198521E-07
   93.4725037        -1.16832337E-06
   93.6374969        -1.39196788E-06
   93.8024979        -1.60021830E-06
   93.9674988        -1.78925177E-06
   94.1324997        -1.95545545E-06
   94.2975006        -2.09557197E-06
   94.4625015        -2.20686002E-06
   94.6275024        -2.28725708E-06
   94.7925034        -2.33552259E-06
   94.9574966        -2.35133643E-06
   95.1224976        -2.33534365E-06
   95.2874985        -2.28913063E-06
   95.4524994        -2.21514006E-06
   95.6175003        -2.11653150E-06
   95.7825012        -1.99700935E-06
   95.9475021        -1.86063244E-06
   96.1125031        -1.71163049E-06
   96.2774963        -1.55423879E-06
   96.4424973        -1.39256895E-06
   96.6074982        -1.23052257E-06
   96.7724991        -1.07175310E-06
   96.9375000        -9.19669731E-07
   97.1025009        -7.77471485E-07
   97.2675018        -6.48192156E-07
   97.4325027        -5.34734852E-07
   97.5975037        -4.39874867E-07
   97.7624969        -3.66218956E-07
   97.9274979        -3.16118985E-07
   98.0924988        -2.91546456E-07
   98.2574997        -2.93945817E-07
   98.4225006        -3.24087807E-07
   98.5875015        -3.81947359E-07
   98.7525024        -4.66625892E-07
   98.9175034        -5.76334401E-07
   99.0824966        -7.08444759E-07
   99.2474976        -8.59607781E-07
   99.4124985        -1.02592594E-06
   99.5774994        -1.20315917E-06
   99.7425003        -1.38693792E-06
   99.9075012        -1.57295665E-06
   100.072502        -1.75712353E-06
   100.237503        -1.93565302E-06
   100.402496        -2.10510098E-06
   100.567497        -2.26234647E-06
   100.732498        -2.40454051E-06
   100.897499        -2.52904147E-06
   101.062500        -2.63336142E-06
   101.227501        -2.71514546E-06
   101.392502        -2.77220079E-06
   101.557503        -2.80258200E-06
   101.722504        -2.80473250E-06
   101.887497        -2.77766731E-06
   102.052498        -2.72116586E-06
   102.217499        -2.63594870E-06
   102.382500        -2.52379755E-06
   102.547501        -2.38758753E-06
   102.712502        -2.23121788E-06
   102.877502        -2.05942797E-06
   103.042503        -1.87751925E-06
   103.207497        -1.69099769E-06
   103.372498        -1.50517678E-06
   103.537498        -1.32477680E-06
   103.702499        -1.15356454E-06
   103.867500        -9.94076004E-07
   104.032501        -8.47455738E-07
   104.197502        -7.13437089E-07
   104.362503        -5.90471188E-07
   104.527496        -4.75990987E-07
   104.692497        -3.66781535E-07
   104.857498        -2.59411223E-07
   105.022499        -1.50672022E-07
   105.187500        -3.79815503E-08
   105.352501         8.02980011E-08
   105.517502         2.04653190E-07
   105.682503         3.34340683E-07
   105.847504         4.67439179E-07
   106.012497         6.01019167E-07
   106.177498         7.31405294E-07
   106.342499         8.54495738E-07
   106.507500         9.66099378E-07
   106.672501         1.06225025E-06
   106.837502         1.13947135E-06
   107.002502         1.19496667E-06
   107.167503         1.22674294E-06
   107.332497         1.23366885E-06
   107.497498         1.21549101E-06
   107.662498         1.17282389E-06
   107.827499         1.10713052E-06
   107.992500         1.02069851E-06
   108.157501         9.16612521E-07
   108.322502         7.98716655E-07
   108.487503         6.71555199E-07
   108.652496         5.40280837E-07
   108.817497         4.10519561E-07
   108.982498         2.88183088E-07
   109.147499         1.79229446E-07
   109.312500         8.93790784E-08
   109.477501         2.38034907E-08
   109.642502        -1.31874742E-08
   109.807503        -1.84285369E-08
   109.972504         9.87661242E-09
   110.137497         7.20158226E-08
   110.302498         1.66731240E-07
   110.467499         2.91291627E-07
   110.632500         4.41671233E-07
   110.797501         6.12822078E-07
   110.962502         7.99014515E-07
   111.127502         9.94210609E-07
   111.292503         1.19243020E-06
   111.457497         1.38806581E-06
   111.622498         1.57611350E-06
   111.787498         1.75230116E-06
   111.952499         1.91311301E-06
   112.117500         2.05573201E-06
   112.282501         2.17793081E-06
   112.447502         2.27794339E-06
   112.612503         2.35434459E-06
   112.777496         2.40595500E-06
   112.942497         2.43177942E-06
   113.107498         2.43097838E-06
   113.272499         2.40287636E-06
   113.437500         2.34700542E-06
   113.602501         2.26317798E-06
   113.767502         2.15157729E-06
   113.932503         2.01284774E-06
   114.097504         1.84815713E-06
   114.262497         1.65921369E-06
   114.427498         1.44822832E-06
   114.592499         1.21782841E-06
   114.757500         9.70943802E-07
   114.922501         7.10692746E-07
   115.087502         4.40289796E-07
   115.252502         1.62986510E-07
   115.417503        -1.17955622E-07
   115.582497        -3.99267861E-07
   115.747498        -6.77662740E-07
   115.912498        -9.49811465E-07
   116.077499        -1.21230937E-06
   116.242500        -1.46163302E-06
   116.407501        -1.69409327E-06
   116.572502        -1.90579988E-06
   116.737503        -2.09266136E-06
   116.902496        -2.25043459E-06
   117.067497        -2.37483937E-06
   117.232498        -2.46173590E-06
   117.397499        -2.50735866E-06
   117.562500        -2.50859102E-06
   117.727501        -2.46326476E-06
   117.892502        -2.37046970E-06
   118.057503        -2.23084066E-06
   118.222504        -2.04679804E-06
   118.387497        -1.82269434E-06
   118.552498        -1.56483247E-06
   118.717499        -1.28133399E-06
   118.882500        -9.81853987E-07
   119.047501        -6.77170135E-07
   119.212502        -3.78685428E-07
   119.377502        -9.78884742E-08
   119.542503         1.54193302E-07
   119.707497         3.67526496E-07
   119.872498         5.33573825E-07
   120.037498         6.45744592E-07
   120.202499         6.99761245E-07
   120.367500         6.93897107E-07
   120.532501         6.29045303E-07
   120.697502         5.08592564E-07
   120.862503         3.38106332E-07
   121.027496         1.24870780E-07
   121.192497        -1.22671764E-07
   121.357498        -3.95514064E-07
   121.522499        -6.84661813E-07
   121.687500        -9.81658104E-07
   121.852501        -1.27902092E-06
   122.017502        -1.57056013E-06
   122.182503        -1.85153306E-06
   122.347504        -2.11860743E-06
   122.512497        -2.36962023E-06
   122.677498        -2.60316165E-06
   122.842499        -2.81804978E-06
   123.007500        -3.01279465E-06
   123.172501        -3.18514662E-06
   123.337502        -3.33180378E-06
   123.502502        -3.44831165E-06
   123.667503        -3.52915936E-06
   123.832497        -3.56804730E-06
   123.997498        -3.55830116E-06
   124.162498        -3.49341030E-06
   124.327499        -3.36766107E-06
   124.492500        -3.17681952E-06
   124.657501        -2.91880997E-06
   124.822502        -2.59429430E-06
   124.987503        -2.20707830E-06
   125.152496        -1.76427204E-06
   125.317497        -1.27618512E-06
   125.482498        -7.55966255E-07
   125.647499        -2.19033410E-07
   125.812500         3.17656259E-07
   125.977501         8.36445452E-07
   126.142502         1.31988190E-06
   126.307503         1.75164530E-06
   126.472504         2.11743486E-06
   126.637497         2.40574627E-06
   126.802498         2.60846286E-06
   126.967499         2.72119973E-06
   127.132500         2.74338345E-06
   127.297501         2.67808036E-06
   127.462502         2.53163353E-06
   127.627502         2.31316540E-06
   127.792503         2.03400236E-06
   127.957497         1.70706141E-06
   128.122498         1.34621416E-06
   128.287506         9.65650202E-07
   128.452499         5.79266157E-07
   128.617493         2.00111799E-07
   128.782501        -1.60071352E-07
   128.947495        -4.91202570E-07
   129.112503        -7.85104419E-07
   129.277496        -1.03565230E-06
   129.442505        -1.23884536E-06
   129.607498        -1.39279996E-06
   129.772507        -1.49765617E-06
   129.937500        -1.55537975E-06
   130.102493        -1.56945862E-06
   130.267502        -1.54452721E-06
   130.432495        -1.48596939E-06
   130.597504        -1.39956762E-06
   130.762497        -1.29124544E-06
   130.927505        -1.16690933E-06
   131.092499        -1.03236357E-06
   131.257507        -8.93247829E-07
   131.422501        -7.54956261E-07
   131.587494        -6.22526102E-07
   131.752502        -5.00519889E-07
   131.917496        -3.92938432E-07
   132.082504        -3.03192252E-07
   132.247498        -2.34128905E-07