  -1.23749995         0.00000000    
  -1.07249999         0.00000000    
 -0.907500029         0.00000000    
 -0.742500007         0.00000000    
 -0.577499986         0.00000000    
 -0.412499994         0.00000000    
 -0.247500002         0.00000000    
  -8.25000033E-02     0.00000000    
   8.25000033E-02     0.00000000    
  0.247500002         0.00000000    
  0.412499994         0.00000000    
  0.577499986         0.00000000    
  0.742500007         0.00000000    
  0.907500029         0.00000000    
   1.07249999         0.00000000    
   1.23749995         0.00000000    
   1.40250003         0.00000000    
   1.56750000         0.00000000    
   1.73249996         0.00000000    
   1.89750004         0.00000000    
   2.06250000         0.00000000    
   2.22749996         0.00000000    
   2.39249992         0.00000000    
   2.55749989         0.00000000    
   2.72250009         0.00000000    
   2.88750005         0.00000000    
   3.05250001         7.34192741E-34
   3.21749997         2.36510129E-34
   3.38249993         7.80336349E-33
   3.54749990         3.62106774E-32
   3.71250010         4.71940029E-32
   3.87750006        -8.39301909E-32
   4.04250002         3.06279732E-31
   4.20749998         2.21356946E-30
   4.37249994         1.71736557E-29
   4.53749990         5.13014594E-29
   4.70249987         1.08747839E-28
   4.86749983         1.15209490E-28
   5.03249979        -4.57859300E-29
   5.19750023        -5.74614969E-28
   5.36250019        -1.63139132E-27
   5.52750015        -3.07529797E-27
   5.69250011        -4.07261152E-27
   5.85750008        -2.77465511E-27
   6.02250004         3.43135697E-27
   6.18750000         1.65077079E-26
   6.35249996         3.48377924E-26
   6.51749992         4.94806162E-26
   6.68249989         4.21035341E-26
   6.84749985        -1.11186609E-26
   7.01249981        -1.25272603E-25
   7.17749977        -2.81752716E-25
   7.34250021        -4.01556110E-25
   7.50750017        -3.38520503E-25
   7.67250013         7.72256616E-26
   7.83750010         9.23408134E-25
   8.00249958         2.01175525E-24
   8.16749954         2.73585265E-24
   8.33250046         2.09023764E-24
   8.49750042        -9.68524075E-25
   8.66250038        -6.74269945E-24
   8.82750034        -1.37707914E-23
   8.99250031        -1.80981368E-23
   9.15750027        -1.36779220E-23
   9.32250023         5.30523237E-24
   9.48750019         4.00645130E-23
   9.65250015         8.20186887E-23
   9.81750011         1.09654922E-22
   9.98250008         9.13669492E-23
   10.1475000        -2.58358869E-24
   10.3125000        -1.79332381E-22
   10.4775000        -4.00242780E-22
   10.6424999        -5.68066892E-22
   10.8074999        -5.40250823E-22
   10.9724998        -1.79537800E-22
   11.1374998         5.61782308E-22
   11.3024998         1.55032559E-21
   11.4674997         2.42114937E-21
   11.6324997         2.62450535E-21
   11.7974997         1.60586130E-21
   11.9624996        -8.97995028E-22
   12.1274996        -4.53948521E-21
   12.2924995        -8.17779834E-21
   12.4575005        -1.00109146E-20
   12.6225004        -8.12805522E-21
   12.7875004        -1.41978565E-21
   12.9525003         9.44187734E-21
   13.1175003         2.14283739E-20
   13.2825003         2.94878062E-20
   13.4475002         2.80634432E-20
   13.6125002         1.35893593E-20
   13.7775002        -1.28546282E-20
   13.9425001        -4.40149105E-20
   14.1075001        -6.73601413E-20
   14.2725000        -6.90355375E-20
   14.4375000        -4.02134146E-20
   14.6025000         1.63537791E-20
   14.7674999         8.28440512E-20
   14.9324999         1.29062497E-19
   15.0974998         1.22640331E-19
   15.2624998         4.48124741E-20
   15.4274998        -9.37689099E-20
   15.5924997        -2.45052618E-19
   15.7574997        -3.30670878E-19
   15.9224997        -2.66903783E-19
   16.0874996        -2.89703813E-21
   16.2525005         4.40461785E-19
   16.4174995         9.48487477E-19
   16.5825005         1.32340947E-18
   16.7474995         1.33453784E-18
   16.9125004         7.99488674E-19
   17.0774994        -3.27664671E-19
   17.2425003        -1.89497276E-18
   17.4074993        -3.54908542E-18
   17.5725002        -4.80448999E-18
   17.7374992        -5.17426413E-18
   17.9025002        -4.32431661E-18
   18.0674992        -2.19687259E-18
   18.2325001         9.47821183E-19
   18.3974991         4.59800793E-18
   18.5625000         8.15198322E-18
   18.7275009         1.11204855E-17
   18.8924999         1.32889146E-17
   19.0575008         1.47580569E-17
   19.2224998         1.58122192E-17
   19.3875008         1.66189585E-17
   19.5524998         1.68319459E-17
   19.7175007         1.52306086E-17
   19.8824997         9.57027620E-18
   20.0475006        -3.18194006E-18
   20.2124996        -2.61003359E-17
   20.3775005        -6.10282474E-17
   20.5424995        -1.06935706E-16
   20.7075005        -1.58270674E-16
   20.8724995        -2.03866365E-16
   21.0375004        -2.27079104E-16
   21.2024994        -2.07767851E-16
   21.3675003        -1.26419707E-16
   21.5324993         2.98370334E-17
   21.6975002         2.60321362E-16
   21.8624992         5.44689090E-16
   22.0275002         8.39761011E-16
   22.1924992         1.08134428E-15
   22.3575001         1.19234425E-15
   22.5224991         1.09708025E-15
   22.6875000         7.39950619E-16
   22.8525009         1.04892040E-16
   23.0174999        -7.69062559E-16
   23.1825008        -1.78094056E-15
   23.3474998        -2.77339170E-15
   23.5125008        -3.55206612E-15
   23.6774998        -3.91715977E-15
   23.8425007        -3.70231452E-15
   24.0074997        -2.81353810E-15
   24.1725006        -1.25968072E-15
   24.3374996         8.33286555E-16
   24.5025005         3.22922947E-15
   24.6674995         5.61076191E-15
   24.8325005         7.62576478E-15
   24.9974995         8.94259100E-15
   25.1625004         9.30233944E-15
   25.3274994         8.55680645E-15
   25.4925003         6.68440328E-15
   25.6574993         3.78260731E-15
   25.8225002         4.29054150E-17
   25.9874992        -4.28004520E-15
   26.1525002        -8.89140819E-15
   26.3174992        -1.34612797E-14
   26.4825001        -1.76105383E-14
   26.6474991        -2.08873937E-14
   26.8125000        -2.27543221E-14
   26.9775009        -2.26088052E-14
   27.1424999        -1.98558397E-14
   27.3075008        -1.40351826E-14
   27.4724998        -4.98544407E-15
   27.6375008         6.99338904E-15
   27.8024998         2.10295733E-14
   27.9675007         3.56698347E-14
   28.1324997         4.90000937E-14
   28.2975006         5.88949056E-14
   28.4624996         6.33575630E-14
   28.6275005         6.08831697E-14
   28.7924995         5.07637721E-14
   28.9575005         3.32640680E-14
   29.1224995         9.62636343E-15
   29.2875004        -1.80933861E-14
   29.4524994        -4.73138374E-14
   29.6175003        -7.52667717E-14
   29.7824993        -9.93055464E-14
   29.9475002        -1.17122214E-13
   30.1124992        -1.26849797E-13
   30.2775002        -1.27071029E-13
   30.4424992        -1.16790095E-13
   30.6075001        -9.54378043E-14
   30.7724991        -6.29669046E-14
   30.9375000        -2.00549992E-14
   31.1025009         3.16200211E-14
   31.2674999         8.91174612E-14
   31.4325008         1.48099943E-13
   31.5974998         2.02943361E-13
   31.7625008         2.47168524E-13
   31.9274998         2.74205355E-13
   32.0924988         2.78414797E-13
   32.2574997         2.56210932E-13
   32.4225006         2.07061161E-13
   32.5875015         1.34117828E-13
   32.7524986         4.42580136E-14
   32.9174995        -5.26122962E-14
   33.0825005        -1.45003381E-13
   33.2475014        -2.21883587E-13
   33.4124985        -2.74986929E-13
   33.5774994        -3.00905676E-13
   33.7425003        -3.02410061E-13
   33.9075012        -2.88478063E-13
   34.0724983        -2.72706310E-13
   34.2374992        -2.70106339E-13
   34.4025002        -2.92723284E-13
   34.5675011        -3.44953883E-13
   34.7324982        -4.19762234E-13
   34.8974991        -4.97066093E-13
   35.0625000        -5.45304524E-13
   35.2275009        -5.26582846E-13
   35.3925018        -4.04914085E-13
   35.5574989        -1.56134545E-13
   35.7224998         2.22697335E-13
   35.8875008         7.06924916E-13
   36.0525017         1.24316399E-12
   36.2174988         1.75470174E-12
   36.3824997         2.15327344E-12
   36.5475006         2.35544158E-12
   36.7125015         2.30039403E-12
   36.8774986         1.96517802E-12
   37.0424995         1.37348943E-12
   37.2075005         5.95210838E-13
   37.3725014        -2.64204430E-13
   37.5374985        -1.08309878E-12
   37.7024994        -1.74807998E-12
   37.8675003        -2.17836296E-12
   38.0325012        -2.34426237E-12
   38.1974983        -2.27494521E-12
   38.3624992        -2.05262391E-12
   38.5275002        -1.79336342E-12
   38.6925011        -1.61793723E-12
   38.8574982        -1.61894825E-12
   39.0224991        -1.83201891E-12
   39.1875000        -2.21866991E-12
   39.3525009        -2.66643999E-12
   39.5175018        -3.00805561E-12
   39.6824989        -3.05689436E-12
   39.8474998        -2.65158511E-12
   40.0125008        -1.69965062E-12
   40.1775017        -2.09398904E-13
   40.3424988         1.69861206E-12
   40.5074997         3.80477377E-12
   40.6725006         5.82668896E-12
   40.8375015         7.47122850E-12
   41.0024986         8.49112620E-12
   41.1674995         8.73363187E-12
   41.3325005         8.17074446E-12
   41.4975014         6.90491501E-12
   41.6624985         5.14987315E-12
   41.8274994         3.19143865E-12
   41.9925003         1.33674365E-12
   42.1575012        -1.38629722E-13
   42.3224983        -1.03719702E-12
   42.4874992        -1.27384225E-12
   42.6525002        -8.94446951E-13
   42.8175011        -7.73902562E-14
   42.9824982         8.82681732E-13
   43.1474991         1.60893282E-12
   43.3125000         1.69357659E-12
   43.4775009         7.63374552E-13
   43.6425018        -1.44705591E-12
   43.8074989        -5.02495788E-12
   43.9724998        -9.82640618E-12
   44.1375008        -1.54556246E-11
   44.3025017        -2.12884901E-11
   44.4674988        -2.65444663E-11
   44.6324997        -3.04007826E-11
   44.7975006        -3.21313705E-11
   44.9625015        -3.12445313E-11
   45.1274986        -2.75898557E-11
   45.2924995        -2.14079518E-11
   45.4575005        -1.33063942E-11
   45.6225014        -4.15950867E-12
   45.7874985         5.05434106E-12
   45.9524994         1.34497474E-11
   46.1175003         2.04274445E-11
   46.2825012         2.58220563E-11
   46.4474983         2.99672683E-11
   46.6124992         3.36529797E-11
   46.7775002         3.79675215E-11
   46.9425011         4.40408474E-11
   47.1074982         5.27279193E-11
   47.2724991         6.42916206E-11
   47.4375000         7.81551421E-11
   47.6025009         9.27914828E-11
   47.7675018         1.05798738E-10
   47.9324989         1.14176404E-10
   48.0974998         1.14774204E-10
   48.2625008         1.04841830E-10
   48.4275017         8.25751550E-11
   48.5924988         4.75439757E-11
   48.7574997         9.02924328E-13
   48.9225006        -5.46699734E-11
   49.0875015        -1.15302032E-10
   49.2524986        -1.76454171E-10
   49.4174995        -2.33532388E-10
   49.5825005        -2.82445400E-10
   49.7475014        -3.19988008E-10
   49.9124985        -3.43976458E-10
   50.0774994        -3.53131330E-10
   50.2425003        -3.46773943E-10
   50.4075012        -3.24456739E-10
   50.5724983        -2.85667712E-10
   50.7374992        -2.29733330E-10
   50.9025002        -1.55988888E-10
   51.0675011        -6.42105674E-11
   51.2324982         4.47769599E-11
   51.3974991         1.68468087E-10
   51.5625000         3.02197684E-10
   51.7275009         4.38984155E-10
   51.8925018         5.69806313E-10
   52.0574989         6.84337531E-10
   52.2224998         7.72061526E-10
   52.3875008         8.23597579E-10
   52.5525017         8.32002633E-10
   52.7174988         7.93800636E-10
   52.8824997         7.09526882E-10
   53.0475006         5.83662396E-10
   53.2125015         4.23952207E-10
   53.3774986         2.40228476E-10
   53.5424995         4.29643612E-11
   53.7075005        -1.58151853E-10
   53.8725014        -3.55333152E-10
   54.0374985        -5.43272816E-10
   54.2024994        -7.19065751E-10
   54.3675003        -8.81494489E-10
   54.5325012        -1.02983500E-09
   54.6974983        -1.16244792E-09
   54.8624992        -1.27547994E-09
   55.0275002        -1.36199763E-09
   55.1925011        -1.41181400E-09
   55.3574982        -1.41215528E-09
   55.5224991        -1.34917000E-09
   55.6875000        -1.21012689E-09
   55.8525009        -9.86000170E-10
   56.0175018        -6.74039602E-10
   56.1824989        -2.79861828E-10
   56.3474998         1.81366006E-10
   56.5125008         6.84985124E-10
   56.6775017         1.19830479E-09
   56.8424988         1.68339687E-09
   57.0074997         2.10092610E-09
   57.1725006         2.41451725E-09
   57.3375015         2.59503530E-09
   57.5024986         2.62414157E-09
   57.6674995         2.49658760E-09
   57.8325005         2.22090168E-09
   57.9975014         1.81837712E-09
   58.1624985         1.32052747E-09
   58.3274994         7.65388031E-10
   58.4925003         1.93182775E-10
   58.6575012        -3.58059443E-10
   58.8224983        -8.56383409E-10
   58.9874992        -1.27879141E-09
   59.1525002        -1.61276958E-09
   59.3175011        -1.85624516E-09
   59.4824982        -2.01594830E-09
   59.6474991        -2.10437667E-09
   59.8125000        -2.13579776E-09
   59.9775009        -2.12195883E-09
   60.1425018        -2.06832063E-09
   60.3074989        -1.97168681E-09
   60.4724998        -1.81993243E-09
   60.6375008        -1.59421942E-09
   60.8025017        -1.27359090E-09
   60.9674988        -8.41288428E-10
   61.1324997        -2.91648511E-10
   61.2975006         3.63868047E-10
   61.4625015         1.09297271E-09
   61.6274986         1.84232296E-09
   61.7924995         2.54134580E-09
   61.9575005         3.10991943E-09
   62.1225014         3.46896001E-09
   62.2874985         3.55231577E-09
   62.4524994         3.31803851E-09
   62.6175003         2.75707301E-09
   62.7825012         1.89776528E-09
   62.9474983         8.05226164E-10
   63.1124992        -4.24620311E-10
   63.2775002        -1.67561631E-09
   63.4425011        -2.82514634E-09
   63.6074982        -3.75918408E-09
   63.7724991        -4.38644276E-09
   63.9375000        -4.64959893E-09
   64.1025009        -4.53199211E-09
   64.2675018        -4.05886480E-09
   64.4325027        -3.29304650E-09
   64.5975037        -2.32578179E-09
   64.7624969        -1.26410116E-09
   64.9274979        -2.16621582E-10
   65.0924988         7.20203230E-10
   65.2574997         1.47345991E-09
   65.4225006         2.00131622E-09
   65.5875015         2.29582664E-09
   65.7525024         2.38084530E-09
   65.9175034         2.30559816E-09
   66.0824966         2.13507367E-09
   66.2474976         1.93886351E-09
   66.4124985         1.78028303E-09
   66.5774994         1.70756198E-09
   66.7425003         1.74853754E-09
   66.9075012         1.90967664E-09
   67.0725021         2.17942020E-09
   67.2375031         2.53499577E-09
   67.4024963         2.95106073E-09
   67.5674973         3.40803208E-09
   67.7324982         3.89796906E-09
   67.8974991         4.42623183E-09
   68.0625000         5.00807928E-09
   68.2275009         5.66047698E-09
   68.3925018         6.39056941E-09
   68.5575027         7.18316739E-09
   68.7225037         7.99006372E-09
   68.8874969         8.72387673E-09
   69.0524979         9.25840915E-09
   69.2174988         9.43638501E-09
   69.3824997         9.08416009E-09
   69.5475006         8.03170597E-09
   69.7125015         6.13515638E-09
   69.8775024         3.29871686E-09
   70.0425034        -5.07368758E-10
   70.2074966        -5.23542187E-09
   70.3724976        -1.07573470E-08
   70.5374985        -1.68703984E-08
   70.7024994        -2.33106565E-08
   70.8675003        -2.97719644E-08
   71.0325012        -3.59270338E-08
   71.1975021        -4.14473362E-08
   71.3625031        -4.60187763E-08
   71.5274963        -4.93512893E-08
   71.6924973        -5.11821519E-08
   71.8574982        -5.12743341E-08
   72.0224991        -4.94126446E-08
   72.1875000        -4.54007676E-08
   72.3525009        -3.90621864E-08
   72.5175018        -3.02467065E-08
   72.6825027        -1.88428597E-08
   72.8475037        -4.79467444E-09
   73.0124969         1.18799113E-08
   73.1774979         3.10719024E-08
   73.3424988         5.25686623E-08
   73.5074997         7.60476269E-08
   73.6725006         1.01077589E-07
   73.8375015         1.27127549E-07
   74.0025024         1.53582519E-07
   74.1675034         1.79765919E-07
   74.3324966         2.04967350E-07
   74.4974976         2.28475315E-07
   74.6624985         2.49613407E-07
   74.8274994         2.67778347E-07
   74.9925003         2.82477288E-07
   75.1575012         2.93360898E-07
   75.3225021         3.00248985E-07
   75.4875031         3.03145839E-07
   75.6524963         3.02242540E-07
   75.8174973         2.97907093E-07
   75.9824982         2.90662825E-07
   76.1474991         2.81157128E-07
   76.3125000         2.70124218E-07
   76.4775009         2.58344471E-07
   76.6425018         2.46603690E-07
   76.8075027         2.35654710E-07
   76.9725037         2.26183516E-07
   77.1374969         2.18781778E-07
   77.3024979         2.13927493E-07
   77.4674988         2.11974353E-07
   77.6324997         2.13150130E-07
   77.7975006         2.17562416E-07
   77.9625015         2.25209902E-07
   78.1275024         2.35996040E-07
   78.2925034         2.49742726E-07
   78.4574966         2.66202250E-07
   78.6224976         2.85067699E-07
   78.7874985         3.05983150E-07
   78.9524994         3.28556581E-07
   79.1175003         3.52377924E-07
   79.2825012         3.77043420E-07
   79.4475021         4.02185407E-07
   79.6125031         4.27503949E-07
   79.7774963         4.52795092E-07
   79.9424973         4.77970104E-07
   80.1074982         5.03060733E-07
   80.2724991         5.28208375E-07
   80.4375000         5.53638188E-07
   80.6025009         5.79622053E-07
   80.7675018         6.06436117E-07
   80.9325027         6.34320145E-07
   81.0975037         6.63444268E-07
   81.2624969         6.93887273E-07
   81.4274979         7.25628297E-07
   81.5924988         7.58552119E-07
   81.7574997         7.92465357E-07
   81.9225006         8.27121312E-07
   82.0875015         8.62247362E-07
   82.2525024         8.97572875E-07
   82.4175034         9.32850583E-07
   82.5824966         9.67869937E-07
   82.7474976         1.00245825E-06
   82.9124985         1.03647164E-06
   83.0774994         1.06977518E-06
   83.2425003         1.10222186E-06
   83.4075012         1.13363080E-06
   83.5725021         1.16377316E-06
   83.7375031         1.19236904E-06
   83.9024963         1.21909193E-06
   84.0674973         1.24358417E-06
   84.2324982         1.26547172E-06
   84.3974991         1.28438012E-06
   84.5625000         1.29994339E-06
   84.7275009         1.31180798E-06
   84.8925018         1.31963441E-06
   85.0575027         1.32310072E-06
   85.2225037         1.32191303E-06
   85.3874969         1.31582510E-06
   85.5524979         1.30466947E-06
   85.7174988         1.28839304E-06
   85.8824997         1.26709517E-06
   86.0475006         1.24105850E-06
   86.2125015         1.21076800E-06
   86.3775024         1.17691388E-06
   86.5425034         1.14037903E-06
   86.7074966         1.10221140E-06
   86.8724976         1.06358652E-06
   87.0374985         1.02576337E-06
   87.2024994         9.90036256E-07
   87.3675003         9.57687007E-07
   87.5325012         9.29936505E-07
   87.6975021         9.07897743E-07
   87.8625031         8.92531602E-07
   88.0274963         8.84607459E-07
   88.1924973         8.84670555E-07
   88.3574982         8.93018694E-07
   88.5224991         9.09687856E-07
   88.6875000         9.34447769E-07
   88.8525009         9.66803782E-07
   89.0175018         1.00600505E-06
   89.1825027         1.05105482E-06
   89.3475037         1.10072381E-06
   89.5124969         1.15356556E-06
   89.6774979         1.20793584E-06
   89.8424988         1.26201769E-06
   90.0074997         1.31385411E-06
   90.1725006         1.36138863E-06
   90.3375015         1.40251780E-06
   90.5025024         1.43515399E-06
   90.6675034         1.45729985E-06
   90.8324966         1.46713955E-06
   90.9974976         1.46313835E-06
   91.1624985         1.44415435E-06
   91.3274994         1.40954671E-06
   91.4925003         1.35927382E-06
   91.6575012         1.29396369E-06
   91.8225021         1.21494372E-06
   91.9875031         1.12421776E-06
   92.1524963         1.02438446E-06
   92.3174973         9.18501485E-07
   92.4824982         8.09905600E-07
   92.6474991         7.02007355E-07
   92.8125000         5.98081840E-07
   92.9775009         5.01077295E-07
   93.1425018         4.13461265E-07
   93.3075027         3.37114670E-07
   93.4725037         2.73280222E-07
   93.6374969         2.22559819E-07
   93.8024979         1.84955510E-07
   93.9674988         1.59940157E-07
   94.1324997         1.46547009E-07
   94.2975006         1.43466607E-07
   94.4625015         1.49142380E-07
   94.6275024         1.61858608E-07
   94.7925034         1.79815615E-07
   94.9574966         2.01188584E-07
   95.1224976         2.24169113E-07
   95.2874985         2.46987184E-07
   95.4524994         2.67917358E-07
   95.6175003         2.85273188E-07
   95.7825012         2.97398145E-07
   95.9475021         3.02664603E-07
   96.1125031         2.99489443E-07
   96.2774963         2.86377116E-07
   96.4424973         2.61993705E-07
   96.6074982         2.25270469E-07
   96.7724991         1.75530914E-07
   96.9375000         1.12625663E-07
   97.1025009         3.70566831E-08
   97.2675018        -4.99312982E-08
   97.4325027        -1.46313326E-07
   97.5975037        -2.49318532E-07
   97.7624969        -3.55546234E-07
   97.9274979        -4.61163324E-07
   98.0924988        -5.62170158E-07
   98.2574997        -6.54710959E-07
   98.4225006        -7.35395247E-07
   98.5875015        -8.01594013E-07
   98.7525024        -8.51673349E-07
   98.9175034        -8.85139002E-07
   99.0824966        -9.02675538E-07
   99.2474976        -9.06077560E-07
   99.4124985        -8.98087137E-07
   99.5774994        -8.82159270E-07
   99.7425003        -8.62186766E-07
   99.9075012        -8.42214718E-07
   100.072502        -8.26169753E-07
   100.237503        -8.17623402E-07
   100.402496        -8.19597176E-07
   100.567497        -8.34410173E-07
   100.732498        -8.63563230E-07
   100.897499        -9.07655931E-07
   101.062500        -9.66330617E-07
   101.227501        -1.03824755E-06
   101.392502        -1.12109615E-06
   101.557503        -1.21165590E-06
   101.722504        -1.30591559E-06
   101.887497        -1.39926055E-06
   102.052498        -1.48672439E-06
   102.217499        -1.56330225E-06
   102.382500        -1.62430104E-06
   102.547501        -1.66570055E-06
   102.712502        -1.68449264E-06
   102.877502        -1.67895871E-06
   103.042503        -1.64885591E-06
   103.207497        -1.59548529E-06
   103.372498        -1.52162715E-06
   103.537498        -1.43134866E-06
   103.702499        -1.32969990E-06
   103.867500        -1.22232757E-06
   104.032501        -1.11504710E-06
   104.197502        -1.01341288E-06
   104.362503        -9.22324489E-07
   104.527496        -8.45699503E-07
   104.692497        -7.86234580E-07
   104.857498        -7.45266505E-07
   105.022499        -7.22736331E-07
   105.187500        -7.17252362E-07
   105.352501        -7.26241865E-07
   105.517502        -7.46174010E-07
   105.682503        -7.72831925E-07
   105.847504        -8.01609758E-07
   106.012497        -8.27806900E-07
   106.177498        -8.46895716E-07
   106.342499        -8.54745394E-07
   106.507500        -8.47792080E-07
   106.672501        -8.23154210E-07
   106.837502        -7.78702656E-07
   107.002502        -7.13096256E-07
   107.167503        -6.25799601E-07
   107.332497        -5.17094520E-07
   107.497498        -3.88093696E-07
   107.662498        -2.40760357E-07
   107.827499        -7.79297622E-08
   107.992500         9.66744906E-08
   108.157501         2.78442428E-07
   108.322502         4.61913061E-07
   108.487503         6.40860435E-07
   108.652496         8.08446714E-07
   108.817497         9.57457019E-07
   108.982498         1.08062216E-06
   109.147499         1.17102513E-06
   109.312500         1.22257131E-06
   109.477501         1.23048869E-06
   109.642502         1.19180777E-06
   109.807503         1.10576570E-06
   109.972504         9.74078716E-07
   110.137497         8.01040073E-07
   110.302498         5.93421191E-07
   110.467499         3.60179229E-07
   110.632500         1.11996101E-07
   110.797501        -1.39302102E-07
   110.962502        -3.81393193E-07
   111.127502        -6.02116586E-07
   111.292503        -7.90095669E-07
   111.457497        -9.35286494E-07
   111.622498        -1.02943261E-06
   111.787498        -1.06641141E-06
   111.952499        -1.04247067E-06
   112.117500        -9.56356416E-07
   112.282501        -8.09341429E-07
   112.447502        -6.05159869E-07
   112.612503        -3.49858226E-07
   112.777496        -5.15677101E-08
   112.942497         2.79800503E-07
   113.107498         6.32937144E-07
   113.272499         9.95592472E-07
   113.437500         1.35510163E-06
   113.602501         1.69895554E-06
   113.767502         2.01538569E-06
   113.932503         2.29390753E-06
   114.097504         2.52577775E-06
   114.262497         2.70431542E-06
   114.427498         2.82506358E-06
   114.592499         2.88579054E-06
   114.757500         2.88635874E-06
   114.922501         2.82850806E-06
   115.087502         2.71561134E-06
   115.252502         2.55244686E-06
   115.417503         2.34502204E-06
   115.582497         2.10044914E-06
   115.747498         1.82685517E-06
   115.912498         1.53328915E-06
   116.077499         1.22958397E-06
   116.242500         9.26139592E-07
   116.407501         6.33611648E-07
   116.572502         3.62506029E-07
   116.737503         1.22707945E-07
   116.902496        -7.70204807E-08
   117.067497        -2.29529235E-07
   117.232498        -3.29714624E-07
   117.397499        -3.74867653E-07
   117.562500        -3.64910960E-07
   117.727501        -3.02512490E-07
   117.892502        -1.93066654E-07
   118.057503        -4.45386696E-08
   118.222504         1.32829314E-07
   118.387497         3.26949817E-07
   118.552498         5.24454492E-07
   118.717499         7.11378675E-07
   118.882500         8.73944145E-07
   119.047501         9.99404392E-07
   119.212502         1.07690425E-06
   119.377502         1.09828943E-06
   119.542503         1.05878996E-06
   119.707497         9.57497036E-07
   119.872498         7.97557220E-07
   120.037498         5.86028193E-07
   120.202499         3.33377642E-07
   120.367500         5.26525916E-08
   120.532501        -2.41601128E-07
   120.697502        -5.34547098E-07
   120.862503        -8.12247265E-07
   121.027496        -1.06268647E-06
   121.192497        -1.27651344E-06
   121.357498        -1.44743012E-06
   121.522499        -1.57221677E-06
   121.687500        -1.65043969E-06
   121.852501        -1.68392546E-06
   122.017502        -1.67611404E-06
   122.182503        -1.63139782E-06
   122.347504        -1.55454677E-06
   122.512497        -1.45028480E-06
   122.677498        -1.32305479E-06
   122.842499        -1.17697368E-06
   123.007500        -1.01594560E-06
   123.172501        -8.43883015E-07
   123.337502        -6.64963579E-07
   123.502502        -4.83852716E-07
   123.667503        -3.05831747E-07
   123.832497        -1.36786326E-07
   123.997498         1.69529031E-08
   124.162498         1.48904320E-07
   124.327499         2.52825345E-07
   124.492500         3.23146338E-07
   124.657501         3.55399692E-07
   124.822502         3.46601865E-07
   124.987503         2.95561534E-07
   125.152496         2.03097798E-07
   125.317497         7.21593807E-08
   125.482498        -9.21680936E-08
   125.647499        -2.82783446E-07
   125.812500        -4.90838943E-07
   125.977501        -7.06173296E-07
   126.142502        -9.17902810E-07
   126.307503        -1.11514203E-06
   126.472504        -1.28778925E-06
   126.637497        -1.42728868E-06
   126.802498        -1.52726977E-06
   126.967499        -1.58397461E-06
   127.132500        -1.59641274E-06
   127.297501        -1.56622934E-06
   127.462502        -1.49731557E-06
   127.627502        -1.39522956E-06
   127.792503        -1.26652071E-06
   127.957497        -1.11804866E-06
   128.122498        -9.56381541E-07
   128.287506        -7.87330521E-07
   128.452499        -6.15653221E-07
   128.617493        -4.44931970E-07
   128.782501        -2.77606972E-07
   128.947495        -1.15127811E-07
   129.112503         4.18269295E-08
   129.277496         1.93118709E-07
   129.442505         3.38954351E-07
   129.607498         4.79757944E-07
   129.772507         6.16112288E-07
   129.937500         7.48741456E-07
   130.102493         8.78482012E-07
   130.267502         1.00618740E-06
   130.432495         1.13252270E-06
   130.597504         1.25764541E-06
   130.762497         1.38081509E-06
   130.927505         1.50001483E-06
   131.092499         1.61169100E-06
   131.257507         1.71070803E-06
   131.422501         1.79057997E-06
   131.587494         1.84397186E-06
   131.752502         1.86341072E-06
   131.917496         1.84208295E-06
   132.082504         1.77457912E-06
   132.247498         1.65745450E-06