  -1.23749995         0.00000000    
  -1.07249999         0.00000000    
 -0.907500029         0.00000000    
 -0.742500007         0.00000000    
 -0.577499986         0.00000000    
 -0.412499994         0.00000000    
 -0.247500002         0.00000000    
  -8.25000033E-02     0.00000000    
   8.25000033E-02     0.00000000    
  0.247500002         0.00000000    
  0.412499994         0.00000000    
  0.577499986         0.00000000    
  0.742500007         0.00000000    
  0.907500029         0.00000000    
   1.07249999         0.00000000    
   1.23749995         0.00000000    
   1.40250003         0.00000000    
   1.56750000         0.00000000    
   1.73249996         0.00000000    
   1.89750004         0.00000000    
   2.06250000         0.00000000    
   2.22749996         0.00000000    
   2.39249992         0.00000000    
   2.55749989         0.00000000    
   2.72250009         0.00000000    
   2.88750005         0.00000000    
   3.05250001         0.00000000    
   3.21749997         0.00000000    
   3.38249993         0.00000000    
   3.54749990         0.00000000    
   3.71250010         0.00000000    
   3.87750006         0.00000000    
   4.04250002         0.00000000    
   4.20749998         0.00000000    
   4.37249994         0.00000000    
   4.53749990         0.00000000    
   4.70249987         0.00000000    
   4.86749983         0.00000000    
   5.03249979         0.00000000    
   5.19750023         0.00000000    
   5.36250019         0.00000000    
   5.52750015         0.00000000    
   5.69250011         0.00000000    
   5.85750008         0.00000000    
   6.02250004         0.00000000    
   6.18750000         0.00000000    
   6.35249996         0.00000000    
   6.51749992         0.00000000    
   6.68249989         0.00000000    
   6.84749985         0.00000000    
   7.01249981         0.00000000    
   7.17749977         0.00000000    
   7.34250021         0.00000000    
   7.50750017         0.00000000    
   7.67250013         0.00000000    
   7.83750010         0.00000000    
   8.00249958         0.00000000    
   8.16749954         0.00000000    
   8.33250046         0.00000000    
   8.49750042         0.00000000    
   8.66250038         0.00000000    
   8.82750034         0.00000000    
   8.99250031         0.00000000    
   9.15750027         0.00000000    
   9.32250023         0.00000000    
   9.48750019         0.00000000    
   9.65250015         0.00000000    
   9.81750011         0.00000000    
   9.98250008         0.00000000    
   10.1475000         0.00000000    
   10.3125000        -9.97614161E-35
   10.4775000        -6.95108725E-35
   10.6424999         6.92125564E-34
   10.8074999         1.64321327E-33
   10.9724998         4.09940320E-33
   11.1374998         1.89812627E-32
   11.3024998         4.08954720E-32
   11.4674997         6.34450918E-32
   11.6324997         8.62698831E-32
   11.7974997         8.04525084E-32
   11.9624996         1.76169605E-32
   12.1274996         6.72187919E-31
   12.2924995         1.44543299E-30
   12.4575005         5.79282036E-30
   12.6225004         5.21417734E-30
   12.7875004         2.84718532E-31
   12.9525003        -5.61251420E-30
   13.1175003        -1.32757255E-29
   13.2825003        -9.49253931E-30
   13.4475002         1.57135661E-29
   13.6125002         7.55205460E-29
   13.7775002         1.62440467E-28
   13.9425001         2.29392605E-28
   14.1075001         2.08980588E-28
   14.2725000         2.39794633E-29
   14.4375000        -3.46246309E-28
   14.6025000        -8.07771563E-28
   14.7674999        -1.15951556E-27
   14.9324999        -1.12016708E-27
   15.0974998        -4.37594106E-28
   15.2624998         9.57126419E-28
   15.4274998         2.78008045E-27
   15.5924997         4.34753378E-27
   15.7574997         4.68526101E-27
   15.9224997         2.88316778E-27
   16.0874996        -1.36907157E-27
   16.2525005        -7.28699014E-27
   16.4174995        -1.28342916E-26
   16.5825005        -1.51122161E-26
   16.7474995        -1.14216497E-26
   16.9125004        -7.33858272E-28
   17.0774994         1.50280036E-26
   17.2425003         3.06544692E-26
   17.4074993         3.88396776E-26
   17.5725002         3.29558969E-26
   17.7374992         1.05965097E-26
   17.9025002        -2.36604839E-26
   18.0674992        -5.80502895E-26
   18.2325001        -7.70738983E-26
   18.3974991        -6.81650456E-26
   18.5625000        -2.91668901E-26
   18.7275009         2.71866952E-26
   18.8924999         7.54328951E-26
   19.0575008         8.75570894E-26
   19.2224998         4.85826644E-26
   19.3875008        -2.91960811E-26
   19.5524998        -1.02158892E-25
   19.7175007        -1.08257169E-25
   19.8824997         3.06312918E-27
   20.0475006         2.33388961E-25
   20.2124996         5.08100428E-25
   20.3775005         6.79180199E-25
   20.5424995         5.70085272E-25
   20.7075005         5.73649296E-26
   20.8724995        -8.37663391E-25
   21.0375004        -1.88969027E-24
   21.2024994        -2.68528548E-24
   21.3675003        -2.73537913E-24
   21.5324993        -1.66678697E-24
   21.6975002         5.68332867E-25
   21.8624992         3.55432995E-24
   22.0275002         6.42882037E-24
   22.1924992         8.09154510E-24
   22.3575001         7.56628285E-24
   22.5224991         4.39928163E-24
   22.6875000        -1.06448003E-24
   22.8525009        -7.66411896E-24
   23.0174999        -1.37118304E-23
   23.1825008        -1.75057023E-23
   23.3474998        -1.78701387E-23
   23.5125008        -1.44892843E-23
   23.6774998        -7.87198933E-24
   23.8425007         1.04174920E-24
   24.0074997         1.14210493E-23
   24.1725006         2.28885057E-23
   24.3374996         3.53574053E-23
   24.5025005         4.82746018E-23
   24.6674995         5.95337422E-23
   24.8325005         6.46541121E-23
   24.9974995         5.69418860E-23
   25.1625004         2.91311060E-23
   25.3274994        -2.35605505E-23
   25.4925003        -9.97602525E-23
   25.6574993        -1.89052321E-22
   25.8225002        -2.71418689E-22
   25.9874992        -3.20048947E-22
   26.1525002        -3.07476120E-22
   26.3174992        -2.13682224E-22
   26.4825001        -3.38051826E-23
   26.6474991         2.17130645E-22
   26.8125000         5.04236054E-22
   26.9775009         7.77717443E-22
   27.1424999         9.81226240E-22
   27.3075008         1.06096637E-21
   27.4724998         9.73113670E-22
   27.6375008         6.88563943E-22
   27.8024998         1.96106732E-22
   27.9675007        -4.93351187E-22
   28.1324997        -1.33906748E-21
   28.2975006        -2.25918454E-21
   28.4624996        -3.11975550E-21
   28.6275005        -3.73173688E-21
   28.7924995        -3.86503090E-21
   28.9575005        -3.28597519E-21
   29.1224995        -1.81772455E-21
   29.2875004         5.86544463E-22
   29.4524994         3.77629639E-21
   29.6175003         7.36488740E-21
   29.7824993         1.07390743E-20
   29.9475002         1.31264387E-20
   30.1124992         1.37163542E-20
   30.2775002         1.18167597E-20
   30.4424992         7.02058074E-21
   30.6075001        -6.45932941E-22
   30.7724991        -1.06169342E-20
   30.9375000        -2.17417606E-20
   31.1025009        -3.23174360E-20
   31.2674999        -4.02167621E-20
   31.4325008        -4.31303862E-20
   31.5974998        -3.89333590E-20
   31.7625008        -2.61623140E-20
   31.9274998        -4.54710432E-21
   32.0924988         2.45112599E-20
   32.2574997         5.76664957E-20
   32.4225006         8.97146457E-20
   32.5875015         1.14155086E-19
   32.7524986         1.24233287E-19
   32.9174995         1.14333486E-19
   33.0825005         8.14522617E-20
   33.2475014         2.64000218E-20
   33.4124985        -4.56134079E-20
   33.5774994        -1.25241362E-19
   33.7425003        -2.00151743E-19
   33.9075012        -2.56895105E-19
   34.0724983        -2.83147724E-19
   34.2374992        -2.69914902E-19
   34.4025002        -2.13313957E-19
   34.5675011        -1.15671089E-19
   34.7324982         1.41980754E-20
   34.8974991         1.61551023E-19
   35.0625000         3.07104890E-19
   35.2275009         4.29215670E-19
   35.3925018         5.06777837E-19
   35.5574989         5.22646832E-19
   35.7224998         4.67157954E-19
   35.8875008         3.41048609E-19
   36.0525017         1.56913409E-19
   36.2174988        -6.16113395E-20
   36.3824997        -2.83326188E-19
   36.5475006        -4.75280971E-19
   36.7125015        -6.09743316E-19
   36.8774986        -6.70476312E-19
   37.0424995        -6.56309655E-19
   37.2075005        -5.80514061E-19
   37.3725014        -4.65667116E-19
   37.5374985        -3.35214452E-19
   37.7024994        -2.04288020E-19
   37.8675003        -7.30043565E-20
   38.0325012         7.48983481E-20
   38.1974983         2.66624377E-19
   38.3624992         5.28690834E-19
   38.5275002         8.71805456E-19
   38.6925011         1.27642716E-18
   38.8574982         1.68355822E-18
   39.0224991         1.99452271E-18
   39.1875000         2.08176173E-18
   39.3525009         1.81053913E-18
   39.5175018         1.06934890E-18
   39.6824989        -1.94984849E-19
   39.8474998        -1.94299287E-18
   40.0125008        -4.01577700E-18
   40.1775017        -6.12346174E-18
   40.3424988        -7.85685759E-18
   40.5074997        -8.72900043E-18
   40.6725006        -8.24947804E-18
   40.8375015        -6.02770524E-18
   41.0024986        -1.89211258E-18
   41.1674995         3.99755504E-18
   41.3325005         1.10748532E-17
   41.4975014         1.83593531E-17
   41.6624985         2.45411269E-17
   41.8274994         2.81637959E-17
   41.9925003         2.78892315E-17
   42.1575012         2.28016240E-17
   42.3224983         1.26888257E-17
   42.4874992        -1.76872453E-18
   42.6525002        -1.89620402E-17
   42.8175011        -3.65049594E-17
   42.9824982        -5.15687720E-17
   43.1474991        -6.13534022E-17
   43.3125000        -6.36122670E-17
   43.4775009        -5.71270386E-17
   43.6425018        -4.20293282E-17
   43.8074989        -1.98895595E-17
   43.9724998         6.46505507E-18
   44.1375008         3.33888013E-17
   44.3025017         5.70442213E-17
   44.4674988         7.41054170E-17
   44.6324997         8.23998945E-17
   44.7975006         8.13492097E-17
   44.9625015         7.20945211E-17
   45.1274986         5.72460732E-17
   45.2924995         4.02701235E-17
   45.4575005         2.46123670E-17
   45.6225014         1.27365457E-17
   45.7874985         5.31121463E-18
   45.9524994         7.85492674E-19
   46.1175003        -4.45641032E-18
   46.2825012        -1.52851033E-17
   46.4474983        -3.64423319E-17
   46.6124992        -7.08383911E-17
   46.7775002        -1.17927169E-16
   46.9425011        -1.72621000E-16
   47.1074982        -2.25162454E-16
   47.2724991        -2.62205931E-16
   47.4375000        -2.69099985E-16
   47.6025009        -2.33056774E-16
   47.7675018        -1.46618187E-16
   47.9324989        -1.06585969E-17
   48.0974998         1.63846983E-16
   48.2625008         3.55888066E-16
   48.4275017         5.36585208E-16
   48.5924988         6.73300772E-16
   48.7574997         7.35107125E-16
   48.9225006         6.98684444E-16
   49.0875015         5.53549001E-16
   49.2524986         3.05547707E-16
   49.4174995        -2.21949383E-17
   49.5825005        -3.91278903E-16
   49.7475014        -7.52864695E-16
   49.9124985        -1.05470880E-15
   50.0774994        -1.24932140E-15
   50.2425003        -1.30188943E-15
   50.4075012        -1.19654976E-15
   50.5724983        -9.39782420E-16
   50.7374992        -5.60129283E-16
   50.9025002        -1.04065270E-16
   51.0675011         3.71423127E-16
   51.2324982         8.08306866E-16
   51.3974991         1.15727263E-15
   51.5625000         1.38582351E-15
   51.7275009         1.48299471E-15
   51.8925018         1.45959532E-15
   52.0574989         1.34383143E-15
   52.2224998         1.17323698E-15
   52.3875008         9.84757010E-16
   52.5525017         8.05353632E-16
   52.7174988         6.45460388E-16
   52.8824997         4.96961218E-16
   53.0475006         3.36246140E-16
   53.2125015         1.31584557E-16
   53.3774986        -1.47097542E-16
   53.5424995        -5.18619586E-16
   53.7075005        -9.83683502E-16
   53.8725014        -1.52257465E-15
   54.0374985        -2.09801591E-15
   54.2024994        -2.66234674E-15
   54.3675003        -3.16700007E-15
   54.5325012        -3.57159362E-15
   54.6974983        -3.85001589E-15
   54.8624992        -3.99163853E-15
   55.0275002        -3.99706123E-15
   55.1925011        -3.86922575E-15
   55.3574982        -3.60206817E-15
   55.5224991        -3.16978173E-15
   55.6875000        -2.52009094E-15
   55.8525009        -1.57458343E-15
   56.0175018        -2.38152578E-16
   56.1824989         1.58199825E-15
   56.3474998         3.94937413E-15
   56.5125008         6.86702019E-15
   56.6775017         1.02479442E-14
   56.8424988         1.38941864E-14
   57.0074997         1.74915827E-14
   57.1725006         2.06255843E-14
   57.3375015         2.28201264E-14
   57.5024986         2.35966947E-14
   57.6674995         2.25456504E-14
   57.8325005         1.93975136E-14
   57.9975014         1.40799407E-14
   58.1624985         6.74725482E-15
   58.3274994        -2.22583720E-15
   58.4925003        -1.22873123E-14
   58.6575012        -2.27800871E-14
   58.8224983        -3.30283727E-14
   58.9874992        -4.24187188E-14
   59.1525002        -5.04567227E-14
   59.3175011        -5.67855835E-14
   59.4824982        -6.11619926E-14
   59.6474991        -6.33959370E-14
   59.8125000        -6.32713689E-14
   59.9775009        -6.04717624E-14
   60.1425018        -5.45366534E-14
   60.3074989        -4.48711672E-14
   60.4724998        -3.08215977E-14
   60.6375008        -1.18166382E-14
   60.8025017         1.24407727E-14
   60.9674988         4.17600728E-14
   61.1324997         7.52677068E-14
   61.2975006         1.11274068E-13
   61.4625015         1.47244386E-13
   61.6274986         1.79904052E-13
   61.7924995         2.05490247E-13
   61.9575005         2.20137358E-13
   62.1225014         2.20357220E-13
   62.2874985         2.03552236E-13
   62.4524994         1.68483757E-13
   62.6175003         1.15616230E-13
   62.7825012         4.72693479E-14
   62.9474983        -3.24627816E-14
   63.1124992        -1.18030572E-13
   63.2775002        -2.02951615E-13
   63.4425011        -2.80467300E-13
   63.6074982        -3.44241318E-13
   63.7724991        -3.89001141E-13
   63.9375000        -4.11035030E-13
   64.1025009        -4.08483712E-13
   64.2675018        -3.81403053E-13
   64.4325027        -3.31611068E-13
   64.5975037        -2.62366897E-13
   64.7624969        -1.77950319E-13
   64.9274979        -8.32173143E-14
   65.0924988         1.68003784E-14
   65.2574997         1.17204423E-13
   65.4225006         2.13428450E-13
   65.5875015         3.01334695E-13
   65.7525024         3.77241749E-13
   65.9175034         4.37929993E-13
   66.0824966         4.80669812E-13
   66.2474976         5.03306056E-13
   66.4124985         5.04408039E-13
   66.5774994         4.83465590E-13
   66.7425003         4.41089114E-13
   66.9075012         3.79154661E-13
   67.0725021         3.00835908E-13
   67.2375031         2.10478878E-13
   67.4024963         1.13303206E-13
   67.5674973         1.49482376E-14
   67.7324982        -7.90857790E-14
   67.8974991        -1.64025694E-13
   68.0625000        -2.36354366E-13
   68.2275009        -2.94196037E-13
   68.3925018        -3.37490506E-13
   68.5575027        -3.67916201E-13
   68.7225037        -3.88557242E-13
   68.8874969        -4.03350259E-13
   69.0524979        -4.16379523E-13
   69.2174988        -4.31120824E-13
   69.3824997        -4.49750371E-13
   69.5475006        -4.72633868E-13
   69.7125015        -4.98092995E-13
   69.8775024        -5.22496705E-13
   70.0425034        -5.40681269E-13
   70.2074966        -5.46629799E-13
   70.3724976        -5.34301553E-13
   70.5374985        -4.98466773E-13
   70.7024994        -4.35408708E-13
   70.8675003        -3.43384826E-13
   71.0325012        -2.22790848E-13
   71.1975021        -7.60345427E-14
   71.3625031         9.28239080E-14
   71.5274963         2.78579243E-13
   71.6924973         4.75441680E-13
   71.8574982         6.77569979E-13
   72.0224991         8.79525023E-13
   72.1875000         1.07659118E-12
   72.3525009         1.26494442E-12
   72.5175018         1.44162015E-12
   72.6825027         1.60424571E-12
   72.8475037         1.75050426E-12
   73.0124969         1.87732273E-12
   73.1774979         1.97984793E-12
   73.3424988         2.05032974E-12
   73.5074997         2.07712016E-12
   73.6725006         2.04404050E-12
   73.8375015         1.93038814E-12
   74.0025024         1.71180995E-12
   74.1675034         1.36218890E-12
   74.3324966         8.56548393E-13
   74.4974976         1.74841614E-13
   74.6624985        -6.93686211E-13
   74.8274994        -1.74599267E-12
   74.9925003        -2.96113698E-12
   75.1575012        -4.29717850E-12
   75.3225021        -5.68967356E-12
   75.4875031        -7.05228454E-12
   75.6524963        -8.27984990E-12
   75.8174973        -9.25406193E-12
   75.9824982        -9.85158136E-12
   76.1474991        -9.95414081E-12
   76.3125000        -9.45986778E-12
   76.4775009        -8.29483791E-12
   76.6425018        -6.42371399E-12
   76.8075027        -3.85834073E-12
   76.9725037        -6.63244633E-13
   77.1374969         3.04271517E-12
   77.3024979         7.08899562E-12
   77.4674988         1.12603598E-11
   77.6324997         1.53078644E-11
   77.7975006         1.89631453E-11
   77.9625015         2.19550298E-11
   78.1275024         2.40273496E-11
   78.2925034         2.49567641E-11
   78.4574966         2.45694489E-11
   78.6224976         2.27556064E-11
   78.7874985         1.94809342E-11
   78.9524994         1.47943290E-11
   79.1175003         8.83128466E-12
   79.2825012         1.81259044E-12
   79.4475021        -5.96187509E-12
   79.6125031        -1.41242842E-11
   79.7774963        -2.22546530E-11
   79.9424973        -2.99007624E-11
   80.1074982        -3.66013400E-11
   80.2724991        -4.19113251E-11
   80.4375000        -4.54279149E-11
   80.6025009        -4.68159053E-11
   80.7675018        -4.58309952E-11
   80.9325027        -4.23397255E-11
   81.0975037        -3.63350461E-11
   81.2624969        -2.79463900E-11
   81.4274979        -1.74435189E-11
   81.5924988        -5.23318238E-12
   81.7574997         8.15208057E-12
   81.9225006         2.20734663E-11
   82.0875015         3.58138068E-11
   82.2525024         4.86131864E-11
   82.4175034         5.97107364E-11
   82.5824966         6.83903351E-11
   82.7474976         7.40270970E-11
   82.9124985         7.61312402E-11
   83.0774994         7.43858655E-11
   83.2425003         6.86756069E-11
   83.4075012         5.91036733E-11
   83.5725021         4.59957454E-11
   83.7375031         2.98899724E-11
   83.9024963         1.15132721E-11
   84.0674973        -8.25516825E-12
   84.2324982        -2.84312643E-11
   84.3974991        -4.79816846E-11
   84.5625000        -6.58841801E-11
   84.7275009        -8.11884240E-11
   84.8925018        -9.30727231E-11
   85.0575027        -1.00892024E-10
   85.2225037        -1.04213443E-10
   85.3874969        -1.02836614E-10
   85.5524979        -9.67978059E-11
   85.7174988        -8.63585314E-11
   85.8824997        -7.19808865E-11
   86.0475006        -5.42929798E-11
   86.2125015        -3.40483718E-11
   86.3775024        -1.20834523E-11
   86.5425034         1.07238914E-11
   86.7074966         3.34918343E-11
   86.8724976         5.53666626E-11
   87.0374985         7.55489560E-11
   87.2024994         9.33140232E-11
   87.3675003         1.08027691E-10
   87.5325012         1.19158822E-10
   87.6975021         1.26290034E-10
   87.8625031         1.29127695E-10
   88.0274963         1.27511821E-10
   88.1924973         1.21425120E-10
   88.3574982         1.11000022E-10
   88.5224991         9.65212979E-11
   88.6875000         7.84221646E-11
   88.8525009         5.72717290E-11
   89.0175018         3.37532086E-11
   89.1825027         8.63342123E-12
   89.3475037        -1.72740260E-11
   89.5124969        -4.31483946E-11
   89.6774979        -6.81999388E-11
   89.8424988        -9.17023749E-11
   90.0074997        -1.13016312E-10
   90.1725006        -1.31601674E-10
   90.3375015        -1.47018925E-10
   90.5025024        -1.58920835E-10
   90.6675034        -1.67037884E-10
   90.8324966        -1.71161585E-10
   90.9974976        -1.71130193E-10
   91.1624985        -1.66821029E-10
   91.3274994        -1.58152033E-10
   91.4925003        -1.45093548E-10
   91.6575012        -1.27688790E-10
   91.8225021        -1.06079909E-10
   91.9875031        -8.05341696E-11
   92.1524963        -5.14651169E-11
   92.3174973        -1.94436793E-11
   92.4824982         1.48041770E-11
   92.6474991         5.04144296E-11
   92.8125000         8.64156247E-11
   92.9775009         1.21770469E-10
   93.1425018         1.55424576E-10
   93.3075027         1.86358470E-10
   93.4725037         2.13639023E-10
   93.6374969         2.36466458E-10
   93.8024979         2.54213789E-10
   93.9674988         2.66454858E-10
   94.1324997         2.72977863E-10
   94.2975006         2.73781137E-10
   94.4625015         2.69050171E-10
   94.6275024         2.59117033E-10
   94.7925034         2.44405274E-10
   94.9574966         2.25367836E-10
   95.1224976         2.02425715E-10
   95.2874985         1.75915629E-10
   95.4524994         1.46053961E-10
   95.6175003         1.12920749E-10
   95.7825012         7.64647859E-11
   95.9475021         3.65280722E-11
   96.1125031        -7.11399733E-12
   96.2774963        -5.46998107E-11
   96.4424973        -1.06419908E-10
   96.6074982        -1.62348857E-10
   96.7724991        -2.22373703E-10
   96.9375000        -2.86122320E-10
   97.1025009        -3.52897961E-10
   97.2675018        -4.21626623E-10
   97.4325027        -4.90825269E-10
   97.5975037        -5.58597835E-10
   97.7624969        -6.22662588E-10
   97.9274979        -6.80411782E-10
   98.0924988        -7.28997640E-10
   98.2574997        -7.65438934E-10
   98.4225006        -7.86736842E-10
   98.5875015        -7.89994126E-10
   98.7525024        -7.72530095E-10
   98.9175034        -7.31989913E-10
   99.0824966        -6.66449007E-10
   99.2474976        -5.74515213E-10
   99.4124985        -4.55432192E-10
   99.5774994        -3.09186121E-10
   99.7425003        -1.36614678E-10
   99.9075012         6.04856928E-11
   100.072502         2.79262252E-10
   100.237503         5.15730014E-10
   100.402496         7.64732389E-10
   100.567497         1.01995401E-09
   100.732498         1.27400279E-09
   100.897499         1.51857471E-09
   101.062500         1.74470749E-09
   101.227501         1.94312277E-09
   101.392502         2.10464335E-09
   101.557503         2.22066143E-09
   101.722504         2.28362307E-09
   101.887497         2.28748864E-09
   102.052498         2.22812391E-09
   102.217499         2.10358930E-09
   102.382500         1.91429050E-09
   102.547501         1.66298664E-09
   102.712502         1.35464640E-09
   102.877502         9.96178473E-10
   103.042503         5.96059035E-10
   103.207497         1.63897798E-10
   103.372498        -2.90019786E-10
   103.537498        -7.55174256E-10
   103.702499        -1.22120591E-09
   103.867500        -1.67823966E-09
   104.032501        -2.11712603E-09
   104.197502        -2.52959942E-09
   104.362503        -2.90835667E-09
   104.527496        -3.24706440E-09
   104.692497        -3.54031582E-09
   104.857498        -3.78354592E-09
   105.022499        -3.97292421E-09
   105.187500        -4.10524414E-09
   105.352501        -4.17782609E-09
   105.517502        -4.18845048E-09
   105.682503        -4.13534140E-09
   105.847504        -4.01720257E-09
   106.012497        -3.83330923E-09
   106.177498        -3.58364582E-09
   106.342499        -3.26905369E-09
   106.507500        -2.89136737E-09
   106.672501        -2.45348897E-09
   106.837502        -1.95937622E-09
   107.002502        -1.41392087E-09
   107.167503        -8.22718005E-10
   107.332497        -1.91748381E-10
   107.497498         4.72980710E-10
   107.662498         1.16578425E-09
   107.827499         1.88157134E-09
   107.992500         2.61598698E-09
   108.157501         3.36538175E-09
   108.322502         4.12659151E-09
   108.487503         4.89653562E-09
   108.652496         5.67167247E-09
   108.817497         6.44737286E-09
   108.982498         7.21728810E-09
   109.147499         7.97280286E-09
   109.312500         8.70263861E-09
   109.477501         9.39267775E-09
   109.642502         1.00260200E-08
   109.807503         1.05832569E-08
   109.972504         1.10429186E-08
   110.137497         1.13820002E-08
   110.302498         1.15764802E-08
   110.467499         1.16017418E-08
   110.632500         1.14328342E-08
   110.797501         1.10445795E-08
   110.962502         1.04115339E-08
   111.127502         9.50790380E-09
   111.292503         8.30750757E-09
   111.457497         6.78391432E-09
   111.622498         4.91083618E-09
   111.787498         2.66283662E-09
   111.952499         1.63520655E-11
   112.117500        -3.04902592E-09
   112.282501        -6.54911547E-09
   112.447502        -1.04937081E-08
   112.612503        -1.48852797E-08
   112.777496        -1.97179730E-08
   112.942497        -2.49770018E-08
   113.107498        -3.06384997E-08
   113.272499        -3.66698458E-08
   113.437500        -4.30303793E-08
   113.602501        -4.96724439E-08
   113.767502        -5.65426035E-08
   113.932503        -6.35829238E-08
   114.097504        -7.07321988E-08
   114.262497        -7.79270621E-08
   114.427498        -8.51029256E-08
   114.592499        -9.21948171E-08
   114.757500        -9.91380844E-08
   114.922501        -1.05869113E-07
   115.087502        -1.12326063E-07
   115.252502        -1.18449705E-07
   115.417503        -1.24184353E-07
   115.582497        -1.29478835E-07
   115.747498        -1.34287589E-07
   115.912498        -1.38571622E-07
   116.077499        -1.42299371E-07
   116.242500        -1.45447359E-07
   116.407501        -1.48000495E-07
   116.572502        -1.49952129E-07
   116.737503        -1.51303638E-07
   116.902496        -1.52063805E-07
   117.067497        -1.52247850E-07
   117.232498        -1.51876407E-07
   117.397499        -1.50974373E-07
   117.562500        -1.49569871E-07
   117.727501        -1.47693385E-07
   117.892502        -1.45377086E-07
   118.057503        -1.42654457E-07
   118.222504        -1.39560115E-07
   118.387497        -1.36129998E-07
   118.552498        -1.32401652E-07
   118.717499        -1.28414584E-07
   118.882500        -1.24210800E-07
   119.047501        -1.19835207E-07
   119.212502        -1.15335858E-07
   119.377502        -1.10764034E-07
   119.542503        -1.06174042E-07
   119.707497        -1.01622696E-07
   119.872498        -9.71685168E-08
   120.037498        -9.28706996E-08
   120.202499        -8.87878571E-08
   120.367500        -8.49766977E-08
   120.532501        -8.14906471E-08
   120.697502        -7.83785339E-08
   120.862503        -7.56833458E-08
   121.027496        -7.34410648E-08
   121.192497        -7.16796578E-08
   121.357498        -7.04181247E-08
   121.522499        -6.96657594E-08
   121.687500        -6.94215174E-08
   121.852501        -6.96737743E-08
   122.017502        -7.04003114E-08
   122.182503        -7.15687491E-08
   122.347504        -7.31374072E-08
   122.512497        -7.50565761E-08
   122.677498        -7.72701441E-08
   122.842499        -7.97175304E-08
   123.007500        -8.23357453E-08
   123.172501        -8.50614796E-08
   123.337502        -8.78331221E-08
   123.502502        -9.05925077E-08
   123.667503        -9.32863458E-08
   123.832497        -9.58673141E-08
   123.997498        -9.82947057E-08
   124.162498        -1.00534642E-07
   124.327499        -1.02560001E-07
   124.492500        -1.04349944E-07
   124.657501        -1.05889221E-07
   124.822502        -1.07167260E-07
   124.987503        -1.08177062E-07
   125.152496        -1.08913859E-07
   125.317497        -1.09373588E-07
   125.482498        -1.09551209E-07
   125.647499        -1.09438801E-07
   125.812500        -1.09023688E-07
   125.977501        -1.08286571E-07
   126.142502        -1.07200044E-07
   126.307503        -1.05727629E-07
   126.472504        -1.03823389E-07
   126.637497        -1.01432576E-07
   126.802498        -9.84929898E-08
   126.967499        -9.49373060E-08
   127.132500        -9.06961475E-08
   127.297501        -8.57016715E-08
   127.462502        -7.98915494E-08
   127.627502        -7.32130303E-08
   127.792503        -6.56268071E-08
   127.957497        -5.71105581E-08
   128.122498        -4.76618247E-08
   128.287506        -3.73002180E-08
   128.452499        -2.60687738E-08
   128.617493        -1.40345495E-08
   128.782501        -1.28835642E-09
   128.947495         1.20562236E-08
   129.112503         2.58645034E-08
   129.277496         3.99829716E-08
   129.442505         5.42422676E-08
   129.607498         6.84607500E-08
   129.772507         8.24487643E-08
   129.937500         9.60136006E-08
   130.102493         1.08964997E-07
   130.267502         1.21121161E-07
   130.432495         1.32314995E-07
   130.597504         1.42400111E-07
   130.762497         1.51256614E-07
   130.927505         1.58795928E-07
   131.092499         1.64964476E-07
   131.257507         1.69746102E-07
   131.422501         1.73162817E-07
   131.587494         1.75273968E-07
   131.752502         1.76173685E-07
   131.917496         1.75987026E-07
   132.082504         1.74864496E-07
   132.247498         1.72975774E-07