  -1.23749995         0.00000000    
  -1.07249999         0.00000000    
 -0.907500029         0.00000000    
 -0.742500007         0.00000000    
 -0.577499986         0.00000000    
 -0.412499994         0.00000000    
 -0.247500002         0.00000000    
  -8.25000033E-02     0.00000000    
   8.25000033E-02     0.00000000    
  0.247500002         0.00000000    
  0.412499994         0.00000000    
  0.577499986         0.00000000    
  0.742500007         0.00000000    
  0.907500029         0.00000000    
   1.07249999         0.00000000    
   1.23749995         0.00000000    
   1.40250003         0.00000000    
   1.56750000         0.00000000    
   1.73249996         0.00000000    
   1.89750004         0.00000000    
   2.06250000         0.00000000    
   2.22749996         0.00000000    
   2.39249992         0.00000000    
   2.55749989         0.00000000    
   2.72250009         0.00000000    
   2.88750005         0.00000000    
   3.05250001         0.00000000    
   3.21749997         0.00000000    
   3.38249993         0.00000000    
   3.54749990         0.00000000    
   3.71250010         0.00000000    
   3.87750006         0.00000000    
   4.04250002         0.00000000    
   4.20749998         0.00000000    
   4.37249994         0.00000000    
   4.53749990         0.00000000    
   4.70249987         0.00000000    
   4.86749983         0.00000000    
   5.03249979         0.00000000    
   5.19750023         0.00000000    
   5.36250019         0.00000000    
   5.52750015         0.00000000    
   5.69250011         0.00000000    
   5.85750008         0.00000000    
   6.02250004         0.00000000    
   6.18750000         0.00000000    
   6.35249996         0.00000000    
   6.51749992         0.00000000    
   6.68249989         0.00000000    
   6.84749985         0.00000000    
   7.01249981         0.00000000    
   7.17749977         0.00000000    
   7.34250021         0.00000000    
   7.50750017         0.00000000    
   7.67250013         0.00000000    
   7.83750010         0.00000000    
   8.00249958         0.00000000    
   8.16749954         0.00000000    
   8.33250046         0.00000000    
   8.49750042         0.00000000    
   8.66250038         0.00000000    
   8.82750034         0.00000000    
   8.99250031         0.00000000    
   9.15750027         0.00000000    
   9.32250023         0.00000000    
   9.48750019         0.00000000    
   9.65250015         0.00000000    
   9.81750011         0.00000000    
   9.98250008         0.00000000    
   10.1475000         0.00000000    
   10.3125000         3.47364481E-34
   10.4775000         5.50962881E-34
   10.6424999         1.04581703E-33
   10.8074999         2.76214283E-33
   10.9724998         9.33074575E-33
   11.1374998         1.90583421E-35
   11.3024998        -1.81224010E-32
   11.4674997         6.26642300E-33
   11.6324997         7.05763634E-32
   11.7974997         8.59302416E-32
   11.9624996         6.79373801E-33
   12.1274996         4.79240508E-30
   12.2924995         9.41293746E-30
   12.4575005         7.07783844E-30
   12.6225004         1.85947050E-30
   12.7875004         1.16968384E-30
   12.9525003         5.95572921E-30
   13.1175003         7.28325241E-30
   13.2825003         1.24031666E-30
   13.4475002        -2.17420278E-29
   13.6125002        -2.07806231E-29
   13.7775002         3.13142788E-29
   13.9425001         1.51506625E-28
   14.1075001         3.08481062E-28
   14.2725000         4.17560871E-28
   14.4375000         3.80864467E-28
   14.6025000         1.34702128E-28
   14.7674999        -3.36025207E-28
   14.9324999        -9.37295793E-28
   15.0974998        -1.50301865E-27
   15.2624998        -1.76762813E-27
   15.4274998        -1.47915975E-27
   15.5924997        -4.41411588E-28
   15.7574997         1.33900578E-27
   15.9224997         3.52020435E-27
   16.0874996         5.35969663E-27
   16.2525005         5.84404876E-27
   16.4174995         4.04388627E-27
   16.5825005        -3.55370306E-28
   16.7474995        -6.54063682E-27
   16.9125004        -1.23756722E-26
   17.0774994        -1.48047421E-26
   17.2425003        -1.09278683E-26
   17.4074993         4.61383289E-28
   17.5725002         1.74860726E-26
   17.7374992         3.46720238E-26
   17.9025002         4.39768908E-26
   18.0674992         3.74804703E-26
   18.2325001         1.10892789E-26
   18.3974991        -3.21848686E-26
   18.5625000        -8.11221044E-26
   18.7275009        -1.18692505E-25
   18.8924999        -1.27964788E-25
   19.0575008        -9.96946820E-26
   19.2224998        -3.82151247E-26
   19.3875008         3.80487706E-26
   19.5524998         1.03523942E-25
   19.7175007         1.38575806E-25
   19.8824997         1.43405446E-25
   20.0475006         1.44778816E-25
   20.2124996         1.88378530E-25
   20.3775005         3.14684504E-25
   20.5424995         5.24704076E-25
   20.7075005         7.50305033E-25
   20.8724995         8.47901030E-25
   21.0375004         6.30017500E-25
   21.2024994        -6.39819381E-26
   21.3675003        -1.27546384E-24
   21.5324993        -2.84661187E-24
   21.6975002        -4.39330916E-24
   21.8624992        -5.36035324E-24
   22.0275002        -5.16155043E-24
   22.1924992        -3.37235276E-24
   22.3575001         8.57238875E-26
   22.5224991         4.83742878E-24
   22.6875000         1.00710772E-23
   22.8525009         1.46855813E-23
   23.0174999         1.75223820E-23
   23.1825008         1.76047832E-23
   23.3474998         1.43097175E-23
   23.5125008         7.43723468E-24
   23.6774998        -2.79613424E-24
   23.8425007        -1.57654420E-23
   24.0074997        -3.03686457E-23
   24.1725006        -4.48597997E-23
   24.3374996        -5.66632919E-23
   24.5025005        -6.23452803E-23
   24.6674995        -5.79506435E-23
   24.8325005        -3.98365890E-23
   24.9974995        -5.94744877E-24
   25.1625004         4.27618020E-23
   25.3274994         1.01232690E-22
   25.4925003         1.60053781E-22
   25.6574993         2.06392380E-22
   25.8225002         2.26102984E-22
   25.9874992         2.06616239E-22
   26.1525002         1.39941993E-22
   26.3174992         2.50997901E-23
   26.4825001        -1.30471283E-22
   26.6474991        -3.10598091E-22
   26.8125000        -4.90950020E-22
   26.9775009        -6.40309587E-22
   27.1424999        -7.22683932E-22
   27.3075008        -7.00878857E-22
   27.4724998        -5.42382085E-22
   27.6375008        -2.27979388E-22
   27.8024998         2.37700351E-22
   27.9675007         8.16236474E-22
   28.1324997         1.43005270E-21
   28.2975006         1.96593104E-21
   28.4624996         2.29011274E-21
   28.6275005         2.27430644E-21
   28.7924995         1.82776017E-21
   28.9575005         9.27191010E-22
   29.1224995        -3.64405750E-22
   29.2875004        -1.89651451E-21
   29.4524994        -3.44868521E-21
   29.6175003        -4.76252913E-21
   29.7824993        -5.58004045E-21
   29.9475002        -5.68052997E-21
   30.1124992        -4.91234939E-21
   30.2775002        -3.22059157E-21
   30.4424992        -6.74302045E-22
   30.6075001         2.50669411E-21
   30.7724991         5.93385283E-21
   30.9375000         9.05899934E-21
   31.1025009         1.12318663E-20
   31.2674999         1.18187122E-20
   31.4325008         1.03714926E-20
   31.5974998         6.80720450E-21
   31.7625008         1.53330781E-21
   31.9274998        -4.54718995E-21
   32.0924988        -1.01892148E-20
   32.2574997        -1.41007880E-20
   32.4225006        -1.53012726E-20
   32.5875015        -1.34217018E-20
   32.7524986        -8.82954477E-21
   32.9174995        -2.51692320E-21
   33.0825005         4.21579385E-21
   33.2475014         1.01562649E-20
   33.4124985         1.44878164E-20
   33.5774994         1.68709496E-20
   33.7425003         1.72659235E-20
   33.9075012         1.56000884E-20
   34.0724983         1.14832290E-20
   34.2374992         4.18126148E-21
   34.4025002        -7.04990607E-21
   34.5675011        -2.23543202E-20
   34.7324982        -4.06540401E-20
   34.8974991        -5.93509844E-20
   35.0625000        -7.45997553E-20
   35.2275009        -8.21581828E-20
   35.3925018        -7.85371738E-20
   35.5574989        -6.19807790E-20
   35.7224998        -3.28299616E-20
   35.8875008         6.90517612E-21
   36.0525017         5.45354168E-20
   36.2174988         1.07660555E-19
   36.3824997         1.64442511E-19
   36.5475006         2.22794765E-19
   36.7125015         2.78681982E-19
   36.8774986         3.24357939E-19
   37.0424995         3.47722974E-19
   37.2075005         3.33786066E-19
   37.3725014         2.68449241E-19
   37.5374985         1.43738800E-19
   37.7024994        -3.73371557E-20
   37.8675003        -2.58422571E-19
   38.0325012        -4.91442116E-19
   38.1974983        -7.02310875E-19
   38.3624992        -8.59139718E-19
   38.5275002        -9.40141431E-19
   38.6925011        -9.38306538E-19
   38.8574982        -8.61070306E-19
   39.0224991        -7.25189243E-19
   39.1875000        -5.49078458E-19
   39.3525009        -3.45929414E-19
   39.5175018        -1.20519440E-19
   39.6824989         1.29233154E-19
   39.8474998         4.07255240E-19
   40.0125008         7.13915702E-19
   40.1775017         1.04337791E-18
   40.3424988         1.38509057E-18
   40.5074997         1.72801959E-18
   40.6725006         2.06384437E-18
   40.8375015         2.38494555E-18
   41.0024986         2.67536701E-18
   41.1674995         2.89727868E-18
   41.3325005         2.97989086E-18
   41.4975014         2.81975717E-18
   41.6624985         2.29912204E-18
   41.8274994         1.32234096E-18
   41.9925003        -1.38447145E-19
   42.1575012        -2.00445094E-18
   42.3224983        -4.07617607E-18
   42.4874992        -6.05665243E-18
   42.6525002        -7.61225697E-18
   42.8175011        -8.45683485E-18
   42.9824982        -8.43354227E-18
   43.1474991        -7.56605480E-18
   43.3125000        -6.05880062E-18
   43.4775009        -4.24253616E-18
   43.6425018        -2.48096281E-18
   43.8074989        -1.06832630E-18
   43.9724998        -1.51395610E-19
   44.1375008         3.00338269E-19
   44.3025017         4.70672593E-19
   44.4674988         6.33310725E-19
   44.6324997         1.07601360E-18
   44.7975006         2.03936458E-18
   44.9625015         3.68550529E-18
   45.1274986         6.09419981E-18
   45.2924995         9.26889625E-18
   45.4575005         1.31319770E-17
   45.6225014         1.74983772E-17
   45.7874985         2.20357375E-17
   45.9524994         2.62379027E-17
   46.1175003         2.94442946E-17
   46.2825012         3.09263409E-17
   46.4474983         3.00345178E-17
   46.6124992         2.63671612E-17
   46.7775002         1.99004932E-17
   46.9425011         1.10215753E-17
   47.1074982         4.34626078E-19
   47.2724991        -1.10394532E-17
   47.4375000        -2.27027610E-17
   47.6025009        -3.41641740E-17
   47.7675018        -4.53819574E-17
   47.9324989        -5.65290135E-17
   48.0974998        -6.77147983E-17
   48.2625008        -7.86654983E-17
   48.4275017        -8.84982604E-17
   48.5924988        -9.57079997E-17
   48.7574997        -9.84198882E-17
   48.9225006        -9.48650100E-17
   49.0875015        -8.39480854E-17
   49.2524986        -6.57261105E-17
   49.4174995        -4.16260511E-17
   49.5825005        -1.42999295E-17
   49.7475014         1.28827268E-17
   49.9124985         3.65993308E-17
   50.0774994         5.44196202E-17
   50.2425003         6.55372354E-17
   50.4075012         7.12228712E-17
   50.5724983         7.48948716E-17
   50.7374992         8.17712902E-17
   50.9025002         9.81182253E-17
   51.0675011         1.30149471E-16
   51.2324982         1.82666639E-16
   51.3974991         2.57583010E-16
   51.5625000         3.52548506E-16
   51.7275009         4.59976954E-16
   51.8925018         5.66827831E-16
   52.0574989         6.55461517E-16
   52.2224998         7.05727470E-16
   52.3875008         6.98161930E-16
   52.5525017         6.17815138E-16
   52.7174988         4.57894047E-16
   52.8824997         2.22240296E-16
   53.0475006        -7.42542632E-17
   53.2125015        -4.07794616E-16
   53.3774986        -7.50270233E-16
   53.5424995        -1.07542321E-15
   53.7075005        -1.36512933E-15
   53.8725014        -1.61402636E-15
   54.0374985        -1.83088014E-15
   54.2024994        -2.03571430E-15
   54.3675003        -2.25270022E-15
   54.5325012        -2.49991377E-15
   54.6974983        -2.77800273E-15
   54.8624992        -3.06039357E-15
   55.0275002        -3.28768406E-15
   55.1925011        -3.36836268E-15
   55.3574982        -3.18699937E-15
   55.5224991        -2.61978905E-15
   55.6875000        -1.55596014E-15
   55.8525009         7.76800747E-17
   56.0175018         2.29274666E-15
   56.1824989         5.02005172E-15
   56.3474998         8.09928415E-15
   56.5125008         1.12810397E-14
   56.6775017         1.42431572E-14
   56.8424988         1.66212598E-14
   57.0074997         1.80508583E-14
   57.1725006         1.82159246E-14
   57.3375015         1.68967928E-14
   57.5024986         1.40093998E-14
   57.6674995         9.62839885E-15
   57.8325005         3.98882469E-15
   57.9975014        -2.53552769E-15
   58.1624985        -9.47472759E-15
   58.3274994        -1.63199549E-14
   58.4925003        -2.25860065E-14
   58.6575012        -2.78684004E-14
   58.8224983        -3.18851594E-14
   58.9874992        -3.44959961E-14
   59.1525002        -3.56958488E-14
   59.3175011        -3.55842878E-14
   59.4824982        -3.43170350E-14
   59.6474991        -3.20491145E-14
   59.8125000        -2.88811774E-14
   59.9775009        -2.48201457E-14
   60.1425018        -1.97633759E-14
   60.3074989        -1.35115629E-14
   60.4724998        -5.81062484E-15
   60.6375008         3.58258218E-15
   60.8025017         1.48207760E-14
   60.9674988         2.78863558E-14
   61.1324997         4.25256415E-14
   61.2975006         5.82104826E-14
   61.4625015         7.41364977E-14
   61.6274986         8.92614636E-14
   61.7924995         1.02381049E-13
   61.9575005         1.12232909E-13
   62.1225014         1.17615390E-13
   62.2874985         1.17505167E-13
   62.4524994         1.11158207E-13
   62.6175003         9.81810255E-14
   62.7825012         7.85642710E-14
   62.9474983         5.26759592E-14
   63.1124992         2.12179263E-14
   63.2775002        -1.48449825E-14
   63.4425011        -5.43688731E-14
   63.6074982        -9.61113784E-14
   63.7724991        -1.38791688E-13
   63.9375000        -1.81116691E-13
   64.1025009        -2.21765043E-13
   64.2675018        -2.59331375E-13
   64.4325027        -2.92242277E-13
   64.5975037        -3.18665667E-13
   64.7624969        -3.36442761E-13
   64.9274979        -3.43072928E-13
   65.0924988        -3.35779744E-13
   65.2574997        -3.11675409E-13
   65.4225006        -2.68027462E-13
   65.5875015        -2.02614523E-13
   65.7525024        -1.14141444E-13
   65.9175034        -2.66994272E-15
   66.0824966         1.29988495E-13
   66.2474976         2.79974964E-13
   66.4124985         4.41235888E-13
   66.5774994         6.05572125E-13
   66.7425003         7.62915772E-13
   66.9075012         9.01844680E-13
   67.0725021         1.01031716E-12
   67.2375031         1.07658218E-12
   67.4024963         1.09018990E-12
   67.5674973         1.04300834E-12
   67.7324982         9.30136719E-13
   67.8974991         7.50611541E-13
   68.0625000         5.07819264E-13
   68.2275009         2.09560708E-13
   68.3925018        -1.32242145E-13
   68.5575027        -5.02166776E-13
   68.7225037        -8.82167007E-13
   68.8874969        -1.25261216E-12
   69.0524979        -1.59338775E-12
   69.2174988        -1.88496527E-12
   69.3824997        -2.10936975E-12
   69.5475006        -2.25100299E-12
   69.7125015        -2.29730774E-12
   69.8775024        -2.23928515E-12
   70.0425034        -2.07188346E-12
   70.2074966        -1.79429019E-12
   70.3724976        -1.41015173E-12
   70.5374985        -9.27732283E-13
   70.7024994        -3.60013207E-13
   70.8675003         2.75288120E-13
   71.0325012         9.55821143E-13
   71.1975021         1.65488532E-12
   71.3625031         2.34196538E-12
   71.5274963         2.98359124E-12
   71.6924973         3.54458064E-12
   71.8574982         3.98968142E-12
   72.0224991         4.28557146E-12
   72.1875000         4.40311849E-12
   72.3525009         4.31971559E-12
   72.5175018         4.02147543E-12
   72.6825027         3.50502917E-12
   72.8475037         2.77871866E-12
   73.0124969         1.86300866E-12
   73.1774979         7.90047715E-13
   73.3424988        -3.97597997E-13
   73.5074997        -1.64892449E-12
   73.6725006        -2.90700125E-12
   73.8375015        -4.11180855E-12
   74.0025024        -5.20319508E-12
   74.1675034        -6.12378074E-12
   74.3324966        -6.82167517E-12
   74.4974976        -7.25291528E-12
   74.6624985        -7.38354863E-12
   74.8274994        -7.19132002E-12
   74.9925003        -6.66692266E-12
   75.1575012        -5.81477835E-12
   75.3225021        -4.65334628E-12
   75.4875031        -3.21496540E-12
   75.6524963        -1.54525362E-12
   75.8174973         2.97902870E-13
   75.9824982         2.24574656E-12
   76.1474991         4.22042219E-12
   76.3125000         6.13716716E-12
   76.4775009         7.90695807E-12
   76.6425018         9.43966953E-12
   76.8075027         1.06477613E-11
   76.9725037         1.14504734E-11
   77.1374969         1.17783994E-11
   77.3024979         1.15782505E-11
   77.4674988         1.08174945E-11
   77.6324997         9.48853583E-12
   77.7975006         7.61202993E-12
   77.9625015         5.23894773E-12
   78.1275024         2.45101443E-12
   78.2925034        -6.40764948E-13
   78.4574966        -3.89969610E-12
   78.6224976        -7.16913551E-12
   78.7874985        -1.02802159E-11
   78.9524994        -1.30611997E-11
   79.1175003        -1.53478810E-11
   79.2825012        -1.69942289E-11
   79.4475021        -1.78824004E-11
   79.6125031        -1.79311982E-11
   79.7774963        -1.71021617E-11
   79.9424973        -1.54027208E-11
   80.1074982        -1.28861219E-11
   80.2724991        -9.64825702E-12
   80.4375000        -5.82179140E-12
   80.6025009        -1.56832067E-12
   80.7675018         2.93058546E-12
   80.9325027         7.48259094E-12
   81.0975037         1.18932858E-11
   81.2624969         1.59738594E-11
   81.4274979         1.95474852E-11
   81.5924988         2.24545226E-11
   81.7574997         2.45567386E-11
   81.9225006         2.57409597E-11
   82.0875015         2.59225003E-11
   82.2525024         2.50485622E-11
   82.4175034         2.31015276E-11
   82.5824966         2.01018958E-11
   82.7474976         1.61103145E-11
   82.9124985         1.12281512E-11
   83.0774994         5.59612122E-12
   83.2425003        -6.09369163E-13
   83.4075012        -7.18208132E-12
   83.5725021        -1.38937065E-11
   83.7375031        -2.05028546E-11
   83.9024963        -2.67645489E-11
   84.0674973        -3.24393637E-11
   84.2324982        -3.73014605E-11
   84.3974991        -4.11450596E-11
   84.5625000        -4.37890800E-11
   84.7275009        -4.50800300E-11
   84.8925018        -4.48935368E-11
   85.0575027        -4.31351690E-11
   85.2225037        -3.97414324E-11
   85.3874969        -3.46818789E-11
   85.5524979        -2.79630919E-11
   85.7174988        -1.96351893E-11
   85.8824997        -9.80076090E-12
   86.0475006         1.37447323E-12
   86.2125015         1.36506648E-11
   86.3775024         2.67047912E-11
   86.5425034         4.01260587E-11
   86.7074966         5.34184537E-11
   86.8724976         6.60123900E-11
   87.0374985         7.72867118E-11
   87.2024994         8.66007127E-11
   87.3675003         9.33344582E-11
   87.5325012         9.69343564E-11
   87.6975021         9.69595931E-11
   87.8625031         9.31245706E-11
   88.0274963         8.53324147E-11
   88.1924973         7.36951750E-11
   88.3574982         5.85376747E-11
   88.5224991         4.03832766E-11
   88.6875000         1.99222114E-11
   88.8525009        -2.03513855E-12
   89.0175018        -2.46156220E-11
   89.1825027        -4.69455412E-11
   89.3475037        -6.82109924E-11
   89.5124969        -8.77097700E-11
   89.6774979        -1.04888979E-10
   89.8424988        -1.19364504E-10
   90.0074997        -1.30920511E-10
   90.1725006        -1.39490169E-10
   90.3375015        -1.45121068E-10
   90.5025024        -1.47931029E-10
   90.6675034        -1.48061355E-10
   90.8324966        -1.45634449E-10
   90.9974976        -1.40721643E-10
   91.1624985        -1.33325864E-10
   91.3274994        -1.23380070E-10
   91.4925003        -1.10761351E-10
   91.6575012        -9.53168655E-11
   91.8225021        -7.68972594E-11
   91.9875031        -5.53920937E-11
   92.1524963        -3.07623753E-11
   92.3174973        -3.06622588E-12
   92.4824982         2.75243509E-11
   92.6474991         6.07161890E-11
   92.8125000         9.60956592E-11
   92.9775009         1.33135253E-10
   93.1425018         1.71202816E-10
   93.3075027         2.09570791E-10
   93.4725037         2.47422666E-10
   93.6374969         2.83855800E-10
   93.8024979         3.17879945E-10
   93.9674988         3.48413381E-10
   94.1324997         3.74279774E-10
   94.2975006         3.94209942E-10
   94.4625015         4.06854550E-10
   94.6275024         4.10812800E-10
   94.7925034         4.04681400E-10
   94.9574966         3.87126359E-10
   95.1224976         3.56975532E-10
   95.2874985         3.13326837E-10
   95.4524994         2.55662796E-10
   95.6175003         1.83958848E-10
   95.7825012         9.87721571E-11
   95.9475021         1.29804869E-12
   96.1125031        -1.06616653E-10
   96.2774963        -2.22509094E-10
   96.4424973        -3.43385737E-10
   96.6074982        -4.65852634E-10
   96.7724991        -5.86280136E-10
   96.9375000        -7.00987213E-10
   97.1025009        -8.06426648E-10
   97.2675018        -8.99353592E-10
   97.4325027        -9.76957071E-10
   97.5975037        -1.03694098E-09
   97.7624969        -1.07754672E-09
   97.9274979        -1.09751397E-09
   98.0924988        -1.09599008E-09
   98.2574997        -1.07240128E-09
   98.4225006        -1.02630981E-09
   98.5875015        -9.57281587E-10
   98.7525024        -8.64790961E-10
   98.9175034        -7.48182127E-10
   99.0824966        -6.06701911E-10
   99.2474976        -4.39605657E-10
   99.4124985        -2.46331455E-10
   99.5774994        -2.67238853E-11
   99.7425003         2.18713450E-10
   99.9075012         4.88565799E-10
   100.072502         7.80282339E-10
   100.237503         1.09000253E-09
   100.402496         1.41245604E-09
   100.567497         1.74094539E-09
   100.732498         2.06741890E-09
   100.897499         2.38262721E-09
   101.062500         2.67635381E-09
   101.227501         2.93770297E-09
   101.392502         3.15542548E-09
   101.557503         3.31826899E-09
   101.722504         3.41533424E-09
   101.887497         3.43643558E-09
   102.052498         3.37246053E-09
   102.217499         3.21573013E-09
   102.382500         2.96036240E-09
   102.547501         2.60264432E-09
   102.712502         2.14140106E-09
   102.877502         1.57835633E-09
   103.042503         9.18459697E-10
   103.207497         1.70151407E-10
   103.372498        -6.54468757E-10
   103.537498        -1.53960755E-09
   103.702499        -2.46591636E-09
   103.867500        -3.41082607E-09
   104.032501        -4.34909486E-09
   104.197502        -5.25356914E-09
   104.362503        -6.09612849E-09
   104.527496        -6.84878021E-09
   104.692497        -7.48482343E-09
   104.857498        -7.98002020E-09
   105.022499        -8.31367597E-09
   105.187500        -8.46954862E-09
   105.352501        -8.43653414E-09
   105.517502        -8.20905832E-09
   105.682503        -7.78718157E-09
   105.847504        -7.17642035E-09
   106.012497        -6.38731379E-09
   106.177498        -5.43481082E-09
   106.342499        -4.33751834E-09
   106.507500        -3.11689519E-09
   106.672501        -1.79643977E-09
   106.837502        -4.00924238E-10
   107.002502         1.04429421E-09
   107.167503         2.51387133E-09
   107.332497         3.98299393E-09
   107.497498         5.42782841E-09
   107.662498         6.82593670E-09
   107.827499         8.15666823E-09
   107.992500         9.40155420E-09
   108.157501         1.05446940E-08
   108.322502         1.15730998E-08
   108.487503         1.24769626E-08
   108.652496         1.32497728E-08
   108.817497         1.38882337E-08
   108.982498         1.43919090E-08
   109.147499         1.47625707E-08
   109.312500         1.50032662E-08
   109.477501         1.51170951E-08
   109.642502         1.51058313E-08
   109.807503         1.49684567E-08
   109.972504         1.46997561E-08
   110.137497         1.42891068E-08
   110.302498         1.37195908E-08
   110.467499         1.29675328E-08
   110.632500         1.20025492E-08
   110.797501         1.07881410E-08
   110.962502         9.28279498E-09
   111.127502         7.44154116E-09
   111.292503         5.21787236E-09
   111.457497         2.56586619E-09
   111.622498        -5.57614288E-10
   111.787498        -4.19079038E-09
   111.952499        -8.36503045E-09
   112.117500        -1.31031523E-08
   112.282501        -1.84180458E-08
   112.447502        -2.43115696E-08
   112.612503        -3.07737338E-08
   112.777496        -3.77821294E-08
   112.942497        -4.53015225E-08
   113.107498        -5.32836424E-08
   113.272499        -6.16671230E-08
   113.437500        -7.03776735E-08
   113.602501        -7.93284300E-08
   113.767502        -8.84206486E-08
   113.932503        -9.75448060E-08
   114.097504        -1.06582128E-07
   114.262497        -1.15406650E-07
   114.427498        -1.23887773E-07
   114.592499        -1.31893387E-07
   114.757500        -1.39293277E-07
   114.922501        -1.45962858E-07
   115.087502        -1.51786850E-07
   115.252502        -1.56662949E-07
   115.417503        -1.60504925E-07
   115.582497        -1.63245218E-07
   115.747498        -1.64836848E-07
   115.912498        -1.65254463E-07
   116.077499        -1.64494466E-07
   116.242500        -1.62574409E-07
   116.407501        -1.59531709E-07
   116.572502        -1.55421645E-07
   116.737503        -1.50315273E-07
   116.902496        -1.44296735E-07
   117.067497        -1.37460844E-07
   117.232498        -1.29910546E-07
   117.397499        -1.21754496E-07
   117.562500        -1.13105017E-07
   117.727501        -1.04076065E-07
   117.892502        -9.47814840E-08
   118.057503        -8.53331912E-08
   118.222504        -7.58394307E-08
   118.387497        -6.64029471E-08
   118.552498        -5.71190384E-08
   118.717499        -4.80737974E-08
   118.882500        -3.93425097E-08
   119.047501        -3.09884811E-08
   119.212502        -2.30624053E-08
   119.377502        -1.56024829E-08
   119.542503        -8.63535998E-09
   119.707497        -2.17788498E-09
   119.872498         3.76029075E-09
   120.037498         9.17346377E-09
   120.202499         1.40561465E-08
   120.367500         1.83993567E-08
   120.532501         2.21872156E-08
   120.697502         2.53943533E-08
   120.862503         2.79844059E-08
   121.027496         2.99098701E-08
   121.192497         3.11135366E-08
   121.357498         3.15313677E-08
   121.522499         3.10967714E-08
   121.687500         2.97458911E-08
   121.852501         2.74235976E-08
   122.017502         2.40893847E-08
   122.182503         1.97228474E-08
   122.347504         1.43281138E-08
   122.512497         7.93682009E-09
   122.677498         6.09480244E-10
   122.842499        -7.56481722E-09
   123.007500        -1.64703060E-08
   123.172501        -2.59676796E-08
   123.337502        -3.58982319E-08
   123.502502        -4.60885339E-08
   123.667503        -5.63552511E-08
   123.832497        -6.65097275E-08
   123.997498        -7.63620491E-08
   124.162498        -8.57243947E-08
   124.327499        -9.44138847E-08
   124.492500        -1.02254901E-07
   124.657501        -1.09081370E-07
   124.822502        -1.14739237E-07
   124.987503        -1.19089272E-07
   125.152496        -1.22010462E-07
   125.317497        -1.23403595E-07
   125.482498        -1.23195264E-07
   125.647499        -1.21341216E-07
   125.812500        -1.17829345E-07
   125.977501        -1.12681157E-07
   126.142502        -1.05951699E-07
   126.307503        -9.77273444E-08
   126.472504        -8.81215314E-08
   126.637497        -7.72684601E-08
   126.802498        -6.53152838E-08
   126.967499        -5.24135650E-08
   127.132500        -3.87106809E-08
   127.297501        -2.43424019E-08
   127.462502        -9.42724210E-09
   127.627502         5.93657434E-09
   127.792503         2.16711982E-08
   127.957497         3.77162692E-08
   128.122498         5.40234453E-08
   128.287506         7.05489711E-08
   128.452499         8.72453256E-08
   128.617493         1.04053065E-07
   128.782501         1.20893873E-07
   128.947495         1.37665765E-07
   129.112503         1.54241150E-07
   129.277496         1.70467871E-07
   129.442505         1.86173125E-07
   129.607498         2.01169996E-07
   129.772507         2.15265487E-07
   129.937500         2.28269428E-07
   130.102493         2.40003232E-07
   130.267502         2.50307352E-07
   130.432495         2.59047255E-07
   130.597504         2.66116672E-07
   130.762497         2.71438751E-07
   130.927505         2.74965316E-07
   131.092499         2.76674768E-07
   131.257507         2.76569381E-07
   131.422501         2.74673226E-07
   131.587494         2.71030757E-07
   131.752502         2.65706973E-07
   131.917496         2.58788504E-07
   132.082504         2.50385966E-07
   132.247498         2.40636297E-07