  -30.00000        9.8404830E-18
  -29.85750        9.8575444E-18
  -29.71500        9.8833773E-18
  -29.57250        9.9064540E-18
  -29.43000        9.9186673E-18
  -29.28750        9.9198593E-18
  -29.14500        9.9175299E-18
  -29.00250        9.9219380E-18
  -28.86000        9.9395933E-18
  -28.71750        9.9690591E-18
  -28.57500        1.0001610E-17
  -28.43250        1.0026344E-17
  -28.29000        1.0036667E-17
  -28.14750        1.0034238E-17
  -28.00500        1.0028000E-17
  -27.86250        1.0028878E-17
  -27.72000        1.0043319E-17
  -27.57750        1.0069540E-17
  -27.43500        1.0098717E-17
  -27.29250        1.0120367E-17
  -27.15000        1.0128662E-17
  -27.00750        1.0125885E-17
  -26.86500        1.0120967E-17
  -26.72250        1.0124009E-17
  -26.58000        1.0140152E-17
  -26.43750        1.0166459E-17
  -26.29500        1.0193728E-17
  -26.15250        1.0212078E-17
  -26.01000        1.0216951E-17
  -25.86750        1.0211871E-17
  -25.72500        1.0206308E-17
  -25.58250        1.0209945E-17
  -25.44000        1.0226830E-17
  -25.29750        1.0252933E-17
  -25.15500        1.0278602E-17
  -25.01250        1.0294395E-17
  -24.87000        1.0296790E-17
  -24.72750        1.0290282E-17
  -24.58500        1.0284638E-17
  -24.44250        1.0288961E-17
  -24.30000        1.0306191E-17
  -24.15750        1.0331354E-17
  -24.01500        1.0354632E-17
  -23.87250        1.0367388E-17
  -23.73000        1.0367462E-17
  -23.58750        1.0360529E-17
  -23.44500        1.0356672E-17
  -23.30250        1.0364239E-17
  -23.16000        1.0384708E-17
  -23.01750        1.0411685E-17
  -22.87500        1.0434669E-17
  -22.73250        1.0445327E-17
  -22.59000        1.0442503E-17
  -22.44750        1.0432907E-17
  -22.30500        1.0427085E-17
  -22.16250        1.0433069E-17
  -22.02000        1.0451552E-17
  -21.87750        1.0475500E-17
  -21.73500        1.0494449E-17
  -21.59250        1.0500880E-17
  -21.45000        1.0494834E-17
  -21.30750        1.0483931E-17
  -21.16500        1.0478785E-17
  -21.02250        1.0486549E-17
  -20.88000        1.0506492E-17
  -20.73750        1.0530303E-17
  -20.59500        1.0546976E-17
  -20.45250        1.0549361E-17
  -20.31000        1.0538457E-17
  -20.16750        1.0522876E-17
  -20.02500        1.0513767E-17
  -19.88250        1.0518260E-17
  -19.74000        1.0535344E-17
  -19.59750        1.0556634E-17
  -19.45500        1.0571572E-17
  -19.31250        1.0573887E-17
  -19.17000        1.0565445E-17
  -19.02750        1.0555139E-17
  -18.88500        1.0553485E-17
  -18.74250        1.0566182E-17
  -18.60000        1.0590499E-17
  -18.45750        1.0616695E-17
  -18.31500        1.0633628E-17
  -18.17250        1.0635214E-17
  -18.03000        1.0623888E-17
  -17.88750        1.0609020E-17
  -17.74500        1.0601253E-17
  -17.60250        1.0606191E-17
  -17.46000        1.0621196E-17
  -17.31750        1.0637220E-17
  -17.17500        1.0644494E-17
  -17.03250        1.0638652E-17
  -16.89000        1.0623542E-17
  -16.74750        1.0609066E-17
  -16.60500        1.0605322E-17
  -16.46250        1.0616594E-17
  -16.32000        1.0638799E-17
  -16.17750        1.0661929E-17
  -16.03500        1.0675993E-17
  -15.89250        1.0676899E-17
  -15.75000        1.0668737E-17
  -15.60750        1.0661130E-17
  -15.46500        1.0663277E-17
  -15.32250        1.0678319E-17
  -15.18000        1.0701415E-17
  -15.03750        1.0722677E-17
  -14.89500        1.0733171E-17
  -14.75250        1.0730326E-17
  -14.61000        1.0719475E-17
  -14.46750        1.0710598E-17
  -14.32500        1.0712261E-17
  -14.18250        1.0726414E-17
  -14.04000        1.0747213E-17
  -13.89750        1.0764582E-17
  -13.75500        1.0770343E-17
  -13.61250        1.0763212E-17
  -13.47000        1.0749621E-17
  -13.32750        1.0739871E-17
  -13.18500        1.0741945E-17
  -13.04250        1.0756725E-17
  -12.90000        1.0777502E-17
  -12.75750        1.0794091E-17
  -12.61500        1.0799029E-17
  -12.47250        1.0792116E-17
  -12.33000        1.0780523E-17
  -12.18750        1.0774399E-17
  -12.04500        1.0780644E-17
  -11.90250        1.0798622E-17
  -11.76000        1.0820441E-17
  -11.61750        1.0835666E-17
  -11.47500        1.0837617E-17
  -11.33250        1.0827469E-17
  -11.19000        1.0813639E-17
  -11.04750        1.0806809E-17
  -10.90500        1.0813573E-17
  -10.76250        1.0832518E-17
  -10.62000        1.0855106E-17
  -10.47750        1.0870843E-17
  -10.33500        1.0873608E-17
  -10.19250        1.0865328E-17
  -10.05000        1.0854784E-17
  -9.907500        1.0852240E-17
  -9.765000        1.0863150E-17
  -9.622500        1.0884750E-17
  -9.480000        1.0907596E-17
  -9.337500        1.0921175E-17
  -9.195000        1.0920213E-17
  -9.052500        1.0907895E-17
  -8.910000        1.0894046E-17
  -8.767500        1.0889344E-17
  -8.625000        1.0899023E-17
  -8.482500        1.0919819E-17
  -8.340000        1.0941995E-17
  -8.197500        1.0955199E-17
  -8.055000        1.0954652E-17
  -7.912500        1.0943933E-17
  -7.770000        1.0932721E-17
  -7.627500        1.0930860E-17
  -7.485000        1.0942332E-17
  -7.342500        1.0962784E-17
  -7.200000        1.0982098E-17
  -7.057500        1.0990462E-17
  -6.915000        1.0984295E-17
  -6.772500        1.0968482E-17
  -6.630000        1.0953545E-17
  -6.487500        1.0949484E-17
  -6.345000        1.0959955E-17
  -6.202500        1.0980263E-17
  -6.060000        1.1000334E-17
  -5.917500        1.1010862E-17
  -5.775000        1.1008884E-17
  -5.632500        1.0999469E-17
  -5.490000        1.0992502E-17
  -5.347500        1.0996570E-17
  -5.205000        1.1013630E-17
  -5.062500        1.1037721E-17
  -4.920000        1.1058473E-17
  -4.777500        1.1067299E-17
  -4.635000        1.1062520E-17
  -4.492500        1.1050348E-17
  -4.350000        1.1041127E-17
  -4.207500        1.1043128E-17
  -4.065000        1.1057630E-17
  -3.922500        1.1078255E-17
  -3.780000        1.1094917E-17
  -3.637500        1.1099996E-17
  -3.495000        1.1092960E-17
  -3.352500        1.1080664E-17
  -3.210000        1.1073145E-17
  -3.067500        1.1077490E-17
  -2.925000        1.1093494E-17
  -2.782500        1.1113765E-17
  -2.640000        1.1128213E-17
  -2.497500        1.1130188E-17
  -2.355000        1.1120563E-17
  -2.212500        1.1107256E-17
  -2.070000        1.1100480E-17
  -1.927500        1.1106583E-17
  -1.785000        1.1124213E-17
  -1.642500        1.1145128E-17
  -1.500000        1.1159176E-17
  -1.357500        1.1160429E-17
  -1.215000        1.1150758E-17
  -1.072500        1.1138681E-17
 -0.9300000        1.1134176E-17
 -0.7875000        1.1142589E-17
 -0.6450000        1.1161342E-17
 -0.5025000        1.1181454E-17
 -0.3600000        1.1192964E-17
 -0.2175000        1.1190999E-17
 -7.5000003E-02    1.1178803E-17
  6.7500003E-02    1.1165870E-17
  0.2100000        1.1162290E-17
  0.3525000        1.1172686E-17
  0.4950000        1.1193403E-17
  0.6375000        1.1214656E-17
  0.7800000        1.1226362E-17
  0.9225000        1.1224162E-17
   1.065000        1.1211998E-17
   1.207500        1.1199720E-17
   1.350000        1.1197125E-17
   1.492500        1.1208047E-17
   1.635000        1.1228044E-17
   1.777500        1.1247076E-17
   1.920000        1.1255603E-17
   2.062500        1.1250383E-17
   2.205000        1.1236525E-17
   2.347500        1.1224500E-17
   2.490000        1.1223934E-17
   2.632500        1.1237857E-17
   2.775000        1.1260874E-17
   2.917500        1.1282364E-17
   3.060000        1.1292762E-17
   3.202500        1.1289177E-17
   3.345000        1.1276998E-17
   3.487500        1.1266523E-17
   3.630000        1.1266686E-17
   3.772500        1.1279656E-17
   3.915000        1.1299538E-17
   4.057500        1.1315982E-17
   4.200000        1.1320469E-17
   4.342500        1.1311512E-17
   4.485000        1.1295628E-17
   4.627500        1.1283495E-17
   4.770000        1.1283629E-17
   4.912500        1.1297345E-17
   5.055000        1.1318060E-17
   5.197500        1.1335295E-17
   5.340000        1.1340973E-17
   5.482500        1.1334205E-17
   5.625000        1.1321712E-17
   5.767500        1.1313654E-17
   5.910000        1.1317416E-17
   6.052500        1.1333129E-17
   6.195000        1.1353610E-17
   6.337500        1.1368752E-17
   6.480000        1.1371679E-17
   6.622500        1.1362941E-17
   6.765000        1.1350204E-17
   6.907500        1.1343632E-17
   7.050000        1.1349756E-17
   7.192500        1.1367549E-17
   7.335000        1.1389071E-17
   7.477500        1.1404274E-17
   7.620000        1.1407067E-17
   7.762500        1.1398965E-17
   7.905000        1.1388102E-17
   8.047500        1.1384249E-17
   8.190000        1.1392842E-17
   8.332500        1.1411663E-17
   8.475000        1.1432177E-17
   8.617500        1.1444718E-17
   8.760000        1.1444373E-17
   8.902500        1.1433983E-17
   9.045000        1.1422421E-17
   9.187500        1.1419189E-17
   9.330000        1.1428598E-17
   9.472500        1.1447065E-17
   9.615000        1.1465196E-17
   9.757500        1.1473412E-17
   9.900000        1.1467719E-17
   10.04250        1.1452169E-17
   10.18500        1.1436468E-17
   10.32750        1.1430204E-17
   10.47000        1.1437152E-17
   10.61250        1.1453093E-17
   10.75500        1.1468482E-17
   10.89750        1.1474344E-17
   11.04000        1.1467835E-17
   11.18250        1.1454087E-17
   11.32500        1.1443198E-17
   11.46750        1.1444165E-17
   11.61000        1.1459395E-17
   11.75250        1.1483140E-17
   11.89500        1.1504789E-17
   12.03750        1.1515105E-17
   12.18000        1.1511652E-17
   12.32250        1.1500165E-17
   12.46500        1.1491041E-17
   12.60750        1.1493062E-17
   12.75000        1.1508110E-17
   12.89250        1.1530051E-17
   13.03500        1.1548455E-17
   13.17750        1.1554903E-17
   13.32000        1.1548085E-17
   13.46250        1.1534612E-17
   13.60500        1.1525057E-17
   13.74750        1.1527592E-17
   13.89000        1.1543054E-17
   14.03250        1.1564389E-17
   14.17500        1.1580840E-17
   14.31750        1.1584335E-17
   14.46000        1.1574279E-17
   14.60250        1.1557870E-17
   14.74500        1.1545783E-17
   14.88750        1.1545810E-17
   15.03000        1.1558301E-17
   15.17250        1.1576095E-17
   15.31500        1.1588967E-17
   15.45750        1.1589889E-17
   15.60000        1.1579313E-17
   15.74250        1.1564906E-17
   15.88500        1.1556915E-17
   16.02750        1.1561970E-17
   16.17000        1.1579071E-17
   16.31250        1.1600164E-17
   16.45500        1.1614948E-17
   16.59750        1.1617019E-17
   16.74000        1.1607629E-17
   16.88250        1.1594838E-17
   17.02500        1.1588574E-17
   17.16750        1.1594623E-17
   17.31000        1.1611162E-17
   17.45250        1.1629924E-17
   17.59500        1.1641262E-17
   17.73750        1.1640022E-17
   17.88000        1.1628672E-17
   18.02250        1.1615793E-17
   18.16500        1.1610863E-17
   18.30750        1.1618504E-17
   18.45000        1.1635689E-17
   18.59250        1.1653595E-17
   18.73500        1.1662981E-17
   18.87750        1.1659817E-17
   19.02000        1.1647763E-17
   19.16250        1.1635972E-17
   19.30500        1.1633562E-17
   19.44750        1.1644087E-17
   19.59000        1.1663383E-17
   19.73250        1.1682072E-17
   19.87500        1.1691221E-17
   20.01750        1.1687734E-17
   20.16000        1.1676202E-17
   20.30250        1.1666073E-17
   20.44500        1.1665878E-17
   20.58750        1.1677996E-17
   20.73000        1.1697148E-17
   20.87250        1.1713552E-17
   21.01500        1.1718855E-17
   21.15750        1.1711240E-17
   21.30000        1.1696634E-17
   21.44250        1.1685231E-17
   21.58500        1.1685432E-17
   21.72750        1.1698817E-17
   21.87000        1.1719214E-17
   22.01250        1.1736400E-17
   22.15500        1.1742247E-17
   22.29750        1.1735586E-17
   22.44000        1.1722871E-17
   22.58250        1.1714232E-17
   22.72500        1.1717280E-17
   22.86750        1.1732424E-17
   23.01000        1.1752513E-17
   23.15250        1.1767054E-17
   23.29500        1.1768486E-17
   23.43750        1.1756739E-17
   23.58000        1.1739339E-17
   23.72250        1.1726987E-17
   23.86500        1.1727238E-17
   24.00750        1.1740091E-17
   24.15000        1.1758090E-17
   24.29250        1.1770889E-17
   24.43500        1.1771523E-17
   24.57750        1.1760607E-17
   24.72000        1.1745962E-17
   24.86250        1.1737886E-17
   25.00500        1.1742936E-17
   25.14750        1.1759956E-17
   25.29000        1.1780739E-17
   25.43250        1.1794921E-17
   25.57500        1.1796162E-17
   25.71750        1.1785918E-17
   25.86000        1.1772531E-17
   26.00250        1.1766214E-17
   26.14500        1.1772947E-17
   26.28750        1.1790938E-17
   26.43000        1.1811772E-17
   26.57250        1.1825503E-17
   26.71500        1.1826621E-17
   26.85750        1.1817297E-17
   27.00000        1.1805977E-17
   27.14250        1.1802186E-17
   27.28500        1.1810717E-17
   27.42750        1.1828712E-17
   27.57000        1.1847375E-17
   27.71250        1.1857287E-17
   27.85500        1.1854089E-17
   27.99750        1.1841098E-17
   28.14000        1.1827312E-17
   28.28250        1.1821990E-17
   28.42500        1.1829120E-17
   28.56750        1.1845096E-17
   28.71000        1.1860992E-17
   28.85250        1.1868044E-17
   28.99500        1.1862998E-17
   29.13750        1.1850084E-17
   29.28000        1.1838449E-17
   29.42250        1.1836581E-17
   29.56500        1.1847149E-17
   29.70750        1.1865379E-17
   29.85000        1.1881941E-17
   29.99250        1.1888607E-17
   30.13500        1.1883250E-17
   30.27750        1.1871128E-17
   30.42000        1.1861686E-17
   30.56250        1.1862800E-17
   30.70500        1.1875950E-17
   30.84750        1.1895259E-17
   30.99000        1.1910986E-17
   31.13250        1.1915378E-17
   31.27500        1.1907340E-17
   31.41750        1.1893094E-17
   31.56000        1.1882420E-17
   31.70250        1.1882746E-17
   31.84500        1.1894666E-17
   31.98750        1.1911587E-17
   32.13000        1.1923751E-17
   32.27250        1.1924188E-17
   32.41500        1.1913011E-17
   32.55750        1.1897431E-17
   32.70000        1.1887456E-17
   32.84250        1.1889857E-17
   32.98500        1.1904029E-17
   33.12750        1.1922261E-17
   33.27000        1.1934268E-17
   33.41250        1.1933305E-17
   33.55500        1.1920164E-17
   33.69750        1.1902682E-17
   33.84000        1.1891046E-17
   33.98250        1.1891713E-17
   34.12500        1.1903596E-17
   34.26750        1.1918819E-17
   34.41000        1.1927571E-17
   34.55250        1.1924140E-17
   34.69500        1.1910494E-17
   34.83750        1.1895228E-17
   34.98000        1.1888510E-17
   35.12250        1.1896045E-17
   35.26500        1.1915670E-17
   35.40750        1.1938627E-17
   35.55000        1.1954757E-17
   35.69250        1.1958490E-17
   35.83500        1.1952062E-17
   35.97750        1.1944046E-17
   36.12000        1.1944094E-17
   36.26250        1.1957069E-17
   36.40500        1.1980078E-17
   36.54750        1.2004192E-17
   36.69000        1.2019776E-17
   36.83250        1.2022225E-17
   36.97500        1.2014659E-17
   37.11750        1.2005953E-17
   37.26000        1.2005326E-17
   37.40250        1.2016735E-17
   37.54500        1.2036465E-17
   37.68750        1.2055343E-17
   37.83000        1.2064232E-17
   37.97250        1.2059489E-17
   38.11500        1.2045103E-17
   38.25750        1.2030261E-17
   38.40000        1.2023818E-17
   38.54250        1.2029021E-17
   38.68500        1.2041668E-17
   38.82750        1.2052778E-17
   38.97000        1.2054142E-17
   39.11250        1.2043366E-17
   39.25500        1.2025380E-17
   39.39750        1.2009480E-17
   39.54000        1.2003742E-17
   39.68250        1.2010163E-17
   39.82500        1.2023500E-17
   39.96750        1.2034493E-17
   40.11000        1.2035500E-17
   40.25250        1.2025160E-17
   40.39500        1.2009213E-17
   40.53750        1.1997028E-17
   40.68000        1.1995908E-17
   40.82250        1.2006650E-17
   40.96500        1.2023035E-17
   41.10750        1.2035576E-17
   41.25000        1.2037234E-17
   41.39250        1.2027671E-17
   41.53500        1.2013430E-17
   41.67750        1.2003955E-17
   41.82000        1.2005852E-17
   41.96250        1.2018875E-17
   42.10500        1.2036073E-17
   42.24750        1.2048030E-17
   42.39000        1.2048632E-17
   42.53250        1.2038861E-17
   42.67500        1.2026304E-17
   42.81750        1.2020644E-17
   42.96000        1.2027833E-17
   43.10250        1.2046462E-17
   43.24500        1.2068532E-17
   43.38750        1.2084168E-17
   43.53000        1.2087475E-17
   43.67250        1.2079983E-17
   43.81500        1.2069642E-17
   43.95750        1.2065941E-17
   44.10000        1.2074102E-17
   44.24250        1.2091864E-17
   44.38500        1.2110784E-17
   44.52750        1.2121316E-17
   44.67000        1.2118591E-17
   44.81250        1.2105433E-17
   44.95500        1.2090768E-17
   45.09750        1.2084373E-17
   45.24000        1.2091083E-17
   45.38250        1.2107954E-17
   45.52500        1.2126043E-17
   45.66750        1.2135783E-17
   45.81000        1.2132682E-17
   45.95250        1.2119974E-17
   46.09500        1.2106620E-17
   46.23750        1.2101864E-17
   46.38000        1.2109649E-17
   46.52250        1.2126218E-17
   46.66500        1.2142358E-17
   46.80750        1.2148931E-17
   46.95000        1.2142362E-17
   47.09250        1.2126801E-17
   47.23500        1.2111655E-17
   47.37750        1.2105996E-17
   47.52000        1.2113185E-17
   47.66250        1.2128953E-17
   47.80500        1.2144037E-17
   47.94750        1.2149806E-17
   48.09000        1.2143451E-17
   48.23250        1.2129638E-17
   48.37500        1.2117660E-17
   48.51750        1.2115811E-17
   48.66000        1.2126388E-17
   48.80250        1.2144333E-17
   48.94500        1.2160312E-17
   49.08750        1.2166351E-17
   49.23000        1.2160629E-17
   49.37250        1.2148530E-17
   49.51500        1.2139343E-17
   49.65750        1.2140614E-17
   49.80000        1.2153569E-17
   49.94250        1.2172361E-17
   50.08500        1.2187603E-17
   50.22750        1.2192014E-17
   50.37000        1.2184781E-17
   50.51250        1.2171994E-17
   50.65500        1.2162921E-17
   50.79750        1.2164365E-17
   50.94000        1.2176561E-17
   51.08250        1.2193061E-17
   51.22500        1.2204687E-17
   51.36750        1.2205145E-17
   51.51000        1.2194876E-17
   51.65250        1.2180809E-17
   51.79500        1.2172165E-17
   51.93750        1.2174832E-17
   52.08000        1.2187759E-17
   52.22250        1.2203525E-17
   52.36500        1.2212787E-17
   52.50750        1.2209920E-17
   52.65000        1.2196423E-17
   52.79250        1.2180057E-17
   52.93500        1.2170191E-17
   53.07750        1.2172197E-17
   53.22000        1.2184260E-17
   53.36250        1.2198547E-17
   53.50500        1.2206028E-17
   53.64750        1.2202035E-17
   53.79000        1.2189187E-17
   53.93250        1.2175885E-17
   54.07500        1.2171263E-17
   54.21750        1.2179629E-17
   54.36000        1.2197763E-17
   54.50250        1.2216716E-17
   54.64500        1.2227061E-17
   54.78750        1.2224467E-17
   54.93000        1.2212232E-17
   55.07250        1.2199275E-17
   55.21500        1.2194766E-17
   55.35750        1.2202644E-17
   55.50000        1.2219279E-17
   55.64250        1.2235733E-17
   55.78500        1.2243218E-17
   55.92750        1.2238471E-17
   56.07000        1.2225820E-17
   56.21250        1.2214654E-17
   56.35500        1.2213809E-17
   56.49750        1.2226251E-17
   56.64000        1.2247226E-17
   56.78250        1.2267017E-17
   56.92500        1.2276646E-17
   57.06750        1.2273144E-17
   57.21000        1.2261213E-17
   57.35250        1.2250317E-17
   57.49500        1.2248960E-17
   57.63750        1.2259588E-17
   57.78000        1.2277154E-17
   57.92250        1.2292217E-17
   58.06500        1.2296651E-17
   58.20750        1.2288561E-17
   58.35000        1.2273423E-17
   58.49250        1.2260776E-17
   58.63500        1.2258487E-17
   58.77750        1.2268024E-17
   58.92000        1.2283592E-17
   59.06250        1.2295650E-17
   59.20500        1.2296678E-17
   59.34750        1.2285718E-17
   59.49000        1.2268979E-17
   59.63250        1.2256147E-17
   59.77500        1.2254629E-17
   59.91750        1.2265211E-17
   60.06000        1.2281696E-17
   60.20250        1.2294739E-17
   60.34500        1.2297507E-17
   60.48750        1.2289760E-17
   60.63000        1.2277877E-17
   60.77250        1.2270851E-17
   60.91500        1.2274694E-17
   61.05750        1.2288678E-17
   61.20000        1.2305673E-17
   61.34250        1.2316421E-17
   61.48500        1.2315134E-17
   61.62750        1.2303041E-17
   61.77000        1.2287723E-17
   61.91250        1.2278638E-17
   62.05500        1.2281533E-17
   62.19750        1.2295092E-17
   62.34000        1.2311858E-17
   62.48250        1.2322826E-17
   62.62500        1.2322926E-17
   62.76750        1.2314056E-17
   62.91000        1.2303841E-17
   63.05250        1.2300854E-17
   63.19500        1.2309238E-17
   63.33750        1.2325999E-17
   63.48000        1.2342653E-17
   63.62250        1.2350250E-17
   63.76500        1.2344781E-17
   63.90750        1.2329648E-17
   64.05000        1.2313733E-17
   64.19250        1.2306160E-17
   64.33500        1.2310914E-17
   64.47750        1.2324546E-17
   64.62000        1.2338339E-17
   64.76250        1.2343641E-17
   64.90500        1.2337133E-17
   65.04750        1.2322863E-17
   65.19000        1.2309791E-17
   65.33250        1.2306337E-17
   65.47500        1.2315220E-17
   65.61750        1.2331724E-17
   65.76000        1.2346461E-17
   65.90250        1.2351003E-17
   66.04500        1.2342994E-17
   66.18750        1.2327655E-17
   66.33000        1.2314768E-17
   66.47250        1.2312904E-17
   66.61500        1.2324367E-17
   66.75750        1.2343852E-17
   66.90000        1.2361649E-17
   67.04250        1.2369443E-17
   67.18500        1.2365248E-17
   67.32750        1.2354513E-17
   67.47000        1.2346744E-17
   67.61250        1.2349689E-17
   67.75500        1.2364591E-17
   67.89750        1.2385362E-17
   68.04000        1.2402188E-17
   68.18250        1.2407392E-17
   68.32500        1.2400028E-17
   68.46750        1.2386454E-17
   68.61000        1.2376517E-17
   68.75250        1.2377659E-17
   68.89500        1.2390467E-17
   69.03750        1.2408322E-17
   69.18000        1.2421364E-17
   69.32250        1.2422359E-17
   69.46500        1.2410975E-17
   69.60750        1.2393895E-17
   69.75000        1.2380756E-17
   69.89250        1.2378363E-17
   70.03500        1.2386688E-17
   70.17750        1.2399045E-17
   70.32000        1.2406314E-17
   70.46250        1.2402626E-17
   70.60500        1.2389072E-17
   70.74750        1.2373172E-17
   70.89000        1.2364418E-17
   71.03250        1.2368598E-17
   71.17500        1.2384290E-17
   71.31750        1.2403672E-17
   71.46000        1.2417113E-17
   71.60250        1.2418819E-17
   71.74500        1.2410101E-17
   71.88750        1.2398352E-17
   72.03000        1.2392386E-17
   72.17250        1.2396977E-17
   72.31500        1.2409938E-17
   72.45750        1.2423512E-17
   72.60000        1.2429195E-17
   72.74250        1.2423061E-17
   72.88500        1.2408330E-17
   73.02750        1.2393590E-17
   73.17000        1.2387716E-17
   73.31250        1.2394558E-17
   73.45500        1.2410593E-17
   73.59750        1.2426992E-17
   73.74000        1.2434842E-17
   73.88250        1.2430402E-17
   74.02500        1.2417207E-17
   74.16750        1.2403788E-17
   74.31000        1.2398380E-17
   74.45250        1.2403860E-17
   74.59500        1.2415975E-17
   74.73750        1.2425970E-17
   74.88000        1.2426009E-17
   75.02250        1.2414112E-17
   75.16500        1.2395573E-17
   75.30750        1.2379971E-17
   75.45000        1.2375535E-17
   75.59250        1.2384248E-17
   75.73500        1.2400633E-17
   75.87750        1.2414997E-17
   76.02000        1.2419180E-17
   76.16250        1.2411389E-17
   76.30500        1.2397198E-17
   76.44750        1.2386130E-17
   76.59000        1.2385872E-17
   76.73250        1.2397628E-17
   76.87500        1.2415388E-17
   77.01750        1.2429588E-17
   77.16000        1.2432930E-17
   77.30250        1.2424860E-17
   77.44500        1.2411981E-17
   77.58750        1.2404121E-17
   77.73000        1.2408418E-17
   77.87250        1.2424951E-17
   78.01500        1.2446561E-17
   78.15750        1.2462991E-17
   78.30000        1.2466868E-17
   78.44250        1.2457970E-17
   78.58500        1.2443229E-17
   78.72750        1.2432511E-17
   78.87000        1.2432678E-17
   79.01250        1.2443554E-17
   79.15500        1.2458149E-17
   79.29750        1.2467019E-17
   79.44000        1.2464091E-17
   79.58250        1.2450434E-17
   79.72500        1.2433698E-17
   79.86750        1.2423559E-17
   80.01000        1.2425899E-17
   80.15250        1.2439256E-17
   80.29500        1.2455652E-17
   80.43750        1.2465312E-17
   80.58000        1.2462456E-17
   80.72250        1.2448680E-17
   80.86500        1.2431922E-17
   81.00750        1.2421672E-17
   81.15000        1.2423313E-17
   81.29250        1.2435009E-17
   81.43500        1.2448968E-17
   81.57750        1.2456297E-17
   81.72000        1.2452458E-17
   81.86250        1.2440026E-17
   82.00500        1.2427083E-17
   82.14750        1.2422213E-17
   82.29000        1.2429187E-17
   82.43250        1.2444530E-17
   82.57500        1.2459493E-17
   82.71750        1.2465234E-17
   82.86000        1.2458098E-17
   83.00250        1.2441808E-17
   83.14500        1.2425256E-17
   83.28750        1.2417227E-17
   83.43000        1.2421251E-17
   83.57250        1.2433674E-17
   83.71500        1.2446081E-17
   83.85750        1.2450588E-17
   84.00000        1.2444737E-17
   84.14250        1.2433036E-17
   84.28500        1.2424179E-17
   84.42750        1.2425645E-17
   84.57000        1.2438963E-17
   84.71250        1.2458555E-17
   84.85500        1.2474899E-17
   84.99750        1.2480121E-17
   85.14000        1.2472684E-17
   85.28250        1.2458309E-17
   85.42500        1.2446577E-17
   85.56750        1.2445232E-17
   85.71000        1.2455624E-17
   85.85250        1.2472013E-17
   85.99500        1.2485142E-17
   86.13750        1.2487935E-17
   86.28000        1.2479825E-17
   86.42250        1.2467110E-17
   86.56500        1.2459090E-17
   86.70750        1.2462335E-17
   86.85000        1.2476537E-17
   86.99250        1.2494519E-17
   87.13500        1.2506401E-17
   87.27750        1.2505471E-17
   87.42000        1.2492243E-17
   87.56250        1.2474231E-17
   87.70500        1.2461579E-17
   87.84750        1.2461125E-17
   87.99000        1.2472461E-17
   88.13250        1.2488312E-17
   88.27500        1.2499018E-17
   88.41750        1.2498376E-17
   88.56000        1.2487352E-17
   88.70250        1.2473415E-17
   88.84500        1.2465913E-17
   88.98750        1.2470287E-17
   89.13000        1.2484630E-17
   89.27250        1.2500673E-17
   89.41500        1.2508650E-17
   89.55750        1.2503110E-17
   89.70000        1.2486208E-17
   89.84250        1.2466501E-17
   89.98500        1.2453964E-17
   90.12750        1.2454204E-17
   90.27000        1.2465318E-17
   90.41250        1.2479257E-17
   90.55500        1.2486817E-17
   90.69750        1.2483250E-17
   90.84000        1.2471098E-17
   90.98250        1.2458581E-17
   91.12500        1.2454520E-17
   91.26750        1.2462904E-17
   91.41000        1.2480379E-17
   91.55250        1.2498180E-17
   91.69500        1.2507351E-17
   91.83750        1.2504091E-17
   91.98000        1.2492004E-17
   92.12250        1.2479915E-17
   92.26500        1.2476566E-17
   92.40750        1.2485396E-17
   92.55000        1.2502522E-17
   92.69250        1.2519137E-17
   92.83500        1.2526826E-17
   92.97750        1.2522589E-17
   93.12000        1.2510545E-17
   93.26250        1.2499297E-17
   93.40500        1.2496603E-17
   93.54750        1.2504599E-17
   93.69000        1.2518486E-17
   93.83250        1.2529482E-17
   93.97500        1.2530239E-17
   94.11750        1.2519440E-17
   94.26000        1.2502756E-17
   94.40250        1.2489567E-17
   94.54500        1.2487418E-17
   94.68750        1.2497534E-17
   94.83000        1.2514116E-17
   94.97250        1.2527824E-17
   95.11500        1.2531359E-17
   95.25750        1.2523756E-17
   95.40000        1.2510803E-17
   95.54250        1.2501368E-17
   95.68500        1.2501851E-17
   95.82750        1.2512180E-17
   95.97000        1.2525782E-17
   96.11250        1.2533574E-17
   96.25500        1.2529577E-17
   96.39750        1.2514722E-17
   96.54000        1.2496529E-17
   96.68250        1.2484785E-17
   96.82500        1.2485813E-17
   96.96750        1.2498743E-17
   97.11000        1.2516045E-17
   97.25250        1.2528012E-17
   97.39500        1.2528500E-17
   97.53750        1.2518493E-17
   97.68000        1.2505351E-17
   97.82250        1.2498211E-17
   97.96500        1.2502339E-17
   98.10750        1.2515847E-17
   98.25000        1.2530780E-17
   98.39250        1.2537942E-17
   98.53500        1.2532532E-17
   98.67750        1.2517215E-17
   98.82000        1.2500716E-17
   98.96250        1.2492759E-17
   99.10500        1.2498367E-17
   99.24750        1.2514907E-17
   99.39000        1.2533657E-17