  -30.00000        4.8965759E-18
  -29.85750        4.9019232E-18
  -29.71500        4.9116996E-18
  -29.57250        4.9243174E-18
  -29.43000        4.9378299E-18
  -29.28750        4.9503033E-18
  -29.14500        4.9601960E-18
  -29.00250        4.9666418E-18
  -28.86000        4.9696043E-18
  -28.71750        4.9698591E-18
  -28.57500        4.9688148E-18
  -28.43250        4.9682056E-18
  -28.29000        4.9697218E-18
  -28.14750        4.9746501E-18
  -28.00500        4.9835978E-18
  -27.86250        4.9963533E-18
  -27.72000        5.0119155E-18
  -27.57750        5.0286870E-18
  -27.43500        5.0447868E-18
  -27.29250        5.0584249E-18
  -27.15000        5.0682609E-18
  -27.00750        5.0736732E-18
  -26.86500        5.0748850E-18
  -26.72250        5.0729221E-18
  -26.58000        5.0694082E-18
  -26.43750        5.0662434E-18
  -26.29500        5.0652281E-18
  -26.15250        5.0677075E-18
  -26.01000        5.0743122E-18
  -25.86750        5.0848364E-18
  -25.72500        5.0982876E-18
  -25.58250        5.1130921E-18
  -25.44000        5.1274143E-18
  -25.29750        5.1395304E-18
  -25.15500        5.1481753E-18
  -25.01250        5.1527951E-18
  -24.87000        5.1536591E-18
  -24.72750        5.1517996E-18
  -24.58500        5.1488014E-18
  -24.44250        5.1464729E-18
  -24.30000        5.1464787E-18
  -24.15750        5.1499980E-18
  -24.01500        5.1574868E-18
  -23.87250        5.1685835E-18
  -23.73000        5.1821848E-18
  -23.58750        5.1966675E-18
  -23.44500        5.2102213E-18
  -23.30250        5.2212124E-18
  -23.16000        5.2285144E-18
  -23.01750        5.2317375E-18
  -22.87500        5.2313082E-18
  -22.73250        5.2283853E-18
  -22.59000        5.2246258E-18
  -22.44750        5.2218514E-18
  -22.30500        5.2216806E-18
  -22.16250        5.2251974E-18
  -22.02000        5.2327334E-18
  -21.87750        5.2438002E-18
  -21.73500        5.2571877E-18
  -21.59250        5.2712126E-18
  -21.45000        5.2840575E-18
  -21.30750        5.2941433E-18
  -21.16500        5.3004468E-18
  -21.02250        5.3027054E-18
  -20.88000        5.3014663E-18
  -20.73750        5.2979756E-18
  -20.59500        5.2939216E-18
  -20.45250        5.2910914E-18
  -20.31000        5.2910066E-18
  -20.16750        5.2946152E-18
  -20.02500        5.3020954E-18
  -19.88250        5.3128218E-18
  -19.74000        5.3254901E-18
  -19.59750        5.3383883E-18
  -19.45500        5.3497488E-18
  -19.31250        5.3581195E-18
  -19.17000        5.3626669E-18
  -19.02750        5.3633560E-18
  -18.88500        5.3609629E-18
  -18.74250        5.3569259E-18
  -18.60000        5.3530538E-18
  -18.45750        5.3511584E-18
  -18.31500        5.3526837E-18
  -18.17250        5.3584078E-18
  -18.03000        5.3682740E-18
  -17.88750        5.3813885E-18
  -17.74500        5.3961880E-18
  -17.60250        5.4107369E-18
  -17.46000        5.4231078E-18
  -17.31750        5.4317580E-18
  -17.17500        5.4358368E-18
  -17.03250        5.4353587E-18
  -16.89000        5.4311988E-18
  -16.74750        5.4249243E-18
  -16.60500        5.4184822E-18
  -16.46250        5.4138136E-18
  -16.32000        5.4124719E-18
  -16.17750        5.4153194E-18
  -16.03500        5.4223650E-18
  -15.89250        5.4327717E-18
  -15.75000        5.4450355E-18
  -15.60750        5.4572947E-18
  -15.46500        5.4677044E-18
  -15.32250        5.4748103E-18
  -15.18000        5.4778373E-18
  -15.03750        5.4768443E-18
  -14.89500        5.4727043E-18
  -14.75250        5.4669289E-18
  -14.61000        5.4613549E-18
  -14.46750        5.4577658E-18
  -14.32500        5.4575263E-18
  -14.18250        5.4612950E-18
  -14.04000        5.4688881E-18
  -13.89750        5.4793085E-18
  -13.75500        5.4909486E-18
  -13.61250        5.5019083E-18
  -13.47000        5.5103819E-18
  -13.32750        5.5150170E-18
  -13.18500        5.5151908E-18
  -13.04250        5.5111338E-18
  -12.90000        5.5038911E-18
  -12.75750        5.4951200E-18
  -12.61500        5.4867688E-18
  -12.47250        5.4807015E-18
  -12.33000        5.4783353E-18
  -12.18750        5.4803710E-18
  -12.04500        5.4866663E-18
  -11.90250        5.4962764E-18
  -11.76000        5.5076613E-18
  -11.61750        5.5190053E-18
  -11.47500        5.5285960E-18
  -11.33250        5.5351746E-18
  -11.19000        5.5381934E-18
  -11.04750        5.5379171E-18
  -10.90500        5.5353607E-18
  -10.76250        5.5320694E-18
  -10.62000        5.5297909E-18
  -10.47750        5.5301036E-18
  -10.33500        5.5340819E-18
  -10.19250        5.5420559E-18
  -10.05000        5.5535202E-18
  -9.907500        5.5672109E-18
  -9.765000        5.5813309E-18
  -9.622500        5.5938908E-18
  -9.480000        5.6030894E-18
  -9.337500        5.6076662E-18
  -9.195000        5.6071488E-18
  -9.052500        5.6019492E-18
  -8.910000        5.5932820E-18
  -8.767500        5.5829294E-18
  -8.625000        5.5728945E-18
  -8.482500        5.5650127E-18
  -8.340000        5.5606125E-18
  -8.197500        5.5602717E-18
  -8.055000        5.5637367E-18
  -7.912500        5.5700002E-18
  -7.770000        5.5775308E-18
  -7.627500        5.5845986E-18
  -7.485000        5.5896399E-18
  -7.342500        5.5915796E-18
  -7.200000        5.5900560E-18
  -7.057500        5.5854966E-18
  -6.915000        5.5790342E-18
  -6.772500        5.5722749E-18
  -6.630000        5.5669661E-18
  -6.487500        5.5646326E-18
  -6.345000        5.5662588E-18
  -6.202500        5.5720813E-18
  -6.060000        5.5815360E-18
  -5.917500        5.5933680E-18
  -5.775000        5.6058841E-18
  -5.632500        5.6172925E-18
  -5.490000        5.6260569E-18
  -5.347500        5.6311970E-18
  -5.205000        5.6324746E-18
  -5.062500        5.6304331E-18
  -4.920000        5.6262757E-18
  -4.777500        5.6216158E-18
  -4.635000        5.6181425E-18
  -4.492500        5.6172710E-18
  -4.350000        5.6198448E-18
  -4.207500        5.6259597E-18
  -4.065000        5.6349384E-18
  -3.922500        5.6454667E-18
  -3.780000        5.6558710E-18
  -3.637500        5.6644650E-18
  -3.495000        5.6699079E-18
  -3.352500        5.6714886E-18
  -3.210000        5.6692846E-18
  -3.067500        5.6641507E-18
  -2.925000        5.6575614E-18
  -2.782500        5.6513141E-18
  -2.640000        5.6471786E-18
  -2.497500        5.6465412E-18
  -2.355000        5.6501233E-18
  -2.212500        5.6578306E-18
  -2.070000        5.6687597E-18
  -1.927500        5.6813635E-18
  -1.785000        5.6937551E-18
  -1.642500        5.7040717E-18
  -1.500000        5.7108483E-18
  -1.357500        5.7133092E-18
  -1.215000        5.7115212E-18
  -1.072500        5.7063758E-18
 -0.9300000        5.6994080E-18
 -0.7875000        5.6924795E-18
 -0.6450000        5.6874085E-18
 -0.5025000        5.6856036E-18
 -0.3600000        5.6877886E-18
 -0.2175000        5.6938647E-18
 -7.5000003E-02    5.7029368E-18
  6.7500003E-02    5.7134953E-18
  0.2100000        5.7237188E-18
  0.3525000        5.7318393E-18
  0.4950000        5.7364951E-18
  0.6375000        5.7370096E-18
  0.7800000        5.7335288E-18
  0.9225000        5.7269999E-18
   1.065000        5.7189787E-18
   1.207500        5.7113207E-18
   1.350000        5.7058042E-18
   1.492500        5.7037689E-18
   1.635000        5.7058538E-18
   1.777500        5.7118728E-18
   1.920000        5.7208642E-18
   2.062500        5.7312950E-18
   2.205000        5.7413730E-18
   2.347500        5.7494111E-18
   2.490000        5.7541620E-18
   2.632500        5.7550636E-18
   2.775000        5.7523488E-18
   2.917500        5.7469970E-18
   3.060000        5.7405371E-18
   3.202500        5.7347419E-18
   3.345000        5.7312660E-18
   3.487500        5.7313115E-18
   3.630000        5.7353796E-18
   3.772500        5.7431675E-18
   3.915000        5.7536309E-18
   4.057500        5.7652049E-18
   4.200000        5.7761253E-18
   4.342500        5.7847962E-18
   4.485000        5.7901129E-18
   4.627500        5.7916833E-18
   4.770000        5.7899012E-18
   4.912500        5.7858571E-18
   5.055000        5.7811111E-18
   5.197500        5.7773764E-18
   5.340000        5.7761654E-18
   5.482500        5.7784786E-18
   5.625000        5.7845915E-18
   5.767500        5.7939816E-18
   5.910000        5.8054191E-18
   6.052500        5.8172010E-18
   6.195000        5.8274899E-18
   6.337500        5.8346847E-18
   6.480000        5.8377486E-18
   6.622500        5.8364280E-18
   6.765000        5.8313069E-18
   6.907500        5.8236989E-18
   7.050000        5.8153891E-18
   7.192500        5.8082873E-18
   7.335000        5.8040592E-18
   7.477500        5.8038114E-18
   7.620000        5.8078882E-18
   7.762500        5.8158180E-18
   7.905000        5.8264141E-18
   8.047500        5.8380145E-18
   8.190000        5.8488117E-18
   8.332500        5.8572105E-18
   8.475000        5.8621446E-18
   8.617500        5.8632820E-18
   8.760000        5.8610858E-18
   8.902500        5.8567034E-18
   9.045000        5.8517201E-18
   9.187500        5.8478133E-18
   9.330000        5.8464005E-18
   9.472500        5.8483369E-18
   9.615000        5.8537401E-18
   9.757500        5.8619672E-18
   9.900000        5.8717499E-18
   10.04250        5.8814539E-18
   10.18500        5.8894089E-18
   10.32750        5.8942492E-18
   10.47000        5.8951880E-18
   10.61250        5.8921862E-18
   10.75500        5.8859687E-18
   10.89750        5.8778933E-18
   11.04000        5.8696877E-18
   11.18250        5.8631083E-18
   11.32500        5.8595870E-18
   11.46750        5.8599418E-18
   11.61000        5.8642142E-18
   11.75250        5.8716688E-18
   11.89500        5.8809535E-18
   12.03750        5.8903883E-18
   12.18000        5.8983210E-18
   12.32250        5.9034652E-18
   12.46500        5.9051667E-18
   12.60750        5.9035314E-18
   12.75000        5.8994021E-18
   12.89250        5.8941880E-18
   13.03500        5.8895801E-18
   13.17750        5.8872111E-18
   13.32000        5.8883162E-18
   13.46250        5.8934687E-18
   13.60500        5.9024465E-18
   13.74750        5.9142491E-18
   13.89000        5.9272834E-18
   14.03250        5.9396725E-18
   14.17500        5.9496293E-18
   14.31750        5.9558195E-18
   14.46000        5.9576310E-18
   14.60250        5.9552988E-18
   14.74500        5.9498551E-18
   14.88750        5.9429217E-18
   15.03000        5.9363862E-18
   15.17250        5.9320364E-18
   15.31500        5.9312101E-18
   15.45750        5.9345420E-18
   15.60000        5.9418455E-18
   15.74250        5.9521497E-18
   15.88500        5.9638903E-18
   16.02750        5.9752165E-18
   16.17000        5.9843573E-18
   16.31250        5.9899775E-18
   16.45500        5.9914483E-18
   16.59750        5.9889746E-18
   16.74000        5.9835541E-18
   16.88250        5.9767695E-18
   17.02500        5.9704602E-18
   17.16750        5.9663466E-18
   17.31000        5.9656779E-18
   17.45250        5.9689891E-18
   17.59500        5.9760011E-18
   17.73750        5.9856878E-18
   17.88000        5.9964862E-18
   18.02250        6.0066092E-18
   18.16500        6.0143992E-18
   18.30750        6.0186571E-18
   18.45000        6.0188788E-18
   18.59250        6.0153604E-18
   18.73500        6.0091450E-18
   18.87750        6.0018149E-18
   19.02000        5.9951768E-18
   19.16250        5.9908895E-18
   19.30500        5.9901285E-18
   19.44750        5.9933471E-18
   19.59000        6.0001883E-18
   19.73250        6.0095701E-18
   19.87500        6.0199186E-18
   20.01750        6.0294940E-18
   20.16000        6.0367467E-18
   20.30250        6.0406250E-18
   20.44500        6.0407797E-18
   20.58750        6.0376252E-18
   20.73000        6.0322531E-18
   20.87250        6.0262101E-18
   21.01500        6.0211895E-18
   21.15750        6.0186873E-18
   21.30000        6.0196940E-18
   21.44250        6.0244846E-18
   21.58500        6.0325505E-18
   21.72750        6.0427024E-18
   21.87000        6.0533057E-18
   22.01250        6.0626247E-18
   22.15500        6.0691813E-18
   22.29750        6.0720599E-18
   22.44000        6.0710942E-18
   22.58250        6.0668921E-18
   22.72500        6.0607077E-18
   22.86750        6.0541837E-18
   23.01000        6.0490200E-18
   23.15250        6.0466382E-18
   23.29500        6.0479029E-18
   23.43750        6.0529450E-18
   23.58000        6.0611337E-18
   23.72250        6.0711926E-18
   23.86500        6.0814463E-18
   24.00750        6.0901537E-18
   24.15000        6.0958629E-18
   24.29250        6.0977100E-18
   24.43500        6.0956027E-18
   24.57750        6.0902426E-18
   24.72000        6.0829824E-18
   24.86250        6.0755444E-18
   25.00500        6.0696727E-18
   25.14750        6.0667821E-18
   25.29000        6.0676829E-18
   25.43250        6.0724346E-18
   25.57500        6.0803474E-18
   25.71750        6.0901317E-18
   25.86000        6.1001596E-18
   26.00250        6.1087871E-18
   26.14500        6.1146825E-18
   26.28750        6.1170908E-18
   26.43000        6.1159906E-18
   26.57250        6.1121045E-18
   26.71500        6.1067539E-18
   26.85750        6.1015882E-18
   27.00000        6.0982398E-18
   27.14250        6.0979792E-18
   27.28500        6.1014434E-18
   27.42750        6.1085042E-18
   27.57000        6.1182952E-18
   27.71250        6.1293955E-18
   27.85500        6.1401212E-18
   27.99750        6.1488661E-18
   28.14000        6.1544186E-18
   28.28250        6.1561970E-18
   28.42500        6.1543607E-18
   28.56750        6.1497744E-18
   28.71000        6.1438414E-18
   28.85250        6.1382232E-18
   28.99500        6.1345112E-18
   29.13750        6.1338991E-18
   29.28000        6.1369357E-18
   29.42250        6.1434018E-18
   29.56500        6.1523498E-18
   29.70750        6.1622987E-18
   29.85000        6.1715420E-18
   29.99250        6.1785081E-18
   30.13500        6.1820832E-18
   30.27750        6.1818417E-18
   30.42000        6.1781218E-18
   30.56250        6.1719544E-18
   30.70500        6.1648468E-18
   30.84750        6.1584825E-18
   30.99000        6.1543875E-18
   31.13250        6.1536298E-18
   31.27500        6.1566056E-18
   31.41750        6.1629555E-18
   31.56000        6.1716235E-18
   31.70250        6.1810649E-18
   31.84500        6.1895506E-18
   31.98750        6.1955270E-18
   32.13000        6.1979419E-18
   32.27250        6.1964724E-18
   32.41500        6.1916016E-18
   32.55750        6.1845250E-18
   32.70000        6.1769050E-18
   32.84250        6.1705362E-18
   32.98500        6.1669859E-18
   33.12750        6.1672854E-18
   33.27000        6.1717339E-18
   33.41250        6.1798453E-18
   33.55500        6.1904423E-18
   33.69750        6.2018805E-18
   33.84000        6.2123564E-18
   33.98250        6.2202481E-18
   34.12500        6.2244291E-18
   34.26750        6.2244874E-18
   34.41000        6.2208097E-18
   34.55250        6.2145045E-18
   34.69500        6.2071811E-18
   34.83750        6.2006158E-18
   34.98000        6.1963914E-18
   35.12250        6.1955762E-18
   35.26500        6.1985209E-18
   35.40750        6.2048054E-18
   35.55000        6.2133477E-18
   35.69250        6.2226415E-18
   35.83500        6.2310692E-18
   35.97750        6.2372247E-18
   36.12000        6.2401902E-18
   36.26250        6.2397108E-18
   36.40500        6.2362449E-18
   36.54750        6.2308732E-18
   36.69000        6.2250908E-18
   36.83250        6.2205057E-18
   36.97500        6.2185122E-18
   37.11750        6.2199991E-18
   37.26000        6.2251561E-18
   37.40250        6.2334317E-18
   37.54500        6.2436461E-18
   37.68750        6.2542419E-18
   37.83000        6.2636147E-18
   37.97250        6.2704459E-18
   38.11500        6.2739697E-18
   38.25750        6.2741182E-18
   38.40000        6.2715196E-18
   38.54250        6.2673614E-18
   38.68500        6.2631407E-18
   38.82750        6.2603639E-18
   38.97000        6.2602398E-18
   39.11250        6.2634302E-18
   39.25500        6.2699033E-18
   39.39750        6.2789188E-18
   39.54000        6.2891626E-18
   39.68250        6.2990023E-18
   39.82500        6.3068212E-18
   39.96750        6.3113583E-18
   40.11000        6.3119766E-18
   40.25250        6.3088064E-18
   40.39500        6.3027172E-18
   40.53750        6.2951369E-18
   40.68000        6.2877588E-18
   40.82250        6.2821969E-18
   40.96500        6.2796657E-18
   41.10750        6.2807464E-18
   41.25000        6.2852823E-18
   41.39250        6.2924101E-18
   41.53500        6.3007303E-18
   41.67750        6.3085786E-18
   41.82000        6.3143514E-18
   41.96250        6.3168301E-18
   42.10500        6.3154355E-18
   42.24750        6.3103632E-18
   42.39000        6.3025596E-18
   42.53250        6.2935412E-18
   42.67500        6.2850937E-18
   42.81750        6.2789092E-18
   42.96000        6.2762494E-18
   43.10250        6.2777016E-18
   43.24500        6.2830840E-18
   43.38750        6.2915051E-18
   43.53000        6.3015620E-18
   43.67250        6.3116292E-18
   43.81500        6.3201781E-18
   43.95750        6.3260631E-18
   44.10000        6.3287365E-18
   44.24250        6.3283432E-18
   44.38500        6.3256842E-18
   44.52750        6.3220480E-18
   44.67000        6.3189448E-18
   44.81250        6.3177888E-18
   44.95500        6.3195850E-18
   45.09750        6.3247073E-18
   45.24000        6.3328071E-18
   45.38250        6.3428793E-18
   45.52500        6.3534721E-18
   45.66750        6.3629946E-18
   45.81000        6.3700418E-18
   45.95250        6.3736768E-18
   46.09500        6.3736086E-18
   46.23750        6.3702345E-18
   46.38000        6.3645530E-18
   46.52250        6.3579654E-18
   46.66500        6.3520072E-18
   46.80750        6.3480574E-18
   46.95000        6.3470743E-18
   47.09250        6.3494065E-18
   47.23500        6.3547195E-18
   47.37750        6.3620583E-18
   47.52000        6.3700406E-18
   47.66250        6.3771510E-18
   47.80500        6.3820682E-18
   47.94750        6.3839521E-18
   48.09000        6.3826319E-18
   48.23250        6.3786399E-18
   48.37500        6.3731011E-18
   48.51750        6.3674933E-18
   48.66000        6.3633445E-18
   48.80250        6.3619263E-18
   48.94500        6.3640030E-18
   49.08750        6.3696799E-18
   49.23000        6.3783732E-18
   49.37250        6.3889044E-18
   49.51500        6.3997074E-18
   49.65750        6.4091149E-18
   49.80000        6.4156724E-18
   49.94250        6.4184298E-18
   50.08500        6.4171369E-18
   50.22750        6.4123049E-18
   50.37000        6.4051118E-18
   50.51250        6.3971646E-18
   50.65500        6.3901729E-18
   50.79750        6.3856060E-18
   50.94000        6.3844095E-18
   51.08250        6.3868369E-18
   51.22500        6.3924274E-18
   51.36750        6.4001235E-18
   51.51000        6.4084954E-18
   51.65250        6.4160293E-18
   51.79500        6.4214209E-18
   51.93750        6.4238276E-18
   52.08000        6.4230372E-18
   52.22250        6.4195175E-18
   52.36500        6.4143295E-18
   52.50750        6.4089222E-18
   52.65000        6.4048371E-18
   52.79250        6.4033809E-18
   52.93500        6.4053496E-18
   53.07750        6.4108528E-18
   53.22000        6.4192963E-18
   53.36250        6.4295140E-18
   53.50500        6.4400204E-18
   53.64750        6.4493171E-18
   53.79000        6.4561914E-18
   53.93250        6.4599427E-18
   54.07500        6.4604973E-18
   54.21750        6.4583975E-18
   54.36000        6.4546814E-18
   54.50250        6.4506642E-18
   54.64500        6.4476748E-18
   54.78750        6.4467785E-18
   54.93000        6.4485487E-18
   55.07250        6.4529323E-18
   55.21500        6.4592433E-18
   55.35750        6.4663000E-18
   55.50000        6.4726788E-18
   55.64250        6.4770277E-18
   55.78500        6.4783768E-18
   55.92750        6.4763568E-18
   56.07000        6.4712899E-18
   56.21250        6.4641245E-18
   56.35500        6.4562448E-18
   56.49750        6.4491922E-18
   56.64000        6.4443735E-18
   56.78250        6.4427890E-18
   56.92500        6.4448578E-18
   57.06750        6.4503296E-18
   57.21000        6.4583326E-18
   57.35250        6.4675283E-18
   57.49500        6.4763593E-18
   57.63750        6.4833540E-18
   57.78000        6.4874291E-18
   57.92250        6.4881165E-18
   58.06500        6.4856734E-18
   58.20750        6.4810312E-18
   58.35000        6.4755979E-18
   58.49250        6.4709537E-18
   58.63500        6.4685181E-18
   58.77750        6.4692509E-18
   58.92000        6.4734708E-18
   59.06250        6.4807955E-18
   59.20500        6.4902324E-18
   59.34750        6.5003740E-18
   59.49000        6.5096645E-18
   59.63250        6.5166910E-18
   59.77500        6.5204509E-18
   59.91750        6.5205485E-18
   60.06000        6.5172828E-18
   60.20250        6.5116076E-18
   60.34500        6.5049545E-18
   60.48750        6.4989496E-18
   60.63000        6.4950780E-18
   60.77250        6.4943745E-18
   60.91500        6.4972047E-18
   61.05750        6.5031968E-18
   61.20000        6.5113362E-18
   61.34250        6.5201920E-18
   61.48500        6.5282240E-18
   61.62750        6.5340990E-18
   61.77000        6.5369511E-18
   61.91250        6.5365421E-18
   62.05500        6.5333037E-18
   62.19750        6.5282513E-18
   62.34000        6.5227939E-18
   62.48250        6.5184657E-18
   62.62500        6.5166203E-18
   62.76750        6.5181501E-18
   62.91000        6.5232828E-18
   63.05250        6.5315083E-18
   63.19500        6.5416640E-18
   63.33750        6.5521630E-18
   63.48000        6.5613244E-18
   63.62250        6.5677222E-18
   63.76500        6.5704776E-18
   63.90750        6.5694271E-18
   64.05000        6.5651348E-18
   64.19250        6.5587585E-18
   64.33500        6.5518048E-18
   64.47750        6.5458301E-18
   64.62000        6.5421421E-18
   64.76250        6.5415560E-18
   64.90500        6.5442382E-18
   65.04750        6.5496719E-18
   65.19000        6.5567493E-18
   65.33250        6.5639884E-18
   65.47500        6.5698357E-18
   65.61750        6.5729984E-18
   65.76000        6.5727354E-18
   65.90250        6.5690333E-18
   66.04500        6.5626276E-18
   66.18750        6.5548526E-18
   66.33000        6.5473600E-18
   66.47250        6.5417761E-18
   66.61500        6.5393735E-18
   66.75750        6.5408256E-18
   66.90000        6.5460898E-18
   67.04250        6.5544290E-18
   67.18500        6.5645599E-18
   67.32750        6.5748922E-18
   67.47000        6.5838188E-18
   67.61250        6.5900152E-18
   67.75500        6.5926882E-18
   67.89750        6.5917390E-18
   68.04000        6.5877901E-18
   68.18250        6.5820656E-18
   68.32500        6.5761413E-18
   68.46750        6.5716104E-18
   68.61000        6.5697451E-18
   68.75250        6.5712299E-18
   68.89500        6.5760300E-18
   69.03750        6.5834192E-18
   69.18000        6.5921572E-18
   69.32250        6.6007603E-18
   69.46500        6.6077996E-18
   69.60750        6.6121836E-18
   69.75000        6.6133537E-18
   69.89250        6.6113854E-18
   70.03500        6.6069707E-18
   70.17750        6.6012938E-18
   70.32000        6.5958100E-18
   70.46250        6.5919648E-18
   70.60500        6.5908986E-18
   70.74750        6.5932011E-18
   70.89000        6.5987771E-18
   71.03250        6.6068545E-18
   71.17500        6.6161454E-18
   71.31750        6.6251236E-18
   71.46000        6.6323499E-18
   71.60250        6.6367683E-18
   71.74500        6.6379089E-18
   71.88750        6.6359580E-18
   72.03000        6.6316968E-18
   72.17250        6.6263259E-18
   72.31500        6.6212293E-18
   72.45750        6.6177088E-18
   72.60000        6.6167430E-18
   72.74250        6.6187986E-18
   72.88500        6.6237323E-18
   73.02750        6.6308043E-18
   73.17000        6.6388106E-18
   73.31250        6.6463288E-18
   73.45500        6.6520140E-18
   73.59750        6.6548934E-18
   73.74000        6.6545841E-18
   73.88250        6.6513738E-18
   74.02500        6.6461551E-18
   74.16750        6.6402184E-18
   74.31000        6.6349737E-18
   74.45250        6.6316546E-18
   74.59500        6.6310818E-18
   74.73750        6.6335137E-18
   74.88000        6.6386125E-18
   75.02250        6.6455144E-18
   75.16500        6.6529942E-18
   75.30750        6.6596915E-18
   75.45000        6.6643742E-18
   75.59250        6.6661853E-18
   75.73500        6.6648337E-18
   75.87750        6.6606808E-18
   76.02000        6.6546850E-18
   76.16250        6.6482160E-18
   76.30500        6.6427666E-18
   76.44750        6.6396311E-18
   76.59000        6.6396336E-18
   76.73250        6.6429626E-18
   76.87500        6.6491495E-18
   77.01750        6.6571884E-18
   77.16000        6.6657551E-18
   77.30250        6.6734732E-18
   77.44500        6.6791766E-18
   77.58750        6.6821197E-18
   77.73000        6.6821126E-18
   77.87250        6.6795554E-18
   78.01500        6.6753736E-18
   78.15750        6.6708431E-18
   78.30000        6.6673450E-18
   78.44250        6.6660794E-18
   78.58500        6.6678003E-18
   78.72750        6.6726422E-18
   78.87000        6.6800782E-18
   79.01250        6.6890328E-18
   79.15500        6.6981161E-18
   79.29750        6.7059280E-18
   79.44000        6.7113493E-18
   79.58250        6.7137626E-18
   79.72500        6.7131555E-18
   79.86750        6.7100986E-18
   80.01000        6.7056161E-18
   80.15250        6.7009819E-18
   80.29500        6.6974759E-18
   80.43750        6.6961453E-18
   80.58000        6.6975991E-18
   80.72250        6.7018756E-18
   80.86500        6.7084162E-18
   81.00750        6.7161590E-18
   81.15000        6.7237504E-18
   81.29250        6.7298252E-18
   81.43500        6.7333064E-18
   81.57750        6.7336402E-18
   81.72000        6.7309109E-18
   81.86250        6.7258114E-18
   82.00500        6.7194751E-18
   82.14750        6.7132279E-18
   82.29000        6.7083074E-18
   82.43250        6.7056257E-18
   82.57500        6.7056050E-18
   82.71750        6.7081138E-18
   82.86000        6.7124987E-18
   83.00250        6.7177108E-18
   83.14500        6.7225014E-18
   83.28750        6.7256662E-18
   83.43000        6.7262924E-18
   83.57250        6.7239680E-18
   83.71500        6.7188945E-18
   83.85750        6.7118692E-18
   84.00000        6.7041334E-18
   84.14250        6.6971127E-18
   84.28500        6.6921099E-18
   84.42750        6.6900337E-18
   84.57000        6.6912141E-18
   84.71250        6.6953587E-18
   84.85500        6.7016333E-18
   84.99750        6.7088393E-18
   85.14000        6.7156565E-18
   85.28250        6.7208871E-18
   85.42500        6.7236652E-18
   85.56750        6.7236148E-18
   85.71000        6.7209231E-18
   85.85250        6.7163161E-18
   85.99500        6.7109357E-18
   86.13750        6.7061174E-18
   86.28000        6.7031201E-18
   86.42250        6.7028513E-18
   86.56500        6.7056637E-18
   86.70750        6.7112703E-18
   86.85000        6.7188076E-18
   86.99250        6.7270252E-18
   87.13500        6.7345604E-18
   87.27750        6.7402184E-18
   87.42000        6.7432049E-18
   87.56250        6.7432628E-18
   87.70500        6.7406981E-18
   87.84750        6.7363074E-18
   87.99000        6.7312281E-18
   88.13250        6.7267308E-18
   88.27500        6.7239903E-18
   88.41750        6.7238695E-18
   88.56000        6.7267411E-18
   88.70250        6.7324027E-18
   88.84500        6.7401034E-18
   88.98750        6.7486941E-18
   89.13000        6.7568778E-18
   89.27250        6.7634944E-18
   89.41500        6.7677821E-18
   89.55750        6.7695390E-18
   89.70000        6.7691535E-18
   89.84250        6.7674984E-18
   89.98500        6.7657286E-18
   90.12750        6.7650334E-18
   90.27000        6.7663904E-18
   90.41250        6.7703794E-18
   90.55500        6.7770630E-18
   90.69750        6.7859656E-18
   90.84000        6.7961403E-18
   90.98250        6.8063246E-18
   91.12500        6.8151667E-18
   91.26750        6.8214880E-18
   91.41000        6.8245312E-18
   91.55250        6.8241342E-18
   91.69500        6.8207824E-18
   91.83750        6.8155191E-18
   91.98000        6.8097243E-18
   92.12250        6.8048241E-18
   92.26500        6.8019918E-18
   92.40750        6.8019202E-18
   92.55000        6.8047029E-18
   92.69250        6.8098459E-18
   92.83500        6.8163918E-18
   92.97750        6.8231221E-18
   93.12000        6.8287962E-18
   93.26250        6.8323874E-18
   93.40500        6.8332861E-18
   93.54750        6.8314295E-18
   93.69000        6.8273370E-18
   93.83250        6.8220245E-18
   93.97500        6.8168132E-18
   94.11750        6.8130537E-18
   94.26000        6.8118286E-18
   94.40250        6.8137038E-18
   94.54500        6.8185970E-18
   94.68750        6.8257836E-18
   94.83000        6.8340587E-18
   94.97250        6.8419897E-18
   95.11500        6.8482060E-18
   95.25750        6.8516619E-18
   95.40000        6.8518183E-18
   95.54250        6.8487213E-18
   95.68500        6.8429761E-18
   95.82750        6.8356312E-18
   95.97000        6.8279797E-18
   96.11250        6.8213284E-18
   96.25500        6.8167466E-18
   96.39750        6.8148553E-18
   96.54000        6.8156911E-18
   96.68250        6.8186979E-18
   96.82500        6.8228463E-18
   96.96750        6.8268680E-18
   97.11000        6.8295481E-18
   97.25250        6.8300038E-18
   97.39500        6.8278751E-18
   97.53750        6.8233955E-18
   97.68000        6.8173215E-18
   97.82250        6.8107611E-18
   97.96500        6.8049428E-18
   98.10750        6.8009715E-18
   98.25000        6.7996281E-18
   98.39250        6.8012262E-18
   98.53500        6.8055478E-18
   98.67750        6.8118708E-18
   98.82000        6.8190851E-18
   98.96250        6.8258903E-18
   99.10500        6.8310440E-18
   99.24750        6.8336182E-18
   99.39000        6.8332001E-18