-4.500000 1.5509633E-18
-4.372967 1.5534386E-18
-4.245934 1.5580928E-18
-4.118902 1.5644193E-18
-3.991869 1.5717637E-18
-3.864837 1.5794093E-18
-3.737804 1.5866591E-18
-3.610771 1.5929258E-18
-3.483739 1.5977990E-18
-3.356706 1.6010942E-18
-3.229674 1.6028688E-18
-3.102641 1.6034069E-18
-2.975608 1.6031775E-18
-2.848576 1.6027649E-18
-2.721543 1.6027903E-18
-2.594510 1.6038263E-18
-2.467478 1.6063163E-18
-2.340445 1.6105171E-18
-2.213412 1.6164601E-18
-2.086380 1.6239447E-18
-1.959347 1.6325624E-18
-1.832314 1.6417462E-18
-1.705282 1.6508420E-18
-1.578249 1.6591905E-18
-1.451216 1.6662128E-18
-1.324184 1.6714815E-18
-1.197151 1.6747778E-18
-1.070119 1.6761207E-18
-0.9430859 1.6757657E-18
-0.8160533 1.6741736E-18
-0.6890206 1.6719551E-18
-0.5619880 1.6697915E-18
-0.4349554 1.6683502E-18
-0.3079227 1.6682019E-18
-0.1808901 1.6697445E-18
-5.3857423E-02 1.6731546E-18
7.3175222E-02 1.6783631E-18
0.2002079 1.6850678E-18
0.3272405 1.6927694E-18
0.4542732 1.7008397E-18
0.5813058 1.7086036E-18
0.7083384 1.7154277E-18
0.8353711 1.7208056E-18
0.9624037 1.7244240E-18
1.089436 1.7262029E-18
1.216469 1.7263093E-18
1.343502 1.7251314E-18
1.470534 1.7232281E-18
1.597567 1.7212525E-18
1.724600 1.7198661E-18
1.851632 1.7196517E-18
1.978665 1.7210356E-18
2.105698 1.7242342E-18
2.232730 1.7292286E-18
2.359763 1.7357672E-18
2.486795 1.7434029E-18
2.613828 1.7515514E-18
2.740861 1.7595689E-18
2.867893 1.7668301E-18
2.994926 1.7728087E-18
3.121959 1.7771353E-18
3.248991 1.7796427E-18
3.376024 1.7803793E-18
3.503057 1.7795993E-18
3.630089 1.7777290E-18
3.757122 1.7753138E-18
3.884155 1.7729516E-18
4.011187 1.7712261E-18
4.138220 1.7706355E-18
4.265253 1.7715398E-18
4.392285 1.7741146E-18
4.519318 1.7783324E-18
4.646350 1.7839633E-18
4.773383 1.7905977E-18
4.900416 1.7976930E-18
5.027448 1.8046329E-18
5.154481 1.8107997E-18
5.281514 1.8156482E-18
5.408546 1.8187758E-18
5.535579 1.8199719E-18
5.662611 1.8192522E-18
5.789644 1.8168619E-18
5.916677 1.8132508E-18
6.043710 1.8090231E-18
6.170742 1.8048649E-18
6.297775 1.8014604E-18
6.424808 1.7994063E-18
6.551840 1.7991360E-18
6.678873 1.8008632E-18
6.805905 1.8045539E-18
6.932938 1.8099287E-18
7.059971 1.8164990E-18
7.187003 1.8236255E-18
7.314036 1.8306009E-18
7.441069 1.8367364E-18
7.568101 1.8414494E-18
7.695134 1.8443344E-18
7.822166 1.8452119E-18
7.949199 1.8441495E-18
8.076232 1.8414509E-18
8.203264 1.8376163E-18
8.330297 1.8332765E-18
8.457330 1.8291128E-18
8.584362 1.8257731E-18
8.711395 1.8237875E-18
8.838428 1.8235048E-18
8.965461 1.8250477E-18
9.092493 1.8283026E-18
9.219525 1.8329344E-18
9.346559 1.8384327E-18
9.473591 1.8441824E-18
9.600623 1.8495426E-18
9.727656 1.8539370E-18
9.854689 1.8569280E-18
9.981722 1.8582757E-18
10.10875 1.8579734E-18
10.23579 1.8562429E-18
10.36282 1.8535064E-18
10.48985 1.8503251E-18
10.61689 1.8473191E-18
10.74392 1.8450778E-18
10.87095 1.8440730E-18
10.99798 1.8445867E-18
11.12502 1.8466656E-18
11.25205 1.8501077E-18
11.37908 1.8544860E-18
11.50611 1.8592040E-18
11.63315 1.8635775E-18
11.76018 1.8669309E-18
11.88721 1.8686963E-18
12.01424 1.8684966E-18
12.14128 1.8662082E-18
12.26831 1.8619850E-18
12.39534 1.8562466E-18
12.52237 1.8496265E-18
12.64941 1.8428924E-18
12.77644 1.8368447E-18
12.90347 1.8322108E-18
13.03051 1.8295477E-18
13.15754 1.8291693E-18
13.28457 1.8311064E-18
13.41160 1.8351078E-18
13.53864 1.8406783E-18
13.66567 1.8471508E-18
13.79270 1.8537814E-18
13.91973 1.8598532E-18
14.04677 1.8647734E-18
14.17380 1.8681487E-18
14.30083 1.8698325E-18
14.42786 1.8699326E-18
14.55490 1.8687838E-18
14.68193 1.8668869E-18
14.80896 1.8648280E-18
14.93600 1.8631840E-18
15.06303 1.8624375E-18
15.19006 1.8629061E-18
15.31709 1.8647004E-18
15.44413 1.8677124E-18
15.57116 1.8716363E-18
15.69819 1.8760187E-18
15.82522 1.8803255E-18
15.95226 1.8840184E-18
16.07929 1.8866323E-18
16.20632 1.8878352E-18
16.33335 1.8874725E-18
16.46039 1.8855863E-18
16.58742 1.8824091E-18
16.71445 1.8783359E-18
16.84148 1.8738772E-18
16.96852 1.8696000E-18
17.09555 1.8660630E-18
17.22258 1.8637533E-18
17.34962 1.8630316E-18
17.47665 1.8640879E-18
17.60368 1.8669189E-18
17.73071 1.8713230E-18
17.85775 1.8769191E-18
17.98478 1.8831867E-18
18.11181 1.8895254E-18
18.23884 1.8953222E-18
18.36588 1.9000316E-18
18.49291 1.9032402E-18
18.61994 1.9047281E-18
18.74697 1.9045006E-18
18.87401 1.9027907E-18
19.00104 1.9000351E-18
19.12807 1.8968192E-18
19.25510 1.8937990E-18
19.38214 1.8916142E-18
19.50917 1.8907994E-18
19.63620 1.8917112E-18
19.76324 1.8944781E-18
19.89027 1.8989827E-18
20.01730 1.9048747E-18
20.14433 1.9116218E-18
20.27137 1.9185768E-18
20.39840 1.9250658E-18
20.52543 1.9304735E-18
20.65246 1.9343207E-18
20.77950 1.9363206E-18
20.90653 1.9364110E-18
21.03356 1.9347531E-18
21.16059 1.9317054E-18
21.28763 1.9277730E-18
21.41466 1.9235411E-18
21.54169 1.9196012E-18
21.66872 1.9164786E-18
21.79576 1.9145730E-18
21.92279 1.9141119E-18
22.04982 1.9151289E-18
22.17686 1.9174638E-18
22.30389 1.9207870E-18
22.43092 1.9246400E-18
22.55795 1.9284938E-18
22.68499 1.9318141E-18
22.81202 1.9341240E-18
22.93905 1.9350674E-18
23.06608 1.9344522E-18
23.19312 1.9322790E-18
23.32015 1.9287472E-18
23.44718 1.9242368E-18
23.57421 1.9192695E-18
23.70125 1.9144496E-18
23.82828 1.9103920E-18
23.95531 1.9076501E-18
24.08235 1.9066410E-18
24.20938 1.9075902E-18
24.33641 1.9104938E-18
24.46344 1.9151109E-18
24.59048 1.9209824E-18
24.71751 1.9274826E-18
24.84454 1.9338904E-18
24.97157 1.9394769E-18
25.09861 1.9436000E-18
25.22564 1.9457852E-18
25.35267 1.9457921E-18
25.47970 1.9436470E-18
25.60674 1.9396442E-18
25.73377 1.9343114E-18
25.86080 1.9283423E-18
25.98783 1.9225102E-18
26.11487 1.9175682E-18
26.24190 1.9141549E-18
26.36893 1.9127137E-18
26.49597 1.9134408E-18
26.62300 1.9162625E-18
26.75003 1.9208519E-18
26.87706 1.9266745E-18
27.00410 1.9330603E-18
27.13113 1.9392917E-18
27.25816 1.9446927E-18
27.38519 1.9487118E-18
27.51223 1.9509876E-18
27.63926 1.9513852E-18
27.76629 1.9500082E-18
27.89332 1.9471786E-18
28.02036 1.9433918E-18
28.14739 1.9392505E-18
28.27442 1.9353882E-18
28.40145 1.9323886E-18
28.52849 1.9307130E-18
28.65552 1.9306406E-18
28.78255 1.9322346E-18
28.90959 1.9353299E-18
29.03662 1.9395543E-18
29.16365 1.9443736E-18
29.29068 1.9491607E-18
29.41772 1.9532803E-18
29.54475 1.9561775E-18
29.67178 1.9574576E-18
29.79881 1.9569540E-18
29.92585 1.9547587E-18
30.05288 1.9512252E-18
30.17991 1.9469288E-18
30.30694 1.9425954E-18
30.43398 1.9390023E-18
30.56101 1.9368680E-18
30.68804 1.9367456E-18
30.81507 1.9389331E-18
30.94211 1.9434228E-18
31.06914 1.9498918E-18
31.19617 1.9577390E-18
31.32321 1.9661670E-18
31.45024 1.9742942E-18
31.57727 1.9812806E-18
31.70430 1.9864521E-18
31.83134 1.9893967E-18
31.95837 1.9900255E-18
32.08540 1.9885838E-18
32.21243 1.9856115E-18
32.33947 1.9818604E-18
32.46650 1.9781847E-18
32.59353 1.9754113E-18
32.72057 1.9742254E-18
32.84760 1.9750732E-18
32.97463 1.9781057E-18
33.10166 1.9831643E-18
33.22869 1.9898096E-18
33.35573 1.9973910E-18
33.48276 2.0051365E-18
33.60979 2.0122610E-18
33.73683 2.0180616E-18
33.86386 2.0220101E-18
33.99089 2.0238082E-18
34.11792 2.0234167E-18
34.24496 2.0210535E-18
34.37199 2.0171591E-18
34.49902 2.0123431E-18
34.62605 2.0073095E-18
34.75309 2.0027784E-18
34.88012 1.9994078E-18
35.00715 1.9977231E-18
35.13419 1.9980606E-18
35.26122 2.0005365E-18
35.38825 2.0050356E-18
35.51528 2.0112247E-18
35.64231 2.0185984E-18
35.76935 2.0265346E-18
35.89638 2.0343781E-18
36.02341 2.0415219E-18
36.15045 2.0474889E-18
36.27748 2.0519989E-18
36.40451 2.0550099E-18
36.53154 2.0567300E-18
36.65858 2.0575934E-18
36.78561 2.0581995E-18
36.91264 2.0592279E-18
37.03968 2.0613374E-18
37.16671 2.0650599E-18
37.29374 2.0707120E-18
37.42077 2.0783345E-18
37.54781 2.0876697E-18
37.67484 2.0981848E-18
37.80187 2.1091352E-18
37.92890 2.1196633E-18
38.05593 2.1289108E-18
38.18297 2.1361391E-18
38.31000 2.1408261E-18
38.43703 2.1427382E-18
38.56407 2.1419586E-18
38.69110 2.1388684E-18
38.81813 2.1340935E-18
38.94516 2.1284143E-18
39.07220 2.1226662E-18
39.19923 2.1176353E-18
39.32626 2.1139699E-18
39.45330 2.1121164E-18
39.58033 2.1122888E-18
39.70736 2.1144643E-18
39.83439 2.1184116E-18
39.96143 2.1237382E-18
40.08846 2.1299469E-18
40.21549 2.1364942E-18
40.34253 2.1428500E-18
40.46955 2.1485417E-18
40.59659 2.1531925E-18
40.72362 2.1565494E-18
40.85065 2.1585011E-18
40.97769 2.1590855E-18
41.10472 2.1584924E-18
41.23175 2.1570513E-18
41.35878 2.1552090E-18
41.48582 2.1534923E-18
41.61285 2.1524594E-18
41.73988 2.1526350E-18
41.86692 2.1544494E-18
41.99395 2.1581713E-18
42.12098 2.1638608E-18
42.24801 2.1713458E-18
42.37505 2.1802268E-18
42.50208 2.1899195E-18
42.62911 2.1997274E-18
42.75615 2.2089387E-18
42.88317 2.2169325E-18
43.01021 2.2232803E-18
43.13724 2.2278174E-18
43.26427 2.2306834E-18
43.39131 2.2323084E-18
43.51834 2.2333554E-18
43.64537 2.2346208E-18
43.77240 2.2369083E-18
43.89944 2.2408995E-18
44.02647 2.2470396E-18
44.15350 2.2554587E-18
44.28054 2.2659418E-18
44.40757 2.2779524E-18
44.53460 2.2907090E-18
44.66163 2.3032970E-18
44.78867 2.3148017E-18
44.91570 2.3244356E-18
45.04273 2.3316493E-18
45.16977 2.3361983E-18
45.29680 2.3381654E-18
45.42383 2.3379344E-18
45.55086 2.3361262E-18
45.67789 2.3335013E-18
45.80493 2.3308577E-18
45.93196 2.3289278E-18
46.05899 2.3282957E-18
46.18602 2.3293408E-18
46.31306 2.3322099E-18
46.44009 2.3368218E-18
46.56712 2.3428931E-18
46.69416 2.3499850E-18
46.82119 2.3575574E-18
46.94822 2.3650303E-18
47.07525 2.3718457E-18
47.20229 2.3775202E-18
47.32932 2.3816970E-18
47.45635 2.3841837E-18
47.58339 2.3849766E-18
47.71042 2.3842693E-18
47.83745 2.3824375E-18
47.96448 2.3800067E-18
48.09151 2.3775892E-18
48.21855 2.3758116E-18
48.34558 2.3752287E-18
48.47261 2.3762426E-18
48.59965 2.3790324E-18
48.72668 2.3835191E-18
48.85371 2.3893596E-18
48.98074 2.3959903E-18
49.10778 2.4027020E-18
49.23481 2.4087473E-18
49.36184 2.4134562E-18
49.48887 2.4163499E-18
49.61591 2.4172199E-18
49.74294 2.4161724E-18
49.86997 2.4136202E-18
49.99701 2.4102188E-18
50.12404 2.4067678E-18
50.25107 2.4040799E-18
50.37810 2.4028517E-18
50.50513 2.4035455E-18
50.63217 2.4063151E-18
50.75920 2.4109736E-18
50.88623 2.4170226E-18
51.01327 2.4237256E-18
51.14030 2.4302186E-18
51.26733 2.4356416E-18
51.39436 2.4392640E-18
51.52140 2.4405869E-18
51.64843 2.4394135E-18
51.77546 2.4358697E-18
51.90249 2.4303801E-18
52.02953 2.4236063E-18
52.15656 2.4163552E-18
52.28359 2.4094754E-18
52.41063 2.4037538E-18
52.53766 2.3998261E-18
52.66469 2.3981105E-18
52.79172 2.3987723E-18
52.91875 2.4017195E-18
53.04579 2.4066224E-18
53.17282 2.4129669E-18
53.29985 2.4201121E-18
53.42689 2.4273706E-18
53.55392 2.4340830E-18
53.68095 2.4396935E-18
53.80798 2.4438096E-18
53.93502 2.4462483E-18
54.06205 2.4470573E-18
54.18908 2.4465101E-18
54.31612 2.4450727E-18
54.44315 2.4433490E-18
54.57018 2.4420022E-18
54.69721 2.4416664E-18
54.82425 2.4428579E-18
54.95128 2.4458968E-18
55.07831 2.4508541E-18
55.20534 2.4575294E-18
55.33237 2.4654712E-18
55.45941 2.4740294E-18
55.58644 2.4824426E-18
55.71347 2.4899443E-18
55.84051 2.4958758E-18
55.96754 2.4997816E-18
56.09457 2.5014802E-18
56.22160 2.5010947E-18
56.34864 2.4990361E-18
56.47567 2.4959431E-18
56.60270 2.4925913E-18
56.72974 2.4897777E-18
56.85677 2.4882052E-18
56.98380 2.4883872E-18
57.11083 2.4905755E-18
57.23787 2.4947370E-18
57.36490 2.5005686E-18
57.49193 2.5075519E-18
57.61897 2.5150358E-18
57.74599 2.5223291E-18
57.87303 2.5287954E-18
58.00006 2.5339233E-18
58.12709 2.5373796E-18
58.25413 2.5390265E-18
58.38116 2.5389130E-18
58.50819 2.5372442E-18
58.63522 2.5343354E-18
58.76226 2.5305645E-18
58.88929 2.5263227E-18
59.01632 2.5219794E-18
59.14336 2.5178476E-18
59.27039 2.5141671E-18
59.39742 2.5110879E-18
59.52445 2.5086626E-18
59.65149 2.5068428E-18
59.77852 2.5054838E-18
59.90555 2.5043580E-18
60.03259 2.5031842E-18
60.15961 2.5016705E-18
60.28665 2.4995752E-18
60.41368 2.4967744E-18
60.54071 2.4933294E-18
60.66775 2.4895442E-18
60.79478 2.4859941E-18
60.92181 2.4835155E-18
61.04884 2.4831503E-18
61.17588 2.4860444E-18
61.30291 2.4933095E-18
61.42994 2.5058609E-18
61.55698 2.5242593E-18
61.68401 2.5485712E-18
61.81104 2.5782787E-18
61.93807 2.6122490E-18
62.06511 2.6487711E-18
62.19214 2.6856611E-18
62.31917 2.7204151E-18
62.44621 2.7504008E-18
62.57324 2.7730523E-18
62.70027 2.7860545E-18
62.82730 2.7874942E-18
62.95433 2.7759700E-18
63.08137 2.7506574E-18
63.20840 2.7113361E-18
63.33543 2.6583868E-18
63.46246 2.5927815E-18
63.58950 2.5160702E-18
63.71653 2.4303751E-18
63.84356 2.3383966E-18
63.97060 2.2434220E-18
64.09763 2.1493231E-18
64.22466 2.0605334E-18
64.35169 1.9819806E-18
64.47873 1.9189687E-18
64.60576 1.8769965E-18
64.73279 1.8615127E-18
64.85983 1.8776162E-18
64.98685 1.9297119E-18
65.11389 2.0211372E-18
65.24092 2.1537914E-18
65.36796 2.3277752E-18
65.49499 2.5410728E-18
65.62202 2.7892981E-18
65.74905 3.0655231E-18
65.87608 3.3602101E-18
66.00312 3.6612784E-18
66.13015 3.9543138E-18
66.25719 4.2229477E-18
66.38422 4.4494161E-18
66.51125 4.6152977E-18
66.63828 4.7024287E-18
66.76531 4.6939629E-18
66.89235 4.5755367E-18
67.01938 4.3364848E-18
67.14641 3.9710166E-18
67.27345 3.4792896E-18
67.40047 2.8682781E-18
67.52751 2.1523639E-18
67.65454 1.3535731E-18
67.78158 5.0141000E-19
67.90861 -3.6774501E-19
68.03564 -1.2116786E-18
68.16267 -1.9838062E-18
68.28970 -2.6350248E-18
68.41674 -3.1158798E-18
68.54377 -3.3789929E-18
68.67081 -3.3816521E-18
68.79784 -3.0884759E-18
68.92487 -2.4740465E-18
69.05190 -1.5254021E-18
69.17893 -2.4426054E-19
69.30597 1.3511503E-18
69.43300 3.2247975E-18
69.56004 5.3222207E-18
69.68707 7.5707209E-18
69.81409 9.8804731E-18
69.94113 1.2146658E-17
70.06816 1.4252651E-17
70.19520 1.6074277E-17
70.32223 1.7485035E-17
70.44926 1.8362182E-17
70.57629 1.8593425E-17
70.70332 1.8083986E-17
70.83036 1.6763659E-17
70.95739 1.4593507E-17
71.08443 1.1571801E-17
71.21146 7.7387676E-18
71.33849 3.1797867E-18
71.46552 -1.9733260E-18
71.59255 -7.5432486E-18
71.71959 -1.3310479E-17
71.84662 -1.9019193E-17
71.97366 -2.4385627E-17
72.10069 -2.9108846E-17
72.22771 -3.2883659E-17
72.35475 -3.5415245E-17
72.48178 -3.6435016E-17
72.60882 -3.5716977E-17
72.73585 -3.3093875E-17
72.86288 -2.8472278E-17
72.98991 -2.1845681E-17
73.11694 -1.3304737E-17
73.24398 -3.0438092E-18
73.37101 8.6369452E-18
73.49805 2.1334545E-17
73.62508 3.4551619E-17
73.75211 4.7710454E-17
73.87914 6.0172612E-17
74.00617 7.1263674E-17
74.13321 8.0302515E-17
74.26024 8.6634014E-17
74.38728 8.9664082E-17
74.51431 8.8895446E-17
74.64133 8.3962498E-17
74.76837 7.4663426E-17
74.89540 6.0987663E-17
75.02244 4.3136880E-17
75.14947 2.1537719E-17
75.27650 -3.1552918E-18
75.40353 -3.0067780E-17
75.53056 -5.8125346E-17
75.65760 -8.6085487E-17
75.78463 -1.1258127E-16
75.91167 -1.3617578E-16
76.03870 -1.5542593E-16
76.16573 -1.6895318E-16
76.29276 -1.7551858E-16
76.41979 -1.7409862E-16
76.54683 -1.6395831E-16
76.67386 -1.4471755E-16
76.80090 -1.1640653E-16
76.92793 -7.9506721E-17
77.05495 -3.4973478E-17
77.18199 1.5762559E-17
77.30902 7.0817367E-17
77.43606 1.2790035E-16
77.56309 1.8438597E-16
77.69012 2.3740946E-16
77.81715 2.8398402E-16
77.94418 3.2113624E-16
78.07122 3.4605473E-16
78.19825 3.5624565E-16
78.32529 3.4968906E-16
78.45232 3.2498743E-16
78.57935 2.8149891E-16
78.70638 2.1944706E-16
78.83341 1.3999919E-16
78.96045 4.5306485E-17
79.08748 -6.1499965E-17
79.21452 -1.7636148E-16
79.34155 -2.9439477E-16
79.46858 -4.1004545E-16
79.59561 -5.1728990E-16
79.72264 -6.0988056E-16
79.84968 -6.8162652E-16
79.97671 -7.2670059E-16
80.10374 -7.3995904E-16
80.23077 -7.1726184E-16
80.35780 -6.5577635E-16
80.48484 -5.5424976E-16
80.61187 -4.1323304E-16
80.73891 -2.3524199E-16
80.86594 -2.4841053E-17
80.99297 2.1136138E-16
81.12000 4.6481478E-16
81.24703 7.2522966E-16
81.37407 9.8088279E-16
81.50110 1.2190197E-15
81.62814 1.4263454E-15
81.75517 1.5895880E-15
81.88220 1.6961185E-15
82.00923 1.7345989E-15
82.13626 1.6956375E-15
82.26330 1.5724166E-15
82.39033 1.3612645E-15
82.51736 1.0621397E-15
82.64439 6.7899739E-16
82.77143 2.2000981E-16
82.89846 -3.0238060E-16
83.02549 -8.7159505E-16
83.15253 -1.4672489E-15
83.27956 -2.0656825E-15
83.40659 -2.6406862E-15
83.53362 -3.1644052E-15
83.66065 -3.6084002E-15
83.78769 -3.9448298E-15
83.91472 -4.1477175E-15
84.04176 -4.1942492E-15
84.16879 -4.0660525E-15
84.29582 -3.7504014E-15
84.42285 -3.2412830E-15
84.54988 -2.5402730E-15
84.67692 -1.6571684E-15
84.80395 -6.1032340E-16
84.93098 5.7334231E-16
85.05801 1.8586963E-15
85.18505 3.2031176E-15
85.31208 4.5575925E-15
85.43911 5.8681684E-15
85.56615 7.0777315E-15
85.69318 8.1280579E-15
85.82021 8.9620804E-15
85.94724 9.5262890E-15
86.07427 9.7731813E-15
86.20131 9.6636634E-15
86.32834 9.1693011E-15
86.45538 8.2743193E-15
86.58241 6.9772531E-15
86.70944 5.2921530E-15
86.83647 3.2492673E-15
86.96350 8.9514114E-16
87.09054 -1.7079229E-15
87.21757 -4.4830566E-15
87.34460 -7.3406721E-15
87.47163 -1.0180936E-14
87.59867 -1.2896815E-14
87.72570 -1.5377612E-14
87.85273 -1.7512887E-14
87.97977 -1.9196646E-14
88.10680 -2.0331633E-14
88.23383 -2.0833588E-14
88.36086 -2.0635293E-14
88.48790 -1.9690243E-14
88.61493 -1.7975765E-14
88.74196 -1.5495470E-14
88.86900 -1.2280851E-14
88.99603 -8.3919603E-15
89.12306 -3.9170670E-15
89.25009 1.0287525E-15
89.37712 6.3060951E-15
89.50416 1.1754748E-14
89.63119 1.7198184E-14
89.75822 2.2448902E-14
89.88525 2.7314473E-14
90.01229 3.1604107E-14
90.13932 3.5135526E-14
90.26635 3.7741881E-14
90.39339 3.9278514E-14
90.52042 3.9629253E-14
90.64745 3.8712011E-14
90.77448 3.6483457E-14
90.90152 3.2942521E-14
91.02855 2.8132563E-14
91.15558 2.2142063E-14
91.28262 1.5103727E-14
91.40965 7.1919806E-15
91.53668 -1.3811466E-15
91.66371 -1.0371646E-14
91.79075 -1.9510545E-14
91.91778 -2.8512115E-14
92.04481 -3.7083001E-14
92.17184 -4.4932015E-14
92.29887 -5.1780212E-14
92.42591 -5.7370931E-14
92.55294 -6.1479440E-14
92.67997 -6.3921734E-14
92.80701 -6.4562227E-14
92.93404 -6.3319941E-14
93.06107 -6.0172970E-14
93.18810 -5.5160893E-14
93.31514 -4.8385066E-14
93.44217 -4.0006671E-14
93.56920 -3.0242512E-14
93.69624 -1.9358657E-14
93.82327 -7.6620737E-15
93.95030 4.5094251E-15
94.07733 1.6798667E-14
94.20437 2.8841550E-14
94.33140 4.0280022E-14
94.45843 5.0775048E-14
94.58546 6.0019088E-14
94.71249 6.7747552E-14
94.83953 7.3748672E-14
94.96656 7.7871439E-14
95.09360 8.0031102E-14
95.22063 8.0212001E-14
95.34766 7.8467479E-14
95.47469 7.4916832E-14
95.60172 6.9739245E-14
95.72876 6.3165049E-14
95.85579 5.5464422E-14
95.98282 4.6934136E-14
96.10986 3.7882763E-14
96.23689 2.8615097E-14
96.36392 1.9416470E-14
96.49095 1.0537719E-14
96.61799 2.1816130E-15
96.74502 -5.5084535E-15
96.87205 -1.2456937E-14
96.99908 -1.8660990E-14
97.12611 -2.4191327E-14
97.25315 -2.9188769E-14
97.38018 -3.3856310E-14
97.50722 -3.8446822E-14
97.63425 -4.3246697E-14
97.76128 -4.8555937E-14
97.88831 -5.4665521E-14
98.01534 -6.1832910E-14
98.14238 -7.0256884E-14
98.26941 -8.0053023E-14
98.39645 -9.1231012E-14
98.52348 -1.0367541E-13
98.65051 -1.1713101E-13
98.77754 -1.3119410E-13
98.90457 -1.4531089E-13
99.03161 -1.5878355E-13
99.15864 -1.7078495E-13
99.28567 -1.8038176E-13
99.41270 -1.8656623E-13
99.53973 -1.8829556E-13
99.66677 -1.8453835E-13
99.79380 -1.7432624E-13
99.92084 -1.5680916E-13
100.0479 -1.3131198E-13
100.1749 -9.7389992E-14
100.3019 -5.4880762E-14
100.4290 -3.9494978E-15
100.5560 5.4874758E-14
100.6830 1.2067456E-13
100.8101 1.9213345E-13
100.9371 2.6754120E-13
101.0641 3.4481616E-13
101.1912 4.2154545E-13
101.3182 4.9504313E-13
101.4452 5.6242511E-13
101.5723 6.2070021E-13
101.6993 6.6687362E-13
101.8263 6.9806086E-13
101.9534 7.1160780E-13
102.0804 7.0521253E-13
102.2074 6.7704382E-13
102.3345 6.2585207E-13
102.4615 5.5106641E-13
102.5885 4.5287388E-13
102.7156 3.3227566E-13
102.8426 1.9111622E-13
102.9696 3.2082853E-14
103.0966 -1.4132726E-13
103.2237 -3.2487302E-13
103.3507 -5.1366805E-13
103.4777 -7.0231033E-13
103.6048 -8.8503998E-13
103.7318 -1.0559198E-12
103.8588 -1.2090340E-12
103.9859 -1.3386968E-12
104.1129 -1.4396657E-12
104.2399 -1.5073465E-12
104.3670 -1.5379875E-12
104.4940 -1.5288492E-12
104.6210 -1.4783442E-12
104.7481 -1.3861397E-12
104.8751 -1.2532155E-12
105.0021 -1.0818755E-12
105.1292 -8.7570657E-13
105.2562 -6.3948803E-13
105.3832 -3.7905020E-13
105.5103 -1.0108821E-13
105.6373 1.8706454E-13
105.7643 4.7769379E-13
105.8914 7.6298370E-13
106.0184 1.0353065E-12
106.1454 1.2875095E-12
106.2725 1.5131869E-12
106.3995 1.7069243E-12
106.5265 1.8645023E-12
106.6536 1.9830496E-12
106.7806 2.0611353E-12
106.9076 2.0987951E-12
107.0347 2.0974865E-12
107.1617 2.0599722E-12
107.2887 1.9901359E-12
107.4158 1.8927351E-12
107.5428 1.7731017E-12
107.6698 1.6368031E-12
107.7969 1.4892794E-12
107.9239 1.3354748E-12
108.0509 1.1794832E-12
108.1780 1.0242267E-12
108.3050 8.7118962E-13
108.4320 7.2022260E-13
108.5591 5.6943876E-13
108.6861 4.1520983E-13
108.8131 2.5227642E-13
108.9402 7.3972241E-14
109.0672 -1.2743455E-13
109.1942 -3.6029174E-13
109.3213 -6.3301816E-13
109.4483 -9.5348078E-13
109.5753 -1.3283189E-12
109.7023 -1.7622436E-12
109.8294 -2.2573462E-12
109.9564 -2.8124512E-12
110.0834 -3.4225481E-12
110.2105 -4.0783427E-12
110.3375 -4.7659593E-12
110.4645 -5.4668292E-12
110.5916 -6.1577835E-12
110.7186 -6.8113783E-12
110.8456 -7.3964576E-12
110.9727 -7.8789562E-12
111.0997 -8.2229336E-12
111.2267 -8.3918185E-12
111.3538 -8.3498364E-12
111.4808 -8.0635776E-12
111.6078 -7.5036479E-12
111.7349 -6.6463584E-12
111.8619 -5.4753728E-12
111.9889 -3.9832573E-12
112.1160 -2.1728498E-12
112.2430 -5.8384260E-14
112.3700 2.3336981E-12
112.4971 4.9643098E-12
112.6241 7.7816989E-12
112.7511 1.0721899E-11
112.8782 1.3709656E-11
113.0052 1.6659851E-11
113.1322 1.9479402E-11
113.2593 2.2069626E-11
113.3863 2.4328976E-11
113.5133 2.6156159E-11
113.6404 2.7453456E-11
113.7674 2.8130233E-11
113.8944 2.8106479E-11
114.0215 2.7316264E-11
114.1485 2.5711003E-11
114.2755 2.3262389E-11
114.4026 1.9964877E-11
114.5296 1.5837614E-11
114.6566 1.0925694E-11
114.7837 5.3006766E-12
114.9107 -9.3968886E-13
115.0377 -7.6726013E-12
115.1647 -1.4752194E-11
115.2918 -2.2012350E-11
115.4188 -2.9270322E-11
115.5459 -3.6331042E-11
115.6729 -4.2992082E-11
115.7999 -4.9049056E-11
115.9269 -5.4301414E-11
116.0540 -5.8558332E-11
116.1810 -6.1644689E-11
116.3080 -6.3406773E-11
116.4351 -6.3717642E-11
116.5621 -6.2481992E-11
116.6891 -5.9640182E-11
116.8162 -5.5171527E-11
116.9432 -4.9096508E-11
117.0702 -4.1477960E-11
117.1973 -3.2421055E-11
117.3243 -2.2072148E-11
117.4513 -1.0616442E-11
117.5784 1.7254831E-12
117.7054 1.4702180E-11
117.8324 2.8036797E-11
117.9595 4.1433305E-11
118.0865 5.4583383E-11
118.2135 6.7173718E-11
118.3406 7.8893544E-11
118.4676 8.9442238E-11
118.5946 9.8536686E-11
118.7217 1.0591832E-10
118.8487 1.1135954E-10
118.9757 1.1466946E-10
119.1028 1.1569871E-10
119.2298 1.1434326E-10
119.3568 1.1054722E-10
119.4839 1.0430446E-10
119.6109 9.5659133E-11
119.7379 8.4705042E-11
119.8650 7.1583982E-11
119.9920 5.6483127E-11
120.1190 3.9631472E-11
120.2461 2.1295618E-11
120.3731 1.7748549E-12
120.5001 -1.8604144E-11
120.6272 -3.9492999E-11
120.7542 -6.0527458E-11
120.8812 -8.1333301E-11
121.0083 -1.0153215E-10
121.1353 -1.2074719E-10
121.2623 -1.3860861E-10
121.3894 -1.5475879E-10
121.5164 -1.6885722E-10
121.6434 -1.8058509E-10
121.7704 -1.8964957E-10
121.8975 -1.9578796E-10
122.0245 -1.9877136E-10
122.1516 -1.9840851E-10
122.2786 -1.9454920E-10
122.4056 -1.8708766E-10
122.5326 -1.7596599E-10
122.6597 -1.6117727E-10
122.7867 -1.4276873E-10
122.9137 -1.2084464E-10
123.0408 -9.5568976E-11
123.1678 -6.7167709E-11
123.2948 -3.5930564E-11
123.4219 -2.2120888E-12
123.5489 3.3568103E-11
123.6759 7.0926168E-11
123.8030 1.0931608E-10
123.9300 1.4813320E-10
124.0570 1.8671927E-10
124.1841 2.2436931E-10
124.3111 2.6034030E-10
124.4381 2.9386163E-10
124.5652 3.2414751E-10
124.6922 3.5041114E-10
124.8192 3.7188047E-10
124.9463 3.8781539E-10
125.0733 3.9752601E-10
125.2003 4.0039164E-10
125.3274 3.9587991E-10
125.4544 3.8356596E-10
125.5814 3.6315068E-10
125.7085 3.3447753E-10
125.8355 2.9754760E-10
125.9625 2.5253208E-10
126.0896 1.9978165E-10
126.2166 1.3983238E-10
126.3436 7.3407454E-11
126.4707 1.4146486E-12
126.5977 -7.5060902E-11
126.7247 -1.5476874E-10
126.8518 -2.3630975E-10
126.9788 -3.1815783E-10
127.1058 -3.9868572E-10
127.2329 -4.7619492E-10
127.3599 -5.4894911E-10
127.4869 -6.1521055E-10
127.6140 -6.7327810E-10
127.7410 -7.2152706E-10
127.8680 -7.5844864E-10
127.9950 -7.8268930E-10
128.1221 -7.9308765E-10
128.2491 -7.8870960E-10
128.3761 -7.6887879E-10
128.5032 -7.3320333E-10
128.6302 -6.8159645E-10
128.7572 -6.1429167E-10
128.8843 -5.3185123E-10
129.0113 -4.3516712E-10
129.1383 -3.2545577E-10
129.2654 -2.0424443E-10
129.3924 -7.3351200E-11
129.5194 6.5141829E-11
129.6465 2.0892217E-10
129.7735 3.5548578E-10
129.9005 5.0218124E-10
130.0276 6.4625749E-10
130.1546 7.8491513E-10
130.2816 9.1535923E-10
130.4087 1.0348533E-09
130.5357 1.1407729E-09
130.6627 1.2306580E-09
130.7898 1.3022632E-09
130.9168 1.3536039E-09
131.0438 1.3829989E-09
131.1709 1.3891081E-09
131.2979 1.3709631E-09
131.4249 1.3279938E-09
131.5520 1.2600463E-09
131.6790 1.1673943E-09
131.8060 1.0507443E-09
131.9331 9.1123314E-10
132.0601 7.5041778E-10
132.1871 5.7025951E-10
132.3142 3.7310063E-10
132.4412 1.6163570E-10
132.5682 -6.1123551E-11
132.6953 -2.9188815E-10
132.8223 -5.2713639E-10
132.9493 -7.6316264E-10
133.0764 -9.9612973E-10
133.2034 -1.2221241E-09
133.3304 -1.4372127E-09
133.4575 -1.6375028E-09
133.5845 -1.8192015E-09
133.7115 -1.9786757E-09
133.8385 -2.1125122E-09
133.9656 -2.2175770E-09
134.0926 -2.2910709E-09
134.2197 -2.3305851E-09
134.3467 -2.3341509E-09
134.4737 -2.3002871E-09
134.6008 -2.2280413E-09
134.7278 -2.1170266E-09
134.8548 -1.9674482E-09
134.9818 -1.7801276E-09
135.1089 -1.5565141E-09
135.2359 -1.2986896E-09
135.3629 -1.0093628E-09
135.4900 -6.9185374E-10
135.6170 -3.5006717E-10
135.7440 1.1544854E-11
135.8711 3.8803041E-10
135.9981 7.7399703E-10
136.1251 1.1636813E-09
136.2522 1.5510268E-09
136.3792 1.9297730E-09
136.5062 2.2935505E-09
136.6333 2.6359832E-09
136.7603 2.9507949E-09
136.8873 3.2319198E-09
137.0144 3.4736134E-09
137.1414 3.6705623E-09
137.2684 3.8179921E-09
137.3955 3.9117678E-09
137.5225 3.9484886E-09
137.6495 3.9255728E-09
137.7766 3.8413290E-09
137.9036 3.6950150E-09
138.0306 3.4868817E-09
138.1577 3.2181993E-09
138.2847 2.8912668E-09
138.4117 2.5094002E-09
138.5388 2.0769069E-09
138.6658 1.5990347E-09
138.7928 1.0819087E-09
138.9199 5.3244642E-10
139.0469 -4.1741662E-11
139.1739 -6.3246708E-10
139.3009 -1.2310900E-09
139.4280 -1.8286577E-09
139.5550 -2.4160496E-09
139.6821 -2.9841301E-09
139.8091 -3.5239014E-09
139.9361 -4.0266586E-09
140.0632 -4.4841388E-09
140.1902 -4.8886686E-09
140.3172 -5.2332991E-09
140.4442 -5.5119309E-09
140.5713 -5.7194272E-09
140.6983 -5.8517098E-09
140.8253 -5.9058372E-09
140.9524 -5.8800680E-09
141.0794 -5.7738974E-09
141.2065 -5.5880802E-09
141.3335 -5.3246274E-09
141.4605 -4.9867861E-09
141.5875 -4.5789932E-09
141.7146 -4.1068109E-09
141.8416 -3.5768473E-09
141.9686 -2.9966487E-09
142.0957 -2.3745845E-09
142.2227 -1.7197115E-09
142.3497 -1.0416265E-09
142.4768 -3.5030684E-10
142.6038 3.4405628E-10
142.7308 1.0312329E-09
142.8579 1.7011317E-09
142.9849 2.3439781E-09
143.1119 2.9504934E-09
143.2390 3.5120635E-09
143.3660 4.0209063E-09
143.4930 4.4702229E-09
143.6201 4.8543374E-09
143.7471 5.1688218E-09
143.8741 5.4105964E-09
144.0012 5.5780123E-09
144.1282 5.6709069E-09
144.2552 5.6906346E-09
144.3823 5.6400657E-09
144.5093 5.5235585E-09
144.6363 5.3468989E-09
144.7634 5.1172093E-09
144.8904 4.8428244E-09
145.0174 4.5331401E-09
145.1445 4.1984318E-09
145.2715 3.8496477E-09
145.3985 3.4981786E-09
145.5256 3.1556067E-09
145.6526 2.8334446E-09
145.7796 2.5428593E-09
145.9066 2.2943936E-09
146.0337 2.0976918E-09
146.1607 1.9612325E-09
146.2878 1.8920763E-09
146.4148 1.8956328E-09
146.5418 1.9754627E-09
146.6689 2.1331041E-09
146.7959 2.3679443E-09
146.9229 2.6771336E-09
147.0499 3.0555458E-09
147.1770 3.4957959E-09
147.3040 3.9882964E-09
147.4310 4.5213788E-09
147.5581 5.0814561E-09
147.6851 5.6532423E-09
147.8121 6.2200085E-09
