-4.500000 1.0897100E-17
-4.372967 1.0901991E-17
-4.245934 1.0911071E-17
-4.118902 1.0923175E-17
-3.991869 1.0936904E-17
-3.864837 1.0950898E-17
-3.737804 1.0964087E-17
-3.610771 1.0975873E-17
-3.483739 1.0986197E-17
-3.356706 1.0995487E-17
-3.229674 1.1004492E-17
-3.102641 1.1014054E-17
-2.975608 1.1024868E-17
-2.848576 1.1037290E-17
-2.721543 1.1051228E-17
-2.594510 1.1066160E-17
-2.467478 1.1081245E-17
-2.340445 1.1095529E-17
-2.213412 1.1108175E-17
-2.086380 1.1118663E-17
-1.959347 1.1126928E-17
-1.832314 1.1133384E-17
-1.705282 1.1138827E-17
-1.578249 1.1144268E-17
-1.451216 1.1150698E-17
-1.324184 1.1158863E-17
-1.197151 1.1169093E-17
-1.070119 1.1181235E-17
-0.9430859 1.1194684E-17
-0.8160533 1.1208536E-17
-0.6890206 1.1221788E-17
-0.5619880 1.1233579E-17
-0.4349554 1.1243385E-17
-0.3079227 1.1251130E-17
-0.1808901 1.1257201E-17
-5.3857423E-02 1.1262345E-17
7.3175222E-02 1.1267488E-17
0.2002079 1.1273503E-17
0.3272405 1.1281006E-17
0.4542732 1.1290199E-17
0.5813058 1.1300820E-17
0.7083384 1.1312201E-17
0.8353711 1.1323422E-17
0.9624037 1.1333527E-17
1.089436 1.1341748E-17
1.216469 1.1347687E-17
1.343502 1.1351414E-17
1.470534 1.1353453E-17
1.597567 1.1354661E-17
1.724600 1.1356042E-17
1.851632 1.1358507E-17
1.978665 1.1362671E-17
2.105698 1.1368717E-17
2.232730 1.1376358E-17
2.359763 1.1384907E-17
2.486795 1.1393452E-17
2.613828 1.1401072E-17
2.740861 1.1407059E-17
2.867893 1.1411090E-17
2.994926 1.1413305E-17
3.121959 1.1414272E-17
3.248991 1.1414848E-17
3.376024 1.1415975E-17
3.503057 1.1418434E-17
3.630089 1.1422656E-17
3.757122 1.1428591E-17
3.884155 1.1435705E-17
4.011187 1.1443081E-17
4.138220 1.1449626E-17
4.265253 1.1454309E-17
4.392285 1.1456410E-17
4.519318 1.1455692E-17
4.646350 1.1452474E-17
4.773383 1.1447574E-17
4.900416 1.1442159E-17
5.027448 1.1437488E-17
5.154481 1.1434659E-17
5.281514 1.1434380E-17
5.408546 1.1436823E-17
5.535579 1.1441612E-17
5.662611 1.1447911E-17
5.789644 1.1454635E-17
5.916677 1.1460692E-17
6.043710 1.1465234E-17
6.170742 1.1467834E-17
6.297775 1.1468570E-17
6.424808 1.1467982E-17
6.551840 1.1466924E-17
6.678873 1.1466340E-17
6.805905 1.1467027E-17
6.932938 1.1469428E-17
7.059971 1.1473520E-17
7.187003 1.1478817E-17
7.314036 1.1484477E-17
7.441069 1.1489512E-17
7.568101 1.1493024E-17
7.695134 1.1494429E-17
7.822166 1.1493614E-17
7.949199 1.1490978E-17
8.076232 1.1487357E-17
8.203264 1.1483847E-17
8.330297 1.1481562E-17
8.457330 1.1481386E-17
8.584362 1.1483775E-17
8.711395 1.1488657E-17
8.838428 1.1495451E-17
8.965461 1.1503201E-17
9.092493 1.1510801E-17
9.219525 1.1517234E-17
9.346559 1.1521814E-17
9.473591 1.1524326E-17
9.600623 1.1525064E-17
9.727656 1.1524756E-17
9.854689 1.1524370E-17
9.981722 1.1524885E-17
10.10875 1.1527045E-17
10.23579 1.1531180E-17
10.36282 1.1537126E-17
10.48985 1.1544259E-17
10.61689 1.1551643E-17
10.74392 1.1558251E-17
10.87095 1.1563214E-17
10.99798 1.1566030E-17
11.12502 1.1566687E-17
11.25205 1.1565676E-17
11.37908 1.1563879E-17
11.50611 1.1562369E-17
11.63315 1.1562160E-17
11.76018 1.1563970E-17
11.88721 1.1568053E-17
12.01424 1.1574137E-17
12.14128 1.1581489E-17
12.26831 1.1589079E-17
12.39534 1.1595827E-17
12.52237 1.1600854E-17
12.64941 1.1603693E-17
12.77644 1.1604403E-17
12.90347 1.1603566E-17
13.03051 1.1602150E-17
13.15754 1.1601299E-17
13.28457 1.1602059E-17
13.41160 1.1605144E-17
13.53864 1.1610756E-17
13.66567 1.1618538E-17
13.79270 1.1627639E-17
13.91973 1.1636901E-17
14.04677 1.1645112E-17
14.17380 1.1651275E-17
14.30083 1.1654821E-17
14.42786 1.1655741E-17
14.55490 1.1654576E-17
14.68193 1.1652299E-17
14.80896 1.1650089E-17
14.93600 1.1649075E-17
15.06303 1.1650085E-17
15.19006 1.1653479E-17
15.31709 1.1659073E-17
15.44413 1.1666201E-17
15.57116 1.1673884E-17
15.69819 1.1681055E-17
15.82522 1.1686806E-17
15.95226 1.1690594E-17
16.07929 1.1692340E-17
16.20632 1.1692438E-17
16.33335 1.1691631E-17
16.46039 1.1690824E-17
16.58742 1.1690851E-17
16.71445 1.1692272E-17
16.84148 1.1695235E-17
16.96852 1.1699445E-17
17.09555 1.1704250E-17
17.22258 1.1708808E-17
17.34962 1.1712306E-17
17.47665 1.1714182E-17
17.60368 1.1714280E-17
17.73071 1.1712915E-17
17.85775 1.1710819E-17
17.98478 1.1708994E-17
18.11181 1.1708478E-17
18.23884 1.1710117E-17
18.36588 1.1714357E-17
18.49291 1.1721134E-17
18.61994 1.1729869E-17
18.74697 1.1739589E-17
18.87401 1.1749120E-17
19.00104 1.1757342E-17
19.12807 1.1763418E-17
19.25510 1.1766957E-17
19.38214 1.1768076E-17
19.50917 1.1767344E-17
19.63620 1.1765623E-17
19.76324 1.1763843E-17
19.89027 1.1762774E-17
20.01730 1.1762837E-17
20.14433 1.1764006E-17
20.27137 1.1765831E-17
20.39840 1.1767567E-17
20.52543 1.1768381E-17
20.65246 1.1767586E-17
20.77950 1.1764848E-17
20.90653 1.1760315E-17
21.03356 1.1754625E-17
21.16059 1.1748804E-17
21.28763 1.1744060E-17
21.41466 1.1741528E-17
21.54169 1.1742022E-17
21.66872 1.1745856E-17
21.79576 1.1752770E-17
21.92279 1.1761984E-17
22.04982 1.1772372E-17
22.17686 1.1782705E-17
22.30389 1.1791925E-17
22.43092 1.1799373E-17
22.55795 1.1804920E-17
22.68499 1.1808978E-17
22.81202 1.1812377E-17
22.93905 1.1816153E-17
23.06608 1.1821270E-17
23.19312 1.1828375E-17
23.32015 1.1837614E-17
23.44718 1.1848571E-17
23.57421 1.1860338E-17
23.70125 1.1871700E-17
23.82828 1.1881403E-17
23.95531 1.1888426E-17
24.08235 1.1892214E-17
24.20938 1.1892802E-17
24.33641 1.1890815E-17
24.46344 1.1887334E-17
24.59048 1.1883660E-17
24.71751 1.1881034E-17
24.84454 1.1880378E-17
24.97157 1.1882108E-17
25.09861 1.1886066E-17
25.22564 1.1891587E-17
25.35267 1.1897675E-17
25.47970 1.1903256E-17
25.60674 1.1907442E-17
25.73377 1.1909738E-17
25.86080 1.1910163E-17
25.98783 1.1909235E-17
26.11487 1.1907836E-17
26.24190 1.1906999E-17
26.36893 1.1907639E-17
26.49597 1.1910339E-17
26.62300 1.1915186E-17
26.75003 1.1921747E-17
26.87706 1.1929161E-17
27.00410 1.1936335E-17
27.13113 1.1942201E-17
27.25816 1.1945968E-17
27.38519 1.1947316E-17
27.51223 1.1946485E-17
27.63926 1.1944231E-17
27.76629 1.1941667E-17
27.89332 1.1940022E-17
28.02036 1.1940373E-17
28.14739 1.1943409E-17
28.27442 1.1949290E-17
28.40145 1.1957620E-17
28.52849 1.1967551E-17
28.65552 1.1977986E-17
28.78255 1.1987827E-17
28.90959 1.1996237E-17
29.03662 1.2002813E-17
29.16365 1.2007662E-17
29.29068 1.2011352E-17
29.41772 1.2014745E-17
29.54475 1.2018766E-17
29.67178 1.2024146E-17
29.79881 1.2031222E-17
29.92585 1.2039818E-17
30.05288 1.2049262E-17
30.17991 1.2058525E-17
30.30694 1.2066444E-17
30.43398 1.2072000E-17
30.56101 1.2074554E-17
30.68804 1.2074028E-17
30.81507 1.2070935E-17
30.94211 1.2066303E-17
31.06914 1.2061460E-17
31.19617 1.2057765E-17
31.32321 1.2056322E-17
31.45024 1.2057753E-17
31.57727 1.2062076E-17
31.70430 1.2068717E-17
31.83134 1.2076662E-17
31.95837 1.2084692E-17
32.08540 1.2091678E-17
32.21243 1.2096838E-17
32.33947 1.2099908E-17
32.46650 1.2101204E-17
32.59353 1.2101527E-17
32.72057 1.2101971E-17
32.84760 1.2103641E-17
32.97463 1.2107391E-17
33.10166 1.2113599E-17
33.22869 1.2122061E-17
33.35573 1.2132021E-17
33.48276 1.2142331E-17
33.60979 1.2151703E-17
33.73683 1.2158989E-17
33.86386 1.2163445E-17
33.99089 1.2164891E-17
34.11792 1.2163751E-17
34.24496 1.2160957E-17
34.37199 1.2157735E-17
34.49902 1.2155340E-17
34.62605 1.2154771E-17
34.75309 1.2156570E-17
34.88012 1.2160721E-17
35.00715 1.2166680E-17
35.13419 1.2173527E-17
35.26122 1.2180211E-17
35.38825 1.2185810E-17
35.51528 1.2189753E-17
35.64231 1.2191965E-17
35.76935 1.2192866E-17
35.89638 1.2193268E-17
36.02341 1.2194162E-17
36.15045 1.2196456E-17
36.27748 1.2200746E-17
36.40451 1.2207138E-17
36.53154 1.2215209E-17
36.65858 1.2224080E-17
36.78561 1.2232610E-17
36.91264 1.2239650E-17
37.03968 1.2244307E-17
37.16671 1.2246154E-17
37.29374 1.2245329E-17
37.42077 1.2242510E-17
37.54781 1.2238759E-17
37.67484 1.2235290E-17
37.80187 1.2233186E-17
37.92890 1.2233162E-17
38.05593 1.2235411E-17
38.18297 1.2239568E-17
38.31000 1.2244820E-17
38.43703 1.2250105E-17
38.56407 1.2254378E-17
38.69110 1.2256877E-17
38.81813 1.2257307E-17
38.94516 1.2255921E-17
39.07220 1.2253469E-17
39.19923 1.2251020E-17
39.32626 1.2249712E-17
39.45330 1.2250472E-17
39.58033 1.2253792E-17
39.70736 1.2259598E-17
39.83439 1.2267254E-17
39.96143 1.2275694E-17
40.08846 1.2283660E-17
40.21549 1.2289989E-17
40.34253 1.2293871E-17
40.46955 1.2295042E-17
40.59659 1.2293841E-17
40.72362 1.2291132E-17
40.85065 1.2288105E-17
40.97769 1.2286000E-17
41.10472 1.2285815E-17
41.23175 1.2288076E-17
41.35878 1.2292710E-17
41.48582 1.2299057E-17
41.61285 1.2306017E-17
41.73988 1.2312296E-17
41.86692 1.2316704E-17
41.99395 1.2318423E-17
42.12098 1.2317192E-17
42.24801 1.2313361E-17
42.37505 1.2307814E-17
42.50208 1.2301759E-17
42.62911 1.2296457E-17
42.75615 1.2292932E-17
42.88317 1.2291752E-17
43.01021 1.2292904E-17
43.13724 1.2295816E-17
43.26427 1.2299510E-17
43.39131 1.2302839E-17
43.51834 1.2304776E-17
43.64537 1.2304661E-17
43.77240 1.2302365E-17
43.89944 1.2298324E-17
44.02647 1.2293440E-17
44.15350 1.2288863E-17
44.28054 1.2285727E-17
44.40757 1.2284870E-17
44.53460 1.2286636E-17
44.66163 1.2290783E-17
44.78867 1.2296534E-17
44.91570 1.2302749E-17
45.04273 1.2308175E-17
45.16977 1.2311742E-17
45.29680 1.2312790E-17
45.42383 1.2311220E-17
45.55086 1.2307499E-17
45.67789 1.2302536E-17
45.80493 1.2297464E-17
45.93196 1.2293350E-17
46.05899 1.2290942E-17
46.18602 1.2290484E-17
46.31306 1.2291657E-17
46.44009 1.2293651E-17
46.56712 1.2295366E-17
46.69416 1.2295683E-17
46.82119 1.2293744E-17
46.94822 1.2289172E-17
47.07525 1.2282185E-17
47.20229 1.2273573E-17
47.32932 1.2264533E-17
47.45635 1.2256421E-17
47.58339 1.2250451E-17
47.71042 1.2247431E-17
47.83745 1.2247595E-17
47.96448 1.2250564E-17
48.09151 1.2255443E-17
48.21855 1.2261048E-17
48.34558 1.2266184E-17
48.47261 1.2269932E-17
48.59965 1.2271861E-17
48.72668 1.2272124E-17
48.85371 1.2271404E-17
48.98074 1.2270746E-17
49.10778 1.2271282E-17
49.23481 1.2273945E-17
49.36184 1.2279220E-17
49.48887 1.2287008E-17
49.61591 1.2296624E-17
49.74294 1.2306936E-17
49.86997 1.2316623E-17
49.99701 1.2324461E-17
50.12404 1.2329621E-17
50.25107 1.2331852E-17
50.37810 1.2331550E-17
50.50513 1.2329666E-17
50.63217 1.2327492E-17
50.75920 1.2326364E-17
50.88623 1.2327354E-17
51.01327 1.2331018E-17
51.14030 1.2337270E-17
51.26733 1.2345400E-17
51.39436 1.2354239E-17
51.52140 1.2362428E-17
51.64843 1.2368728E-17
51.77546 1.2372313E-17
51.90249 1.2372954E-17
52.02953 1.2371073E-17
52.15656 1.2367641E-17
52.28359 1.2363948E-17
52.41063 1.2361312E-17
52.53766 1.2360762E-17
52.66469 1.2362806E-17
52.79172 1.2367320E-17
52.91875 1.2373577E-17
53.04579 1.2380425E-17
53.17282 1.2386565E-17
53.29985 1.2390855E-17
53.42689 1.2392589E-17
53.55392 1.2391673E-17
53.68095 1.2388654E-17
53.80798 1.2384608E-17
53.93502 1.2380896E-17
54.06205 1.2378874E-17
54.18908 1.2379578E-17
54.31612 1.2383509E-17
54.44315 1.2390525E-17
54.57018 1.2399882E-17
54.69721 1.2410419E-17
54.82425 1.2420827E-17
54.95128 1.2429944E-17
55.07831 1.2437018E-17
55.20534 1.2441862E-17
55.33237 1.2444871E-17
55.45941 1.2446903E-17
55.58644 1.2449048E-17
55.71347 1.2452343E-17
55.84051 1.2457507E-17
55.96754 1.2464749E-17
56.09457 1.2473707E-17
56.22160 1.2483526E-17
56.34864 1.2493054E-17
56.47567 1.2501121E-17
56.60270 1.2506824E-17
56.72974 1.2509753E-17
56.85677 1.2510097E-17
56.98380 1.2508620E-17
57.11083 1.2506490E-17
57.23787 1.2505010E-17
57.36490 1.2505312E-17
57.49193 1.2508088E-17
57.61897 1.2513413E-17
57.74599 1.2520706E-17
57.87303 1.2528844E-17
58.00006 1.2536390E-17
58.12709 1.2541905E-17
58.25413 1.2544244E-17
58.38116 1.2542789E-17
58.50819 1.2537566E-17
58.63522 1.2529201E-17
58.76226 1.2518752E-17
58.88929 1.2507442E-17
59.01632 1.2496366E-17
59.14336 1.2486243E-17
59.27039 1.2477273E-17
59.39742 1.2469131E-17
59.52445 1.2461118E-17
59.65149 1.2452408E-17
59.77852 1.2442365E-17
59.90555 1.2430827E-17
60.03259 1.2418300E-17
60.15961 1.2406007E-17
60.28665 1.2395782E-17
60.41368 1.2389811E-17
60.54071 1.2390275E-17
60.66775 1.2398977E-17
60.79478 1.2417021E-17
60.92181 1.2444592E-17
61.04884 1.2480911E-17
61.17588 1.2524333E-17
61.30291 1.2572584E-17
61.42994 1.2623053E-17
61.55698 1.2673103E-17
61.68401 1.2720289E-17
61.81104 1.2762494E-17
61.93807 1.2797916E-17
62.06511 1.2824961E-17
62.19214 1.2842079E-17
62.31917 1.2847605E-17
62.44621 1.2839682E-17
62.57324 1.2816307E-17
62.70027 1.2775517E-17
62.82730 1.2715720E-17
62.95433 1.2636096E-17
63.08137 1.2537010E-17
63.20840 1.2420352E-17
63.33543 1.2289737E-17
63.46246 1.2150504E-17
63.58950 1.2009522E-17
63.71653 1.1874801E-17
63.84356 1.1754985E-17
63.97060 1.1658782E-17
64.09763 1.1594414E-17
64.22466 1.1569142E-17
64.35169 1.1588895E-17
64.47873 1.1658012E-17
64.60576 1.1779070E-17
64.73279 1.1952742E-17
64.85983 1.2177661E-17
64.98685 1.2450242E-17
65.11389 1.2764468E-17
65.24092 1.3111651E-17
65.36796 1.3480241E-17
65.49499 1.3855750E-17
65.62202 1.4220878E-17
65.74905 1.4555902E-17
65.87608 1.4839370E-17
66.00312 1.5049104E-17
66.13015 1.5163447E-17
66.25719 1.5162694E-17
66.38422 1.5030553E-17
66.51125 1.4755575E-17
66.63828 1.4332368E-17
66.76531 1.3762578E-17
66.89235 1.3055514E-17
67.01938 1.2228451E-17
67.14641 1.1306566E-17
67.27345 1.0322551E-17
67.40047 9.3159198E-18
67.52751 8.3320034E-18
67.65454 7.4206530E-18
67.78158 6.6346110E-18
67.90861 6.0275597E-18
68.03564 5.6518075E-18
68.16267 5.5556618E-18
68.28970 5.7805358E-18
68.41674 6.3579079E-18
68.54377 7.3062928E-18
68.67081 8.6284442E-18
68.79784 1.0308998E-17
68.92487 1.2312811E-17
69.05190 1.4584172E-17
69.17893 1.7047066E-17
69.30597 1.9606581E-17
69.43300 2.2151460E-17
69.56004 2.4557770E-17
69.68707 2.6693573E-17
69.81409 2.8424431E-17
69.94113 2.9619551E-17
70.06816 3.0158360E-17
70.19520 2.9937245E-17
70.32223 2.8876237E-17
70.44926 2.6925351E-17
70.57629 2.4070297E-17
70.70332 2.0337240E-17
70.83036 1.5796288E-17
70.95739 1.0563381E-17
71.08443 4.8002507E-18
71.21146 -1.2878159E-18
71.33849 -7.4566014E-18
71.46552 -1.3430056E-17
71.59255 -1.8909827E-17
71.71959 -2.3586994E-17
71.84662 -2.7155669E-17
71.97366 -2.9327943E-17
72.10069 -2.9849514E-17
72.22771 -2.8515311E-17
72.35475 -2.5184308E-17
72.48178 -1.9792710E-17
72.60882 -1.2364798E-17
72.73585 -3.0206444E-18
72.86288 8.0198428E-18
72.98991 2.0437098E-17
73.11694 3.3816646E-17
73.24398 4.7658636E-17
73.37101 6.1392180E-17
73.49805 7.4394341E-17
73.62508 8.6013344E-17
73.75211 9.5595424E-17
73.87914 1.0251442E-16
74.00617 1.0620301E-16
74.13321 1.0618427E-16
74.26024 1.0210208E-16
74.38728 9.3748786E-17
74.51431 8.1088542E-17
74.64133 6.4274660E-17
74.76837 4.3659794E-17
74.89540 1.9797628E-17
75.02244 -6.5646700E-18
75.14947 -3.4503563E-17
75.27650 -6.2945923E-17
75.40353 -9.0704900E-17
75.53056 -1.1652391E-16
75.65760 -1.3912742E-16
75.78463 -1.5727660E-16
75.91167 -1.6982775E-16
76.03870 -1.7579113E-16
76.16573 -1.7438726E-16
76.29276 -1.6509829E-16
76.41979 -1.4771123E-16
76.54683 -1.2235092E-16
76.67386 -8.9499890E-17
76.80090 -5.0003429E-17
76.92793 -5.0583273E-18
77.05495 4.3815396E-17
77.18199 9.4819892E-17
77.30902 1.4594097E-16
77.43606 1.9502412E-16
77.56309 2.3986237E-16
77.69012 2.7829265E-16
77.81715 3.0829667E-16
77.94418 3.2810179E-16
78.07122 3.3627679E-16
78.19825 3.3181827E-16
78.32529 3.1422209E-16
78.45232 2.8353621E-16
78.57935 2.4039065E-16
78.70638 1.8600214E-16
78.83341 1.2215122E-16
78.96045 5.1131326E-17
79.08748 -2.4329541E-17
79.21452 -1.0117277E-16
79.34155 -1.7613486E-16
79.46858 -2.4589089E-16
79.59561 -3.0720919E-16
79.72264 -3.5711094E-16
79.84968 -3.9302668E-16
79.97671 -4.1294166E-16
80.10374 -4.1552271E-16
80.23077 -4.0021780E-16
80.35780 -3.6732261E-16
80.48484 -3.1800801E-16
80.61187 -2.5430423E-16
80.73891 -1.7904057E-16
80.86594 -9.5739598E-17
80.99297 -8.4693989E-18
81.12000 7.8342018E-17
81.24703 1.6012271E-16
81.37407 2.3239442E-16
81.50110 2.9102048E-16
81.62814 3.3245265E-16
81.75517 3.5396273E-16
81.88220 3.5384698E-16
82.00923 3.3158997E-16
82.13626 2.8797606E-16
82.26330 2.2513905E-16
82.39033 1.4654218E-16
82.51736 5.6884463E-17
82.64439 -3.8068883E-17
82.77143 -1.3172761E-16
82.89846 -2.1698383E-16
83.02549 -2.8657470E-16
83.15253 -3.3348577E-16
83.27956 -3.5137830E-16
83.40659 -3.3501884E-16
83.53362 -2.8069055E-16
83.66065 -1.8656214E-16
83.78769 -5.2992535E-17
83.91472 1.1725149E-16
84.04176 3.1888191E-16
84.16879 5.4409633E-16
84.29582 7.8271768E-16
84.42285 1.0224674E-15
84.54988 1.2493765E-15
84.67692 1.4483211E-15
84.80395 1.6036734E-15
84.93098 1.7000419E-15
85.05801 1.7230769E-15
85.18505 1.6603059E-15
85.31208 1.5019649E-15
85.43911 1.2417817E-15
85.56615 8.7767357E-16
85.69318 4.1231412E-16
85.82021 -1.4646157E-16
85.94724 -7.8545693E-16
86.07427 -1.4861375E-15
86.20131 -2.2249033E-15
86.32834 -2.9736186E-15
86.45538 -3.7003934E-15
86.58241 -4.3706121E-15
86.70944 -4.9481772E-15
86.83647 -5.3969386E-15
86.96350 -5.6822545E-15
87.09054 -5.7726363E-15
87.21757 -5.6414021E-15
87.34460 -5.2682802E-15
87.47163 -4.6408850E-15
87.59867 -3.7559868E-15
87.72570 -2.6205169E-15
87.85273 -1.2522360E-15
87.97977 3.1998602E-16
88.10680 2.0563209E-15
88.23383 3.9065909E-15
88.36086 5.8113444E-15
88.48790 7.7033962E-15
88.61493 9.5097990E-15
88.74196 1.1154201E-14
88.86900 1.2559525E-14
88.99603 1.3650886E-14
89.12306 1.4358659E-14
89.25009 1.4621554E-14
89.37712 1.4389629E-14
89.50416 1.3627082E-14
89.63119 1.2314702E-14
89.75822 1.0451886E-14
89.88525 8.0580895E-15
90.01229 5.1736273E-15
90.13932 1.8597580E-15
90.26635 -1.8020137E-15
90.39339 -5.7114292E-15
90.52042 -9.7517539E-15
90.64745 -1.3792833E-14
90.77448 -1.7694823E-14
90.90152 -2.1312540E-14
91.02855 -2.4500277E-14
91.15558 -2.7116964E-14
91.28262 -2.9031475E-14
91.40965 -3.0127952E-14
91.53668 -3.0310891E-14
91.66371 -2.9509815E-14
91.79075 -2.7683395E-14
91.91778 -2.4822739E-14
92.04481 -2.0953759E-14
92.17184 -1.6138473E-14
92.29887 -1.0475073E-14
92.42591 -4.0967735E-15
92.55294 2.8306831E-15
92.67997 1.0112761E-14
92.80701 1.7531129E-14
92.93404 2.4849746E-14
93.06107 3.1821954E-14
93.18810 3.8198313E-14
93.31514 4.3735015E-14
93.44217 4.8202565E-14
93.56920 5.1394469E-14
93.69624 5.3135607E-14
93.82327 5.3289990E-14
93.95030 5.1767604E-14
94.07733 4.8530001E-14
94.20437 4.3594451E-14
94.33140 3.7036367E-14
94.45843 2.8989787E-14
94.58546 1.9645896E-14
94.71249 9.2494033E-15
94.83953 -1.9071332E-15
94.96656 -1.3490984E-14
95.09360 -2.5138788E-14
95.22063 -3.6467679E-14
95.34766 -4.7087754E-14
95.47469 -5.6615421E-14
95.60172 -6.4687317E-14
95.72876 -7.0974205E-14
95.85579 -7.5194449E-14
95.98282 -7.7126463E-14
96.10986 -7.6619693E-14
96.23689 -7.3603545E-14
96.36392 -6.8093934E-14
96.49095 -6.0196937E-14
96.61799 -5.0109334E-14
96.74502 -3.8115771E-14
96.87205 -2.4582480E-14
96.99908 -9.9475312E-15
97.12611 5.2921505E-15
97.25315 2.0596753E-14
97.38018 3.5402111E-14
97.50722 4.9140264E-14
97.63425 6.1261306E-14
97.76128 7.1255773E-14
97.88831 7.8676845E-14
98.01534 8.3161261E-14
98.14238 8.4448263E-14
98.26941 8.2395537E-14
98.39645 7.6991378E-14
98.52348 6.8362383E-14
98.65051 5.6775958E-14
98.77754 4.2637314E-14
98.90457 2.6480632E-14
99.03161 8.9543648E-15
99.15864 -9.1990607E-15
99.28567 -2.7168783E-14
99.41270 -4.4105585E-14
99.53973 -5.9155453E-14
99.66677 -7.1495795E-14
99.79380 -8.0372632E-14
99.92084 -8.5137626E-14
100.0479 -8.5283255E-14
100.1749 -8.0474466E-14
100.3019 -7.0575517E-14
100.4290 -5.5670390E-14
100.5560 -3.6075414E-14
100.6830 -1.2343207E-14
100.8101 1.4743003E-14
100.9371 4.4185003E-14
101.0641 7.4795306E-14
101.1912 1.0523262E-13
101.3182 1.3404624E-13
101.4452 1.5972835E-13
101.5723 1.8077235E-13
101.6993 1.9573559E-13
101.8263 2.0330420E-13
101.9534 2.0235721E-13
102.0804 1.9202790E-13
102.2074 1.7175924E-13
102.3345 1.4135084E-13
102.4615 1.0099544E-13
102.5885 5.1302068E-14
102.7156 -6.6954079E-15
102.8426 -7.1545871E-14
102.9696 -1.4140537E-13
103.0966 -2.1407833E-13
103.2237 -2.8707546E-13
103.3507 -3.5768640E-13
103.4777 -4.2306596E-13
103.6048 -4.8033084E-13
103.7318 -5.2666400E-13
103.8588 -5.5942322E-13
103.9859 -5.7624933E-13
104.1129 -5.7517093E-13
104.2399 -5.5470049E-13
104.3670 -5.1391833E-13
104.4940 -4.5254067E-13
104.6210 -3.7096796E-13
104.7481 -2.7031123E-13
104.8751 -1.5239409E-13
105.0021 -1.9730013E-14
105.1292 1.2452681E-13
105.2562 2.7665489E-13
105.3832 4.3246171E-13
105.5103 5.8740100E-13
105.6373 7.3670632E-13
105.7643 8.7553711E-13
105.8914 9.9913307E-13
106.0184 1.1029695E-12
106.1454 1.1829106E-12
106.2725 1.2353531E-12
106.3995 1.2573554E-12
106.5265 1.2467489E-12
106.6536 1.2022239E-12
106.7806 1.1233904E-12
106.9076 1.0108088E-12
107.0347 8.6599055E-13
107.1617 6.9136748E-13
107.2887 4.9023296E-13
107.4158 2.6665446E-13
107.5428 2.5363251E-14
107.6698 -2.2837580E-13
107.7969 -4.8890866E-13
107.9239 -7.5034537E-13
108.0509 -1.0067168E-12
108.1780 -1.2521274E-12
108.3050 -1.4809003E-12
108.4320 -1.6877085E-12
108.5591 -1.8676881E-12
108.6861 -2.0165304E-12
108.8131 -2.1305499E-12
108.9402 -2.2067294E-12
109.0672 -2.2427396E-12
109.1942 -2.2369383E-12
109.3213 -2.1883498E-12
109.4483 -2.0966278E-12
109.5753 -1.9620102E-12
109.7023 -1.7852681E-12
109.8294 -1.5676537E-12
109.9564 -1.3108570E-12
110.0834 -1.0169719E-12
110.2105 -6.8847673E-13
110.3375 -3.2823562E-13
110.4645 6.0482862E-14
110.5916 4.7396619E-13
110.7186 9.0800045E-13
110.8456 1.3577989E-12
110.9727 1.8179207E-12
111.0997 2.2821898E-12
111.2267 2.7436183E-12
111.3538 3.1943467E-12
111.4808 3.6256104E-12
111.6078 4.0277421E-12
111.7349 4.3902169E-12
111.8619 4.7017546E-12
111.9889 4.9504810E-12
112.1160 5.1241511E-12
112.2430 5.2104449E-12
112.3700 5.1973191E-12
112.4971 5.0734269E-12
112.6241 4.8285841E-12
112.7511 4.4542746E-12
112.8782 3.9441796E-12
113.0052 3.2947106E-12
113.1322 2.5055253E-12
113.2593 1.5800036E-12
113.3863 5.2565499E-13
113.5133 -6.4555772E-13
113.6404 -1.9170158E-12
113.7674 -3.2673740E-12
113.8944 -4.6706389E-12
114.0215 -6.0964259E-12
114.1485 -7.5103864E-12
114.2755 -8.8748219E-12
114.4026 -1.0149470E-11
114.5296 -1.1292465E-11
114.6566 -1.2261452E-11
114.7837 -1.3014815E-11
114.9107 -1.3513011E-11
115.0377 -1.3719965E-11
115.1647 -1.3604467E-11
115.2918 -1.3141546E-11
115.4188 -1.2313764E-11
115.5459 -1.1112376E-11
115.6729 -9.5383102E-12
115.7999 -7.6029278E-12
115.9269 -5.3285033E-12
116.0540 -2.7484137E-12
116.1810 9.3009422E-14
116.3080 3.1409745E-12
116.4351 6.3310811E-12
116.5621 9.5905150E-12
116.6891 1.2839590E-11
116.8162 1.5993575E-11
116.9432 1.8964807E-11
117.0702 2.1665005E-11
117.1973 2.4007728E-11
117.3243 2.5910924E-11
117.4513 2.7299505E-11
117.5784 2.8107796E-11
117.7054 2.8281887E-11
117.8324 2.7781720E-11
117.9595 2.6582877E-11
118.0865 2.4678004E-11
118.2135 2.2077788E-11
118.3406 1.8811465E-11
118.4676 1.4926813E-11
118.5946 1.0489629E-11
118.7217 5.5826476E-12
118.8487 3.0398069E-13
118.9757 -5.2349531E-12
119.1028 -1.0911915E-11
119.2298 -1.6596717E-11
119.3568 -2.2154376E-11
119.4839 -2.7448488E-11
119.6109 -3.2344717E-11
119.7379 -3.6714267E-11
119.8650 -4.0437334E-11
119.9920 -4.3406296E-11
120.1190 -4.5528657E-11
120.2461 -4.6729655E-11
120.3731 -4.6954364E-11
120.5001 -4.6169329E-11
120.6272 -4.4363645E-11
120.7542 -4.1549434E-11
120.8812 -3.7761794E-11
121.0083 -3.3058049E-11
121.1353 -2.7516558E-11
121.2623 -2.1234941E-11
121.3894 -1.4327863E-11
121.5164 -6.9244163E-12
121.6434 8.3477902E-13
121.7704 8.8007041E-12
121.8975 1.6819218E-11
122.0245 2.4734343E-11
122.1516 3.2391478E-11
122.2786 3.9640544E-11
122.4056 4.6338797E-11
122.5326 5.2353476E-11
122.6597 5.7564033E-11
122.7867 6.1864062E-11
122.9137 6.5162799E-11
123.0408 6.7386242E-11
123.1678 6.8477904E-11
123.2948 6.8399203E-11
123.4219 6.7129538E-11
123.5489 6.4666064E-11
123.6759 6.1023291E-11
123.8030 5.6232501E-11
123.9300 5.0341009E-11
124.0570 4.3411424E-11
124.1841 3.5520840E-11
124.3111 2.6760066E-11
124.4381 1.7232920E-11
124.5652 7.0555098E-12
124.6922 -3.6443743E-12
124.8192 -1.4727884E-11
124.9463 -2.6045709E-11
125.0733 -3.7438760E-11
125.2003 -4.8738923E-11
125.3274 -5.9769974E-11
125.4544 -7.0348768E-11
125.5814 -8.0286722E-11
125.7085 -8.9391550E-11
125.8355 -9.7469560E-11
125.9625 -1.0432829E-10
126.0896 -1.0977962E-10
126.2166 -1.1364334E-10
126.3436 -1.1575126E-10
126.4707 -1.1595148E-10
126.5977 -1.1411316E-10
126.7247 -1.1013139E-10
126.8518 -1.0393220E-10
126.9788 -9.5477355E-11
127.1058 -8.4768983E-11
127.2329 -7.1853780E-11
127.3599 -5.6826498E-11
127.4869 -3.9832533E-11
127.6140 -2.1069717E-11
127.7410 -7.8870542E-13
127.8680 2.0707894E-11
127.9950 4.3067886E-11
128.1221 6.5893416E-11
128.2491 8.8746448E-11
128.3761 1.1115583E-10
128.5032 1.3262595E-10
128.6302 1.5264671E-10
128.7572 1.7070485E-10
128.8843 1.8629615E-10
129.0113 1.9893844E-10
129.1383 2.0818515E-10
129.2654 2.1363883E-10
129.3924 2.1496413E-10
129.5194 2.1190064E-10
129.6465 2.0427419E-10
129.7735 1.9200667E-10
129.9005 1.7512414E-10
130.0276 1.5376264E-10
130.1546 1.2817138E-10
130.2816 9.8713301E-11
130.4087 6.5862524E-11
130.5357 3.0198767E-11
130.6627 -7.6011966E-12
130.7898 -4.6775379E-11
130.9168 -8.6491203E-11
131.0438 -1.2586249E-10
131.1709 -1.6396906E-10
131.2979 -1.9987836E-10
131.4249 -2.3266809E-10
131.5520 -2.6144992E-10
131.6790 -2.8539374E-10
131.8060 -3.0375105E-10
131.9331 -3.1587774E-10
132.0601 -3.2125536E-10
132.1871 -3.1950950E-10
132.3142 -3.1042605E-10
132.4412 -2.9396355E-10
132.5682 -2.7026190E-10
132.6953 -2.3964655E-10
132.8223 -2.0262841E-10
132.9493 -1.5989901E-10
133.0764 -1.1232035E-10
133.2034 -6.0910318E-11
133.3304 -6.8236623E-12
133.4575 4.8671799E-11
133.5845 1.0422246E-10
133.7115 1.5841983E-10
133.8385 2.0983400E-10
133.9656 2.5704894E-10
134.0926 2.9869923E-10
134.2197 3.3350694E-10
134.3467 3.6031750E-10
134.4737 3.7813488E-10
134.6008 3.8615303E-10
134.7278 3.8378511E-10
134.8548 3.7068748E-10
134.9818 3.4677952E-10
135.1089 3.1225694E-10
135.2359 2.6759941E-10
135.3629 2.1357098E-10
135.4900 1.5121394E-10
135.6170 8.1835393E-11
135.7440 6.9861816E-12
135.8711 -7.1565989E-11
135.9981 -1.5187014E-10
136.1251 -2.3183291E-10
136.2522 -3.0926223E-10
136.3792 -3.8191689E-10
136.5062 -4.4755877E-10
136.6333 -5.0400745E-10
136.7603 -5.4919508E-10
136.8873 -5.8122201E-10
137.0144 -5.9840893E-10
137.1414 -5.9934763E-10
137.2684 -5.8294669E-10
137.3955 -5.4847116E-10
137.5225 -4.9557541E-10
137.6495 -4.2433049E-10
137.7766 -3.3523923E-10
137.9036 -2.2924519E-10
138.0306 -1.0773062E-10
138.1577 2.7495659E-11
138.2847 1.7422007E-10
138.4117 3.2985492E-10
138.5388 4.9147947E-10
138.6658 6.5588879E-10
138.7928 8.1964957E-10
138.9199 9.7916331E-10
139.0469 1.1307336E-09
139.1739 1.2706380E-09
139.3009 1.3952011E-09
139.4280 1.5008678E-09
139.5550 1.5842759E-09
139.6821 1.6423268E-09
139.8091 1.6722495E-09
139.9361 1.6716608E-09
140.0632 1.6386180E-09
140.1902 1.5716620E-09
140.3172 1.4698543E-09
140.4442 1.3328011E-09
140.5713 1.1606689E-09
140.6983 9.5419106E-10
140.8253 7.1466255E-10
140.9524 4.4392628E-10
141.0794 1.4435114E-10
141.2065 -1.8119987E-10
141.3335 -5.2940552E-10
141.4605 -8.9653029E-10
141.5875 -1.2784712E-09
141.7146 -1.6708090E-09
141.8416 -2.0688582E-09
141.9686 -2.4677216E-09
142.0957 -2.8623388E-09
142.2227 -3.2475387E-09
142.3497 -3.6180823E-09
142.4768 -3.9687085E-09
142.6038 -4.2941735E-09
142.7308 -4.5892836E-09
142.8579 -4.8489279E-09
142.9849 -5.0681059E-09
143.1119 -5.2419562E-09
143.2390 -5.3657758E-09
143.3660 -5.4350444E-09
143.4930 -5.4454499E-09
143.6201 -5.3929101E-09
143.7471 -5.2736042E-09
143.8741 -5.0840048E-09
144.0012 -4.8209143E-09
144.1282 -4.4815107E-09
144.2552 -4.0633981E-09
144.3823 -3.5646661E-09
144.5093 -2.9839546E-09
144.6363 -2.3205309E-09
144.7634 -1.5743656E-09
144.8904 -7.4621864E-10
145.0174 1.6227267E-10
145.1445 1.1485031E-09
145.2715 2.2088120E-09
145.3985 3.3383978E-09
145.5256 4.5312416E-09
145.6526 5.7800387E-09
145.7796 7.0761441E-09
145.9066 8.4095353E-09
146.0337 9.7687956E-09
146.1607 1.1141119E-08
146.2878 1.2512343E-08
146.4148 1.3867002E-08
146.5418 1.5188419E-08
146.6689 1.6458825E-08
146.7959 1.7659504E-08
146.9229 1.8770974E-08
147.0499 1.9773200E-08
147.1770 2.0645823E-08
147.3040 2.1368429E-08
147.4310 2.1920826E-08
147.5581 2.2283350E-08
147.6851 2.2437174E-08
147.8121 2.2364627E-08
