-4.500000 1.0472097E-17
-4.372967 1.0475735E-17
-4.245934 1.0482465E-17
-4.118902 1.0491375E-17
-3.991869 1.0501373E-17
-3.864837 1.0511407E-17
-3.737804 1.0520662E-17
-3.610771 1.0528708E-17
-3.483739 1.0535546E-17
-3.356706 1.0541559E-17
-3.229674 1.0547385E-17
-3.102641 1.0553724E-17
-2.975608 1.0561145E-17
-2.848576 1.0569927E-17
-2.721543 1.0579987E-17
-2.594510 1.0590879E-17
-2.467478 1.0601909E-17
-2.340445 1.0612288E-17
-2.213412 1.0621329E-17
-2.086380 1.0628611E-17
-1.959347 1.0634084E-17
-1.832314 1.0638092E-17
-1.705282 1.0641292E-17
-1.578249 1.0644513E-17
-1.451216 1.0648565E-17
-1.324184 1.0654063E-17
-1.197151 1.0661284E-17
-1.070119 1.0670110E-17
-0.9430859 1.0680056E-17
-0.8160533 1.0690365E-17
-0.6890206 1.0700159E-17
-0.5619880 1.0708620E-17
-0.4349554 1.0715167E-17
-0.3079227 1.0719631E-17
-0.1808901 1.0722392E-17
-5.3857423E-02 1.0724451E-17
7.3175222E-02 1.0727364E-17
0.2002079 1.0732945E-17
0.3272405 1.0742662E-17
0.4542732 1.0756753E-17
0.5813058 1.0773249E-17
0.7083384 1.0787367E-17
0.8353711 1.0791822E-17
0.9624037 1.0778668E-17
1.089436 1.0742901E-17
1.216469 1.0687346E-17
1.343502 1.0627436E-17
1.470534 1.0593581E-17
1.597567 1.0628373E-17
1.724600 1.0776488E-17
1.851632 1.1066816E-17
1.978665 1.1489313E-17
2.105698 1.1972511E-17
2.232730 1.2370563E-17
2.359763 1.2469892E-17
2.486795 1.2023678E-17
2.613828 1.0817156E-17
2.740861 8.7583455E-18
2.867893 5.9791076E-18
2.994926 2.9225466E-18
3.121959 3.8750028E-19
3.248991 -4.9895012E-19
3.376024 1.5964297E-18
3.503057 7.9856769E-18
3.630089 1.9632270E-17
3.757122 3.6747102E-17
3.884155 5.8351014E-17
4.011187 8.1869321E-17
4.138220 1.0284916E-16
4.265253 1.1491857E-16
4.392285 1.1012986E-16
4.519318 7.9835946E-17
4.646350 1.6216624E-17
4.773383 -8.5523004E-17
4.900416 -2.2442988E-16
5.027448 -3.9094896E-16
5.154481 -5.6461125E-16
5.281514 -7.1318168E-16
5.408546 -7.9429006E-16
5.535579 -7.6042055E-16
5.662611 -5.6765141E-16
5.789644 -1.8770222E-16
5.916677 3.7825146E-16
6.043710 1.0866864E-15
6.170742 1.8433480E-15
6.297775 2.5032564E-15
6.424808 2.8823758E-15
6.551840 2.7825879E-15
6.678873 2.0290240E-15
6.805905 5.1566508E-16
6.932938 -1.7479625E-15
7.059971 -4.5984694E-15
7.187003 -7.6988900E-15
7.314036 -1.0546594E-14
7.441069 -1.2514489E-14
7.568101 -1.2926098E-14
7.695134 -1.1159045E-14
7.822166 -6.7654520E-15
7.949199 4.0706281E-16
8.076232 1.0112892E-14
8.203264 2.1643701E-14
8.330297 3.3818221E-14
8.457330 4.5038477E-14
8.584362 5.3417780E-14
8.711395 5.6978056E-14
8.838428 5.3905814E-14
8.965461 4.2847568E-14
9.092493 2.3217198E-14
9.219525 -4.5202023E-15
9.346559 -3.8630001E-14
9.473591 -7.6001495E-14
9.600623 -1.1219952E-13
9.727656 -1.4171508E-13
9.854689 -1.5844209E-13
9.981722 -1.5638641E-13
10.10875 -1.3058302E-13
10.23579 -7.8162222E-14
10.36282 5.3250944E-16
10.48985 1.0090742E-13
10.61689 2.1332171E-13
10.74392 3.2270410E-13
10.87095 4.0875127E-13
10.99798 4.4685178E-13
11.12502 4.0982972E-13
11.25205 2.7053780E-13
11.37908 5.2417512E-15
11.50611 -4.0235697E-13
11.63315 -9.5671572E-13
11.76018 -1.6460170E-12
11.88721 -2.4381471E-12
12.01424 -3.2775967E-12
12.14128 -4.0838223E-12
12.26831 -4.7516093E-12
12.39534 -5.1539211E-12
12.52237 -5.1476180E-12
12.64941 -4.5822664E-12
12.77644 -3.3120486E-12
12.90347 -1.2105224E-12
13.03051 1.8123225E-12
13.15754 5.7915942E-12
13.28457 1.0688819E-11
13.41160 1.6374570E-11
13.53864 2.2614183E-11
13.66567 2.9058523E-11
13.79270 3.5241757E-11
13.91973 4.0588102E-11
14.04677 4.4429051E-11
14.17380 4.6032227E-11
14.30083 4.4642217E-11
14.42786 3.9532790E-11
14.55490 3.0069003E-11
14.68193 1.5776337E-11
14.80896 -3.5869539E-12
14.93600 -2.7959126E-11
15.06303 -5.6911649E-11
15.19006 -8.9599397E-11
15.31709 -1.2473063E-10
15.44413 -1.6056258E-10
15.57116 -1.9492757E-10
15.69819 -2.2529327E-10
15.82522 -2.4885874E-10
15.95226 -2.6268585E-10
16.07929 -2.6386293E-10
16.20632 -2.4969518E-10
16.33335 -2.1791340E-10
16.46039 -1.6689045E-10
16.58742 -9.5852881E-11
16.71445 -5.0731246E-12
16.84148 1.0397206E-10
16.96852 2.2849202E-10
17.09555 3.6433509E-10
17.22258 5.0601523E-10
17.34962 6.4682093E-10
17.47665 7.7901091E-10
17.60368 8.9409585E-10
17.73071 9.8320130E-10
17.85775 1.0375002E-09
17.98478 1.0486995E-09
18.11181 1.0095599E-09
18.23884 9.1442243E-10
18.36588 7.5971579E-10
18.49291 5.4441218E-10
18.61994 2.7040359E-10
18.74697 -5.7231518E-11
18.87401 -4.3009635E-10
19.00104 -8.3649937E-10
19.12807 -1.2616480E-09
19.25510 -1.6880198E-09
19.38214 -2.0959088E-09
19.50917 -2.4641362E-09
19.63620 -2.7709093E-09
19.76324 -2.9947926E-09
19.89027 -3.1157628E-09
20.01730 -3.1162963E-09
20.14433 -2.9824490E-09
20.27137 -2.7048663E-09
20.39840 -2.2796798E-09
20.52543 -1.7092313E-09
20.65246 -1.0025807E-09
20.77950 -1.7575361E-10
20.90653 7.4830381E-10
21.03356 1.7400870E-09
21.16059 2.7642200E-09
21.28763 3.7804662E-09
21.41466 4.7450461E-09
21.54169 5.6122254E-09
21.66872 6.3361312E-09
21.79576 6.8727353E-09
21.92279 7.1819306E-09
22.04982 7.2296200E-09
22.17686 6.9897275E-09
22.30389 6.4460428E-09
22.43092 5.5938001E-09
22.55795 4.4409036E-09
22.68499 3.0087186E-09
22.81202 1.3323482E-09
22.93905 -5.3964799E-10
23.06608 -2.5461435E-09
23.19312 -4.6149484E-09
23.32015 -6.6649251E-09
23.44718 -8.6086738E-09
23.57421 -1.0355728E-08
23.70125 -1.1816166E-08
23.82828 -1.2904523E-08
23.95531 -1.3543860E-08
24.08235 -1.3669841E-08
24.20938 -1.3234610E-08
24.33641 -1.2210338E-08
24.46344 -1.0592185E-08
24.59048 -8.4005709E-09
24.71751 -5.6825260E-09
24.84454 -2.5120273E-09
24.97157 1.0108245E-09
25.09861 4.7618154E-09
25.22564 8.5958778E-09
25.35267 1.2351553E-08
25.47970 1.5856557E-08
25.60674 1.8934337E-08
25.73377 2.1411397E-08
25.86080 2.3125159E-08
25.98783 2.3932042E-08
26.11487 2.3715469E-08
26.24190 2.2393394E-08
26.36893 1.9925020E-08
26.49597 1.6316323E-08
26.62300 1.1624032E-08
26.75003 5.9577929E-09
26.87706 -5.1980720E-10
27.00410 -7.5954611E-09
27.13113 -1.5009771E-08
27.25816 -2.2464260E-08
27.38519 -2.9630668E-08
27.51223 -3.6162348E-08
27.63926 -4.1707445E-08
27.76629 -4.5923411E-08
27.89332 -4.8492417E-08
28.02036 -4.9137007E-08
28.14739 -4.7635439E-08
28.27442 -4.3835943E-08
28.40145 -3.7669352E-08
28.52849 -2.9159276E-08
28.65552 -1.8429377E-08
28.78255 -5.7071246E-09
28.90959 8.6764267E-09
29.03662 2.4290976E-08
29.16365 4.0615763E-08
29.29068 5.7052645E-08
29.41772 7.2943315E-08
29.54475 8.7590223E-08
29.67178 1.0028074E-07
29.79881 1.1031371E-07
29.92585 1.1702763E-07
30.05288 1.1982951E-07
30.17991 1.1822313E-07
30.30694 1.1183587E-07
30.43398 1.0044278E-07
30.56101 8.3986933E-08
30.68804 6.2594950E-08
30.81507 3.6586940E-08
30.94211 6.4800854E-09
31.06914 -2.7014654E-08
31.19617 -6.3003014E-08
31.32321 -1.0042501E-07
31.45024 -1.3807963E-07
31.57727 -1.7465582E-07
31.70430 -2.0876953E-07
31.83134 -2.3900529E-07
31.95837 -2.6396154E-07
32.08540 -2.8229834E-07
32.21243 -2.9278584E-07
32.33947 -2.9435196E-07
32.46650 -2.8612780E-07
32.59353 -2.6748930E-07
32.72057 -2.3809322E-07
32.84760 -1.9790672E-07
32.97463 -1.4722855E-07
33.10166 -8.6701576E-08
33.22869 -1.7315376E-08
33.35573 5.9601319E-08
33.48276 1.4239862E-07
33.60979 2.2913385E-07
33.73683 3.1760973E-07
33.86386 4.0542182E-07
33.99089 4.9001414E-07
34.11792 5.6874171E-07
34.24496 6.3893845E-07
34.37199 6.9798898E-07
34.49902 7.4340232E-07
34.62605 7.7288530E-07
34.75309 7.8441428E-07
34.88012 7.7630273E-07
35.00715 7.4726267E-07
35.13419 6.9645847E-07
35.26122 6.2355122E-07
35.38825 5.2873213E-07
35.51528 4.1274356E-07
35.64231 2.7688736E-07
35.76935 1.2301915E-07
35.89638 -4.6470998E-08
36.02341 -2.2869183E-07
36.15045 -4.2029751E-07
36.27748 -6.1754645E-07
36.40451 -8.1637182E-07
36.53154 -1.0124612E-06
36.65858 -1.2013447E-06
36.78561 -1.3784891E-06
36.91264 -1.5393944E-06
37.03968 -1.6796935E-06
37.16671 -1.7952487E-06
37.29374 -1.8822470E-06
37.42077 -1.9372869E-06
37.54781 -1.9574595E-06
37.67484 -1.9404183E-06
37.80187 -1.8844379E-06
37.92890 -1.7884604E-06
38.05593 -1.6521278E-06
38.18297 -1.4758004E-06
38.31000 -1.2605619E-06
38.43703 -1.0082101E-06
38.56407 -7.2123652E-07
38.69110 -4.0279431E-07
38.81813 -5.6657374E-08
38.94516 3.1282789E-07
39.07220 7.0079585E-07
39.19923 1.1019170E-06
39.32626 1.5104540E-06
39.45330 1.9203160E-06
39.58033 2.3251071E-06
39.70736 2.7181720E-06
39.83439 3.0926335E-06
39.96143 3.4414204E-06
40.08846 3.7572918E-06
40.21549 4.0328509E-06
40.34253 4.2605534E-06
40.46955 4.4327121E-06
40.59659 4.5414999E-06
40.72362 4.5789502E-06
40.85065 4.5369643E-06
40.97769 4.4073226E-06
41.10472 4.1817070E-06
41.23175 3.8517369E-06
41.35878 3.4090174E-06
41.48582 2.8452089E-06
41.61285 2.1521146E-06
41.73988 1.3217874E-06
41.86692 3.4665970E-07
41.99395 -7.8031132E-07
42.12098 -2.0654777E-06
42.24801 -3.5143228E-06
42.37505 -5.1312704E-06
42.50208 -6.9194903E-06
42.62911 -8.8807028E-06
42.75615 -1.1014987E-05
42.88317 -1.3320607E-05
43.01021 -1.5793843E-05
43.13724 -1.8428862E-05
43.26427 -2.1217607E-05
43.39131 -2.4149727E-05
43.51834 -2.7212544E-05
43.64537 -3.0391058E-05
43.77240 -3.3668020E-05
43.89944 -3.7024012E-05
44.02647 -4.0437608E-05
44.15350 -4.3885568E-05
44.28054 -4.7343066E-05
44.40757 -5.0783983E-05
44.53460 -5.4181186E-05
44.66163 -5.7506884E-05
44.78867 -6.0732989E-05
44.91570 -6.3831467E-05
45.04273 -6.6774737E-05
45.16977 -6.9536036E-05
45.29680 -7.2089795E-05
45.42383 -7.4412004E-05
45.55086 -7.6480537E-05
45.67789 -7.8275465E-05
45.80493 -7.9779304E-05
45.93196 -8.0977312E-05
46.05899 -8.1857615E-05
46.18602 -8.2411410E-05
46.31306 -8.2633036E-05
46.44009 -8.2520048E-05
46.56712 -8.2073231E-05
46.69416 -8.1296552E-05
46.82119 -8.0197096E-05
46.94822 -7.8784928E-05
47.07525 -7.7072953E-05
47.20229 -7.5076678E-05
47.32932 -7.2814008E-05
47.45635 -7.0305017E-05
47.58339 -6.7571615E-05
47.71042 -6.4637294E-05
47.83745 -6.1526815E-05
47.96448 -5.8265872E-05
48.09151 -5.4880835E-05
48.21855 -5.1398409E-05
48.34558 -4.7845348E-05
48.47261 -4.4248198E-05
48.59965 -4.0633044E-05
48.72668 -3.7025235E-05
48.85371 -3.3449265E-05
48.98074 -2.9928515E-05
49.10778 -2.6485162E-05
49.23481 -2.3140065E-05
49.36184 -1.9912670E-05
49.48887 -1.6820939E-05
49.61591 -1.3881372E-05
49.74294 -1.1108956E-05
49.86997 -8.5171941E-06
49.99701 -6.1181281E-06
50.12404 -3.9223501E-06
50.25107 -1.9390498E-06
50.37810 -1.7601528E-07
50.50513 1.3603415E-06
50.63217 2.6649650E-06
50.75920 3.7341936E-06
50.88623 4.5657848E-06
51.01327 5.1589577E-06
51.14030 5.5144528E-06
51.26733 5.6346353E-06
51.39436 5.5235432E-06
51.52140 5.1870097E-06
51.64843 4.6327582E-06
51.77546 3.8704634E-06
51.90249 2.9118335E-06
52.02953 1.7706541E-06
52.15656 4.6278328E-07
52.28359 -9.9386534E-07
52.41063 -2.5794011E-06
52.53766 -4.2720958E-06
52.66469 -6.0485609E-06
52.79172 -7.8839912E-06
52.91875 -9.7524289E-06
53.04579 -1.1627147E-05
53.17282 -1.3481004E-05
53.29985 -1.5286880E-05
53.42689 -1.7018097E-05
53.55392 -1.8648921E-05
53.68095 -2.0154970E-05
53.80798 -2.1513697E-05
53.93502 -2.2704780E-05
54.06205 -2.3710534E-05
54.18908 -2.4516205E-05
54.31612 -2.5110254E-05
54.44315 -2.5484529E-05
54.57018 -2.5634405E-05
54.69721 -2.5558780E-05
54.82425 -2.5260035E-05
54.95128 -2.4743904E-05
55.07831 -2.4019258E-05
55.20534 -2.3097840E-05
55.33237 -2.1993928E-05
55.45941 -2.0723968E-05
55.58644 -1.9306168E-05
55.71347 -1.7760076E-05
55.84051 -1.6106163E-05
55.96754 -1.4365452E-05
56.09457 -1.2559100E-05
56.22160 -1.0708083E-05
56.34864 -8.8328679E-06
56.47567 -6.9531966E-06
56.60270 -5.0878652E-06
56.72974 -3.2546052E-06
56.85677 -1.4699591E-06
56.98380 2.5076724E-07
57.11083 1.8935148E-06
57.23787 3.4454861E-06
57.36490 4.8951174E-06
57.49193 6.2320946E-06
57.61897 7.4472923E-06
57.74599 8.5328365E-06
57.87303 9.4821007E-06
58.00006 1.0289812E-05
58.12709 1.0952118E-05
58.25413 1.1466738E-05
58.38116 1.1833131E-05
58.50819 1.2052659E-05
58.63522 1.2128802E-05
58.76226 1.2067317E-05
58.88929 1.1876429E-05
59.01632 1.1566964E-05
59.14336 1.1152440E-05
59.27039 1.0649093E-05
59.39742 1.0075820E-05
59.52445 9.4540510E-06
59.65149 8.8075121E-06
59.77852 8.1618846E-06
59.90555 7.5443518E-06
60.03259 6.9830953E-06
60.15961 6.5066492E-06
60.28665 6.1432061E-06
60.41368 5.9198605E-06
60.54071 5.8618371E-06
60.66775 5.9916783E-06
60.79478 6.3284747E-06
60.92181 6.8871423E-06
61.04884 7.6777587E-06
61.17588 8.7050130E-06
61.30291 9.9677964E-06
61.42994 1.1458907E-05
61.55698 1.3164949E-05
61.68401 1.5066415E-05
61.81104 1.7137920E-05
61.93807 1.9348659E-05
62.06511 2.1663014E-05
62.19214 2.4041350E-05
62.31917 2.6440946E-05
62.44621 2.8817049E-05
62.57324 3.1124018E-05
62.70027 3.3316570E-05
62.82730 3.5351000E-05
62.95433 3.7186393E-05
63.08137 3.8785805E-05
63.20840 4.0117400E-05
63.33543 4.1155370E-05
63.46246 4.1880736E-05
63.58950 4.2281994E-05
63.71653 4.2355528E-05
63.84356 4.2105785E-05
63.97060 4.1545260E-05
64.09763 4.0694202E-05
64.22466 3.9580096E-05
64.35169 3.8236925E-05
64.47873 3.6704256E-05
64.60576 3.5026089E-05
64.73279 3.3249624E-05
64.85983 3.1423882E-05
64.98685 2.9598266E-05
65.11389 2.7821063E-05
65.24092 2.6138017E-05
65.36796 2.4590929E-05
65.49499 2.3216351E-05
65.62202 2.2044454E-05
65.74905 2.1098060E-05
65.87608 2.0391886E-05
66.00312 1.9932040E-05
66.13015 1.9715750E-05
66.25719 1.9731413E-05
66.38422 1.9958867E-05
66.51125 2.0369951E-05
66.63828 2.0929361E-05
66.76531 2.1595641E-05
66.89235 2.2322491E-05
67.01938 2.3060195E-05
67.14641 2.3757151E-05
67.27345 2.4361550E-05
67.40047 2.4823021E-05
67.52751 2.5094319E-05
67.65454 2.5132915E-05
67.78158 2.4902494E-05
67.90861 2.4374243E-05
68.03564 2.3528031E-05
68.16267 2.2353213E-05
68.28970 2.0849337E-05
68.41674 1.9026413E-05
68.54377 1.6904947E-05
68.67081 1.4515716E-05
68.79784 1.1899146E-05
68.92487 9.1044503E-06
69.05190 6.1885899E-06
69.17893 3.2148353E-06
69.30597 2.5132363E-07
69.43300 -2.6307084E-06
69.56004 -5.3586705E-06
69.68707 -7.8604835E-06
69.81409 -1.0066377E-05
69.94113 -1.1910766E-05
70.06816 -1.3333864E-05
70.19520 -1.4283253E-05
70.32223 -1.4715250E-05
70.44926 -1.4596002E-05
70.57629 -1.3902386E-05
70.70332 -1.2622570E-05
70.83036 -1.0756295E-05
70.95739 -8.3149207E-06
71.08443 -5.3210442E-06
71.21146 -1.8079551E-06
71.33849 2.1812646E-06
71.46552 6.5948516E-06
71.59255 1.1373630E-05
71.71959 1.6452592E-05
71.84662 2.1762438E-05
71.97366 2.7231325E-05
72.10069 3.2786586E-05
72.22771 3.8356455E-05
72.35475 4.3871692E-05
72.48178 4.9267172E-05
72.60882 5.4483269E-05
72.73585 5.9467067E-05
72.86288 6.4173364E-05
72.98991 6.8565445E-05
73.11694 7.2615592E-05
73.24398 7.6305361E-05
73.37101 7.9625570E-05
73.49805 8.2576065E-05
73.62508 8.5165258E-05
73.75211 8.7409448E-05
73.87914 8.9331952E-05
74.00617 9.0962109E-05
74.13321 9.2334143E-05
74.26024 9.3486015E-05
74.38728 9.4458155E-05
74.51431 9.5292264E-05
74.64133 9.6030126E-05
74.76837 9.6712494E-05
74.89540 9.7378062E-05
75.02244 9.8062614E-05
75.14947 9.8798293E-05
75.27650 9.9612967E-05
75.40353 1.0052990E-04
75.53056 1.0156746E-04
75.65760 1.0273905E-04
75.78463 1.0405325E-04
75.91167 1.0551398E-04
76.03870 1.0712085E-04
76.16573 1.0886972E-04
76.29276 1.1075308E-04
76.41979 1.1276075E-04
76.54683 1.1488039E-04
76.67386 1.1709822E-04
76.80090 1.1939950E-04
76.92793 1.2176915E-04
77.05495 1.2419216E-04
77.18199 1.2665392E-04
77.30902 1.2914067E-04
77.43606 1.3163945E-04
77.56309 1.3413830E-04
77.69012 1.3662604E-04
77.81715 1.3909227E-04
77.94418 1.4152697E-04
78.07122 1.4392016E-04
78.19825 1.4626153E-04
78.32529 1.4853994E-04
78.45232 1.5074290E-04
78.57935 1.5285608E-04
78.70638 1.5486297E-04
78.83341 1.5674433E-04
78.96045 1.5847795E-04
79.08748 1.6003843E-04
79.21452 1.6139710E-04
79.34155 1.6252205E-04
79.46858 1.6337837E-04
79.59561 1.6392850E-04
79.72264 1.6413274E-04
79.84968 1.6394985E-04
79.97671 1.6333797E-04
80.10374 1.6225538E-04
80.23077 1.6066163E-04
80.35780 1.5851845E-04
80.48484 1.5579096E-04
80.61187 1.5244863E-04
80.73891 1.4846638E-04
80.86594 1.4382544E-04
80.99297 1.3851425E-04
81.12000 1.3252911E-04
81.24703 1.2587466E-04
81.37407 1.1856424E-04
81.50110 1.1061995E-04
81.62814 1.0207256E-04
81.75517 9.2961163E-05
81.88220 8.3332568E-05
82.00923 7.3240612E-05
82.13626 6.2745145E-05
82.26330 5.1910964E-05
82.39033 4.0806553E-05
82.51736 2.9502778E-05
82.64439 1.8071512E-05
82.77143 6.5842601E-06
82.89846 -4.8891789E-06
83.02549 -1.6281985E-05
83.15253 -2.7531465E-05
83.27956 -3.8580067E-05
83.40659 -4.9376224E-05
83.53362 -5.9874972E-05
83.66065 -7.0038404E-05
83.78769 -7.9835845E-05
83.91472 -8.9243862E-05
84.04176 -9.8246026E-05
84.16879 -1.0683246E-04
84.29582 -1.1499927E-04
84.42285 -1.2274773E-04
84.54988 -1.3008341E-04
84.67692 -1.3701523E-04
84.80395 -1.4355443E-04
84.93098 -1.4971352E-04
85.05801 -1.5550551E-04
85.18505 -1.6094277E-04
85.31208 -1.6603647E-04
85.43911 -1.7079586E-04
85.56615 -1.7522788E-04
85.69318 -1.7933686E-04
85.82021 -1.8312456E-04
85.94724 -1.8659019E-04
86.07427 -1.8973081E-04
86.20131 -1.9254182E-04
86.32834 -1.9501756E-04
86.45538 -1.9715214E-04
86.58241 -1.9894022E-04
86.70944 -2.0037792E-04
86.83647 -2.0146374E-04
86.96350 -2.0219933E-04
87.09054 -2.0259029E-04
87.21757 -2.0264681E-04
87.34460 -2.0238414E-04
87.47163 -2.0182277E-04
87.59867 -2.0098865E-04
87.72570 -1.9991302E-04
87.85273 -1.9863198E-04
87.97977 -1.9718613E-04
88.10680 -1.9561969E-04
88.23383 -1.9397968E-04
88.36086 -1.9231487E-04
88.48790 -1.9067471E-04
88.61493 -1.8910816E-04
88.74196 -1.8766247E-04
88.86900 -1.8638202E-04
88.99603 -1.8530730E-04
89.12306 -1.8447384E-04
89.25009 -1.8391143E-04
89.37712 -1.8364325E-04
89.50416 -1.8368551E-04
89.63119 -1.8404698E-04
89.75822 -1.8472889E-04
89.88525 -1.8572492E-04
90.01229 -1.8702139E-04
90.13932 -1.8859768E-04
90.26635 -1.9042668E-04
90.39339 -1.9247543E-04
90.52042 -1.9470589E-04
90.64745 -1.9707574E-04
90.77448 -1.9953921E-04
90.90152 -2.0204796E-04
91.02855 -2.0455205E-04
91.15558 -2.0700079E-04
91.28262 -2.0934361E-04
91.40965 -2.1153090E-04
91.53668 -2.1351493E-04
91.66371 -2.1525040E-04
91.79075 -2.1669533E-04
91.91778 -2.1781163E-04
92.04481 -2.1856560E-04
92.17184 -2.1892866E-04
92.29887 -2.1887754E-04
92.42591 -2.1839479E-04
92.55294 -2.1746916E-04
92.67997 -2.1609562E-04
92.80701 -2.1427566E-04
92.93404 -2.1201721E-04
93.06107 -2.0933476E-04
93.18810 -2.0624894E-04
93.31514 -2.0278648E-04
93.44217 -1.9897966E-04
93.56920 -1.9486590E-04
93.69624 -1.9048704E-04
93.82327 -1.8588864E-04
93.95030 -1.8111910E-04
94.07733 -1.7622870E-04
94.20437 -1.7126864E-04
94.33140 -1.6628980E-04
94.45843 -1.6134180E-04
94.58546 -1.5647177E-04
94.71249 -1.5172326E-04
94.83953 -1.4713516E-04
94.96656 -1.4274086E-04
95.09360 -1.3856724E-04
95.22063 -1.3463412E-04
95.34766 -1.3095366E-04
95.47469 -1.2753010E-04
95.60172 -1.2435962E-04
95.72876 -1.2143049E-04
95.85579 -1.1872350E-04
95.98282 -1.1621244E-04
96.10986 -1.1386503E-04
96.23689 -1.1164392E-04
96.36392 -1.0950786E-04
96.49095 -1.0741301E-04
96.61799 -1.0531448E-04
96.74502 -1.0316769E-04
96.87205 -1.0092993E-04
96.99908 -9.8561817E-05
97.12611 -9.6028612E-05
97.25315 -9.3301445E-05
97.38018 -9.0358350E-05
97.50722 -8.7185035E-05
97.63425 -8.3775471E-05
97.76128 -8.0132122E-05
97.88831 -7.6265933E-05
98.01534 -7.2196039E-05
98.14238 -6.7949157E-05
98.26941 -6.3558735E-05
98.39645 -5.9063870E-05
98.52348 -5.4508066E-05
98.65051 -4.9937789E-05
98.77754 -4.5401001E-05
98.90457 -4.0945597E-05
99.03161 -3.6617905E-05
99.15864 -3.2461245E-05
99.28567 -2.8514602E-05
99.41270 -2.4811510E-05
99.53973 -2.1379077E-05
99.66677 -1.8237290E-05
99.79380 -1.5398549E-05
99.92084 -1.2867483E-05
100.0479 -1.0640968E-05
100.1749 -8.7084627E-06
100.3019 -7.0524966E-06
100.4290 -5.6493818E-06
100.5560 -4.4700773E-06
100.6830 -3.4811751E-06
100.8101 -2.6459454E-06
100.9371 -1.9254485E-06
101.0641 -1.2795963E-06
101.1912 -6.6822503E-07
101.3182 -5.2067278E-08
101.4452 6.0638263E-07
101.5723 1.3420909E-06
101.6993 2.1868398E-06
101.8263 3.1687182E-06
101.9534 4.3117111E-06
102.0804 5.6354411E-06
102.2074 7.1550062E-06
102.3345 8.8808811E-06
102.4615 1.0818923E-05
102.5885 1.2970452E-05
102.7156 1.5332338E-05
102.8426 1.7897160E-05
102.9696 2.0653366E-05
103.0966 2.3585473E-05
103.2237 2.6674270E-05
103.3507 2.9897048E-05
103.4777 3.3227825E-05
103.6048 3.6637637E-05
103.7318 4.0094819E-05
103.8588 4.3565364E-05
103.9859 4.7013313E-05
104.1129 5.0401184E-05
104.2399 5.3690528E-05
104.3670 5.6842469E-05
104.4940 5.9818376E-05
104.6210 6.2580562E-05
104.7481 6.5093023E-05
104.8751 6.7322282E-05
105.0021 6.9238158E-05
105.1292 7.0814604E-05
105.2562 7.2030489E-05
105.3832 7.2870331E-05
105.5103 7.3325005E-05
105.6373 7.3392242E-05
105.7643 7.3077128E-05
105.8914 7.2392337E-05
106.0184 7.1358256E-05
106.1454 7.0002912E-05
106.2725 6.8361667E-05
106.3995 6.6476729E-05
106.5265 6.4396438E-05
106.6536 6.2174375E-05
106.7806 5.9868227E-05
106.9076 5.7538567E-05
107.0347 5.5247408E-05
107.1617 5.3056690E-05
107.2887 5.1026727E-05
107.4158 4.9214581E-05
107.5428 4.7672464E-05
107.6698 4.6446257E-05
107.7969 4.5574096E-05
107.9239 4.5085151E-05
108.0509 4.4998607E-05
108.1780 4.5322900E-05
108.3050 4.6055244E-05
108.4320 4.7181413E-05
108.5591 4.8675927E-05
108.6861 5.0502480E-05
108.8131 5.2614749E-05
108.9402 5.4957480E-05
109.0672 5.7467874E-05
109.1942 6.0077175E-05
109.3213 6.2712526E-05
109.4483 6.5298911E-05
109.5753 6.7761212E-05
109.7023 7.0026297E-05
109.8294 7.2025046E-05
109.9564 7.3694362E-05
110.0834 7.4978881E-05
110.2105 7.5832628E-05
110.3375 7.6220247E-05
110.4645 7.6118107E-05
110.5916 7.5514967E-05
110.7186 7.4412244E-05
110.8456 7.2824114E-05
110.9727 7.0777001E-05
111.0997 6.8308946E-05
111.2267 6.5468514E-05
111.3538 6.2313462E-05
111.4808 5.8909165E-05
111.6078 5.5326796E-05
111.7349 5.1641400E-05
111.8619 4.7929854E-05
111.9889 4.4268774E-05
112.1160 4.0732473E-05
112.2430 3.7390982E-05
112.3700 3.4308159E-05
112.4971 3.1540061E-05
112.6241 2.9133447E-05
112.7511 2.7124584E-05
112.8782 2.5538340E-05
113.0052 2.4387566E-05
113.1322 2.3672814E-05
113.2593 2.3382370E-05
113.3863 2.3492623E-05
113.5133 2.3968729E-05
113.6404 2.4765621E-05
113.7674 2.5829229E-05
113.8944 2.7098005E-05
114.0215 2.8504575E-05
114.1485 2.9977633E-05
114.2755 3.1443884E-05
114.4026 3.2830074E-05
114.5296 3.4065037E-05
114.6566 3.5081663E-05
114.7837 3.5818815E-05
114.9107 3.6223035E-05
115.0377 3.6250105E-05
115.1647 3.5866313E-05
115.2918 3.5049492E-05
115.4188 3.3789664E-05
115.5459 3.2089407E-05
115.6729 2.9963836E-05
115.7999 2.7440230E-05
115.9269 2.4557312E-05
116.0540 2.1364183E-05
116.1810 1.7918961E-05
116.3080 1.4287129E-05
116.4351 1.0539714E-05
116.5621 6.7512287E-06
116.6891 2.9975661E-06
116.8162 -6.4618172E-07
116.9432 -4.1078702E-06
117.0702 -7.3203573E-06
117.1973 -1.0223401E-05
117.3243 -1.2765344E-05
117.4513 -1.4904515E-05
117.5784 -1.6610338E-05
117.7054 -1.7864064E-05
117.8324 -1.8659131E-05
117.9595 -1.9001174E-05
118.0865 -1.8907607E-05
118.2135 -1.8406865E-05
118.3406 -1.7537308E-05
118.4676 -1.6345808E-05
118.5946 -1.4886117E-05
118.7217 -1.3217019E-05
118.8487 -1.1400364E-05
118.9757 -9.4990573E-06
119.1028 -7.5750409E-06
119.2298 -5.6873787E-06
119.3568 -3.8904786E-06
119.4839 -2.2325271E-06
119.6109 -7.5419797E-07
119.7379 5.1235816E-07
119.8650 1.5441757E-06
119.9920 2.3277712E-06
120.1190 2.8591094E-06
120.2461 3.1431964E-06
120.3731 3.1933585E-06
120.5001 3.0302476E-06
120.6272 2.6805787E-06
120.7542 2.1757089E-06
120.8812 1.5500868E-06
121.0083 8.3964460E-07
121.1353 8.0219060E-08
121.2623 -6.9395389E-07
121.3894 -1.4516008E-06
121.5164 -2.1655701E-06
121.6434 -2.8137401E-06
121.7704 -3.3796691E-06
121.8975 -3.8529179E-06
122.0245 -4.2291003E-06
122.1516 -4.5096081E-06
122.2786 -4.7010717E-06
122.4056 -4.8145821E-06
122.5326 -4.8647089E-06
122.6597 -4.8683760E-06
122.7867 -4.8436559E-06
122.9137 -4.8085403E-06
123.0408 -4.7797616E-06
123.1678 -4.7716985E-06
123.2948 -4.7954659E-06
123.4219 -4.8581769E-06
123.5489 -4.9624623E-06
123.6759 -5.1062334E-06
123.8030 -5.2827163E-06
123.9300 -5.4807451E-06
124.0570 -5.6853009E-06
124.1841 -5.8782539E-06
124.3111 -6.0392927E-06
124.4381 -6.1469714E-06
124.5652 -6.1798087E-06
124.6922 -6.1174374E-06
124.8192 -5.9416684E-06
124.9463 -5.6374911E-06
125.0733 -5.1939187E-06
125.2003 -4.6045993E-06
125.3274 -3.8682892E-06
125.4544 -2.9889848E-06
125.5814 -1.9758882E-06
125.7085 -8.4307084E-07
125.8355 3.9110023E-07
125.9625 1.7046890E-06
126.0896 3.0731483E-06
126.2166 4.4703402E-06
126.3436 5.8696683E-06
126.4707 7.2451935E-06
126.5977 8.5727152E-06
126.7247 9.8307764E-06
126.8518 1.1001483E-05
126.9788 1.2071186E-05
127.1058 1.3030905E-05
127.2329 1.3876534E-05
127.3599 1.4608800E-05
127.4869 1.5232955E-05
127.6140 1.5758265E-05
127.7410 1.6197273E-05
127.8680 1.6564900E-05
127.9950 1.6877433E-05
128.1221 1.7151438E-05
128.2491 1.7402670E-05
128.3761 1.7645021E-05
128.5032 1.7889592E-05
128.6302 1.8143905E-05
128.7572 1.8411318E-05
128.8843 1.8690685E-05
129.0113 1.8976270E-05
129.1383 1.9257905E-05
129.2654 1.9521431E-05
129.3924 1.9749370E-05
129.5194 1.9921801E-05
129.6465 2.0017418E-05
129.7735 2.0014664E-05
129.9005 1.9892959E-05
130.0276 1.9633904E-05
130.1546 1.9222425E-05
130.2816 1.8647779E-05
130.4087 1.7904396E-05
130.5357 1.6992492E-05
130.6627 1.5918446E-05
130.7898 1.4694844E-05
130.9168 1.3340318E-05
131.0438 1.1879038E-05
131.1709 1.0339997E-05
131.2979 8.7560347E-06
131.4249 7.1627146E-06
131.5520 5.5970327E-06
131.6790 4.0961045E-06
131.8060 2.6957998E-06
131.9331 1.4294387E-06
132.0601 3.2660935E-07
132.1871 -5.8788737E-07
132.3142 -1.2948832E-06
132.4412 -1.7814680E-06
132.5682 -2.0413686E-06
132.6953 -2.0750833E-06
132.8223 -1.8897657E-06
132.9493 -1.4988699E-06
133.0764 -9.2160025E-07
133.2034 -1.8217214E-07
133.3304 6.9106221E-07
133.4575 1.6665902E-06
133.5845 2.7107681E-06
133.7115 3.7888601E-06
133.8385 4.8660718E-06
133.9656 5.9085032E-06
134.0926 6.8840200E-06
134.2197 7.7630202E-06
134.3467 8.5190713E-06
134.4737 9.1293932E-06
134.6008 9.5752357E-06
134.7278 9.8420733E-06
134.8548 9.9197314E-06
134.9818 9.8023502E-06
135.1089 9.4882735E-06
135.2359 8.9798514E-06
135.3629 8.2831748E-06
135.4900 7.4077880E-06
135.6170 6.3663133E-06
135.7440 5.1740694E-06
135.8711 3.8487133E-06
135.9981 2.4098160E-06
136.1251 8.7845700E-07
136.2522 -7.2315891E-07
136.3792 -2.3721345E-06
136.5062 -4.0452746E-06
136.6333 -5.7194998E-06
136.7603 -7.3722413E-06
136.8873 -8.9818423E-06
137.0144 -1.0527959E-05
137.1414 -1.1991916E-05
137.2684 -1.3357090E-05
137.3955 -1.4609230E-05
137.5225 -1.5736745E-05
137.6495 -1.6730952E-05
137.7766 -1.7586259E-05
137.9036 -1.8300279E-05
138.0306 -1.8873858E-05
138.1577 -1.9311023E-05
138.2847 -1.9618830E-05
138.4117 -1.9807138E-05
138.5388 -1.9888263E-05
138.6658 -1.9876583E-05
138.7928 -1.9788036E-05
138.9199 -1.9639578E-05
139.0469 -1.9448611E-05
139.1739 -1.9232362E-05
139.3009 -1.9007290E-05
139.4280 -1.8788482E-05
139.5550 -1.8589126E-05
139.6821 -1.8420043E-05
139.8091 -1.8289282E-05
139.9361 -1.8201828E-05
140.0632 -1.8159439E-05
140.1902 -1.8160576E-05
140.3172 -1.8200482E-05
140.4442 -1.8271379E-05
140.5713 -1.8362773E-05
140.6983 -1.8461862E-05
140.8253 -1.8554076E-05
140.9524 -1.8623636E-05
141.0794 -1.8654197E-05
141.2065 -1.8629522E-05
141.3335 -1.8534120E-05
141.4605 -1.8353890E-05
141.5875 -1.8076724E-05
141.7146 -1.7693010E-05
141.8416 -1.7196044E-05
141.9686 -1.6582373E-05
142.0957 -1.5851971E-05
142.2227 -1.5008311E-05
142.3497 -1.4058319E-05
142.4768 -1.3012170E-05
142.6038 -1.1882997E-05
142.7308 -1.0686465E-05
142.8579 -9.4402712E-06
142.9849 -8.1635535E-06
143.1119 -6.8762715E-06
143.2390 -5.5985406E-06
143.3660 -4.3499708E-06
143.4930 -3.1490370E-06
143.6201 -2.0124810E-06
143.7471 -9.5480448E-07
143.8741 1.2158334E-08
144.0012 8.7954515E-07
144.1282 1.6416689E-06
144.2552 2.2960776E-06
144.3823 2.8434936E-06
144.5093 3.2876287E-06
144.6363 3.6348849E-06
144.7634 3.8939602E-06
144.8904 4.0753639E-06
145.0174 4.1908825E-06
145.1445 4.2530064E-06
145.2715 4.2743359E-06
145.3985 4.2670204E-06
145.5256 4.2422212E-06
145.6526 4.2096385E-06
145.7796 4.1771245E-06
145.9066 4.1503954E-06
146.0337 4.1328526E-06
146.1607 4.1255184E-06
146.2878 4.1271041E-06
146.4148 4.1342087E-06
146.5418 4.1415760E-06
146.6689 4.1425337E-06
146.7959 4.1294184E-06
146.9229 4.0941190E-06
147.0499 4.0286145E-06
147.1770 3.9255278E-06
147.3040 3.7786442E-06
147.4310 3.5833582E-06
147.5581 3.3370718E-06
147.6851 3.0394635E-06
147.8121 2.6926703E-06
