-4.500000 1.0641342E-17
-4.372967 1.0645585E-17
-4.245934 1.0653451E-17
-4.118902 1.0663907E-17
-3.991869 1.0675720E-17
-3.864837 1.0687695E-17
-3.737804 1.0698910E-17
-3.610771 1.0708871E-17
-3.483739 1.0717568E-17
-3.356706 1.0725417E-17
-3.229674 1.0733109E-17
-3.102641 1.0741399E-17
-2.975608 1.0750889E-17
-2.848576 1.0761856E-17
-2.721543 1.0774171E-17
-2.594510 1.0787307E-17
-2.467478 1.0800471E-17
-2.340445 1.0812788E-17
-2.213412 1.0823510E-17
-2.086380 1.0832206E-17
-1.959347 1.0838871E-17
-1.832314 1.0843934E-17
-1.705282 1.0848174E-17
-1.578249 1.0852540E-17
-1.451216 1.0857936E-17
-1.324184 1.0865020E-17
-1.197151 1.0874049E-17
-1.070119 1.0884829E-17
-0.9430859 1.0896761E-17
-0.8160533 1.0908982E-17
-0.6890206 1.0920566E-17
-0.5619880 1.0930739E-17
-0.4349554 1.0939055E-17
-0.3079227 1.0945488E-17
-0.1808901 1.0950429E-17
-5.3857423E-02 1.0954582E-17
7.3175222E-02 1.0958787E-17
0.2002079 1.0963811E-17
0.3272405 1.0970161E-17
0.4542732 1.0977965E-17
0.5813058 1.0986947E-17
0.7083384 1.0996506E-17
0.8353711 1.1005875E-17
0.9624037 1.1014320E-17
1.089436 1.1021327E-17
1.216469 1.1026708E-17
1.343502 1.1030613E-17
1.470534 1.1033426E-17
1.597567 1.1035575E-17
1.724600 1.1037326E-17
1.851632 1.1038648E-17
1.978665 1.1039217E-17
2.105698 1.1038604E-17
2.232730 1.1036666E-17
2.359763 1.1034006E-17
2.486795 1.1032386E-17
2.613828 1.1034858E-17
2.740861 1.1045451E-17
2.867893 1.1068299E-17
2.994926 1.1106271E-17
3.121959 1.1159356E-17
3.248991 1.1223242E-17
3.376024 1.1288672E-17
3.503057 1.1342084E-17
3.630089 1.1367894E-17
3.757122 1.1352326E-17
3.884155 1.1288249E-17
4.011187 1.1179927E-17
4.138220 1.1046317E-17
4.265253 1.0921554E-17
4.392285 1.0851658E-17
4.519318 1.0887368E-17
4.646350 1.1074009E-17
4.773383 1.1440328E-17
4.900416 1.1988785E-17
5.027448 1.2689794E-17
5.154481 1.3481602E-17
5.281514 1.4276150E-17
5.408546 1.4969747E-17
5.535579 1.5456216E-17
5.662611 1.5639807E-17
5.789644 1.5445907E-17
5.916677 1.4829069E-17
6.043710 1.3779520E-17
6.170742 1.2330355E-17
6.297775 1.0566887E-17
6.424808 8.6373645E-18
6.551840 6.7603929E-18
6.678873 5.2208460E-18
6.805905 4.3443199E-18
6.932938 4.4424359E-18
7.059971 5.7281654E-18
7.187003 8.2113094E-18
7.314036 1.1596444E-17
7.441069 1.5215073E-17
7.568101 1.8025804E-17
7.695134 1.8707843E-17
7.822166 1.5853615E-17
7.949199 8.2389290E-18
8.076232 -4.8790020E-18
8.203264 -2.3505472E-17
8.330297 -4.6767399E-17
8.457330 -7.2942758E-17
8.584362 -9.9676521E-17
8.711395 -1.2434735E-16
8.838428 -1.4449798E-16
8.965461 -1.5820757E-16
9.092493 -1.6428070E-16
9.219525 -1.6216337E-16
9.346559 -1.5156735E-16
9.473591 -1.3187899E-16
9.600623 -1.0152238E-16
9.727656 -5.7512882E-17
9.854689 4.5481418E-18
9.981722 8.9841324E-17
10.10875 2.0298656E-16
10.23579 3.4609271E-16
10.36282 5.1650105E-16
10.48985 7.0470023E-16
10.61689 8.9300270E-16
10.74392 1.0555776E-15
10.87095 1.1603108E-15
10.99798 1.1727098E-15
11.12502 1.0617034E-15
11.25205 8.0676786E-16
11.37908 4.0539256E-16
11.50611 -1.2042735E-16
11.63315 -7.2014111E-16
11.76018 -1.3144394E-15
11.88721 -1.7999670E-15
12.01424 -2.0594336E-15
12.14128 -1.9768076E-15
12.26831 -1.4563808E-15
12.39534 -4.4360765E-16
12.52237 1.0550855E-15
12.64941 2.9567114E-15
12.77644 5.0935229E-15
12.90347 7.2148276E-15
13.03051 9.0004586E-15
13.15754 1.0086147E-14
13.28457 1.0099453E-14
13.41160 8.7032906E-15
13.53864 5.6427942E-15
13.66567 7.9033357E-16
13.79270 -5.8166595E-15
13.91973 -1.3949929E-14
14.04677 -2.3180425E-14
14.17380 -3.2886125E-14
14.30083 -4.2277756E-14
14.42786 -5.0440737E-14
14.55490 -5.6390107E-14
14.68193 -5.9134345E-14
14.80896 -5.7743788E-14
14.93600 -5.1419748E-14
15.06303 -3.9561067E-14
15.19006 -2.1825683E-14
15.31709 1.8146696E-15
15.44413 3.1028677E-14
15.57116 6.5091297E-14
15.69819 1.0286491E-13
15.82522 1.4280092E-13
15.95226 1.8296728E-13
16.07929 2.2110735E-13
16.20632 2.5473357E-13
16.33335 2.8125549E-13
16.46039 2.9813708E-13
16.58742 3.0307218E-13
16.71445 2.9416050E-13
16.84148 2.7006340E-13
16.96852 2.3011527E-13
17.09555 1.7436878E-13
17.22258 1.0355798E-13
17.34962 1.8971170E-14
17.47665 -7.7760267E-14
17.60368 -1.8493924E-13
17.73071 -3.0111268E-13
17.85775 -4.2536975E-13
17.98478 -5.5757504E-13
18.11181 -6.9848115E-13
18.23884 -8.4966555E-13
18.36588 -1.0132480E-12
18.49291 -1.1913560E-12
18.61994 -1.3853295E-12
18.74697 -1.5946784E-12
18.87401 -1.8158396E-12
19.00104 -2.0408102E-12
19.12807 -2.2557739E-12
19.25510 -2.4398673E-12
19.38214 -2.5642732E-12
19.50917 -2.5918436E-12
19.63620 -2.4774731E-12
19.76324 -2.1694369E-12
19.89027 -1.6118720E-12
20.01730 -7.4852288E-13
20.14433 4.7221369E-13
20.27137 2.0910329E-12
20.39840 4.1304815E-12
20.52543 6.5871089E-12
20.65246 9.4235479E-12
20.77950 1.2561186E-11
20.90653 1.5874210E-11
21.03356 1.9185847E-11
21.16059 2.2267641E-11
21.28763 2.4842526E-11
21.41466 2.6592317E-11
21.54169 2.7170056E-11
21.66872 2.6217356E-11
21.79576 2.3386583E-11
21.92279 1.8367349E-11
22.04982 1.0916409E-11
22.17686 8.8963721E-13
22.30389 -1.1725612E-11
22.43092 -2.6779788E-11
22.55795 -4.3934443E-11
22.68499 -6.2642072E-11
22.81202 -8.2135125E-11
22.93905 -1.0142671E-10
23.06608 -1.1932537E-10
23.19312 -1.3446555E-10
23.32015 -1.4535516E-10
23.44718 -1.5044034E-10
23.57421 -1.4818674E-10
23.70125 -1.3717517E-10
23.82828 -1.1620873E-10
23.95531 -8.4426383E-11
24.08235 -4.1417730E-11
24.20938 1.2668077E-11
24.33641 7.7026711E-11
24.46344 1.5012433E-10
24.59048 2.2965251E-10
24.71751 3.1251987E-10
24.84454 3.9488698E-10
24.97157 4.7224952E-10
25.09861 5.3957250E-10
25.22564 5.9147653E-10
25.35267 6.2247263E-10
25.47970 6.2724104E-10
25.60674 6.0094435E-10
25.73377 5.3956323E-10
25.86080 4.4023896E-10
25.98783 3.0160632E-10
26.11487 1.2409580E-10
26.24190 -8.9813892E-11
26.36893 -3.3541453E-10
26.49597 -6.0567623E-10
26.62300 -8.9126273E-10
26.75003 -1.1806658E-09
26.87706 -1.4604687E-09
27.00410 -1.7157414E-09
27.13113 -1.9305626E-09
27.25816 -2.0886619E-09
27.38519 -2.1741611E-09
27.51223 -2.1723923E-09
27.63926 -2.0707627E-09
27.76629 -1.8596273E-09
27.89332 -1.5331295E-09
28.02036 -1.0899651E-09
28.14739 -5.3402482E-10
28.27442 1.2513236E-10
28.40145 8.7201474E-10
28.52849 1.6851803E-09
28.65552 2.5374942E-09
28.78255 3.3966814E-09
28.90959 4.2261799E-09
29.03662 4.9862887E-09
29.16365 5.6355876E-09
29.29068 6.1325913E-09
29.41772 6.4375865E-09
29.54475 6.5145844E-09
29.67178 6.3333063E-09
29.79881 5.8711214E-09
29.92585 5.1148312E-09
30.05288 4.0622150E-09
30.17991 2.7232325E-09
30.30694 1.1208030E-09
30.43398 -7.0891704E-10
30.56101 -2.7168112E-09
30.68804 -4.8416746E-09
30.81507 -7.0116863E-09
30.94211 -9.1464685E-09
31.06914 -1.1159680E-08
31.19617 -1.2962081E-08
31.32321 -1.4464947E-08
31.45024 -1.5583719E-08
31.57727 -1.6241742E-08
31.70430 -1.6373916E-08
31.83134 -1.5930116E-08
31.95837 -1.4878203E-08
32.08540 -1.3206460E-08
32.21243 -1.0925340E-08
32.33947 -8.0683975E-09
32.46650 -4.6923376E-09
32.59353 -8.7613355E-10
32.72057 3.2807765E-09
32.84760 7.6611757E-09
32.97463 1.2133540E-08
33.10166 1.6556182E-08
33.22869 2.0781902E-08
33.35573 2.4662960E-08
33.48276 2.8056169E-08
33.60979 3.0827923E-08
33.73683 3.2858907E-08
33.86386 3.4048369E-08
33.99089 3.4317718E-08
34.11792 3.3613389E-08
34.24496 3.1908812E-08
34.37199 2.9205488E-08
34.49902 2.5533136E-08
34.62605 2.0948963E-08
34.75309 1.5536111E-08
34.88012 9.4014077E-09
35.00715 2.6725437E-09
35.13419 -4.5051851E-09
35.26122 -1.1972420E-08
35.38825 -1.9559428E-08
35.51528 -2.7089794E-08
35.64231 -3.4384069E-08
35.76935 -4.1263210E-08
35.89638 -4.7551893E-08
36.02341 -5.3081578E-08
36.15045 -5.7693423E-08
36.27748 -6.1241074E-08
36.40451 -6.3593376E-08
36.53154 -6.4637092E-08
36.65858 -6.4279675E-08
36.78561 -6.2452159E-08
36.91264 -5.9112121E-08
37.03968 -5.4246765E-08
37.16671 -4.7876011E-08
37.29374 -4.0055429E-08
37.42077 -3.0878951E-08
37.54781 -2.0481014E-08
37.67484 -9.0379881E-09
37.80187 3.2314400E-09
37.92890 1.6067178E-08
38.05593 2.9170206E-08
38.18297 4.2206850E-08
38.31000 5.4814972E-08
38.43703 6.6612223E-08
38.56407 7.7206231E-08
38.69110 8.6206782E-08
38.81813 9.3239478E-08
38.94516 9.7960744E-08
39.07220 1.0007354E-07
39.19923 9.9343218E-08
39.32626 9.5612819E-08
39.45330 8.8817096E-08
39.58033 7.8994447E-08
39.70736 6.6295968E-08
39.83439 5.0990931E-08
39.96143 3.3468048E-08
40.08846 1.4231992E-08
40.21549 -6.1051599E-09
40.34253 -2.6837718E-08
40.46955 -4.7185278E-08
40.59659 -6.6316503E-08
40.72362 -8.3377117E-08
40.85065 -9.7521436E-08
40.97769 -1.0794630E-07
41.10472 -1.1392631E-07
41.23175 -1.1484902E-07
41.35878 -1.1024863E-07
41.48582 -9.9836704E-08
41.61285 -8.3528576E-08
41.73988 -6.1464043E-08
41.86692 -3.4021209E-08
41.99395 -1.8225750E-09
42.12098 3.4267298E-08
42.24801 7.3152876E-08
42.37505 1.1352748E-07
42.50208 1.5390140E-07
42.62911 1.9263766E-07
42.75615 2.2799409E-07
42.88317 2.5817062E-07
43.01021 2.8135977E-07
43.13724 2.9579871E-07
43.26427 2.9982067E-07
43.39131 2.9190380E-07
43.51834 2.7071542E-07
43.64537 2.3514973E-07
43.77240 1.8435745E-07
43.89944 1.1776589E-07
44.02647 3.5088707E-08
44.15350 -6.3675529E-08
44.28054 -1.7825576E-07
44.40757 -3.0813169E-07
44.53460 -4.5256672E-07
44.66163 -6.1064952E-07
44.78867 -7.8134269E-07
44.91570 -9.6353551E-07
45.04273 -1.1560998E-06
45.16977 -1.3579449E-06
45.29680 -1.5680710E-06
45.42383 -1.7856147E-06
45.55086 -2.0098901E-06
45.67789 -2.2404170E-06
45.80493 -2.4769377E-06
45.93196 -2.7194221E-06
46.05899 -2.9680562E-06
46.18602 -3.2232176E-06
46.31306 -3.4854361E-06
46.44009 -3.7553414E-06
46.56712 -4.0335985E-06
46.69416 -4.3208352E-06
46.82119 -4.6175587E-06
46.94822 -4.9240743E-06
47.07525 -5.2404012E-06
47.20229 -5.5661894E-06
47.32932 -5.9006506E-06
47.45635 -6.2424947E-06
47.58339 -6.5898844E-06
47.71042 -6.9404068E-06
47.83745 -7.2910680E-06
47.96448 -7.6383058E-06
48.09151 -7.9780320E-06
48.21855 -8.3056939E-06
48.34558 -8.6163654E-06
48.47261 -8.9048526E-06
48.59965 -9.1658258E-06
48.72668 -9.3939634E-06
48.85371 -9.5841078E-06
48.98074 -9.7314278E-06
49.10778 -9.8315850E-06
49.23481 -9.8808941E-06
49.36184 -9.8764667E-06
49.48887 -9.8163464E-06
49.61591 -9.6996200E-06
49.74294 -9.5264941E-06
49.86997 -9.2983546E-06
49.99701 -9.0177746E-06
50.12404 -8.6885011E-06
50.25107 -8.3153946E-06
50.37810 -7.9043366E-06
50.50513 -7.4620975E-06
50.63217 -6.9961843E-06
50.75920 -6.5146469E-06
50.88623 -6.0258717E-06
51.01327 -5.5383621E-06
51.14030 -5.0605049E-06
51.26733 -4.6003429E-06
51.39436 -4.1653520E-06
51.52140 -3.7622349E-06
51.64843 -3.3967387E-06
51.77546 -3.0735016E-06
51.90249 -2.7959316E-06
52.02953 -2.5661275E-06
52.15656 -2.3848370E-06
52.28359 -2.2514646E-06
52.41063 -2.1641113E-06
52.53766 -2.1196663E-06
52.66469 -2.1139299E-06
52.79172 -2.1417654E-06
52.91875 -2.1972894E-06
53.04579 -2.2740705E-06
53.17282 -2.3653463E-06
53.29985 -2.4642479E-06
53.42689 -2.5640184E-06
53.55392 -2.6582195E-06
53.68095 -2.7409308E-06
53.80798 -2.8069164E-06
53.93502 -2.8517748E-06
54.06205 -2.8720465E-06
54.18908 -2.8652964E-06
54.31612 -2.8301590E-06
54.44315 -2.7663477E-06
54.57018 -2.6746316E-06
54.69721 -2.5567847E-06
54.82425 -2.4155070E-06
54.95128 -2.2543138E-06
55.07831 -2.0774212E-06
55.20534 -1.8896102E-06
55.33237 -1.6960778E-06
55.45941 -1.5022928E-06
55.58644 -1.3138498E-06
55.71347 -1.1363223E-06
55.84051 -9.7513077E-07
55.96754 -8.3541244E-07
56.09457 -7.2191182E-07
56.22160 -6.3887353E-07
56.34864 -5.8995238E-07
56.47567 -5.7813884E-07
56.60270 -6.0569266E-07
56.72974 -6.7408536E-07
56.85677 -7.8395766E-07
56.98380 -9.3508567E-07
57.11083 -1.1263517E-06
57.23787 -1.3557308E-06
57.36490 -1.6202839E-06
57.49193 -1.9161557E-06
57.61897 -2.2385952E-06
57.74599 -2.5819791E-06
57.87303 -2.9398548E-06
58.00006 -3.3050001E-06
58.12709 -3.6695033E-06
58.25413 -4.0248583E-06
58.38116 -4.3620898E-06
58.50819 -4.6718951E-06
58.63522 -4.9448099E-06
58.76226 -5.1713973E-06
58.88929 -5.3424524E-06
59.01632 -5.4492280E-06
59.14336 -5.4836660E-06
59.27039 -5.4386401E-06
59.39742 -5.3081881E-06
59.52445 -5.0877543E-06
59.65149 -4.7743920E-06
59.77852 -4.3669611E-06
59.90555 -3.8662856E-06
60.03259 -3.2752716E-06
60.15961 -2.5989762E-06
60.28665 -1.8446259E-06
60.41368 -1.0215780E-06
60.54071 -1.4121807E-07
60.66775 7.8320971E-07
60.79478 1.7368200E-06
60.92181 2.7033743E-06
61.04884 3.6656193E-06
61.17588 4.6056698E-06
61.30291 5.5054438E-06
61.42994 6.3470948E-06
61.55698 7.1134859E-06
61.68401 7.7886607E-06
61.81104 8.3582909E-06
61.93807 8.8100996E-06
62.06511 9.1342581E-06
62.19214 9.3237104E-06
62.31917 9.3744302E-06
62.44621 9.2856180E-06
62.57324 9.0597978E-06
62.70027 8.7028238E-06
62.82730 8.2237930E-06
62.95433 7.6348597E-06
63.08137 6.9509642E-06
63.20840 6.1894680E-06
63.33543 5.3697036E-06
63.46246 4.5124661E-06
63.58950 3.6394533E-06
63.71653 2.7726592E-06
63.84356 1.9337490E-06
63.97060 1.1434418E-06
64.09763 4.2090304E-07
64.22466 -2.1681997E-07
64.35169 -7.5530659E-07
64.47873 -1.1831987E-06
64.60576 -1.4925470E-06
64.73279 -1.6790570E-06
64.85983 -1.7422233E-06
64.98685 -1.6853493E-06
65.11389 -1.5154505E-06
65.24092 -1.2430404E-06
65.36796 -8.8180803E-07
65.49499 -4.4819436E-07
65.62202 3.9116308E-08
65.74905 5.5977193E-07
65.87608 1.0923862E-06
66.00312 1.6151951E-06
66.13015 2.1067262E-06
66.25719 2.5464522E-06
66.38422 2.9154087E-06
66.51125 3.1967527E-06
66.63828 3.3762497E-06
66.76531 3.4426673E-06
66.89235 3.3880672E-06
67.01938 3.2079818E-06
67.14641 2.9014773E-06
67.27345 2.4711037E-06
67.40047 1.9227309E-06
67.52751 1.2652852E-06
67.65454 5.1038626E-07
67.78158 -3.2808072E-07
67.90861 -1.2344502E-06
68.03564 -2.1918170E-06
68.16267 -3.1825637E-06
68.28970 -4.1889066E-06
68.41674 -5.1934176E-06
68.54377 -6.1794894E-06
68.67081 -7.1317581E-06
68.79784 -8.0364462E-06
68.92487 -8.8816232E-06
69.05190 -9.6573867E-06
69.17893 -1.0355961E-05
69.30597 -1.0971685E-05
69.43300 -1.1500954E-05
69.56004 -1.1942059E-05
69.68707 -1.2294985E-05
69.81409 -1.2561165E-05
69.94113 -1.2743181E-05
70.06816 -1.2844478E-05
70.19520 -1.2869054E-05
70.32223 -1.2821170E-05
70.44926 -1.2705103E-05
70.57629 -1.2524912E-05
70.70332 -1.2284268E-05
70.83036 -1.1986343E-05
70.95739 -1.1633726E-05
71.08443 -1.1228432E-05
71.21146 -1.0771932E-05
71.33849 -1.0265244E-05
71.46552 -9.7090715E-06
71.59255 -9.1039683E-06
71.71959 -8.4505145E-06
71.84662 -7.7495133E-06
71.97366 -7.0021811E-06
72.10069 -6.2103372E-06
72.22771 -5.3765584E-06
72.35475 -4.5043153E-06
72.48178 -3.5980713E-06
72.60882 -2.6633368E-06
72.73585 -1.7066868E-06
72.86288 -7.3573557E-07
72.98991 2.4093444E-07
73.11694 1.2138837E-06
73.24398 2.1729522E-06
73.37101 3.1074367E-06
73.49805 4.0062860E-06
73.62508 4.8583111E-06
73.75211 5.6524041E-06
73.87914 6.3777652E-06
74.00617 7.0241149E-06
74.13321 7.5819075E-06
74.26024 8.0425261E-06
74.38728 8.3984460E-06
74.51431 8.6433984E-06
74.64133 8.7724911E-06
74.76837 8.7823209E-06
74.89540 8.6710434E-06
75.02244 8.4384328E-06
75.14947 8.0859209E-06
75.27650 7.6166016E-06
75.40353 7.0352285E-06
75.53056 6.3481889E-06
75.65760 5.5634737E-06
75.78463 4.6906143E-06
75.91167 3.7406269E-06
76.03870 2.7259371E-06
76.16573 1.6602886E-06
76.29276 5.5864365E-07
76.41979 -5.6295028E-07
76.54683 -1.6874569E-06
76.67386 -2.7970400E-06
76.80090 -3.8732087E-06
76.92793 -4.8970023E-06
77.05495 -5.8492201E-06
77.18199 -6.7106512E-06
77.30902 -7.4623222E-06
77.43606 -8.0857744E-06
77.56309 -8.5633510E-06
77.69012 -8.8785091E-06
77.81715 -9.0161238E-06
77.94418 -8.9628156E-06
78.07122 -8.7072394E-06
78.19825 -8.2404185E-06
78.32529 -7.5559797E-06
78.45232 -6.6504422E-06
78.57935 -5.5233900E-06
78.70638 -4.1776771E-06
78.83341 -2.6195194E-06
78.96045 -8.5855248E-07
79.08748 1.0921844E-06
79.21452 3.2163264E-06
79.34155 5.4943284E-06
79.46858 7.9036663E-06
79.59561 1.0419152E-05
79.72264 1.3013263E-05
79.84968 1.5656537E-05
79.97671 1.8318025E-05
80.10374 2.0965799E-05
80.23077 2.3567445E-05
80.35780 2.6090611E-05
80.48484 2.8503553E-05
80.61187 3.0775667E-05
80.73891 3.2878012E-05
80.86594 3.4783785E-05
80.99297 3.6468802E-05
81.12000 3.7911865E-05
81.24703 3.9095135E-05
81.37407 4.0004383E-05
81.50110 4.0629224E-05
81.62814 4.0963241E-05
81.75517 4.1004067E-05
81.88220 4.0753341E-05
82.00923 4.0216655E-05
82.13626 3.9403403E-05
82.26330 3.8326540E-05
82.39033 3.7002319E-05
82.51736 3.5449983E-05
82.64439 3.3691358E-05
82.77143 3.1750475E-05
82.89846 2.9653120E-05
83.02549 2.7426384E-05
83.15253 2.5098196E-05
83.27956 2.2696862E-05
83.40659 2.0250618E-05
83.53362 1.7787153E-05
83.66065 1.5333235E-05
83.78769 1.2914300E-05
83.91472 1.0554070E-05
84.04176 8.2743018E-06
84.16879 6.0944503E-06
84.29582 4.0314758E-06
84.42285 2.0996247E-06
84.54988 3.1036058E-07
84.67692 -1.3277761E-06
84.80395 -2.8091549E-06
84.93098 -4.1310759E-06
85.05801 -5.2936894E-06
85.18505 -6.2998652E-06
85.31208 -7.1550867E-06
85.43911 -7.8672438E-06
85.56615 -8.4464054E-06
85.69318 -8.9045670E-06
85.82021 -9.2554073E-06
85.94724 -9.5139349E-06
86.07427 -9.6962303E-06
86.20131 -9.8191167E-06
86.32834 -9.8997825E-06
86.45538 -9.9555045E-06
86.58241 -1.0003307E-05
86.70944 -1.0059618E-05
86.83647 -1.0140015E-05
86.96350 -1.0258885E-05
87.09054 -1.0429233E-05
87.21757 -1.0662448E-05
87.34460 -1.0968065E-05
87.47163 -1.1353668E-05
87.59867 -1.1824766E-05
87.72570 -1.2384723E-05
87.85273 -1.3034781E-05
87.97977 -1.3774069E-05
88.10680 -1.4599697E-05
88.23383 -1.5506877E-05
88.36086 -1.6489141E-05
88.48790 -1.7538505E-05
88.61493 -1.8645804E-05
88.74196 -1.9800915E-05
88.86900 -2.0993135E-05
88.99603 -2.2211461E-05
89.12306 -2.3444962E-05
89.25009 -2.4683082E-05
89.37712 -2.5915992E-05
89.50416 -2.7134831E-05
89.63119 -2.8332002E-05
89.75822 -2.9501340E-05
89.88525 -3.0638294E-05
90.01229 -3.1740001E-05
90.13932 -3.2805310E-05
90.26635 -3.3834738E-05
90.39339 -3.4830351E-05
90.52042 -3.5795598E-05
90.64745 -3.6735069E-05
90.77448 -3.7654212E-05
90.90152 -3.8558981E-05
91.02855 -3.9455499E-05
91.15558 -4.0349671E-05
91.28262 -4.1246807E-05
91.40965 -4.2151252E-05
91.53668 -4.3066088E-05
91.66371 -4.3992790E-05
91.79075 -4.4931050E-05
91.91778 -4.5878580E-05
92.04481 -4.6831039E-05
92.17184 -4.7782054E-05
92.29887 -4.8723257E-05
92.42591 -4.9644525E-05
92.55294 -5.0534156E-05
92.67997 -5.1379244E-05
92.80701 -5.2166019E-05
92.93404 -5.2880292E-05
93.06107 -5.3507887E-05
93.18810 -5.4035114E-05
93.31514 -5.4449210E-05
93.44217 -5.4738775E-05
93.56920 -5.4894161E-05
93.69624 -5.4907763E-05
93.82327 -5.4774315E-05
93.95030 -5.4491033E-05
94.07733 -5.4057706E-05
94.20437 -5.3476717E-05
94.33140 -5.2752923E-05
94.45843 -5.1893487E-05
94.58546 -5.0907620E-05
94.71249 -4.9806247E-05
94.83953 -4.8601665E-05
94.96656 -4.7307098E-05
95.09360 -4.5936285E-05
95.22063 -4.4503075E-05
95.34766 -4.3020962E-05
95.47469 -4.1502728E-05
95.60172 -3.9960123E-05
95.72876 -3.8403530E-05
95.85579 -3.6841793E-05
95.98282 -3.5282006E-05
96.10986 -3.3729470E-05
96.23689 -3.2187629E-05
96.36392 -3.0658150E-05
96.49095 -2.9141016E-05
96.61799 -2.7634675E-05
96.74502 -2.6136240E-05
96.87205 -2.4641718E-05
96.99908 -2.3146258E-05
97.12611 -2.1644408E-05
97.25315 -2.0130346E-05
97.38018 -1.8598155E-05
97.50722 -1.7042028E-05
97.63425 -1.5456453E-05
97.76128 -1.3836405E-05
97.88831 -1.2177450E-05
98.01534 -1.0475888E-05
98.14238 -8.7288236E-06
98.26941 -6.9342077E-06
98.39645 -5.0908939E-06
98.52348 -3.1986640E-06
98.65051 -1.2582343E-06
98.77754 7.2872081E-07
98.90457 2.7595750E-06
99.03161 4.8307211E-06
99.15864 6.9375678E-06
99.28567 9.0745125E-06
99.41270 1.1234921E-05
99.53973 1.3411095E-05
99.66677 1.5594263E-05
99.79380 1.7774553E-05
99.92084 1.9941004E-05
100.0479 2.2081589E-05
100.1749 2.4183253E-05
100.3019 2.6232025E-05
100.4290 2.8213126E-05
100.5560 3.0111158E-05
100.6830 3.1910316E-05
100.8101 3.3594661E-05
100.9371 3.5148416E-05
101.0641 3.6556339E-05
101.1912 3.7804071E-05
101.3182 3.8878548E-05
101.4452 3.9768387E-05
101.5723 4.0464289E-05
101.6993 4.0959389E-05
101.8263 4.1249597E-05
101.9534 4.1333875E-05
102.0804 4.1214465E-05
102.2074 4.0896983E-05
102.3345 4.0390507E-05
102.4615 3.9707495E-05
102.5885 3.8863662E-05
102.7156 3.7877711E-05
102.8426 3.6771024E-05
102.9696 3.5567187E-05
103.0966 3.4291501E-05
103.2237 3.2970394E-05
103.3507 3.1630803E-05
103.4777 3.0299514E-05
103.6048 2.9002475E-05
103.7318 2.7764168E-05
103.8588 2.6606962E-05
103.9859 2.5550544E-05
104.1129 2.4611418E-05
104.2399 2.3802473E-05
104.3670 2.3132674E-05
104.4940 2.2606833E-05
104.6210 2.2225528E-05
104.7481 2.1985123E-05
104.8751 2.1877901E-05
105.0021 2.1892332E-05
105.1292 2.2013443E-05
105.2562 2.2223259E-05
105.3832 2.2501365E-05
105.5103 2.2825490E-05
105.6373 2.3172173E-05
105.7643 2.3517414E-05
105.8914 2.3837363E-05
106.0184 2.4108975E-05
106.1454 2.4310631E-05
106.2725 2.4422712E-05
106.3995 2.4428115E-05
106.5265 2.4312669E-05
106.6536 2.4065490E-05
106.7806 2.3679235E-05
106.9076 2.3150251E-05
107.0347 2.2478649E-05
107.1617 2.1668262E-05
107.2887 2.0726544E-05
107.4158 1.9664356E-05
107.5428 1.8495719E-05
107.6698 1.7237471E-05
107.7969 1.5908905E-05
107.9239 1.4531339E-05
108.0509 1.3127687E-05
108.1780 1.1721991E-05
108.3050 1.0338944E-05
108.4320 9.0034355E-06
108.5591 7.7400691E-06
108.6861 6.5727145E-06
108.8131 5.5240707E-06
108.9402 4.6152427E-06
109.0672 3.8653548E-06
109.1942 3.2911817E-06
109.3213 2.9068246E-06
109.4483 2.7234216E-06
109.5753 2.7488984E-06
109.7023 2.9877788E-06
109.8294 3.4410400E-06
109.9564 4.1060343E-06
110.0834 4.9764840E-06
110.2105 6.0425186E-06
110.3375 7.2908088E-06
110.4645 8.7047629E-06
110.5916 1.0264792E-05
110.7186 1.1948652E-05
110.8456 1.3731829E-05
110.9727 1.5588015E-05
111.0997 1.7489596E-05
111.2267 1.9408200E-05
111.3538 2.1315267E-05
111.4808 2.3182612E-05
111.6078 2.4982994E-05
111.7349 2.6690674E-05
111.8619 2.8281904E-05
111.9889 2.9735393E-05
112.1160 3.1032690E-05
112.2430 3.2158510E-05
112.3700 3.3100961E-05
112.4971 3.3851669E-05
112.6241 3.4405846E-05
112.7511 3.4762234E-05
112.8782 3.4922974E-05
113.0052 3.4893397E-05
113.1322 3.4681732E-05
113.2593 3.4298741E-05
113.3863 3.3757329E-05
113.5133 3.3072090E-05
113.6404 3.2258846E-05
113.7674 3.1334155E-05
113.8944 3.0314848E-05
114.0215 2.9217581E-05
114.1485 2.8058384E-05
114.2755 2.6852293E-05
114.4026 2.5613015E-05
114.5296 2.4352643E-05
114.6566 2.3081460E-05
114.7837 2.1807784E-05
114.9107 2.0537913E-05
115.0377 1.9276111E-05
115.1647 1.8024675E-05
115.2918 1.6784084E-05
115.4188 1.5553185E-05
115.5459 1.4329436E-05
115.6729 1.3109183E-05
115.7999 1.1888001E-05
115.9269 1.0661008E-05
116.0540 9.4232591E-06
116.1810 8.1700609E-06
116.3080 6.8973327E-06
116.4351 5.6019126E-06
116.5621 4.2818738E-06
116.6891 2.9367427E-06
116.8162 1.5676849E-06
116.9432 1.7766639E-07
117.0702 -1.2284952E-06
117.1973 -2.6441239E-06
117.3243 -4.0607420E-06
117.4513 -5.4681982E-06
117.5784 -6.8548588E-06
117.7054 -8.2078614E-06
117.8324 -9.5134073E-06
117.9595 -1.0757100E-05
118.0865 -1.1924307E-05
118.2135 -1.3000556E-05
118.3406 -1.3971921E-05
118.4676 -1.4825415E-05
118.5946 -1.5549349E-05
118.7217 -1.6133683E-05
118.8487 -1.6570311E-05
118.9757 -1.6853328E-05
119.1028 -1.6979211E-05
119.2298 -1.6946962E-05
119.3568 -1.6758169E-05
119.4839 -1.6417020E-05
119.6109 -1.5930238E-05
119.7379 -1.5306958E-05
119.8650 -1.4558542E-05
119.9920 -1.3698358E-05
120.1190 -1.2741495E-05
120.2461 -1.1704446E-05
120.3731 -1.0604771E-05
120.5001 -9.4607476E-06
120.6272 -8.2909764E-06
120.7542 -7.1140348E-06
120.8812 -5.9480994E-06
121.0083 -4.8106026E-06
121.1353 -3.7179088E-06
121.2623 -2.6850119E-06
121.3894 -1.7252693E-06
121.5164 -8.5017422E-07
121.6434 -6.9161523E-08
121.7704 6.1053930E-07
121.8975 1.1840120E-06
122.0245 1.6487128E-06
122.1516 2.0044931E-06
122.2786 2.2535698E-06
122.4056 2.4004560E-06
122.5326 2.4518531E-06
122.6597 2.4164888E-06
122.7867 2.3049311E-06
122.9137 2.1293606E-06
123.0408 1.9033050E-06
123.1678 1.6413421E-06
123.2948 1.3587882E-06
123.4219 1.0713457E-06
123.5489 7.9476030E-07
123.6759 5.4443456E-07
123.8030 3.3507678E-07
123.9300 1.8031039E-07
124.0570 9.2337416E-08
124.1841 8.1593619E-08
124.3111 1.5644611E-07
124.4381 3.2292547E-07
124.5652 5.8450280E-07
124.6922 9.4191807E-07
124.8192 1.3930908E-06
124.9463 1.9330585E-06
125.0733 2.5540280E-06
125.2003 3.2454782E-06
125.3274 3.9943384E-06
125.4544 4.7852463E-06
125.5814 5.6008762E-06
125.7085 6.4223218E-06
125.8355 7.2295484E-06
125.9625 8.0018763E-06
126.0896 8.7185144E-06
126.2166 9.3590961E-06
126.3436 9.9042363E-06
126.4707 1.0336070E-05
126.5977 1.0638767E-05
126.7247 1.0799005E-05
126.8518 1.0806390E-05
126.9788 1.0653792E-05
127.1058 1.0337633E-05
127.2329 9.8580413E-06
127.3599 9.2189366E-06
127.4869 8.4280036E-06
127.6140 7.4965710E-06
127.7410 6.4393794E-06
127.8680 5.2742657E-06
127.9950 4.0217487E-06
128.1221 2.7045592E-06
128.2491 1.3470896E-06
128.3761 -2.5183827E-08
128.5032 -1.3863232E-06
128.6302 -2.7105430E-06
128.7572 -3.9728261E-06
128.8843 -5.1495117E-06
129.0113 -6.2188324E-06
129.1383 -7.1613981E-06
129.2654 -7.9606098E-06
129.3924 -8.6029868E-06
129.5194 -9.0784142E-06
129.6465 -9.3802973E-06
129.7735 -9.5056266E-06
129.9005 -9.4549559E-06
130.0276 -9.2323025E-06
130.1546 -8.8449715E-06
130.2816 -8.3033201E-06
130.4087 -7.6204597E-06
130.5357 -6.8119289E-06
130.6627 -5.8953246E-06
130.7898 -4.8899196E-06
130.9168 -3.8162621E-06
131.0438 -2.6957825E-06
131.1709 -1.5503974E-06
131.2979 -4.0212853E-07
131.4249 7.2726021E-07
131.5520 1.8166162E-06
131.6790 2.8457221E-06
131.8060 3.7956045E-06
131.9331 4.6488199E-06
132.0601 5.3897229E-06
132.1871 6.0047087E-06
132.3142 6.4824353E-06
132.4412 6.8140239E-06
132.5682 6.9932294E-06
132.6953 7.0165738E-06
132.8223 6.8834529E-06
132.9493 6.5961881E-06
133.0764 6.1600354E-06
133.2034 5.5831424E-06
133.3304 4.8764314E-06
133.4575 4.0534287E-06
133.5845 3.1300294E-06
133.7115 2.1241876E-06
133.8385 1.0555564E-06
133.9656 -5.4942205E-08
134.0926 -1.1855827E-06
134.2197 -2.3143436E-06
134.3467 -3.4194352E-06
134.4737 -4.4798398E-06
134.6008 -5.4758293E-06
134.7278 -6.3894713E-06
134.8548 -7.2050743E-06
134.9818 -7.9095853E-06
135.1089 -8.4929015E-06
135.2359 -8.9480955E-06
135.3629 -9.2715454E-06
135.4900 -9.4629568E-06
135.6170 -9.5252872E-06
135.7440 -9.4645566E-06
135.8711 -9.2895807E-06
135.9981 -9.0116018E-06
136.1251 -8.6438586E-06
136.2522 -8.2011084E-06
136.3792 -7.6991091E-06
136.5062 -7.1540835E-06
136.6333 -6.5822082E-06
136.7603 -5.9991085E-06
136.8873 -5.4194174E-06
137.0144 -4.8563875E-06
137.1414 -4.3215814E-06
137.2684 -3.8246476E-06
137.3955 -3.3731810E-06
137.5225 -2.9726916E-06
137.6495 -2.6266564E-06
137.7766 -2.3366583E-06
137.9036 -2.1026001E-06
138.0306 -1.9229897E-06
138.1577 -1.7952593E-06
138.2847 -1.7161236E-06
138.4117 -1.6819448E-06
138.5388 -1.6890818E-06
138.6658 -1.7342156E-06
138.7928 -1.8146260E-06
138.9199 -1.9284057E-06
139.0469 -2.0746038E-06
139.1739 -2.2532795E-06
139.3009 -2.4654828E-06
139.4280 -2.7131393E-06
139.5550 -2.9988616E-06
139.6821 -3.3256897E-06
139.8091 -3.6967679E-06
139.9361 -4.1149874E-06
140.0632 -4.5826087E-06
140.1902 -5.1008719E-06
140.3172 -5.6696445E-06
140.4442 -6.2870904E-06
140.5713 -6.9494240E-06
140.6983 -7.6507231E-06
140.8253 -8.3828536E-06
140.9524 -9.1354759E-06
141.0794 -9.8961882E-06
141.2065 -1.0650751E-05
141.3335 -1.1383434E-05
141.4605 -1.2077442E-05
141.5875 -1.2715422E-05
141.7146 -1.3280023E-05
141.8416 -1.3754490E-05
141.9686 -1.4123271E-05
142.0957 -1.4372595E-05
142.2227 -1.4491011E-05
142.3497 -1.4469874E-05
142.4768 -1.4303720E-05
142.6038 -1.3990554E-05
142.7308 -1.3532015E-05
142.8579 -1.2933419E-05
142.9849 -1.2203670E-05
143.1119 -1.1355046E-05
143.2390 -1.0402882E-05
143.3660 -9.3651370E-06
143.4930 -8.2618817E-06
143.6201 -7.1147315E-06
143.7471 -5.9462327E-06
143.8741 -4.7792228E-06
144.0012 -3.6362223E-06
144.1282 -2.5388422E-06
144.2552 -1.5072471E-06
144.3823 -5.5967666E-07
144.5093 2.8793502E-07
144.6363 1.0222476E-06
144.7634 1.6327291E-06
144.8904 2.1117407E-06
145.0174 2.4545523E-06
145.1445 2.6592563E-06
145.2715 2.7266208E-06
145.3985 2.6598634E-06
145.5256 2.4643955E-06
145.6526 2.1475291E-06
145.7796 1.7181685E-06
145.9066 1.1865131E-06
146.0337 5.6377803E-07
146.1607 -1.3805962E-07
146.2878 -9.0647427E-07
146.4148 -1.7285591E-06
146.5418 -2.5911497E-06
146.6689 -3.4809027E-06
146.7959 -4.3843424E-06
146.9229 -5.2878704E-06
147.0499 -6.1777710E-06
147.1770 -7.0402007E-06
147.3040 -7.8612002E-06
147.4310 -8.6267210E-06
147.5581 -9.3226981E-06
147.6851 -9.9351591E-06
147.8121 -1.0450405E-05
