  -30.00000        9.7844703E-19
  -29.85750        9.8019931E-19
  -29.71500        9.8339739E-19
  -29.57250        9.8751313E-19
  -29.43000        9.9190536E-19
  -29.28750        9.9594789E-19
  -29.14500        9.9914867E-19
  -29.00250        1.0012395E-18
  -28.86000        1.0022155E-18
  -28.71750        1.0023274E-18
  -28.57500        1.0020215E-18
  -28.43250        1.0018472E-18
  -28.29000        1.0023454E-18
  -28.14750        1.0039350E-18
  -28.00500        1.0068211E-18
  -27.86250        1.0109471E-18
  -27.72000        1.0159937E-18
  -27.57750        1.0214398E-18
  -27.43500        1.0266651E-18
  -27.29250        1.0310779E-18
  -27.15000        1.0342388E-18
  -27.00750        1.0359521E-18
  -26.86500        1.0363033E-18
  -26.72250        1.0356394E-18
  -26.58000        1.0344941E-18
  -26.43750        1.0334802E-18
  -26.29500        1.0331691E-18
  -26.15250        1.0339831E-18
  -26.01000        1.0361168E-18
  -25.86750        1.0395032E-18
  -25.72500        1.0438283E-18
  -25.58250        1.0485905E-18
  -25.44000        1.0532013E-18
  -25.29750        1.0570987E-18
  -25.15500        1.0598669E-18
  -25.01250        1.0613220E-18
  -24.87000        1.0615529E-18
  -24.72750        1.0609028E-18
  -24.58500        1.0598971E-18
  -24.44250        1.0591313E-18
  -24.30000        1.0591416E-18
  -24.15750        1.0602979E-18
  -24.01500        1.0627285E-18
  -23.87250        1.0662993E-18
  -23.73000        1.0706466E-18
  -23.58750        1.0752533E-18
  -23.44500        1.0795502E-18
  -23.30250        1.0830305E-18
  -23.16000        1.0853469E-18
  -23.01750        1.0863816E-18
  -22.87500        1.0862727E-18
  -22.73250        1.0853904E-18
  -22.59000        1.0842635E-18
  -22.44750        1.0834730E-18
  -22.30500        1.0835278E-18
  -22.16250        1.0847577E-18
  -22.02000        1.0872412E-18
  -21.87750        1.0907874E-18
  -21.73500        1.0949806E-18
  -21.59250        1.0992709E-18
  -21.45000        1.1030914E-18
  -21.30750        1.1059770E-18
  -21.16500        1.1076576E-18
  -21.02250        1.1081106E-18
  -20.88000        1.1075645E-18
  -20.73750        1.1064532E-18
  -20.59500        1.1053317E-18
  -20.45250        1.1047693E-18
  -20.31000        1.1052348E-18
  -20.16750        1.1070008E-18
  -20.02500        1.1100826E-18
  -19.88250        1.1142269E-18
  -19.74000        1.1189607E-18
  -19.59750        1.1236888E-18
  -19.45500        1.1278173E-18
  -19.31250        1.1308845E-18
  -19.17000        1.1326589E-18
  -19.02750        1.1331904E-18
  -18.88500        1.1327987E-18
  -18.74250        1.1320080E-18
  -18.60000        1.1314369E-18
  -18.45750        1.1316762E-18
  -18.31500        1.1331724E-18
  -18.17250        1.1361349E-18
  -18.03000        1.1404935E-18
  -17.88750        1.1459018E-18
  -17.74500        1.1517936E-18
  -17.60250        1.1574830E-18
  -17.46000        1.1622895E-18
  -17.31750        1.1656711E-18
  -17.17500        1.1673308E-18
  -17.03250        1.1672797E-18
  -16.89000        1.1658364E-18
  -16.74750        1.1635637E-18
  -16.60500        1.1611574E-18
  -16.46250        1.1593050E-18
  -16.32000        1.1585550E-18
  -16.17750        1.1592159E-18
  -16.03500        1.1613068E-18
  -15.89250        1.1645679E-18
  -15.75000        1.1685191E-18
  -15.60750        1.1725587E-18
  -15.46500        1.1760815E-18
  -15.32250        1.1785939E-18
  -15.18000        1.1798084E-18
  -15.03750        1.1796979E-18
  -14.89500        1.1785001E-18
  -14.75250        1.1766670E-18
  -14.61000        1.1747718E-18
  -14.46750        1.1733818E-18
  -14.32500        1.1729377E-18
  -14.18250        1.1736553E-18
  -14.04000        1.1754788E-18
  -13.89750        1.1780914E-18
  -13.75500        1.1809882E-18
  -13.61250        1.1835833E-18
  -13.47000        1.1853362E-18
  -13.32750        1.1858606E-18
  -13.18500        1.1850072E-18
  -13.04250        1.1828947E-18
  -12.90000        1.1798958E-18
  -12.75750        1.1765713E-18
  -12.61500        1.1735704E-18
  -12.47250        1.1715141E-18
  -12.33000        1.1708759E-18
  -12.18750        1.1718926E-18
  -12.04500        1.1745126E-18
  -11.90250        1.1784073E-18
  -11.76000        1.1830348E-18
  -11.61750        1.1877518E-18
  -11.47500        1.1919387E-18
  -11.33250        1.1951252E-18
  -11.19000        1.1970768E-18
  -11.04750        1.1978269E-18
  -10.90500        1.1976572E-18
  -10.76250        1.1970285E-18
  -10.62000        1.1964785E-18
  -10.47750        1.1965107E-18
  -10.33500        1.1974914E-18
  -10.19250        1.1995760E-18
  -10.05000        1.2026716E-18
  -9.907500        1.2064537E-18
  -9.765000        1.2104227E-18
  -9.622500        1.2139990E-18
  -9.480000        1.2166426E-18
  -9.337500        1.2179615E-18
  -9.195000        1.2177957E-18
  -9.052500        1.2162501E-18
  -8.910000        1.2136709E-18
  -8.767500        1.2105746E-18
  -8.625000        1.2075369E-18
  -8.482500        1.2050797E-18
  -8.340000        1.2035734E-18
  -8.197500        1.2031710E-18
  -8.055000        1.2037952E-18
  -7.912500        1.2051634E-18
  -7.770000        1.2068555E-18
  -7.627500        1.2084040E-18
  -7.485000        1.2093892E-18
  -7.342500        1.2095317E-18
  -7.200000        1.2087529E-18
  -7.057500        1.2071982E-18
  -6.915000        1.2052147E-18
  -6.772500        1.2032809E-18
  -6.630000        1.2019058E-18
  -6.487500        1.2015178E-18
  -6.345000        1.2023690E-18
  -6.202500        1.2044761E-18
  -6.060000        1.2076179E-18
  -5.917500        1.2113814E-18
  -5.775000        1.2152498E-18
  -5.632500        1.2187091E-18
  -5.490000        1.2213472E-18
  -5.347500        1.2229344E-18
  -5.205000        1.2234622E-18
  -5.062500        1.2231424E-18
  -4.920000        1.2223624E-18
  -4.777500        1.2216081E-18
  -4.635000        1.2213671E-18
  -4.492500        1.2220242E-18
  -4.350000        1.2237747E-18
  -4.207500        1.2265713E-18
  -4.065000        1.2301220E-18
  -3.922500        1.2339386E-18
  -3.780000        1.2374330E-18
  -3.637500        1.2400386E-18
  -3.495000        1.2413265E-18
  -3.352500        1.2410982E-18
  -3.210000        1.2394257E-18
  -3.067500        1.2366390E-18
  -2.925000        1.2332610E-18
  -2.782500        1.2299105E-18
  -2.640000        1.2271881E-18
  -2.497500        1.2255702E-18
  -2.355000        1.2253250E-18
  -2.212500        1.2264682E-18
  -2.070000        1.2287643E-18
  -1.927500        1.2317761E-18
  -1.785000        1.2349521E-18
  -1.642500        1.2377436E-18
  -1.500000        1.2397164E-18
  -1.357500        1.2406464E-18
  -1.215000        1.2405665E-18
  -1.072500        1.2397586E-18
 -0.9300000        1.2386887E-18
 -0.7875000        1.2379010E-18
 -0.6450000        1.2378995E-18
 -0.5025000        1.2390353E-18
 -0.3600000        1.2414309E-18
 -0.2175000        1.2449509E-18
 -7.5000003E-02    1.2492288E-18
  6.7500003E-02    1.2537303E-18
  0.2100000        1.2578546E-18
  0.3525000        1.2610503E-18
  0.4950000        1.2629202E-18
  0.6375000        1.2633057E-18
  0.7800000        1.2623239E-18
  0.9225000        1.2603530E-18
   1.065000        1.2579618E-18
   1.207500        1.2557994E-18
   1.350000        1.2544596E-18
   1.492500        1.2543602E-18
   1.635000        1.2556562E-18
   1.777500        1.2582089E-18
   1.920000        1.2616172E-18
   2.062500        1.2653006E-18
   2.205000        1.2686164E-18
   2.347500        1.2709841E-18
   2.490000        1.2719963E-18
   2.632500        1.2714938E-18
   2.775000        1.2695967E-18
   2.917500        1.2666843E-18
   3.060000        1.2633295E-18
   3.202500        1.2601948E-18
   3.345000        1.2579084E-18
   3.487500        1.2569477E-18
   3.630000        1.2575439E-18
   3.772500        1.2596403E-18
   3.915000        1.2629077E-18
   4.057500        1.2668175E-18
   4.200000        1.2707546E-18
   4.342500        1.2741441E-18
   4.485000        1.2765626E-18
   4.627500        1.2778120E-18
   4.770000        1.2779416E-18
   4.912500        1.2772195E-18
   5.055000        1.2760614E-18
   5.197500        1.2749384E-18
   5.340000        1.2742774E-18
   5.482500        1.2743713E-18
   5.625000        1.2753207E-18
   5.767500        1.2770072E-18
   5.910000        1.2791161E-18
   6.052500        1.2811981E-18
   6.195000        1.2827656E-18
   6.337500        1.2834028E-18
   6.480000        1.2828665E-18
   6.622500        1.2811502E-18
   6.765000        1.2784986E-18
   6.907500        1.2753651E-18
   7.050000        1.2723249E-18
   7.192500        1.2699584E-18
   7.335000        1.2687413E-18
   7.477500        1.2689538E-18
   7.620000        1.2706349E-18
   7.762500        1.2735803E-18
   7.905000        1.2773844E-18
   8.047500        1.2815210E-18
   8.190000        1.2854387E-18
   8.332500        1.2886646E-18
   8.475000        1.2908915E-18
   8.617500        1.2920392E-18
   8.760000        1.2922655E-18
   8.902500        1.2919338E-18
   9.045000        1.2915329E-18
   9.187500        1.2915652E-18
   9.330000        1.2924339E-18
   9.472500        1.2943488E-18
   9.615000        1.2972774E-18
   9.757500        1.3009452E-18
   9.900000        1.3048915E-18
   10.04250        1.3085605E-18
   10.18500        1.3114110E-18
   10.32750        1.3130180E-18
   10.47000        1.3131546E-18
   10.61250        1.3118345E-18
   10.75500        1.3093133E-18
   10.89750        1.3060442E-18
   11.04000        1.3026010E-18
   11.18250        1.2995707E-18
   11.32500        1.2974447E-18
   11.46750        1.2965271E-18
   11.61000        1.2968770E-18
   11.75250        1.2983053E-18
   11.89500        1.3004235E-18
   12.03750        1.3027344E-18
   12.18000        1.3047439E-18
   12.32250        1.3060663E-18
   12.46500        1.3065020E-18
   12.60750        1.3060757E-18
   12.75000        1.3050206E-18
   12.89250        1.3037303E-18
   13.03500        1.3026746E-18
   13.17750        1.3023075E-18
   13.32000        1.3029729E-18
   13.46250        1.3048329E-18
   13.60500        1.3078263E-18
   13.74750        1.3116690E-18
   13.89000        1.3159013E-18
   14.03250        1.3199713E-18
   14.17500        1.3233494E-18
   14.31750        1.3256338E-18
   14.46000        1.3266341E-18
   14.60250        1.3264123E-18
   14.74500        1.3252618E-18
   14.88750        1.3236434E-18
   15.03000        1.3220858E-18
   15.17250        1.3210773E-18
   15.31500        1.3209726E-18
   15.45750        1.3219297E-18
   15.60000        1.3238832E-18
   15.74250        1.3265613E-18
   15.88500        1.3295394E-18
   16.02750        1.3323176E-18
   16.17000        1.3344213E-18
   16.31250        1.3354954E-18
   16.45500        1.3353853E-18
   16.59750        1.3341781E-18
   16.74000        1.3321981E-18
   16.88250        1.3299470E-18
   17.02500        1.3280036E-18
   17.16750        1.3269055E-18
   17.31000        1.3270357E-18
   17.45250        1.3285457E-18
   17.59500        1.3313238E-18
   17.73750        1.3350220E-18
   17.88000        1.3391235E-18
   18.02250        1.3430404E-18
   18.16500        1.3462186E-18
   18.30750        1.3482316E-18
   18.45000        1.3488546E-18
   18.59250        1.3480991E-18
   18.73500        1.3462089E-18
   18.87750        1.3436159E-18
   19.02000        1.3408574E-18
   19.16250        1.3384728E-18
   19.30500        1.3368993E-18
   19.44750        1.3363831E-18
   19.59000        1.3369373E-18
   19.73250        1.3383451E-18
   19.87500        1.3402204E-18
   20.01750        1.3420987E-18
   20.16000        1.3435400E-18
   20.30250        1.3442268E-18
   20.44500        1.3440222E-18
   20.58750        1.3429948E-18
   20.73000        1.3413990E-18
   20.87250        1.3396191E-18
   21.01500        1.3380925E-18
   21.15750        1.3372243E-18
   21.30000        1.3373032E-18
   21.44250        1.3384411E-18
   21.58500        1.3405469E-18
   21.72750        1.3433431E-18
   21.87000        1.3464209E-18
   22.01250        1.3493294E-18
   22.15500        1.3516741E-18
   22.29750        1.3532088E-18
   22.44000        1.3538888E-18
   22.58250        1.3538794E-18
   22.72500        1.3535181E-18
   22.86750        1.3532359E-18
   23.01000        1.3534658E-18
   23.15250        1.3545467E-18
   23.29500        1.3566522E-18
   23.43750        1.3597493E-18
   23.58000        1.3635967E-18
   23.72250        1.3677809E-18
   23.86500        1.3717853E-18
   24.00750        1.3750846E-18
   24.15000        1.3772460E-18
   24.29250        1.3780170E-18
   24.43500        1.3773829E-18
   24.57750        1.3755741E-18
   24.72000        1.3730241E-18
   24.86250        1.3702807E-18
   25.00500        1.3678934E-18
   25.14750        1.3663006E-18
   25.29000        1.3657485E-18
   25.43250        1.3662509E-18
   25.57500        1.3675972E-18
   25.71750        1.3694107E-18
   25.86000        1.3712314E-18
   26.00250        1.3726105E-18
   26.14500        1.3732017E-18
   26.28750        1.3728352E-18
   26.43000        1.3715545E-18
   26.57250        1.3696190E-18
   26.71500        1.3674629E-18
   26.85750        1.3656145E-18
   27.00000        1.3645907E-18
   27.14250        1.3647888E-18
   27.28500        1.3663948E-18
   27.42750        1.3693392E-18
   27.57000        1.3733051E-18
   27.71250        1.3777918E-18
   27.85500        1.3822168E-18
   27.99750        1.3860322E-18
   28.14000        1.3888269E-18
   28.28250        1.3903976E-18
   28.42500        1.3907747E-18
   28.56750        1.3902007E-18
   28.71000        1.3890743E-18
   28.85250        1.3878657E-18
   28.99500        1.3870221E-18
   29.13750        1.3868794E-18
   29.28000        1.3875906E-18
   29.42250        1.3890910E-18
   29.56500        1.3911041E-18
   29.70750        1.3931990E-18
   29.85000        1.3948807E-18
   29.99250        1.3957052E-18
   30.13500        1.3953831E-18
   30.27750        1.3938543E-18
   30.42000        1.3913118E-18
   30.56250        1.3881705E-18
   30.70500        1.3849848E-18
   30.84750        1.3823455E-18
   30.99000        1.3807629E-18
   31.13250        1.3805742E-18
   31.27500        1.3818809E-18
   31.41750        1.3845289E-18
   31.56000        1.3881356E-18
   31.70250        1.3921553E-18
   31.84500        1.3959776E-18
   31.98750        1.3990372E-18
   32.13000        1.4009234E-18
   32.27250        1.4014605E-18
   32.41500        1.4007462E-18
   32.55750        1.3991311E-18
   32.70000        1.3971509E-18
   32.84250        1.3954163E-18
   32.98500        1.3944917E-18
   33.12750        1.3947846E-18
   33.27000        1.3964739E-18
   33.41250        1.3994768E-18
   33.55500        1.4034751E-18
   33.69750        1.4079769E-18
   33.84000        1.4124054E-18
   33.98250        1.4162026E-18
   34.12500        1.4189275E-18
   34.26750        1.4203288E-18
   34.41000        1.4203871E-18
   34.55250        1.4193158E-18
   34.69500        1.4175099E-18
   34.83750        1.4154653E-18
   34.98000        1.4136708E-18
   35.12250        1.4125067E-18
   35.26500        1.4121683E-18
   35.40750        1.4126313E-18
   35.55000        1.4136719E-18
   35.69250        1.4149265E-18
   35.83500        1.4159787E-18
   35.97750        1.4164547E-18
   36.12000        1.4161031E-18
   36.26250        1.4148471E-18
   36.40500        1.4128065E-18
   36.54750        1.4102820E-18
   36.69000        1.4077066E-18
   36.83250        1.4055758E-18
   36.97500        1.4043562E-18
   37.11750        1.4043993E-18
   37.26000        1.4058677E-18
   37.40250        1.4086956E-18
   37.54500        1.4125968E-18
   37.68750        1.4171164E-18
   37.83000        1.4217197E-18
   37.97250        1.4258980E-18
   38.11500        1.4292629E-18
   38.25750        1.4316138E-18
   38.40000        1.4329563E-18
   38.54250        1.4334800E-18
   38.68500        1.4335034E-18
   38.82750        1.4333978E-18
   38.97000        1.4335052E-18
   39.11250        1.4340734E-18
   39.25500        1.4352062E-18
   39.39750        1.4368430E-18
   39.54000        1.4387685E-18
   39.68250        1.4406547E-18
   39.82500        1.4421319E-18
   39.96750        1.4428712E-18
   40.11000        1.4426684E-18
   40.25250        1.4415034E-18
   40.39500        1.4395587E-18
   40.53750        1.4371954E-18
   40.68000        1.4348795E-18
   40.82250        1.4330914E-18
   40.96500        1.4322240E-18
   41.10750        1.4325083E-18
   41.25000        1.4339678E-18
   41.39250        1.4364218E-18
   41.53500        1.4395198E-18
   41.67750        1.4428098E-18
   41.82000        1.4458192E-18
   41.96250        1.4481362E-18
   42.10500        1.4494837E-18
   42.24750        1.4497638E-18
   42.39000        1.4490754E-18
   42.53250        1.4476878E-18
   42.67500        1.4459836E-18
   42.81750        1.4443710E-18
   42.96000        1.4431947E-18
   43.10250        1.4426565E-18
   43.24500        1.4427777E-18
   43.38750        1.4433998E-18
   43.53000        1.4442303E-18
   43.67250        1.4449206E-18
   43.81500        1.4451503E-18
   43.95750        1.4447042E-18
   44.10000        1.4435249E-18
   44.24250        1.4417296E-18
   44.38500        1.4395952E-18
   44.52750        1.4375106E-18
   44.67000        1.4359054E-18
   44.81250        1.4351695E-18
   44.95500        1.4355731E-18
   45.09750        1.4372036E-18
   45.24000        1.4399391E-18
   45.38250        1.4434609E-18
   45.52500        1.4473115E-18
   45.66750        1.4509855E-18
   45.81000        1.4540305E-18
   45.95250        1.4561372E-18
   46.09500        1.4571975E-18
   46.23750        1.4573156E-18
   46.38000        1.4567760E-18
   46.52250        1.4559781E-18
   46.66500        1.4553532E-18
   46.80750        1.4552808E-18
   46.95000        1.4560210E-18
   47.09250        1.4576665E-18
   47.23500        1.4601277E-18
   47.37750        1.4631468E-18
   47.52000        1.4663456E-18
   47.66250        1.4692964E-18
   47.80500        1.4716115E-18
   47.94750        1.4730253E-18
   48.09000        1.4734551E-18
   48.23250        1.4730204E-18
   48.37500        1.4720149E-18
   48.51750        1.4708381E-18
   48.66000        1.4699010E-18
   48.80250        1.4695350E-18
   48.94500        1.4699194E-18
   49.08750        1.4710505E-18
   49.23000        1.4727450E-18
   49.37250        1.4746860E-18
   49.51500        1.4764827E-18
   49.65750        1.4777453E-18
   49.80000        1.4781572E-18
   49.94250        1.4775364E-18
   50.08500        1.4758760E-18
   50.22750        1.4733601E-18
   50.37000        1.4703412E-18
   50.51250        1.4672836E-18
   50.65500        1.4646781E-18
   50.79750        1.4629441E-18
   50.94000        1.4623440E-18
   51.08250        1.4629278E-18
   51.22500        1.4645270E-18
   51.36750        1.4667930E-18
   51.51000        1.4692750E-18
   51.65250        1.4715128E-18
   51.79500        1.4731242E-18
   51.93750        1.4738739E-18
   52.08000        1.4737088E-18
   52.22250        1.4727613E-18
   52.36500        1.4713209E-18
   52.50750        1.4697846E-18
   52.65000        1.4685817E-18
   52.79250        1.4680946E-18
   52.93500        1.4685811E-18
   53.07750        1.4701172E-18
   53.22000        1.4725751E-18
   53.36250        1.4756425E-18
   53.50500        1.4788860E-18
   53.64750        1.4818395E-18
   53.79000        1.4841032E-18
   53.93250        1.4854231E-18
   54.07500        1.4857411E-18
   54.21750        1.4851975E-18
   54.36000        1.4840979E-18
   54.50250        1.4828506E-18
   54.64500        1.4818882E-18
   54.78750        1.4815887E-18
   54.93000        1.4822032E-18
   55.07250        1.4838082E-18
   55.21500        1.4862847E-18
   55.35750        1.4893345E-18
   55.50000        1.4925277E-18
   55.64250        1.4953891E-18
   55.78500        1.4974931E-18
   55.92750        1.4985539E-18
   56.07000        1.4984864E-18
   56.21250        1.4974251E-18
   56.35500        1.4956879E-18
   56.49750        1.4937097E-18
   56.64000        1.4919473E-18
   56.78250        1.4907903E-18
   56.92500        1.4904894E-18
   57.06750        1.4911163E-18
   57.21000        1.4925553E-18
   57.35250        1.4945282E-18
   57.49500        1.4966444E-18
   57.63750        1.4984756E-18
   57.78000        1.4996374E-18
   57.92250        1.4998745E-18
   58.06500        1.4991209E-18
   58.20750        1.4975296E-18
   58.35000        1.4954479E-18
   58.49250        1.4933535E-18
   58.63500        1.4917493E-18
   58.77750        1.4910553E-18
   58.92000        1.4915175E-18
   59.06250        1.4931583E-18
   59.20500        1.4957794E-18
   59.34750        1.4990072E-18
   59.49000        1.5023721E-18
   59.63250        1.5053984E-18
   59.77500        1.5076875E-18
   59.91750        1.5089885E-18
   60.06000        1.5092369E-18
   60.20250        1.5085708E-18
   60.34500        1.5073098E-18
   60.48750        1.5058966E-18
   60.63000        1.5048138E-18
   60.77250        1.5044837E-18
   60.91500        1.5051710E-18
   61.05750        1.5069176E-18
   61.20000        1.5095258E-18
   61.34250        1.5125983E-18
   61.48500        1.5156256E-18
   61.62750        1.5180953E-18
   61.77000        1.5196003E-18
   61.91250        1.5199197E-18
   62.05500        1.5190532E-18
   62.19750        1.5172144E-18
   62.34000        1.5147849E-18
   62.48250        1.5122443E-18
   62.62500        1.5100835E-18
   62.76750        1.5087233E-18
   62.91000        1.5084366E-18
   63.05250        1.5092966E-18
   63.19500        1.5111557E-18
   63.33750        1.5136710E-18
   63.48000        1.5163679E-18
   63.62250        1.5187392E-18
   63.76500        1.5203508E-18
   63.90750        1.5209374E-18
   64.05000        1.5204517E-18
   64.19250        1.5190718E-18
   64.33500        1.5171536E-18
   64.47750        1.5151538E-18
   64.62000        1.5135376E-18
   64.76250        1.5126963E-18
   64.90500        1.5128804E-18
   65.04750        1.5141643E-18
   65.19000        1.5164368E-18
   65.33250        1.5194238E-18
   65.47500        1.5227344E-18
   65.61750        1.5259356E-18
   65.76000        1.5286315E-18
   65.90250        1.5305434E-18
   66.04500        1.5315625E-18
   66.18750        1.5317686E-18
   66.33000        1.5314025E-18
   66.47250        1.5307991E-18
   66.61500        1.5303031E-18
   66.75750        1.5301889E-18
   66.90000        1.5306004E-18
   67.04250        1.5315292E-18
   67.18500        1.5328267E-18
   67.32750        1.5342393E-18
   67.47000        1.5354639E-18
   67.61250        1.5362042E-18
   67.75500        1.5362279E-18
   67.89750        1.5354160E-18
   68.04000        1.5337960E-18
   68.18250        1.5315562E-18
   68.32500        1.5290230E-18
   68.46750        1.5266079E-18
   68.61000        1.5247290E-18
   68.75250        1.5237196E-18
   68.89500        1.5237567E-18
   69.03750        1.5248209E-18
   69.18000        1.5267033E-18
   69.32250        1.5290558E-18
   69.46500        1.5314690E-18
   69.60750        1.5335530E-18
   69.75000        1.5350068E-18
   69.89250        1.5356635E-18
   70.03500        1.5355100E-18
   70.17750        1.5346820E-18
   70.32000        1.5334389E-18
   70.46250        1.5321233E-18
   70.60500        1.5311011E-18
   70.74750        1.5306945E-18
   70.89000        1.5311130E-18
   71.03250        1.5324007E-18
   71.17500        1.5344170E-18
   71.31750        1.5368614E-18
   71.46000        1.5393385E-18
   71.60250        1.5414483E-18
   71.74500        1.5428761E-18
   71.88750        1.5434563E-18
   72.03000        1.5432024E-18
   72.17250        1.5422911E-18
   72.31500        1.5410153E-18
   72.45750        1.5397232E-18
   72.60000        1.5387536E-18
   72.74250        1.5383793E-18
   72.88500        1.5387656E-18
   73.02750        1.5399400E-18
   73.17000        1.5417881E-18
   73.31250        1.5440672E-18
   73.45500        1.5464535E-18
   73.59750        1.5486074E-18
   73.74000        1.5502526E-18
   73.88250        1.5512400E-18
   74.02500        1.5515865E-18
   74.16750        1.5514677E-18
   74.31000        1.5511699E-18
   74.45250        1.5510148E-18
   74.59500        1.5512766E-18
   74.73750        1.5521160E-18
   74.88000        1.5535451E-18
   75.02250        1.5554254E-18
   75.16500        1.5574963E-18
   75.30750        1.5594251E-18
   75.45000        1.5608655E-18
   75.59250        1.5615227E-18
   75.73500        1.5612156E-18
   75.87750        1.5599214E-18
   76.02000        1.5578005E-18
   76.16250        1.5551825E-18
   76.30500        1.5525136E-18
   76.44750        1.5502706E-18
   76.59000        1.5488595E-18
   76.73250        1.5485262E-18
   76.87500        1.5493024E-18
   77.01750        1.5510023E-18
   77.16000        1.5532656E-18
   77.30250        1.5556381E-18
   77.44500        1.5576645E-18
   77.58750        1.5589753E-18
   77.73000        1.5593497E-18
   77.87250        1.5587541E-18
   78.01500        1.5573470E-18
   78.15750        1.5554561E-18
   78.30000        1.5535290E-18
   78.44250        1.5520534E-18
   78.58500        1.5514666E-18
   78.72750        1.5520630E-18
   78.87000        1.5539236E-18
   79.01250        1.5568915E-18
   79.15500        1.5606009E-18
   79.29750        1.5645559E-18
   79.44000        1.5682417E-18
   79.58250        1.5712325E-18
   79.72500        1.5732768E-18
   79.86750        1.5743334E-18
   80.01000        1.5745597E-18
   80.15250        1.5742605E-18
   80.29500        1.5738147E-18
   80.43750        1.5735948E-18
   80.58000        1.5738930E-18
   80.72250        1.5748648E-18
   80.86500        1.5764883E-18
   81.00750        1.5785576E-18
   81.15000        1.5807068E-18
   81.29250        1.5824751E-18
   81.43500        1.5834013E-18
   81.57750        1.5831267E-18
   81.72000        1.5814906E-18
   81.86250        1.5785770E-18
   82.00500        1.5747109E-18
   82.14750        1.5703944E-18
   82.29000        1.5662062E-18
   82.43250        1.5626866E-18
   82.57500        1.5602389E-18
   82.71750        1.5590678E-18
   82.86000        1.5591581E-18
   83.00250        1.5602933E-18
   83.14500        1.5621066E-18
   83.28750        1.5641486E-18
   83.43000        1.5659686E-18
   83.57250        1.5671969E-18
   83.71500        1.5676142E-18
   83.85750        1.5672001E-18
   84.00000        1.5661391E-18
   84.14250        1.5647828E-18
   84.28500        1.5635693E-18
   84.42750        1.5629201E-18
   84.57000        1.5631400E-18
   84.71250        1.5643466E-18
   84.85500        1.5664450E-18
   84.99750        1.5691532E-18
   85.14000        1.5720661E-18
   85.28250        1.5747376E-18
   85.42500        1.5767636E-18
   85.56750        1.5778532E-18
   85.71000        1.5778749E-18
   85.85250        1.5768778E-18
   85.99500        1.5750869E-18
   86.13750        1.5728694E-18
   86.28000        1.5706717E-18
   86.42250        1.5689393E-18
   86.56500        1.5680268E-18
   86.70750        1.5681261E-18
   86.85000        1.5692282E-18
   86.99250        1.5711307E-18
   87.13500        1.5734943E-18
   87.27750        1.5759229E-18
   87.42000        1.5780574E-18
   87.56250        1.5796467E-18
   87.70500        1.5805877E-18
   87.84750        1.5809325E-18
   87.99000        1.5808614E-18
   88.13250        1.5806441E-18
   88.27500        1.5805864E-18
   88.41750        1.5809745E-18
   88.56000        1.5820205E-18
   88.70250        1.5838129E-18
   88.84500        1.5862865E-18
   88.98750        1.5892186E-18
   89.13000        1.5922631E-18
   89.27250        1.5950225E-18
   89.41500        1.5971350E-18
   89.55750        1.5983654E-18
   89.70000        1.5986653E-18
   89.84250        1.5981841E-18
   89.98500        1.5972355E-18
   90.12750        1.5962253E-18
   90.27000        1.5955651E-18
   90.41250        1.5955911E-18
   90.55500        1.5965057E-18
   90.69750        1.5983465E-18
   90.84000        1.6009796E-18
   90.98250        1.6041163E-18
   91.12500        1.6073545E-18
   91.26750        1.6102343E-18
   91.41000        1.6123186E-18
   91.55250        1.6132741E-18
   91.69500        1.6129493E-18
   91.83750        1.6114152E-18
   91.98000        1.6089629E-18
   92.12250        1.6060476E-18
   92.26500        1.6031947E-18
   92.40750        1.6008899E-18
   92.55000        1.5994836E-18
   92.69250        1.5991291E-18
   92.83500        1.5997693E-18
   92.97750        1.6011674E-18
   93.12000        1.6029662E-18
   93.26250        1.6047620E-18
   93.40500        1.6061821E-18
   93.54750        1.6069518E-18
   93.69000        1.6069474E-18
   93.83250        1.6062224E-18
   93.97500        1.6050060E-18
   94.11750        1.6036623E-18
   94.26000        1.6026161E-18
   94.40250        1.6022584E-18
   94.54500        1.6028514E-18
   94.68750        1.6044630E-18
   94.83000        1.6069427E-18
   94.97250        1.6099554E-18
   95.11500        1.6130531E-18
   95.25750        1.6157734E-18
   95.40000        1.6177324E-18
   95.54250        1.6186995E-18
   95.68500        1.6186351E-18
   95.82750        1.6176954E-18
   95.97000        1.6161995E-18
   96.11250        1.6145724E-18
   96.25500        1.6132669E-18
   96.39750        1.6126760E-18
   96.54000        1.6130504E-18
   96.68250        1.6144364E-18
   96.82500        1.6166554E-18
   96.96750        1.6193322E-18
   97.11000        1.6219731E-18
   97.25250        1.6240732E-18
   97.39500        1.6252289E-18
   97.53750        1.6252245E-18
   97.68000        1.6240725E-18
   97.82250        1.6220001E-18
   97.96500        1.6193930E-18
   98.10750        1.6167107E-18
   98.25000        1.6143989E-18
   98.39250        1.6128102E-18
   98.53500        1.6121430E-18
   98.67750        1.6124066E-18
   98.82000        1.6134184E-18
   98.96250        1.6148259E-18
   99.10500        1.6161698E-18
   99.24750        1.6169728E-18
   99.39000        1.6168417E-18