  -24.4200001         0.00000000    
  -24.2900009        -6.07965327E-12
  -24.1599998        -1.47752106E-11
  -24.0300007        -1.89957772E-11
  -23.8999996        -8.64445841E-12
  -23.7700005         2.83904202E-11
  -23.6399994         1.04965370E-10
  -23.5100002         2.33256275E-10
  -23.3799992         4.23330093E-10
  -23.2500000         6.81881607E-10
  -23.1200008         1.01128972E-09
  -22.9899998         1.40913203E-09
  -22.8600006         1.86824400E-09
  -22.7299995         2.37734854E-09
  -22.6000004         2.92221025E-09
  -22.4699993         3.48721985E-09
  -22.3400002         4.05724343E-09
  -22.2099991         4.61954786E-09
  -22.0799999         5.16560705E-09
  -21.9500008         5.69258196E-09
  -21.8199997         6.20432639E-09
  -21.6900005         6.71179690E-09
  -21.5599995         7.23280502E-09
  -21.4300003         7.79112241E-09
  -21.2999992         8.41499670E-09
  -21.1700001         9.13521792E-09
  -21.0400009         9.98288918E-09
  -20.9099998         1.09871410E-08
  -20.7800007         1.21729622E-08
  -20.6499996         1.35594105E-08
  -20.5200005         1.51583102E-08
  -20.3899994         1.69736403E-08
  -20.2600002         1.90016074E-08
  -20.1299992         2.12314379E-08
  -20.0000000         2.36467947E-08
  -19.8700008         2.62277506E-08
  -19.7399998         2.89530799E-08
  -19.6100006         3.18027418E-08
  -19.4799995         3.47603191E-08
  -19.3500004         3.78152087E-08
  -19.2199993         4.09644088E-08
  -19.0900002         4.42136887E-08
  -18.9599991         4.75780411E-08
  -18.8299999         5.10813649E-08
  -18.7000008         5.47553505E-08
  -18.5699997         5.86376636E-08
  -18.4400005         6.27695727E-08
  -18.3099995         6.71932270E-08
  -18.1800003         7.19488682E-08
  -18.0499992         7.70722508E-08
  -17.9200001         8.25925071E-08
  -17.7900009         8.85306548E-08
  -17.6599998         9.48989722E-08
  -17.5300007         1.01701282E-07
  -17.3999996         1.08934017E-07
  -17.2700005         1.16588048E-07
  -17.1399994         1.24651137E-07
  -17.0100002         1.33110674E-07
  -16.8799992         1.41956505E-07
  -16.7500000         1.51183784E-07
  -16.6200008         1.60795068E-07
  -16.4899998         1.70802238E-07
  -16.3600006         1.81227421E-07
  -16.2299995         1.92103101E-07
  -16.1000004         2.03471515E-07
  -15.9700003         2.15383153E-07
  -15.8400002         2.27894674E-07
  -15.7100000         2.41066203E-07
  -15.5799999         2.54958479E-07
  -15.4499998         2.69630021E-07
  -15.3199997         2.85134547E-07
  -15.1899996         3.01518781E-07
  -15.0600004         3.18820980E-07
  -14.9300003         3.37070304E-07
  -14.8000002         3.56286989E-07
  -14.6700001         3.76483456E-07
  -14.5400000         3.97666071E-07
  -14.4099998         4.19837761E-07
  -14.2799997         4.43000829E-07
  -14.1499996         4.67159992E-07
  -14.0200005         4.92325512E-07
  -13.8900003         5.18515492E-07
  -13.7600002         5.45758382E-07
  -13.6300001         5.74093463E-07
  -13.5000000         6.03571664E-07
  -13.3699999         6.34254604E-07
  -13.2399998         6.66212998E-07
  -13.1099997         6.99524378E-07
  -12.9799995         7.34270543E-07
  -12.8500004         7.70533973E-07
  -12.7200003         8.08395271E-07
  -12.5900002         8.47930153E-07
  -12.4600000         8.89207058E-07
  -12.3299999         9.32285900E-07
  -12.1999998         9.77216587E-07
  -12.0699997         1.02403988E-06
  -11.9399996         1.07278788E-06
  -11.8100004         1.12348550E-06
  -11.6800003         1.17615343E-06
  -11.5500002         1.23081122E-06
  -11.4200001         1.28747990E-06
  -11.2900000         1.34618563E-06
  -11.1599998         1.40696261E-06
  -11.0299997         1.46985565E-06
  -10.8999996         1.53492158E-06
  -10.7700005         1.60223021E-06
  -10.6400003         1.67186352E-06
  -10.5100002         1.74391482E-06
  -10.3800001         1.81848611E-06
  -10.2500000         1.89568505E-06
  -10.1199999         1.97562167E-06
  -9.98999977         2.05840456E-06
  -9.85999966         2.14413717E-06
  -9.72999954         2.23291522E-06
  -9.60000038         2.32482444E-06
  -9.47000027         2.41993826E-06
  -9.34000015         2.51831898E-06
  -9.21000004         2.62001709E-06
  -9.07999992         2.72507464E-06
  -8.94999981         2.83352688E-06
  -8.81999969         2.94540632E-06
  -8.68999958         3.06074617E-06
  -8.56000042         3.17958370E-06
  -8.43000031         3.30196440E-06
  -8.30000019         3.42794351E-06
  -8.17000008         3.55758880E-06
  -8.03999996         3.69098120E-06
  -7.90999985         3.82821372E-06
  -7.78000021         3.96939004E-06
  -7.65000010         4.11462361E-06
  -7.51999998         4.26403130E-06
  -7.38999987         4.41773136E-06
  -7.26000023         4.57584019E-06
  -7.13000011         4.73846512E-06
  -7.00000000         4.90570255E-06
  -6.86999989         5.07763571E-06
  -6.73999977         5.25433097E-06
  -6.61000013         5.43583837E-06
  -6.48000002         5.62219248E-06
  -6.34999990         5.81341146E-06
  -6.21999979         6.00950625E-06
  -6.09000015         6.21047730E-06
  -5.96000004         6.41632550E-06
  -5.82999992         6.62705133E-06
  -5.69999981         6.84266206E-06
  -5.57000017         7.06317360E-06
  -5.44000006         7.28861551E-06
  -5.30999994         7.51902780E-06
  -5.17999983         7.75446460E-06
  -5.05000019         7.99499230E-06
  -4.92000008         8.24068320E-06
  -4.78999996         8.49161734E-06
  -4.65999985         8.74787202E-06
  -4.53000021         9.00952546E-06
  -4.40000010         9.27663950E-06
  -4.26999998         9.54926873E-06
  -4.13999987         9.82744768E-06
  -4.01000023         1.01111918E-05
  -3.88000011         1.04004966E-05
  -3.75000000         1.06953376E-05
  -3.61999989         1.09956727E-05
  -3.49000001         1.13014430E-05
  -3.35999990         1.16125802E-05
  -3.23000002         1.19290071E-05
  -3.09999990         1.22506499E-05
  -2.97000003         1.25774332E-05
  -2.83999991         1.29092923E-05
  -2.71000004         1.32461728E-05
  -2.57999992         1.35880355E-05
  -2.45000005         1.39348522E-05
  -2.31999993         1.42866083E-05
  -2.19000006         1.46433013E-05
  -2.05999994         1.50049327E-05
  -1.92999995         1.53715064E-05
  -1.79999995         1.57430204E-05
  -1.66999996         1.61194639E-05
  -1.53999996         1.65008114E-05
  -1.40999997         1.68870192E-05
  -1.27999997         1.72780165E-05
  -1.14999998         1.76737103E-05
  -1.01999998         1.80739826E-05
 -0.889999986         1.84786913E-05
 -0.759999990         1.88876747E-05
 -0.629999995         1.93007527E-05
 -0.500000000         1.97177342E-05
 -0.370000005         2.01384246E-05
 -0.239999995         2.05626257E-05
 -0.109999999         2.09901445E-05
   1.99999996E-02     2.14207957E-05
  0.150000006         2.18544119E-05
  0.280000001         2.22908347E-05
  0.409999996         2.27299224E-05
  0.540000021         2.31715439E-05
  0.670000017         2.36155738E-05
  0.800000012         2.40618974E-05
  0.930000007         2.45103929E-05
   1.05999994         2.49609329E-05
   1.19000006         2.54133811E-05
   1.32000005         2.58675773E-05
   1.45000005         2.63233433E-05
   1.58000004         2.67804699E-05
   1.71000004         2.72387260E-05
   1.84000003         2.76978517E-05
   1.97000003         2.81575649E-05
   2.09999990         2.86175637E-05
   2.23000002         2.90775315E-05
   2.35999990         2.95371447E-05
   2.49000001         2.99960757E-05
   2.61999989         3.04540026E-05
   2.75000000         3.09106144E-05
   2.88000011         3.13656092E-05
   3.00999999         3.18187122E-05
   3.14000010         3.22696505E-05
   3.26999998         3.27181770E-05
   3.40000010         3.31640658E-05
   3.52999997         3.36070771E-05
   3.66000009         3.40470033E-05
   3.78999996         3.44836117E-05
   3.92000008         3.49166803E-05
   4.05000019         3.53459654E-05
   4.17999983         3.57711979E-05
   4.30999994         3.61920975E-05
   4.44000006         3.66083623E-05
   4.57000017         3.70196576E-05
   4.69999981         3.74256306E-05
   4.82999992         3.78259101E-05
   4.96000004         3.82201179E-05
   5.09000015         3.86078609E-05
   5.21999979         3.89887500E-05
   5.34999990         3.93624105E-05
   5.48000002         3.97284748E-05
   5.61000013         4.00866011E-05
   5.73999977         4.04364582E-05
   5.86999989         4.07777552E-05
   6.00000000         4.11102155E-05
   6.13000011         4.14335918E-05
   6.26000023         4.17476476E-05
   6.38999987         4.20521610E-05
   6.51999998         4.23469210E-05
   6.65000010         4.26317201E-05
   6.78000021         4.29063293E-05
   6.90999985         4.31705230E-05
   7.03999996         4.34240537E-05
   7.17000008         4.36666487E-05
   7.30000019         4.38980205E-05
   7.42999983         4.41178636E-05
   7.55999994         4.43258614E-05
   7.69000006         4.45216756E-05
   7.82000017         4.47049788E-05
   7.94999981         4.48754290E-05
   8.07999992         4.50327134E-05
   8.21000004         4.51765336E-05
   8.34000015         4.53066059E-05
   8.47000027         4.54226829E-05
   8.60000038         4.55245536E-05
   8.72999954         4.56120288E-05
   8.85999966         4.56849593E-05
   8.98999977         4.57432179E-05
   9.11999989         4.57867136E-05
   9.25000000         4.58153481E-05
   9.38000011         4.58290597E-05
   9.51000023         4.58277718E-05
   9.64000034         4.58114009E-05
   9.77000046         4.57798669E-05
   9.89999962         4.57330752E-05
   10.0299997         4.56709095E-05
   10.1599998         4.55932350E-05
   10.2900000         4.54999172E-05
   10.4200001         4.53908069E-05
   10.5500002         4.52657550E-05
   10.6800003         4.51246196E-05
   10.8100004         4.49672698E-05
   10.9399996         4.47935927E-05
   11.0699997         4.46035119E-05
   11.1999998         4.43969730E-05
   11.3299999         4.41739576E-05
   11.4600000         4.39344913E-05
   11.5900002         4.36786395E-05
   11.7200003         4.34064932E-05
   11.8500004         4.31181797E-05
   11.9799995         4.28138483E-05
   12.1099997         4.24936625E-05
   12.2399998         4.21578006E-05
   12.3699999         4.18064374E-05
   12.5000000         4.14397437E-05
   12.6300001         4.10578868E-05
   12.7600002         4.06610088E-05
   12.8900003         4.02492515E-05
   13.0200005         3.98227385E-05
   13.1499996         3.93815790E-05
   13.2799997         3.89258894E-05
   13.4099998         3.84557788E-05
   13.5400000         3.79713747E-05
   13.6700001         3.74728224E-05
   13.8000002         3.69602858E-05
   13.9300003         3.64339721E-05
   14.0600004         3.58941143E-05
   14.1899996         3.53409887E-05
   14.3199997         3.47749046E-05
   14.4499998         3.41962113E-05
   14.5799999         3.36052872E-05
   14.7100000         3.30025468E-05
   14.8400002         3.23884015E-05
   14.9700003         3.17632985E-05
   15.1000004         3.11276635E-05
   15.2299995         3.04819332E-05
   15.3599997         2.98265259E-05
   15.4899998         2.91618471E-05
   15.6199999         2.84882826E-05
   15.7500000         2.78061980E-05
   15.8800001         2.71159406E-05
   16.0100002         2.64178489E-05
   16.1399994         2.57122538E-05
   16.2700005         2.49994901E-05
   16.3999996         2.42798960E-05
   16.5300007         2.35538319E-05
   16.6599998         2.28216795E-05
   16.7900009         2.20838483E-05
   16.9200001         2.13407802E-05
   17.0499992         2.05929555E-05
   17.1800003         1.98408852E-05
   17.3099995         1.90851115E-05
   17.4400005         1.83261982E-05
   17.5699997         1.75647237E-05
   17.7000008         1.68012793E-05
   17.8299999         1.60364489E-05
   17.9599991         1.52708126E-05
   18.0900002         1.45049253E-05
   18.2199993         1.37393226E-05
   18.3500004         1.29745085E-05
   18.4799995         1.22109623E-05
   18.6100006         1.14491313E-05
   18.7399998         1.06894367E-05
   18.8700008         9.93227786E-06
   19.0000000         9.17804300E-06
   19.1299992         8.42711324E-06
   19.2600002         7.67987513E-06
   19.3899994         6.93672200E-06
   19.5200005         6.19806951E-06
   19.6499996         5.46435649E-06
   19.7800007         4.73604496E-06
   19.9099998         4.01362331E-06
   20.0400009         3.29760474E-06
   20.1700001         2.58852424E-06
   20.2999992         1.88692616E-06
   20.4300003         1.19335914E-06
   20.5599995         5.08365986E-07
   20.6900005        -1.67527588E-07
   20.8199997        -8.33817978E-07
   20.9500008        -1.49003677E-06
   21.0799999        -2.13575254E-06
   21.2099991        -2.77057507E-06
   21.3400002        -3.39415783E-06
   21.4699993        -4.00619183E-06
   21.6000004        -4.60640285E-06
   21.7299995        -5.19454443E-06
   21.8600006        -5.77038645E-06
   21.9899998        -6.33371064E-06
   22.1200008        -6.88429782E-06
   22.2500000        -7.42192287E-06
   22.3799992        -7.94634525E-06
   22.5100002        -8.45730301E-06
   22.6399994        -8.95451558E-06
   22.7700005        -9.43768282E-06
   22.8999996        -9.90648459E-06
   23.0300007        -1.03605944E-05
   23.1599998        -1.07996830E-05
   23.2900009        -1.12234266E-05
   23.4200001        -1.16315232E-05
   23.5499992        -1.20236955E-05
   23.6800003        -1.23997042E-05
   23.8099995        -1.27593530E-05
   23.9400005        -1.31024935E-05
   24.0699997        -1.34290276E-05
   24.2000008        -1.37388997E-05
   24.3299999        -1.40321035E-05
   24.4599991        -1.43086618E-05
   24.5900002        -1.45686290E-05
   24.7199993        -1.48120735E-05
   24.8500004        -1.50390679E-05
   24.9799995        -1.52496823E-05
   25.1100006        -1.54439731E-05
   25.2399998        -1.56219812E-05
   25.3700008        -1.57837203E-05
   25.5000000        -1.59291867E-05
   25.6299992        -1.60583531E-05
   25.7600002        -1.61711869E-05
   25.8899994        -1.62676370E-05
   26.0200005        -1.63476670E-05
   26.1499996        -1.64112516E-05
   26.2800007        -1.64583889E-05
   26.4099998        -1.64891098E-05
   26.5400009        -1.65034908E-05
   26.6700001        -1.65016518E-05
   26.7999992        -1.64837656E-05
   26.9300003        -1.64500507E-05
   27.0599995        -1.64007652E-05
   27.1900005        -1.63362110E-05
   27.3199997        -1.62567158E-05
   27.4500008        -1.61626176E-05
   27.5799999        -1.60542695E-05
   27.7099991        -1.59320098E-05
   27.8400002        -1.57961676E-05
   27.9699993        -1.56470451E-05
   28.1000004        -1.54849204E-05
   28.2299995        -1.53100355E-05
   28.3600006        -1.51226068E-05
   28.4899998        -1.49228263E-05
   28.6200008        -1.47108713E-05
   28.7500000        -1.44869100E-05
   28.8799992        -1.42511153E-05
   29.0100002        -1.40036746E-05
   29.1399994        -1.37448033E-05
   29.2700005        -1.34747470E-05
   29.3999996        -1.31937977E-05
   29.5300007        -1.29022865E-05
   29.6599998        -1.26005916E-05
   29.7900009        -1.22891306E-05
   29.9200001        -1.19683582E-05
   30.0499992        -1.16387519E-05
   30.1800003        -1.13008073E-05
   30.3099995        -1.09550210E-05
   30.4400005        -1.06018852E-05
   30.5699997        -1.02418680E-05
   30.7000008        -9.87540898E-06
   30.8299999        -9.50291542E-06
   30.9599991        -9.12475298E-06
   31.0900002        -8.74124999E-06
   31.2199993        -8.35269748E-06
   31.3500004        -7.95936103E-06
   31.4799995        -7.56148347E-06
   31.6100006        -7.15930082E-06
   31.7399998        -6.75305000E-06
   31.8700008        -6.34298704E-06
   32.0000000        -5.92938704E-06
   32.1300011        -5.51255971E-06
   32.2599983        -5.09285064E-06
   32.3899994        -4.67064820E-06
   32.5200005        -4.24637710E-06
   32.6500015        -3.82049393E-06
   32.7799988        -3.39347889E-06
   32.9099998        -2.96582493E-06
   33.0400009        -2.53802705E-06
   33.1699982        -2.11056999E-06
   33.2999992        -1.68391159E-06
   33.4300003        -1.25848135E-06
   33.5600014        -8.34664604E-07
   33.6899986        -4.12801967E-07
   33.8199997         6.81230228E-09
   33.9500008         4.23929862E-07
   34.0800018         8.38335154E-07
   34.2099991         1.24984831E-06
   34.3400002         1.65830374E-06
   34.4700012         2.06354161E-06
   34.5999985         2.46539844E-06
   34.7299995         2.86368731E-06
   34.8600006         3.25820065E-06
   34.9900017         3.64869084E-06
   35.1199989         4.03487456E-06
   35.2500000         4.41643169E-06
   35.3800011         4.79301389E-06
   35.5099983         5.16423961E-06
   35.6399994         5.52971596E-06
   35.7700005         5.88904368E-06
   35.9000015         6.24184077E-06
   36.0299988         6.58774161E-06
   36.1599998         6.92642107E-06
   36.2900009         7.25759492E-06
   36.4199982         7.58102851E-06
   36.5499992         7.89654132E-06
   36.6800003         8.20400328E-06
   36.8100014         8.50332890E-06
   36.9399986         8.79447362E-06
   37.0699997         9.07741469E-06
   37.2000008         9.35214848E-06
   37.3300018         9.61866863E-06
   37.4599991         9.87695239E-06
   37.5900002         1.01269579E-05
   37.7200012         1.03686089E-05
   37.8499985         1.06017933E-05
   37.9799995         1.08263548E-05
   38.1100006         1.10421061E-05
   38.2400017         1.12488269E-05
   38.3699989         1.14462782E-05
   38.5000000         1.16342071E-05
   38.6300011         1.18123708E-05
   38.7599983         1.19805400E-05
   38.8899994         1.21385165E-05
   39.0200005         1.22861456E-05
   39.1500015         1.24233202E-05
   39.2799988         1.25499864E-05
   39.4099998         1.26661462E-05
   39.5400009         1.27718513E-05
   39.6699982         1.28671927E-05
   39.7999992         1.29523041E-05
   39.9300003         1.30273274E-05
   40.0600014         1.30924182E-05
   40.1899986         1.31477218E-05
   40.3199997         1.31933621E-05
   40.4500008         1.32294344E-05
   40.5800018         1.32559953E-05
   40.7099991         1.32730611E-05
   40.8400002         1.32806063E-05
   40.9700012         1.32785735E-05
   41.0999985         1.32668756E-05
   41.2299995         1.32454134E-05
   41.3600006         1.32140813E-05
   41.4900017         1.31727866E-05
   41.6199989         1.31214629E-05
   41.7500000         1.30600793E-05
   41.8800011         1.29886521E-05
   42.0099983         1.29072487E-05
   42.1399994         1.28159909E-05
   42.2700005         1.27150515E-05
   42.4000015         1.26046516E-05
   42.5299988         1.24850449E-05
   42.6599998         1.23565123E-05
   42.7900009         1.22193414E-05
   42.9199982         1.20738159E-05
   43.0499992         1.19202032E-05
   43.1800003         1.17587351E-05
   43.3100014         1.15896082E-05
   43.4399986         1.14129716E-05
   43.5699997         1.12289272E-05
   43.7000008         1.10375368E-05
   43.8300018         1.08388249E-05
   43.9599991         1.06327880E-05
   44.0900002         1.04194141E-05
   44.2200012         1.01986898E-05
   44.3499985         9.97061761E-06
   44.4799995         9.73523311E-06
   44.6100006         9.49260811E-06
   44.7400017         9.24286815E-06
   44.8699989         8.98618509E-06
   45.0000000         8.72279088E-06
   45.1300011         8.45296017E-06
   45.2599983         8.17700766E-06
   45.3899994         7.89527621E-06
   45.5200005         7.60812964E-06
   45.6500015         7.31592672E-06
   45.7799988         7.01901399E-06
   45.9099998         6.71771022E-06
   46.0400009         6.41230099E-06
   46.1699982         6.10302277E-06
   46.2999992         5.79006655E-06
   46.4300003         5.47357376E-06
   46.5600014         5.15364809E-06
   46.6899986         4.83036047E-06
   46.8199997         4.50376092E-06
   46.9500008         4.17388992E-06
   47.0800018         3.84080249E-06
   47.2099991         3.50457276E-06
   47.3400002         3.16530895E-06
   47.4700012         2.82316637E-06
   47.5999985         2.47835283E-06
   47.7299995         2.13113003E-06
   47.8600006         1.78180278E-06
   47.9900017         1.43072600E-06
   48.1199989         1.07828237E-06
   48.2500000         7.24881374E-07
   48.3800011         3.70933037E-07
   48.5099983         1.68385341E-08
   48.6399994        -3.37024005E-07
   48.7700005        -6.90315687E-07
   48.9000015        -1.04273693E-06
   49.0299988        -1.39404506E-06
   49.1599998        -1.74404261E-06
   49.2900009        -2.09258383E-06
   49.4199982        -2.43956106E-06
   49.5499992        -2.78490120E-06
   49.6800003        -3.12853626E-06
   49.8100014        -3.47041146E-06
   49.9399986        -3.81045015E-06
   50.0699997        -4.14855140E-06
   50.2000008        -4.48457513E-06
   50.3300018        -4.81833331E-06
   50.4599991        -5.14958720E-06
   50.5900002        -5.47804757E-06
   50.7200012        -5.80338019E-06
   50.8499985        -6.12521035E-06
   50.9799995        -6.44313832E-06
   51.1100006        -6.75676029E-06
   51.2400017        -7.06567243E-06
   51.3699989        -7.36949323E-06
   51.5000000        -7.66787252E-06
   51.6300011        -7.96051245E-06
   51.7599983        -8.24715971E-06
   51.8899994        -8.52762423E-06
   52.0200005        -8.80176503E-06
   52.1500015        -9.06949026E-06
   52.2799988        -9.33075080E-06
   52.4099998        -9.58552118E-06
   52.5400009        -9.83378413E-06
   52.6699982        -1.00755224E-05
   52.7999992        -1.03106995E-05
   52.9300003        -1.05392446E-05
   53.0600014        -1.07610467E-05
   53.1899986        -1.09759485E-05
   53.3199997        -1.11837444E-05
   53.4500008        -1.13841797E-05
   53.5800018        -1.15769608E-05
   53.7099991        -1.17617637E-05
   53.8400002        -1.19382530E-05
   53.9700012        -1.21060948E-05
   54.0999985        -1.22649681E-05
   54.2299995        -1.24145872E-05
   54.3600006        -1.25547067E-05
   54.4900017        -1.26851382E-05
   54.6199989        -1.28057491E-05
   54.7500000        -1.29164646E-05
   54.8800011        -1.30172702E-05
   55.0099983        -1.31081933E-05
   55.1399994        -1.31893012E-05
   55.2700005        -1.32606801E-05
   55.4000015        -1.33224221E-05
   55.5299988        -1.33746116E-05
   55.6599998        -1.34173079E-05
   55.7900009        -1.34505372E-05
   55.9199982        -1.34742804E-05
   56.0499992        -1.34884731E-05
   56.1800003        -1.34930033E-05
   56.3100014        -1.34877237E-05
   56.4399986        -1.34724523E-05
   56.5699997        -1.34469910E-05
   56.7000008        -1.34111388E-05
   56.8300018        -1.33647045E-05
   56.9599991        -1.33075309E-05
   57.0900002        -1.32394971E-05
   57.2200012        -1.31605357E-05
   57.3499985        -1.30706421E-05
   57.4799995        -1.29698692E-05
   57.6100006        -1.28583342E-05
   57.7400017        -1.27362055E-05
   57.8699989        -1.26036939E-05
   58.0000000        -1.24610415E-05
   58.1300011        -1.23085074E-05
   58.2599983        -1.21463472E-05
   58.3899994        -1.19747974E-05
   58.5200005        -1.17940690E-05
   58.6500015        -1.16043320E-05
   58.7799988        -1.14057093E-05
   58.9099998        -1.11982790E-05
   59.0400009        -1.09820721E-05
   59.1699982        -1.07570877E-05
   59.2999992        -1.05232975E-05
   59.4300003        -1.02806625E-05
   59.5600014        -1.00291491E-05
   59.6899986        -9.76874435E-06
   59.8199997        -9.49947298E-06
   59.9500008        -9.22140498E-06
   60.0800018        -8.93466768E-06
   60.2099991        -8.63945115E-06
   60.3400002        -8.33600552E-06
   60.4700012        -8.02464274E-06
   60.5999985        -7.70571751E-06
   60.7299995        -7.37962182E-06
   60.8600006        -7.04677223E-06
   60.9900017        -6.70758754E-06
   61.1199989        -6.36247569E-06
   61.2500000        -6.01182001E-06
   61.3800011        -5.65596520E-06
   61.5099983        -5.29521276E-06
   61.6399994        -4.92981053E-06
   61.7700005        -4.55995860E-06
   61.9000015        -4.18581203E-06
   62.0299988        -3.80749361E-06
   62.1599998        -3.42510043E-06
   62.2900009        -3.03872503E-06
   62.4199982        -2.64846926E-06
   62.5499992        -2.25445865E-06
   62.6800003        -1.85685724E-06
   62.8100014        -1.45588001E-06
   62.9399986        -1.05179572E-06
   63.0699997        -6.44934687E-07
   63.2000008        -2.35681199E-07
   63.3300018         1.75530104E-07
   63.4599991         5.88227408E-07
   63.5900002         1.00191482E-06
   63.7200012         1.41608882E-06
   63.8499985         1.83025440E-06
   63.9799995         2.24394421E-06
   64.1100006         2.65672656E-06
   64.2399979         3.06822108E-06
   64.3700027         3.47810146E-06
   64.5000000         3.88609806E-06
   64.6299973         4.29199554E-06
   64.7600021         4.69562519E-06
   64.8899994         5.09685105E-06
   65.0199966         5.49555807E-06
   65.1500015         5.89163710E-06
   65.2799988         6.28496355E-06
   65.4100037         6.67538507E-06
   65.5400009         7.06270839E-06
   65.6699982         7.44669160E-06
   65.8000031         7.82703682E-06
   65.9300003         8.20339119E-06
   66.0599976         8.57535179E-06
   66.1900024         8.94247660E-06
   66.3199997         9.30429360E-06
   66.4499969         9.66032076E-06
   66.5800018         1.00100833E-05
   66.7099991         1.03531293E-05
   66.8399963         1.06890448E-05
   66.9700012         1.10174678E-05
   67.0999985         1.13380975E-05
   67.2300034         1.16506963E-05
   67.3600006         1.19550923E-05
   67.4899979         1.22511719E-05
   67.6200027         1.25388697E-05
   67.7500000         1.28181555E-05
   67.8799973         1.30890130E-05
   68.0100021         1.33514322E-05
   68.1399994         1.36053859E-05
   68.2699966         1.38508194E-05
   68.4000015         1.40876346E-05
   68.5299988         1.43156813E-05
   68.6600037         1.45347612E-05
   68.7900009         1.47446235E-05
   68.9199982         1.49449797E-05
   69.0500031         1.51355007E-05
   69.1800003         1.53158508E-05
   69.3099976         1.54856862E-05
   69.4400024         1.56446895E-05
   69.5699997         1.57925751E-05
   69.6999969         1.59291030E-05
   69.8300018         1.60541003E-05
   69.9599991         1.61674561E-05
   70.0899963         1.62691340E-05
   70.2200012         1.63591631E-05
   70.3499985         1.64376306E-05
   70.4800034         1.65046695E-05
   70.6100006         1.65604415E-05
   70.7399979         1.66051232E-05
   70.8700027         1.66388836E-05
   71.0000000         1.66618756E-05
   71.1299973         1.66742157E-05
   71.2600021         1.66759746E-05
   71.3899994         1.66671725E-05
   71.5199966         1.66477821E-05
   71.6500015         1.66177288E-05
   71.7799988         1.65768961E-05
   71.9100037         1.65251531E-05
   72.0400009         1.64623543E-05
   72.1699982         1.63883706E-05
   72.3000031         1.63030909E-05
   72.4300003         1.62064589E-05
   72.5599976         1.60984600E-05
   72.6900024         1.59791562E-05
   72.8199997         1.58486710E-05
   72.9499969         1.57071991E-05
   73.0800018         1.55549878E-05
   73.2099991         1.53923484E-05
   73.3399963         1.52196126E-05
   73.4700012         1.50371416E-05
   73.5999985         1.48452946E-05
   73.7300034         1.46444108E-05
   73.8600006         1.44348023E-05
   73.9899979         1.42167319E-05
   74.1200027         1.39904123E-05
   74.2500000         1.37560010E-05
   74.3799973         1.35136006E-05
   74.5100021         1.32632740E-05
   74.6399994         1.30050448E-05
   74.7699966         1.27389203E-05
   74.9000015         1.24649096E-05
   75.0299988         1.21830344E-05
   75.1600037         1.18933513E-05
   75.2900009         1.15959638E-05
   75.4199982         1.12910329E-05
   75.5500031         1.09787834E-05
   75.6800003         1.06595053E-05
   75.8099976         1.03335497E-05
   75.9400024         1.00013167E-05
   76.0699997         9.66324478E-06
   76.1999969         9.31979503E-06
   76.3300018         8.97142854E-06
   76.4599991         8.61859553E-06
   76.5899963         8.26171254E-06
   76.7200012         7.90114973E-06
   76.8499985         7.53722179E-06
   76.9800034         7.17018384E-06
   77.1100006         6.80022868E-06
   77.2399979         6.42749364E-06
   77.3700027         6.05207151E-06
   77.5000000         5.67402185E-06
   77.6299973         5.29339059E-06
   77.7600021         4.91022729E-06
   77.8899994         4.52460154E-06
   78.0199966         4.13661974E-06
   78.1500015         3.74643855E-06
   78.2799988         3.35427194E-06
   78.4100037         2.96039525E-06
   78.5400009         2.56514227E-06
   78.6699982         2.16890021E-06
   78.8000031         1.77209438E-06
   78.9300003         1.37517668E-06
   79.0599976         9.78602884E-07
   79.1900024         5.82817677E-07
   79.3199997         1.88236356E-07
   79.4499969        -2.04771140E-07
   79.5800018        -5.95893312E-07
   79.7099991        -9.84883286E-07
   79.8399963        -1.37156167E-06
   79.9700012        -1.75581283E-06
   80.0999985        -2.13757721E-06
   80.2300034        -2.51683900E-06
   80.3600006        -2.89361105E-06
   80.4899979        -3.26791383E-06
   80.6200027        -3.63975914E-06
   80.7500000        -4.00913314E-06