  -24.4200001         0.00000000    
  -24.2900009        -2.24908914E-09
  -24.1599998        -6.44719744E-09
  -24.0300007        -1.19358825E-08
  -23.8999996        -1.78661104E-08
  -23.7700005        -2.34114133E-08
  -23.6399994        -2.79731704E-08
  -23.5100002        -3.13269126E-08
  -23.3799992        -3.36734445E-08
  -23.2500000        -3.55824987E-08
  -23.1200008        -3.78437228E-08
  -22.9899998        -4.12629149E-08
  -22.8600006        -4.64551349E-08
  -22.7299995        -5.36869713E-08
  -22.6000004        -6.28077927E-08
  -22.4699993        -7.32873247E-08
  -22.3400002        -8.43500629E-08
  -22.2099991        -9.51728651E-08
  -22.0799999        -1.05095822E-07
  -21.9500008        -1.13793405E-07
  -21.8199997        -1.21362874E-07
  -21.6900005        -1.28307335E-07
  -21.5599995        -1.35417622E-07
  -21.4300003        -1.43582440E-07
  -21.2999992        -1.53574121E-07
  -21.1700001        -1.65863852E-07
  -21.0400009        -1.80512245E-07
  -20.9099998        -1.97163189E-07
  -20.7800007        -2.15142236E-07
  -20.6499996        -2.33635163E-07
  -20.5200005        -2.51901895E-07
  -20.3899994        -2.69472309E-07
  -20.2600002        -2.86274997E-07
  -20.1299992        -3.02666422E-07
  -20.0000000        -3.19353404E-07
  -19.8700008        -3.37228386E-07
  -19.7399998        -3.57158228E-07
  -19.6100006        -3.79780403E-07
  -19.4799995        -4.05356587E-07
  -19.3500004        -4.33721226E-07
  -19.2199993        -4.64337518E-07
  -19.0900002        -4.96446432E-07
  -18.9599991        -5.29272086E-07
  -18.8299999        -5.62230809E-07
  -18.7000008        -5.95092501E-07
  -18.5699997        -6.28052817E-07
  -18.4400005        -6.61698778E-07
  -18.3099995        -6.96876441E-07
  -18.1800003        -7.34493483E-07
  -18.0499992        -7.75307569E-07
  -17.9200001        -8.19752358E-07
  -17.7900009        -8.67846722E-07
  -17.6599998        -9.19208105E-07
  -17.5300007        -9.73168994E-07
  -17.3999996        -1.02896468E-06
  -17.2700005        -1.08594793E-06
  -17.1399994        -1.14377508E-06
  -17.0100002        -1.20251582E-06
  -16.8799992        -1.26266173E-06
  -16.7500000        -1.32502930E-06
  -16.6200008        -1.39058147E-06
  -16.4899998        -1.46021443E-06
  -16.3600006        -1.53456028E-06
  -16.2299995        -1.61385685E-06
  -16.1000004        -1.69791736E-06
  -15.9700003        -1.78620451E-06
  -15.8400002        -1.87799537E-06
  -15.7100000        -1.97259055E-06
  -15.5799999        -2.06951950E-06
  -15.4499998        -2.16868852E-06
  -15.3199997        -2.27043279E-06
  -15.1899996        -2.37546374E-06
  -15.0600004        -2.48472156E-06
  -14.9300003        -2.59917078E-06
  -14.8000002        -2.71959061E-06
  -14.6700001        -2.84641192E-06
  -14.5400000        -2.97964243E-06
  -14.4099998        -3.11889949E-06
  -14.2799997        -3.26353961E-06
  -14.1499996        -3.41285568E-06
  -14.0200005        -3.56628880E-06
  -13.8900003        -3.72360523E-06
  -13.7600002        -3.88498984E-06
  -13.6300001        -4.05103810E-06
  -13.5000000        -4.22264020E-06
  -13.3699999        -4.40079612E-06
  -13.2399998        -4.58639988E-06
  -13.1099997        -4.78005222E-06
  -12.9799995        -4.98194549E-06
  -12.8500004        -5.19185187E-06
  -12.7200003        -5.40921792E-06
  -12.5900002        -5.63333879E-06
  -12.4600000        -5.86357419E-06
  -12.3299999        -6.09954077E-06
  -12.1999998        -6.34125399E-06
  -12.0699997        -6.58915178E-06
  -11.9399996        -6.84403176E-06
  -11.8100004        -7.10688209E-06
  -11.6800003        -7.37867686E-06
  -11.5500002        -7.66016728E-06
  -11.4200001        -7.95173310E-06
  -11.2900000        -8.25332972E-06
  -11.1599998        -8.56453244E-06
  -11.0299997        -8.88468821E-06
  -10.8999996        -9.21311585E-06
  -10.7700005        -9.54931238E-06
  -10.6400003        -9.89312048E-06
  -10.5100002        -1.02447966E-05
  -10.3800001        -1.06049893E-05
  -10.2500000        -1.09746006E-05
  -10.1199999        -1.13546002E-05
  -9.98999977        -1.17458048E-05
  -9.85999966        -1.21486983E-05
  -9.72999954        -1.25633469E-05
  -9.60000038        -1.29894006E-05
  -9.47000027        -1.34262073E-05
  -9.34000015        -1.38729938E-05
  -9.21000004        -1.43290872E-05
  -9.07999992        -1.47940955E-05
  -8.94999981        -1.52680313E-05
  -8.81999969        -1.57513241E-05
  -8.68999958        -1.62447195E-05
  -8.56000042        -1.67491235E-05
  -8.43000031        -1.72653690E-05
  -8.30000019        -1.77940328E-05
  -8.17000008        -1.83352877E-05
  -8.03999996        -1.88888716E-05
  -7.90999985        -1.94541590E-05
  -7.78000021        -2.00303184E-05
  -7.65000010        -2.06165168E-05
  -7.51999998        -2.12121377E-05
  -7.38999987        -2.18169207E-05
  -7.26000023        -2.24310352E-05
  -7.13000011        -2.30550104E-05
  -7.00000000        -2.36896158E-05
  -6.86999989        -2.43356408E-05
  -6.73999977        -2.49936875E-05
  -6.61000013        -2.56640087E-05
  -6.48000002        -2.63464208E-05
  -6.34999990        -2.70403452E-05
  -6.21999979        -2.77449253E-05
  -6.09000015        -2.84592170E-05
  -5.96000004        -2.91824108E-05
  -5.82999992        -2.99140120E-05
  -5.69999981        -3.06539187E-05
  -5.57000017        -3.14024364E-05
  -5.44000006        -3.21601510E-05
  -5.30999994        -3.29277500E-05
  -5.17999983        -3.37058154E-05
  -5.05000019        -3.44946056E-05
  -4.92000008        -3.52939787E-05
  -4.78999996        -3.61033344E-05
  -4.65999985        -3.69217341E-05
  -4.53000021        -3.77480537E-05
  -4.40000010        -3.85812200E-05
  -4.26999998        -3.94203889E-05
  -4.13999987        -4.02650876E-05
  -4.01000023        -4.11152650E-05
  -3.88000011        -4.19712269E-05
  -3.75000000        -4.28334715E-05
  -3.61999989        -4.37024828E-05
  -3.49000001        -4.45785299E-05
  -3.35999990        -4.54615256E-05
  -3.23000002        -4.63509568E-05
  -3.09999990        -4.72459324E-05
  -2.97000003        -4.81453244E-05
  -2.83999991        -4.90479688E-05
  -2.71000004        -4.99528724E-05
  -2.57999992        -5.08593948E-05
  -2.45000005        -5.17672925E-05
  -2.31999993        -5.26767290E-05
  -2.19000006        -5.35881263E-05
  -2.05999994        -5.45019902E-05
  -1.92999995        -5.54186699E-05
  -1.79999995        -5.63381800E-05
  -1.66999996        -5.72601202E-05
  -1.53999996        -5.81836503E-05
  -1.40999997        -5.91076096E-05
  -1.27999997        -6.00307139E-05
  -1.14999998        -6.09517519E-05
  -1.01999998        -6.18697741E-05
 -0.889999986        -6.27842455E-05
 -0.759999990        -6.36950135E-05
 -0.629999995        -6.46022818E-05
 -0.500000000        -6.55064214E-05
 -0.370000005        -6.64077306E-05
 -0.239999995        -6.73062896E-05
 -0.109999999        -6.82017708E-05
   1.99999996E-02    -6.90934539E-05
  0.150000006        -6.99802549E-05
  0.280000001        -7.08608786E-05
  0.409999996        -7.17340736E-05
  0.540000021        -7.25987920E-05
  0.670000017        -7.34543646E-05
  0.800000012        -7.43005658E-05
  0.930000007        -7.51375555E-05
   1.05999994        -7.59657487E-05
   1.19000006        -7.67855890E-05
   1.32000005        -7.75973895E-05
   1.45000005        -7.84010845E-05
   1.58000004        -7.91962157E-05
   1.71000004        -7.99819099E-05
   1.84000003        -8.07570250E-05
   1.97000003        -8.15203384E-05
   2.09999990        -8.22707661E-05
   2.23000002        -8.30074932E-05
   2.35999990        -8.37301777E-05
   2.49000001        -8.44388705E-05
   2.61999989        -8.51339137E-05
   2.75000000        -8.58158237E-05
   2.88000011        -8.64850008E-05
   3.00999999        -8.71415832E-05
   3.14000010        -8.77853381E-05
   3.26999998        -8.84155888E-05
   3.40000010        -8.90313604E-05
   3.52999997        -8.96314959E-05
   3.66000009        -9.02148677E-05
   3.78999996        -9.07806243E-05
   3.92000008        -9.13283220E-05
   4.05000019        -9.18579535E-05
   4.17999983        -9.23698753E-05
   4.30999994        -9.28646550E-05
   4.44000006        -9.33428964E-05
   4.57000017        -9.38050143E-05
   4.69999981        -9.42510669E-05
   4.82999992        -9.46807049E-05
   4.96000004        -9.50932154E-05
   5.09000015        -9.54876377E-05
   5.21999979        -9.58629898E-05
   5.34999990        -9.62184640E-05
   5.48000002        -9.65536383E-05
   5.61000013        -9.68685054E-05
   5.73999977        -9.71634727E-05
   5.86999989        -9.74392533E-05
   6.00000000        -9.76966330E-05
   6.13000011        -9.79363249E-05
   6.26000023        -9.81587145E-05
   6.38999987        -9.83637947E-05
   6.51999998        -9.85511506E-05
   6.65000010        -9.87200619E-05
   6.78000021        -9.88696920E-05
   6.90999985        -9.89992986E-05
   7.03999996        -9.91084235E-05
   7.17000008        -9.91969937E-05
   7.30000019        -9.92653659E-05
   7.42999983        -9.93142748E-05
   7.55999994        -9.93446156E-05
   7.69000006        -9.93572394E-05
   7.82000017        -9.93527938E-05
   7.94999981        -9.93315334E-05
   8.07999992        -9.92932764E-05
   8.21000004        -9.92375499E-05
   8.34000015        -9.91636043E-05
   8.47000027        -9.90706976E-05
   8.60000038        -9.89583568E-05
   8.72999954        -9.88264146E-05
   8.85999966        -9.86751329E-05
   8.98999977        -9.85052175E-05
   9.11999989        -9.83175269E-05
   9.25000000        -9.81130870E-05
   9.38000011        -9.78926910E-05
   9.51000023        -9.76568481E-05
   9.64000034        -9.74056384E-05
   9.77000046        -9.71387490E-05
   9.89999962        -9.68556196E-05
   10.0299997        -9.65555882E-05
   10.1599998        -9.62381309E-05
   10.2900000        -9.59030076E-05
   10.4200001        -9.55504365E-05
   10.5500002        -9.51810071E-05
   10.6800003        -9.47956505E-05
   10.8100004        -9.43954510E-05
   10.9399996        -9.39814345E-05
   11.0699997        -9.35543212E-05
   11.1999998        -9.31144532E-05
   11.3299999        -9.26617577E-05
   11.4600000        -9.21958272E-05
   11.5900002        -9.17160578E-05
   11.7200003        -9.12218748E-05
   11.8500004        -9.07129142E-05
   11.9799995        -9.01892199E-05
   12.1099997        -8.96512211E-05
   12.2399998        -8.90997180E-05
   12.3699999        -8.85357222E-05
   12.5000000        -8.79602449E-05
   12.6300001        -8.73741083E-05
   12.7600002        -8.67777926E-05
   12.8900003        -8.61713706E-05
   13.0200005        -8.55545004E-05
   13.1499996        -8.49266144E-05
   13.2799997        -8.42871086E-05
   13.4099998        -8.36355102E-05
   13.5400000        -8.29717028E-05
   13.6700001        -8.22959919E-05
   13.8000002        -8.16090906E-05
   13.9300003        -8.09120174E-05
   14.0600004        -8.02059003E-05
   14.1899996        -7.94917214E-05
   14.3199997        -7.87701938E-05
   14.4499998        -7.80416231E-05
   14.5799999        -7.73059000E-05
   14.7100000        -7.65625955E-05
   14.8400002        -7.58111346E-05
   14.9700003        -7.50510080E-05
   15.1000004        -7.42819684E-05
   15.2299995        -7.35041394E-05
   15.3599997        -7.27180595E-05
   15.4899998        -7.19245945E-05
   15.6199999        -7.11247994E-05
   15.7500000        -7.03196783E-05
   15.8800001        -6.95100098E-05
   16.0100002        -6.86961939E-05
   16.1399994        -6.78781944E-05
   16.2700005        -6.70556255E-05
   16.3999996        -6.62278762E-05
   16.5300007        -6.53943061E-05
   16.6599998        -6.45544933E-05
   16.7900009        -6.37083504E-05
   16.9200001        -6.28562339E-05
   17.0499992        -6.19988641E-05
   17.1800003        -6.11372379E-05
   17.3099995        -6.02724213E-05
   17.4400005        -5.94053126E-05
   17.5699997        -5.85365051E-05
   17.7000008        -5.76661769E-05
   17.8299999        -5.67941061E-05
   17.9599991        -5.59197761E-05
   18.0900002        -5.50425902E-05
   18.2199993        -5.41620539E-05
   18.3500004        -5.32779595E-05
   18.4799995        -5.23905146E-05
   18.6100006        -5.15003376E-05
   18.7399998        -5.06083816E-05
   18.8700008        -4.97157380E-05
   19.0000000        -4.88234255E-05
   19.1299992        -4.79322152E-05
   19.2600002        -4.70424893E-05
   19.3899994        -4.61542004E-05
   19.5200005        -4.52669701E-05
   19.6499996        -4.43802055E-05
   19.7800007        -4.34933645E-05
   19.9099998        -4.26061088E-05
   20.0400009        -4.17184710E-05
   20.1700001        -4.08309133E-05
   20.2999992        -3.99442688E-05
   20.4300003        -3.90595815E-05
   20.5599995        -3.81779209E-05
   20.6900005        -3.73001676E-05
   20.8199997        -3.64268744E-05
   20.9500008        -3.55581469E-05
   21.0799999        -3.46937304E-05
   21.2099991        -3.38331010E-05
   21.3400002        -3.29756731E-05
   21.4699993        -3.21210318E-05
   21.6000004        -3.12690790E-05
   21.7299995        -3.04201385E-05
   21.8600006        -2.95749451E-05
   21.9899998        -2.87345320E-05
   22.1200008        -2.79000487E-05
   22.2500000        -2.70725413E-05
   22.3799992        -2.62527501E-05
   22.5100002        -2.54410188E-05
   22.6399994        -2.46372747E-05
   22.7700005        -2.38411085E-05
   22.8999996        -2.30519636E-05
   23.0300007        -2.22693416E-05
   23.1599998        -2.14929969E-05
   23.2900009        -2.07230787E-05
   23.4200001        -1.99601491E-05
   23.5499992        -1.92051284E-05
   23.6800003        -1.84591081E-05
   23.8099995        -1.77231850E-05
   23.9400005        -1.69982286E-05
   24.0699997        -1.62847391E-05
   24.2000008        -1.55828111E-05
   24.3299999        -1.48921590E-05
   24.4599991        -1.42122781E-05
   24.5900002        -1.35426471E-05
   24.7199993        -1.28829233E-05
   24.8500004        -1.22331176E-05
   24.9799995        -1.15936473E-05
   25.1100006        -1.09653211E-05
   25.2399998        -1.03492021E-05
   25.3700008        -9.74641534E-06
   25.5000000        -9.15792680E-06
   25.6299992        -8.58436670E-06
   25.7600002        -8.02594786E-06
   25.8899994        -7.48245384E-06
   26.0200005        -6.95336939E-06
   26.1499996        -6.43804788E-06
   26.2800007        -5.93593541E-06
   26.4099998        -5.44676413E-06
   26.5400009        -4.97066458E-06
   26.6700001        -4.50817970E-06
   26.7999992        -4.06018944E-06
   26.9300003        -3.62772494E-06
   27.0599995        -3.21177345E-06
   27.1900005        -2.81307257E-06
   27.3199997        -2.43197110E-06
   27.4500008        -2.06840582E-06
   27.5799999        -1.72197178E-06
   27.7099991        -1.39207009E-06
   27.8400002        -1.07810945E-06
   27.9699993        -7.79725099E-07
   28.1000004        -4.96912833E-07
   28.2299995        -2.30090890E-07
   28.3600006         1.99527506E-08
   28.4899998         2.52217575E-07
   28.6200008         4.65682092E-07
   28.7500000         6.59524176E-07
   28.8799992         8.33294166E-07
   29.0100002         9.86972509E-07
   29.1399994         1.12095847E-06
   29.2700005         1.23594430E-06
   29.3999996         1.33271328E-06
   29.5300007         1.41194050E-06
   29.6599998         1.47398464E-06
   29.7900009         1.51882568E-06
   29.9200001         1.54604174E-06
   30.0499992         1.55492114E-06
   30.1800003         1.54464976E-06
   30.3099995         1.51451559E-06
   30.4400005         1.46409695E-06
   30.5699997         1.39337965E-06
   30.7000008         1.30277567E-06
   30.8299999         1.19302638E-06
   30.9599991         1.06504137E-06
   31.0900002         9.19680417E-07
   31.2199993         7.57557530E-07
   31.3500004         5.78908327E-07
   31.4799995         3.83560064E-07
   31.6100006         1.70983782E-07
   31.7399998        -5.95360454E-08
   31.8700008        -3.08693814E-07
   32.0000000        -5.76956268E-07
   32.1300011        -8.64408037E-07
   32.2599983        -1.17069430E-06
   32.3899994        -1.49506479E-06
   32.5200005        -1.83652003E-06
   32.6500015        -2.19400476E-06
   32.7799988        -2.56662634E-06
   32.9099998        -2.95381574E-06
   33.0400009        -3.35541085E-06
   33.1699982        -3.77163656E-06
   33.2999992        -4.20297420E-06
   33.4300003        -4.64996492E-06
   33.5600014        -5.11300823E-06
   33.6899986        -5.59217051E-06
   33.8199997        -6.08709024E-06
   33.9500008        -6.59697889E-06
   34.0800018        -7.12073324E-06
   34.2099991        -7.65710956E-06
   34.3400002        -8.20494097E-06
   34.4700012        -8.76333343E-06
   34.5999985        -9.33178035E-06
   34.7299995        -9.91018442E-06
   34.8600006        -1.04987694E-05
   34.9900017        -1.10979172E-05
   35.1199989        -1.17079517E-05
   35.2500000        -1.23289456E-05
   35.3800011        -1.29605796E-05
   35.5099983        -1.36021063E-05
   35.6399994        -1.42524159E-05
   35.7700005        -1.49101943E-05
   35.9000015        -1.55741291E-05
   36.0299988        -1.62431170E-05
   36.1599998        -1.69164141E-05
   36.2900009        -1.75936966E-05
   36.4199982        -1.82750227E-05
   36.5499992        -1.89606817E-05
   36.6800003        -1.96509973E-05
   36.8100014        -2.03461132E-05
   36.9399986        -2.10458293E-05
   37.0699997        -2.17495090E-05
   37.2000008        -2.24561063E-05
   37.3300018        -2.31642844E-05
   37.4599991        -2.38726134E-05
   37.5900002        -2.45797819E-05
   37.7200012        -2.52847803E-05
   37.8499985        -2.59870048E-05
   37.9799995        -2.66862589E-05
   38.1100006        -2.73826518E-05
   38.2400017        -2.80764161E-05
   38.3699989        -2.87676939E-05
   38.5000000        -2.94563488E-05
   38.6300011        -3.01418440E-05
   38.7599983        -3.08232156E-05
   38.8899994        -3.14991703E-05
   39.0200005        -3.21682382E-05
   39.1500015        -3.28289934E-05
   39.2799988        -3.34802535E-05
   39.4099998        -3.41212326E-05
   39.5400009        -3.47515561E-05
   39.6699982        -3.53712239E-05
   39.7999992        -3.59804508E-05
   39.9300003        -3.65794403E-05
   40.0600014        -3.71682108E-05
   40.1899986        -3.77464239E-05
   40.3199997        -3.83133192E-05
   40.4500008        -3.88677618E-05
   40.5800018        -3.94083909E-05
   40.7099991        -3.99338060E-05
   40.8400002        -4.04427956E-05
   40.9700012        -4.09344975E-05
   41.0999985        -4.14084861E-05
   41.2299995        -4.18647578E-05
   41.3600006        -4.23036035E-05
   41.4900017        -4.27254199E-05
   41.6199989        -4.31304943E-05
   41.7500000        -4.35188122E-05
   41.8800011        -4.38899624E-05
   42.0099983        -4.42431374E-05
   42.1399994        -4.45772093E-05
   42.2700005        -4.48909450E-05
   42.4000015        -4.51831911E-05
   42.5299988        -4.54530782E-05
   42.6599998        -4.57001588E-05
   42.7900009        -4.59244075E-05
   42.9199982        -4.61261516E-05
   43.0499992        -4.63059187E-05
   43.1800003        -4.64641962E-05
   43.3100014        -4.66012643E-05
   43.4399986        -4.67170248E-05
   43.5699997        -4.68109829E-05
   43.7000008        -4.68822873E-05
   43.8300018        -4.69299011E-05
   43.9599991        -4.69528059E-05
   44.0900002        -4.69502120E-05
   44.2200012        -4.69217048E-05
   44.3499985        -4.68673388E-05
   44.4799995        -4.67875616E-05
   44.6100006        -4.66831079E-05
   44.7400017        -4.65547746E-05
   44.8699989        -4.64032237E-05
   45.0000000        -4.62287899E-05
   45.1300011        -4.60314150E-05
   45.2599983        -4.58106369E-05
   45.3899994        -4.55657282E-05
   45.5200005        -4.52958848E-05
   45.6500015        -4.50004409E-05
   45.7799988        -4.46790400E-05
   45.9099998        -4.43317767E-05
   46.0400009        -4.39591677E-05
   46.1699982        -4.35620677E-05
   46.2999992        -4.31414956E-05
   46.4300003        -4.26984188E-05
   46.5600014        -4.22335506E-05
   46.6899986        -4.17472293E-05
   46.8199997        -4.12394074E-05
   46.9500008        -4.07097032E-05
   47.0800018        -4.01575926E-05
   47.2099991        -3.95826137E-05
   47.3400002        -3.89845591E-05
   47.4700012        -3.83636325E-05
   47.5999985        -3.77204924E-05
   47.7299995        -3.70561756E-05
   47.8600006        -3.63719701E-05
   47.9900017        -3.56691780E-05
   48.1199989        -3.49489237E-05
   48.2500000        -3.42119893E-05
   48.3800011        -3.34587348E-05
   48.5099983        -3.26891459E-05
   48.6399994        -3.19029605E-05
   48.7700005        -3.10998767E-05
   48.9000015        -3.02797525E-05
   49.0299988        -2.94428046E-05
   49.1599998        -2.85896822E-05
   49.2900009        -2.77214549E-05
   49.4199982        -2.68394961E-05
   49.5499992        -2.59453009E-05
   49.6800003        -2.50402645E-05
   49.8100014        -2.41254947E-05
   49.9399986        -2.32017101E-05
   50.0699997        -2.22692142E-05
   50.2000008        -2.13280182E-05
   50.3300018        -2.03779946E-05
   50.4599991        -1.94191052E-05
   50.5900002        -1.84515957E-05
   50.7200012        -1.74761171E-05
   50.8499985        -1.64937592E-05
   50.9799995        -1.55059606E-05
   51.1100006        -1.45143558E-05
   51.2400017        -1.35205519E-05
   51.3699989        -1.25259194E-05
   51.5000000        -1.15314497E-05
   51.6300011        -1.05377057E-05
   51.7599983        -9.54487223E-06
   51.8899994        -8.55290909E-06
   52.0200005        -7.56175905E-06
   52.1500015        -6.57156079E-06
   52.2799988        -5.58280090E-06
   52.4099998        -4.59639978E-06
   52.5400009        -3.61366187E-06
   52.6699982        -2.63615243E-06
   52.7999992        -1.66548739E-06
   52.9300003        -7.03125181E-07
   53.0600014         2.49810597E-07
   53.1899986         1.19262802E-06
   53.3199997         2.12504824E-06
   53.4500008         3.04710034E-06
   53.5800018         3.95892494E-06
   53.7099991         4.86055751E-06
   53.8400002         5.75174909E-06
   53.9700012         6.63184073E-06
   54.0999985         7.49976789E-06
   54.2299995         8.35414357E-06
   54.3600006         9.19345166E-06
   54.4900017         1.00162461E-05
   54.6199989         1.08213635E-05
   54.7500000         1.16080446E-05
   54.8800011         1.23759755E-05
   55.0099983         1.31252118E-05
   55.1399994         1.38560063E-05
   55.2700005         1.45686136E-05
   55.4000015         1.52630728E-05
   55.5299988         1.59390620E-05
   55.6599998         1.65958500E-05
   55.7900009         1.72323471E-05
   55.9199982         1.78472565E-05
   56.0499992         1.84392866E-05
   56.1800003         1.90073533E-05
   56.3100014         1.95507582E-05
   56.4399986         2.00692521E-05
   56.5699997         2.05630058E-05
   56.7000008         2.10324797E-05
   56.8300018         2.14782231E-05
   56.9599991         2.19006488E-05
   57.0900002         2.22998715E-05
   57.2200012         2.26756001E-05
   57.3499985         2.30271489E-05
   57.4799995         2.33535575E-05
   57.6100006         2.36537799E-05
   57.7400017         2.39268920E-05
   57.8699989         2.41723028E-05
   58.0000000         2.43898412E-05
   58.1300011         2.45797892E-05
   58.2599983         2.47427870E-05
   58.3899994         2.48796459E-05
   58.5200005         2.49911409E-05
   58.6500015         2.50778121E-05
   58.7799988         2.51398214E-05
   58.9099998         2.51769343E-05
   59.0400009         2.51885813E-05
   59.1699982         2.51740275E-05
   59.2999992         2.51325800E-05
   59.4300003         2.50638059E-05
   59.5600014         2.49676687E-05
   59.6899986         2.48445958E-05
   59.8199997         2.46954169E-05
   59.9500008         2.45212213E-05
   60.0800018         2.43231443E-05
   60.2099991         2.41021626E-05
   60.3400002         2.38589200E-05
   60.4700012         2.35936513E-05
   60.5999985         2.33062110E-05
   60.7299995         2.29962025E-05
   60.8600006         2.26631819E-05
   60.9900017         2.23068637E-05
   61.1199989         2.19273134E-05
   61.2500000         2.15250311E-05
   61.3800011         2.11009574E-05
   61.5099983         2.06563527E-05
   61.6399994         2.01926105E-05
   61.7700005         1.97110385E-05
   61.9000015         1.92126718E-05
   62.0299988         1.86981542E-05
   62.1599998         1.81677206E-05
   62.2900009         1.76212870E-05
   62.4199982         1.70586372E-05
   62.5499992         1.64796274E-05
   62.6800003         1.58843959E-05
   62.8100014         1.52734847E-05
   62.9399986         1.46478878E-05
   63.0699997         1.40089696E-05
   63.2000008         1.33583017E-05
   63.3300018         1.26974492E-05
   63.4599991         1.20277600E-05
   63.5900002         1.13502110E-05
   63.7200012         1.06653415E-05
   63.8499985         9.97331153E-06
   63.9799995         9.27403926E-06
   64.1100006         8.56741099E-06
   64.2399979         7.85350039E-06
   64.3700027         7.13272448E-06
   64.5000000         6.40593453E-06
   64.6299973         5.67438747E-06
   64.7600021         4.93961261E-06
   64.8899994         4.20322476E-06
   65.0199966         3.46669890E-06
   65.1500015         2.73119690E-06
   65.2799988         1.99746160E-06
   65.4100037         1.26582654E-06
   65.5400009         5.36325047E-07
   65.6699982        -1.91122624E-07
   65.8000031        -9.16497129E-07
   65.9300003        -1.63948721E-06
   66.0599976        -2.35937091E-06
   66.1900024        -3.07500204E-06
   66.3199997        -3.78490881E-06
   66.4499969        -4.48746550E-06
   66.5800018        -5.18111665E-06
   66.7099991        -5.86457827E-06
   66.8399963        -6.53698680E-06
   66.9700012        -7.19792752E-06
   67.0999985        -7.84736949E-06
   67.2300034        -8.48551463E-06
   67.3600006        -9.11257212E-06
   67.4899979        -9.72855378E-06
   67.6200027        -1.03331131E-05
   67.7500000        -1.09254888E-05
   67.8799973        -1.15045468E-05
   68.0100021        -1.20689328E-05
   68.1399994        -1.26172627E-05
   68.2699966        -1.31483475E-05
   68.4000015        -1.36613653E-05
   68.5299988        -1.41559394E-05
   68.6600037        -1.46321199E-05
   68.7900009        -1.50902479E-05
   68.9199982        -1.55307607E-05
   69.0500031        -1.59539795E-05
   69.1800003        -1.63599216E-05
   69.3099976        -1.67482049E-05
   69.4400024        -1.71180418E-05
   69.5699997        -1.74683573E-05
   69.6999969        -1.77979764E-05
   69.8300018        -1.81058404E-05
   69.9599991        -1.83911961E-05
   70.0899963        -1.86537309E-05
   70.2200012        -1.88935737E-05
   70.3499985        -1.91112322E-05
   70.4800034        -1.93073902E-05
   70.6100006        -1.94827098E-05
   70.7399979        -1.96376204E-05
   70.8700027        -1.97721856E-05
   71.0000000        -1.98860507E-05
   71.1299973        -1.99785172E-05
   71.2600021        -2.00487029E-05
   71.3899994        -2.00957529E-05
   71.5199966        -2.01190487E-05
   71.6500015        -2.01183739E-05
   71.7799988        -2.00939739E-05
   71.9100037        -2.00465092E-05
   72.0400009        -1.99769074E-05
   72.1699982        -1.98861708E-05
   72.3000031        -1.97751415E-05
   72.4300003        -1.96443434E-05
   72.5599976        -1.94938875E-05
   72.6900024        -1.93234955E-05
   72.8199997        -1.91326253E-05
   72.9499969        -1.89206748E-05
   73.0800018        -1.86871785E-05
   73.2099991        -1.84320179E-05
   73.3399963        -1.81555151E-05
   73.4700012        -1.78584287E-05
   73.5999985        -1.75418463E-05
   73.7300034        -1.72070122E-05
   73.8600006        -1.68550923E-05
   73.9899979        -1.64869871E-05
   74.1200027        -1.61032021E-05
   74.2500000        -1.57038303E-05
   74.3799973        -1.52886350E-05
   74.5100021        -1.48572271E-05
   74.6399994        -1.44092801E-05
   74.7699966        -1.39447338E-05
   74.9000015        -1.34639386E-05
   75.0299988        -1.29676910E-05
   75.1600037        -1.24571761E-05
   75.2900009        -1.19338010E-05
   75.4199982        -1.13989836E-05
   75.5500031        -1.08539316E-05
   75.6800003        -1.02994900E-05
   75.8099976        -9.73606711E-06
   75.9400024        -9.16367844E-06
   76.0699997        -8.58209114E-06
   76.1999969        -7.99102691E-06
   76.3300018        -7.39037660E-06
   76.4599991        -6.78038032E-06
   76.5899963        -6.16171064E-06
   76.7200012        -5.53545442E-06
   76.8499985        -4.90298817E-06
   76.9800034        -4.26578617E-06
   77.1100006        -3.62519563E-06
   77.2399979        -2.98225655E-06
   77.3700027        -2.33758874E-06
   77.5000000        -1.69139298E-06
   77.6299973        -1.04355422E-06
   77.7600021        -3.93826667E-07
   77.8899994         2.57948585E-07
   78.0199966         9.11648158E-07
   78.1500015         1.56674048E-06
   78.2799988         2.22226572E-06
   78.4100037         2.87692046E-06
   78.5400009         3.52923257E-06
   78.6699982         4.17778347E-06
   78.8000031         4.82141195E-06
   78.9300003         5.45936791E-06
   79.0599976         6.09134895E-06
   79.1900024         6.71744874E-06
   79.3199997         7.33799470E-06
   79.4499969         7.95333199E-06
   79.5800018         8.56361112E-06
   79.7099991         9.16862155E-06
   79.8399963         9.76772844E-06
   79.9700012         1.03599068E-05
   80.0999985         1.09438815E-05
   80.2300034         1.15183338E-05
   80.3600006         1.20821178E-05
   80.4899979         1.26344412E-05
   80.6200027         1.31749475E-05
   80.7500000         1.37037050E-05