  -24.4200001         3.57171667E-18
  -24.2870007        -6.36347962E-12
  -24.1539993        -1.52863295E-11
  -24.0209999        -1.90070563E-11
  -23.8880005        -6.52405647E-12
  -23.7549992         3.52682224E-11
  -23.6219997         1.20132598E-10
  -23.4890003         2.60881872E-10
  -23.3560009         4.67792582E-10
  -23.2229996         7.47234774E-10
  -23.0900002         1.10070175E-09
  -22.9570007         1.52438717E-09
  -22.8239994         2.00939909E-09
  -22.6910000         2.54262633E-09
  -22.5580006         3.10818149E-09
  -22.4249992         3.68928688E-09
  -22.2919998         4.27040048E-09
  -22.1590004         4.83935070E-09
  -22.0259991         5.38924771E-09
  -21.8929996         5.91995430E-09
  -21.7600002         6.43894493E-09
  -21.6270008         6.96143942E-09
  -21.4939995         7.50978657E-09
  -21.3610001         8.11212342E-09
  -21.2280006         8.80042705E-09
  -21.0949993         9.60815694E-09
  -20.9619999         1.05676756E-08
  -20.8290005         1.17077450E-08
  -20.6959991         1.30513165E-08
  -20.5629997         1.46138630E-08
  -20.4300003         1.64023977E-08
  -20.2970009         1.84153173E-08
  -20.1639996         2.06430357E-08
  -20.0310001         2.30694059E-08
  -19.8980007         2.56737724E-08
  -19.7649994         2.84334760E-08
  -19.6320000         3.13266213E-08
  -19.4990005         3.43348070E-08
  -19.3659992         3.74456945E-08
  -19.2329998         4.06550420E-08
  -19.1000004         4.39681074E-08
  -18.9669991         4.74002597E-08
  -18.8339996         5.09766593E-08
  -18.7010002         5.47310677E-08
  -18.5680008         5.87038151E-08
  -18.4349995         6.29391295E-08
  -18.3020000         6.74821052E-08
  -18.1690006         7.23755917E-08
  -18.0359993         7.76572620E-08
  -17.9029999         8.33573139E-08
  -17.7700005         8.94969645E-08
  -17.6369991         9.60878239E-08
  -17.5039997         1.03132386E-07
  -17.3710003         1.10625365E-07
  -17.2380009         1.18555946E-07
  -17.1049995         1.26910621E-07
  -16.9720001         1.35676316E-07
  -16.8390007         1.44843582E-07
  -16.7059994         1.54409520E-07
  -16.5730000         1.64380197E-07
  -16.4400005         1.74772310E-07
  -16.3069992         1.85613942E-07
  -16.1739998         1.96944384E-07
  -16.0410004         2.08813020E-07
  -15.9080000         2.21277276E-07
  -15.7749996         2.34399934E-07
  -15.6420002         2.48246067E-07
  -15.5089998         2.62879865E-07
  -15.3760004         2.78361398E-07
  -15.2430000         2.94743984E-07
  -15.1099997         3.12072302E-07
  -14.9770002         3.30381198E-07
  -14.8439999         3.49695569E-07
  -14.7110004         3.70031216E-07
  -14.5780001         3.91396668E-07
  -14.4449997         4.13795732E-07
  -14.3120003         4.37230682E-07
  -14.1789999         4.61705696E-07
  -14.0459995         4.87230182E-07
  -13.9130001         5.13821931E-07
  -13.7799997         5.41509280E-07
  -13.6470003         5.70332702E-07
  -13.5139999         6.00345288E-07
  -13.3809996         6.31611954E-07
  -13.2480001         6.64207903E-07
  -13.1149998         6.98215786E-07
  -12.9820004         7.33723027E-07
  -12.8490000         7.70817962E-07
  -12.7159996         8.09586822E-07
  -12.5830002         8.50110155E-07
  -12.4499998         8.92460889E-07
  -12.3170004         9.36701952E-07
  -12.1840000         9.82885808E-07
  -12.0509996         1.03105447E-06
  -11.9180002         1.08124084E-06
  -11.7849998         1.13347085E-06
  -11.6520004         1.18776586E-06
  -11.5190001         1.24414657E-06
  -11.3859997         1.30263663E-06
  -11.2530003         1.36326639E-06
  -11.1199999         1.42607553E-06
  -10.9870005         1.49111611E-06
  -10.8540001         1.55845373E-06
  -10.7209997         1.62816798E-06
  -10.5880003         1.70035173E-06
  -10.4549999         1.77510924E-06
  -10.3219995         1.85255260E-06
  -10.1890001         1.93279880E-06
  -10.0559998         2.01596549E-06
  -9.92300034         2.10216626E-06
  -9.78999996         2.19150820E-06
  -9.65699959         2.28408771E-06
  -9.52400017         2.37998893E-06
  -9.39099979         2.47928324E-06
  -9.25800037         2.58202931E-06
  -9.12500000         2.68827534E-06
  -8.99199963         2.79806022E-06
  -8.85900021         2.91142010E-06
  -8.72599983         3.02838907E-06
  -8.59300041         3.14900626E-06
  -8.46000004         3.27331736E-06
  -8.32699966         3.40137990E-06
  -8.19400024         3.53326323E-06
  -8.06099987         3.66905192E-06
  -7.92799997         3.80884376E-06
  -7.79500008         3.95274947E-06
  -7.66200018         4.10088887E-06
  -7.52899981         4.25338703E-06
  -7.39599991         4.41037128E-06
  -7.26300001         4.57196529E-06
  -7.13000011         4.73828459E-06
  -6.99700022         4.90943285E-06
  -6.86399984         5.08549738E-06
  -6.73099995         5.26654867E-06
  -6.59800005         5.45263811E-06
  -6.46500015         5.64380071E-06
  -6.33199978         5.84005556E-06
  -6.19899988         6.04141132E-06
  -6.06599998         6.24786935E-06
  -5.93300009         6.45942873E-06
  -5.80000019         6.67609174E-06
  -5.66699982         6.89786884E-06
  -5.53399992         7.12478095E-06
  -5.40100002         7.35686308E-06
  -5.26800013         7.59416298E-06
  -5.13500023         7.83674386E-06
  -5.00199986         8.08467848E-06
  -4.86899996         8.33805007E-06
  -4.73600006         8.59694319E-06
  -4.60300016         8.86144062E-06
  -4.46999979         9.13162057E-06
  -4.33699989         9.40754489E-06
  -4.20400000         9.68926179E-06
  -4.07100010         9.97679763E-06
  -3.93799996         1.02701570E-05
  -3.80500007         1.05693234E-05
  -3.67199993         1.08742579E-05
  -3.53900003         1.11849040E-05
  -3.40599990         1.15011926E-05
  -3.27300000         1.18230428E-05
  -3.14000010         1.21503745E-05
  -3.00699997         1.24831067E-05
  -2.87400007         1.28211686E-05
  -2.74099994         1.31644974E-05
  -2.60800004         1.35130476E-05
  -2.47499990         1.38667874E-05
  -2.34200001         1.42257004E-05
  -2.20900011         1.45897811E-05
  -2.07599998         1.49590314E-05
  -1.94299996         1.53334549E-05
  -1.80999994         1.57130526E-05
  -1.67700005         1.60978143E-05
  -1.54400003         1.64877092E-05
  -1.41100001         1.68826919E-05
  -1.27800000         1.72826876E-05
  -1.14499998         1.76875947E-05
  -1.01199996         1.80972875E-05
 -0.879000008         1.85116096E-05
 -0.745999992         1.89303846E-05
 -0.612999976         1.93534215E-05
 -0.479999989         1.97805130E-05
 -0.347000003         2.02114497E-05
 -0.214000002         2.06460190E-05
  -8.10000002E-02     2.10840190E-05
   5.20000011E-02     2.15252549E-05
  0.185000002         2.19695521E-05
  0.317999989         2.24167434E-05
  0.451000005         2.28666795E-05
  0.583999991         2.33192295E-05
  0.717000008         2.37742588E-05
  0.850000024         2.42316437E-05
  0.982999980         2.46912550E-05
   1.11600006         2.51529491E-05
   1.24899995         2.56165695E-05
   1.38199997         2.60819379E-05
   1.51499999         2.65488470E-05
   1.64800000         2.70170585E-05
   1.78100002         2.74863069E-05
   1.91400003         2.79563028E-05
   2.04699993         2.84267335E-05
   2.18000007         2.88972606E-05
   2.31299996         2.93675421E-05
   2.44600010         2.98372270E-05
   2.57900000         3.03059696E-05
   2.71199989         3.07734335E-05
   2.84500003         3.12392913E-05
   2.97799993         3.17032427E-05
   3.11100006         3.21649932E-05
   3.24399996         3.26242807E-05
   3.37700009         3.30808471E-05
   3.50999999         3.35344557E-05
   3.64299989         3.39848593E-05
   3.77600002         3.44318287E-05
   3.90899992         3.48751164E-05
   4.04199982         3.53144605E-05
   4.17500019         3.57495883E-05
   4.30800009         3.61801867E-05
   4.44099998         3.66059321E-05
   4.57399988         3.70264715E-05
   4.70699978         3.74414194E-05
   4.84000015         3.78503864E-05
   4.97300005         3.82529579E-05
   5.10599995         3.86487154E-05
   5.23899984         3.90372516E-05
   5.37200022         3.94181516E-05
   5.50500011         3.97910371E-05
   5.63800001         4.01555408E-05
   5.77099991         4.05113242E-05
   5.90399981         4.08580709E-05
   6.03700018         4.11955007E-05
   6.17000008         4.15233480E-05
   6.30299997         4.18413729E-05
   6.43599987         4.21493387E-05
   6.56899977         4.24470163E-05
   6.70200014         4.27341802E-05
   6.83500004         4.30105829E-05
   6.96799994         4.32759771E-05
   7.10099983         4.35300790E-05
   7.23400021         4.37725939E-05
   7.36700010         4.40032054E-05
   7.50000000         4.42215751E-05
   7.63299990         4.44273464E-05
   7.76599979         4.46201702E-05
   7.89900017         4.47996863E-05
   8.03199959         4.49655454E-05
   8.16499996         4.51174164E-05
   8.29800034         4.52549939E-05
   8.43099976         4.53780049E-05
   8.56400013         4.54862093E-05
   8.69699955         4.55793997E-05
   8.82999992         4.56574016E-05
   8.96300030         4.57200767E-05
   9.09599972         4.57673159E-05
   9.22900009         4.57990318E-05
   9.36200047         4.58151299E-05
   9.49499989         4.58155446E-05
   9.62800026         4.58001850E-05
   9.76099968         4.57689639E-05
   9.89400005         4.57217793E-05
   10.0270004         4.56585003E-05
   10.1599998         4.55789959E-05
   10.2930002         4.54831134E-05
   10.4259996         4.53706962E-05
   10.5590000         4.52415843E-05
   10.6920004         4.50956213E-05
   10.8249998         4.49326726E-05
   10.9580002         4.47526218E-05
   11.0909996         4.45553851E-05
   11.2240000         4.43409153E-05
   11.3570004         4.41092052E-05
   11.4899998         4.38602910E-05
   11.6230001         4.35942493E-05
   11.7559996         4.33111927E-05
   11.8889999         4.30112559E-05
   12.0220003         4.26946099E-05
   12.1549997         4.23614365E-05
   12.2880001         4.20119250E-05
   12.4209995         4.16462608E-05
   12.5539999         4.12646186E-05
   12.6870003         4.08671694E-05
   12.8199997         4.04540697E-05
   12.9530001         4.00254503E-05
   13.0860004         3.95814423E-05
   13.2189999         3.91221620E-05
   13.3520002         3.86477295E-05
   13.4849997         3.81582759E-05
   13.6180000         3.76539465E-05
   13.7510004         3.71349051E-05
   13.8839998         3.66013628E-05
   14.0170002         3.60535560E-05
   14.1499996         3.54917611E-05
   14.2830000         3.49163129E-05
   14.4160004         3.43275642E-05
   14.5489998         3.37259189E-05
   14.6820002         3.31118063E-05
   14.8149996         3.24856774E-05
   14.9480000         3.18479906E-05
   15.0810003         3.11992153E-05
   15.2139997         3.05398171E-05
   15.3470001         2.98702435E-05
   15.4799995         2.91909255E-05
   15.6129999         2.85022797E-05
   15.7460003         2.78046937E-05
   15.8789997         2.70985474E-05
   16.0119991         2.63841957E-05
   16.1450005         2.56619987E-05
   16.2779999         2.49323075E-05
   16.4109993         2.41954967E-05
   16.5440006         2.34519430E-05
   16.6770000         2.27020646E-05
   16.8099995         2.19463109E-05
   16.9430008         2.11851584E-05
   17.0760002         2.04191329E-05
   17.2089996         1.96487836E-05
   17.3419991         1.88746999E-05
   17.4750004         1.80974894E-05
   17.6079998         1.73177777E-05
   17.7409992         1.65361926E-05
   17.8740005         1.57533614E-05
   18.0070000         1.49698935E-05
   18.1399994         1.41863775E-05
   18.2730007         1.34033744E-05
   18.4060001         1.26214090E-05
   18.5389996         1.18409798E-05
   18.6720009         1.10625479E-05
   18.8050003         1.02865561E-05
   18.9379997         9.51342463E-06
   19.0709991         8.74356465E-06
   19.2040005         7.97738721E-06
   19.3369999         7.21531069E-06
   19.4699993         6.45777072E-06
   19.6030006         5.70522843E-06
   19.7360001         4.95817039E-06
   19.8689995         4.21711184E-06
   20.0020008         3.48259550E-06
   20.1350002         2.75519051E-06
   20.2679996         2.03547643E-06
   20.4009991         1.32404057E-06
   20.5340004         6.21466938E-07
   20.6669998        -7.16776825E-08
   20.7999992        -7.54853374E-07
   20.9330006        -1.42755005E-06
   21.0660000        -2.08930328E-06
   21.1989994        -2.73969272E-06
   21.3320007        -3.37834399E-06
   21.4650002        -4.00492399E-06
   21.5979996        -4.61913760E-06
   21.7310009        -5.22072060E-06
   21.8640003        -5.80942651E-06
   21.9969997        -6.38502297E-06
   22.1299992        -6.94727305E-06
   22.2630005        -7.49593028E-06
   22.3959999        -8.03073544E-06
   22.5289993        -8.55140297E-06
   22.6620007        -9.05762863E-06
   22.7950001        -9.54908410E-06
   22.9279995        -1.00254256E-05
   23.0610008        -1.04863002E-05
   23.1940002        -1.09313569E-05
   23.3269997        -1.13602546E-05
   23.4599991        -1.17726768E-05
   23.5930004        -1.21683397E-05
   23.7259998        -1.25470024E-05
   23.8589993        -1.29084756E-05
   23.9920006        -1.32526211E-05
   24.1250000        -1.35793543E-05
   24.2579994        -1.38886417E-05
   24.3910007        -1.41804903E-05
   24.5240002        -1.44549422E-05
   24.6569996        -1.47120627E-05
   24.7900009        -1.49519292E-05
   24.9230003        -1.51746181E-05
   25.0559998        -1.53801957E-05
   25.1889992        -1.55687103E-05
   25.3220005        -1.57401864E-05
   25.4549999        -1.58946277E-05
   25.5879993        -1.60320105E-05
   25.7210007        -1.61522985E-05
   25.8540001        -1.62554425E-05
   25.9869995        -1.63413988E-05
   26.1200008        -1.64101366E-05
   26.2530003        -1.64616486E-05
   26.3859997        -1.64959620E-05
   26.5189991        -1.65131496E-05
   26.6520004        -1.65133370E-05
   26.7849998        -1.64966987E-05
   26.9179993        -1.64634675E-05
   27.0510006        -1.64139183E-05
   27.1840000        -1.63483692E-05
   27.3169994        -1.62671695E-05
   27.4500008        -1.61706866E-05
   27.5830002        -1.60592917E-05
   27.7159996        -1.59333522E-05
   27.8490009        -1.57932136E-05
   27.9820004        -1.56391961E-05
   28.1149998        -1.54715926E-05
   28.2479992        -1.52906578E-05
   28.3810005        -1.50966171E-05
   28.5139999        -1.48896734E-05
   28.6469994        -1.46700104E-05
   28.7800007        -1.44378091E-05
   28.9130001        -1.41932605E-05
   29.0459995        -1.39365729E-05
   29.1790009        -1.36679864E-05
   29.3120003        -1.33877802E-05
   29.4449997        -1.30962826E-05
   29.5779991        -1.27938674E-05
   29.7110004        -1.24809585E-05
   29.8439999        -1.21580215E-05
   29.9769993        -1.18255548E-05
   30.1100006        -1.14840814E-05
   30.2430000        -1.11341351E-05
   30.3759995        -1.07762426E-05
   30.5090008        -1.04109204E-05
   30.6420002        -1.00386533E-05
   30.7749996        -9.65989148E-06
   30.9080009        -9.27504243E-06
   31.0410004        -8.88447357E-06
   31.1739998        -8.48850777E-06
   31.3069992        -8.08743698E-06
   31.4400005        -7.68152495E-06
   31.5730000        -7.27102952E-06
   31.7059994        -6.85620307E-06
   31.8390007        -6.43731300E-06
   31.9720001        -6.01465081E-06
   32.1049995        -5.58854026E-06
   32.2379990        -5.15935290E-06
   32.3709984        -4.72749662E-06
   32.5040016        -4.29342344E-06
   32.6370010        -3.85762178E-06
   32.7700005        -3.42060480E-06
   32.9029999        -2.98290183E-06
   33.0359993        -2.54504084E-06
   33.1689987        -2.10754092E-06
   33.3019981        -1.67089297E-06
   33.4350014        -1.23554878E-06
   33.5680008        -8.01918759E-07
   33.7010002        -3.70362642E-07
   33.8339996         5.88137894E-08
   33.9669991         4.85350654E-07
   34.0999985         9.09025175E-07
   34.2330017         1.32964669E-06
   34.3660011         1.74703700E-06
   34.4990005         2.16102944E-06
   34.6320000         2.57143711E-06
   34.7649994         2.97805627E-06
   34.8979988         3.38064683E-06
   35.0309982         3.77893252E-06
   35.1640015         4.17259253E-06
   35.2970009         4.56126918E-06
   35.4300003         4.94457163E-06
   35.5629997         5.32208333E-06
   35.6959991         5.69338363E-06
   35.8289986         6.05805099E-06
   35.9620018         6.41568295E-06
   36.0950012         6.76590844E-06
   36.2280006         7.10840322E-06
   36.3610001         7.44289491E-06
   36.4939995         7.76916750E-06
   36.6269989         8.08706227E-06
   36.7599983         8.39647237E-06
   36.8930016         8.69733594E-06
   37.0260010         8.98962571E-06
   37.1590004         9.27332803E-06
   37.2919998         9.54843472E-06
   37.4249992         9.81492849E-06
   37.5579987         1.00727684E-05
   37.6910019         1.03218781E-05
   37.8240013         1.05621421E-05
   37.9570007         1.07933993E-05
   38.0900002         1.10154524E-05
   38.2229996         1.12280677E-05
   38.3559990         1.14309869E-05
   38.4889984         1.16239435E-05
   38.6220016         1.18066773E-05
   38.7550011         1.19789420E-05
   38.8880005         1.21405265E-05
   39.0209999         1.22912707E-05
   39.1539993         1.24310609E-05
   39.2869987         1.25598481E-05
   39.4199982         1.26776404E-05
   39.5530014         1.27845015E-05
   39.6860008         1.28805368E-05
   39.8190002         1.29658874E-05
   39.9519997         1.30407134E-05
   40.0849991         1.31051765E-05
   40.2179985         1.31594261E-05
   40.3510017         1.32035875E-05
   40.4840012         1.32377472E-05
   40.6170006         1.32619507E-05
   40.7500000         1.32761998E-05
   40.8829994         1.32804535E-05
   41.0159988         1.32746345E-05
   41.1489983         1.32586438E-05
   41.2820015         1.32323694E-05
   41.4150009         1.31957049E-05
   41.5480003         1.31485649E-05
   41.6809998         1.30908948E-05
   41.8139992         1.30226899E-05
   41.9469986         1.29440004E-05
   42.0800018         1.28549318E-05
   42.2130013         1.27556486E-05
   42.3460007         1.26463692E-05
   42.4790001         1.25273555E-05
   42.6119995         1.23988984E-05
   42.7449989         1.22613073E-05
   42.8779984         1.21148860E-05
   43.0110016         1.19599244E-05
   43.1440010         1.17966811E-05
   43.2770004         1.16253723E-05
   43.4099998         1.14461673E-05
   43.5429993         1.12591824E-05
   43.6759987         1.10644887E-05
   43.8089981         1.08621180E-05
   43.9420013         1.06520674E-05
   44.0750008         1.04343262E-05
   44.2080002         1.02088825E-05
   44.3409996         9.97573716E-06
   44.4739990         9.73493025E-06
   44.6069984         9.48654269E-06
   44.7400017         9.23071184E-06
   44.8730011         8.96762776E-06
   45.0060005         8.69754149E-06
   45.1389999         8.42075406E-06
   45.2719994         8.13761017E-06
   45.4049988         7.84847816E-06
   45.5379982         7.55374685E-06
   45.6710014         7.25379869E-06
   45.8040009         6.94899927E-06
   45.9370003         6.63967785E-06
   46.0699997         6.32612500E-06
   46.2029991         6.00857857E-06
   46.3359985         5.68722589E-06
   46.4690018         5.36220614E-06
   46.6020012         5.03361252E-06
   46.7350006         4.70151008E-06
   46.8680000         4.36595019E-06
   47.0009995         4.02698060E-06
   47.1339989         3.68466726E-06
   47.2669983         3.33911157E-06
   47.4000015         2.99045359E-06
   47.5330009         2.63889046E-06
   47.6660004         2.28467684E-06
   47.7989998         1.92812058E-06
   47.9319992         1.56958515E-06
   48.0649986         1.20946856E-06
   48.1980019         8.48199079E-07
   48.3310013         4.86217459E-07
   48.4640007         1.23955573E-07
   48.5970001        -2.38172703E-07
   48.7299995        -5.99793054E-07
   48.8629990        -9.60579200E-07
   48.9959984        -1.32025343E-06
   49.1290016        -1.67859787E-06
   49.2620010        -2.03545051E-06
   49.3950005        -2.39068800E-06
   49.5279999        -2.74422837E-06
   49.6609993        -3.09600318E-06
   49.7939987        -3.44594650E-06
   49.9269981        -3.79397920E-06
   50.0600014        -4.13999078E-06
   50.1930008        -4.48383298E-06
   50.3260002        -4.82529958E-06
   50.4589996        -5.16413320E-06
   50.5919991        -5.50001823E-06
   50.7249985        -5.83259134E-06
   50.8580017        -6.16145098E-06
   50.9910011        -6.48616606E-06
   51.1240005        -6.80630183E-06
   51.2570000        -7.12143083E-06
   51.3899994        -7.43115015E-06
   51.5229988        -7.73510237E-06
   51.6559982        -8.03297644E-06
   51.7890015        -8.32452497E-06
   51.9220009        -8.60955697E-06
   52.0550003        -8.88794420E-06
   52.1879997        -9.15960482E-06
   52.3209991        -9.42449606E-06
   52.4539986        -9.68259428E-06
   52.5870018        -9.93388676E-06
   52.7200012        -1.01783435E-05
   52.8530006        -1.04159062E-05
   52.9860001        -1.06464840E-05
   53.1189995        -1.08699287E-05
   53.2519989        -1.10860437E-05
   53.3849983        -1.12945736E-05
   53.5180016        -1.14952236E-05
   53.6510010        -1.16876572E-05
   53.7840004        -1.18715197E-05
   53.9169998        -1.20464501E-05
   54.0499992        -1.22120982E-05
   54.1829987        -1.23681466E-05
   54.3160019        -1.25143206E-05
   54.4490013        -1.26504037E-05
   54.5820007        -1.27762405E-05
   54.7150002        -1.28917400E-05
   54.8479996        -1.29968730E-05
   54.9809990        -1.30916642E-05
   55.1139984        -1.31761790E-05
   55.2470016        -1.32505083E-05
   55.3800011        -1.33147532E-05
   55.5130005        -1.33689991E-05
   55.6459999        -1.34133106E-05
   55.7789993        -1.34477150E-05
   55.9119987        -1.34721904E-05
   56.0449982        -1.34866641E-05
   56.1780014        -1.34910151E-05
   56.3110008        -1.34850825E-05
   56.4440002        -1.34686679E-05
   56.5769997        -1.34415568E-05
   56.7099991        -1.34035363E-05
   56.8429985        -1.33544090E-05
   56.9760017        -1.32940113E-05
   57.1090012        -1.32222267E-05
   57.2420006        -1.31389997E-05
   57.3750000        -1.30443404E-05
   57.5079994        -1.29383270E-05
   57.6409988        -1.28211013E-05
   57.7739983        -1.26928599E-05
   57.9070015        -1.25538445E-05
   58.0400009        -1.24043199E-05
   58.1730003        -1.22445626E-05
   58.3059998        -1.20748382E-05
   58.4389992        -1.18953885E-05
   58.5719986        -1.17064183E-05
   58.7050018        -1.15080820E-05
   58.8380013        -1.13004862E-05
   58.9710007        -1.10836854E-05
   59.1040001        -1.08576914E-05
   59.2369995        -1.06224852E-05
   59.3699989        -1.03780239E-05
   59.5029984        -1.01242722E-05
   59.6360016        -9.86120631E-06
   59.7690010        -9.58883629E-06
   59.9020004        -9.30722490E-06
   60.0349998        -9.01649219E-06
   60.1679993        -8.71682460E-06
   60.3009987        -8.40847679E-06
   60.4339981        -8.09176890E-06
   60.5670013        -7.76707293E-06
   60.7000008        -7.43480541E-06
   60.8330002        -7.09540654E-06
   60.9659996        -6.74932517E-06
   61.0989990        -6.39699738E-06
   61.2319984        -6.03883336E-06
   61.3650017        -5.67520465E-06
   61.4980011        -5.30643138E-06
   61.6310005        -4.93277776E-06
   61.7639999        -4.55445524E-06
   61.8969994        -4.17162801E-06
   62.0299988        -3.78442405E-06
   62.1629982        -3.39294775E-06
   62.2960014        -2.99729754E-06
   62.4290009        -2.59758622E-06
   62.5620003        -2.19395588E-06
   62.6949997        -1.78659332E-06
   62.8279991        -1.37574136E-06
   62.9609985        -9.61705155E-07
   63.0940018        -5.44854004E-07
   63.2270012        -1.25616850E-07
   63.3600006         2.95527400E-07
   63.4930000         7.18064598E-07
   63.6259995         1.14145962E-06
   63.7589989         1.56517513E-06
   63.8919983         1.98869475E-06
   64.0250015         2.41153202E-06
   64.1579971         2.83324925E-06
   64.2910004         3.25346764E-06
   64.4240036         3.67186817E-06
   64.5569992         4.08819460E-06
   64.6900024         4.50224525E-06
   64.8229980         4.91385981E-06
   64.9560013         5.32290824E-06
   65.0889969         5.72927092E-06
   65.2220001         6.13282145E-06
   65.3550034         6.53340840E-06
   65.4879990         6.93083803E-06
   65.6210022         7.32486660E-06
   65.7539978         7.71518899E-06
   65.8870010         8.10144229E-06
   66.0199966         8.48320451E-06
   66.1529999         8.86000817E-06
   66.2860031         9.23135485E-06
   66.4189987         9.59672980E-06
   66.5520020         9.95561913E-06
   66.6849976         1.03075408E-05
   66.8180008         1.06520447E-05
   66.9509964         1.09887442E-05
   67.0839996         1.13173119E-05
   67.2170029         1.16374977E-05
   67.3499985         1.19491160E-05
   67.4830017         1.22520469E-05
   67.6159973         1.25462211E-05
   67.7490005         1.28316051E-05
   67.8820038         1.31081861E-05
   68.0149994         1.33759477E-05
   68.1480026         1.36348563E-05
   68.2809982         1.38848445E-05
   68.4140015         1.41257915E-05
   68.5469971         1.43575280E-05
   68.6800003         1.45798249E-05
   68.8130035         1.47924002E-05
   68.9459991         1.49949301E-05
   69.0790024         1.51870599E-05
   69.2119980         1.53684232E-05
   69.3450012         1.55386624E-05
   69.4779968         1.56974475E-05
   69.6110001         1.58444909E-05
   69.7440033         1.59795654E-05
   69.8769989         1.61025164E-05
   70.0100021         1.62132674E-05
   70.1429977         1.63118129E-05
   70.2760010         1.63982168E-05
   70.4089966         1.64725989E-05
   70.5419998         1.65351175E-05
   70.6750031         1.65859601E-05
   70.8079987         1.66253103E-05
   70.9410019         1.66533373E-05
   71.0739975         1.66701775E-05
   71.2070007         1.66759201E-05
   71.3399963         1.66706031E-05
   71.4729996         1.66542068E-05
   71.6060028         1.66266600E-05
   71.7389984         1.65878519E-05
   71.8720016         1.65376405E-05
   72.0049973         1.64758731E-05
   72.1380005         1.64024077E-05
   72.2710037         1.63171262E-05
   72.4039993         1.62199522E-05
   72.5370026         1.61108783E-05
   72.6699982         1.59899628E-05
   72.8030014         1.58573312E-05
   72.9359970         1.57131926E-05
   73.0690002         1.55578182E-05
   73.2020035         1.53915335E-05
   73.3349991         1.52147004E-05
   73.4680023         1.50277001E-05
   73.6009979         1.48309146E-05
   73.7340012         1.46247057E-05
   73.8669968         1.44093929E-05
   74.0000000         1.41852515E-05
   74.1330032         1.39524964E-05
   74.2659988         1.37112793E-05
   74.3990021         1.34616985E-05
   74.5319977         1.32038094E-05
   74.6650009         1.29376313E-05
   74.7979965         1.26631712E-05
   74.9309998         1.23804421E-05
   75.0640030         1.20894792E-05
   75.1969986         1.17903628E-05
   75.3300018         1.14832292E-05
   75.4629974         1.11682793E-05
   75.5960007         1.08457880E-05
   75.7289963         1.05160962E-05
   75.8619995         1.01796077E-05
   75.9950027         9.83677546E-06
   76.1279984         9.48808156E-06
   76.2610016         9.13402073E-06
   76.3939972         8.77508228E-06
   76.5270004         8.41172368E-06
   76.6600037         8.04436149E-06
   76.7929993         7.67335223E-06
   76.9260025         7.29898784E-06
   77.0589981         6.92149342E-06
   77.1920013         6.54103133E-06
   77.3249969         6.15771160E-06
   77.4580002         5.77160608E-06
   77.5910034         5.38276618E-06
   77.7239990         4.99124417E-06
   77.8570023         4.59711146E-06
   77.9899979         4.20047900E-06
   78.1230011         3.80150800E-06
   78.2559967         3.40042607E-06
   78.3889999         2.99752401E-06
   78.5220032         2.59315902E-06
   78.6549988         2.18774403E-06
   78.7880020         1.78173525E-06
   78.9209976         1.37561585E-06
   79.0540009         9.69873099E-07
   79.1869965         5.64981065E-07
   79.3199997         1.61378850E-07
   79.4530029        -2.40545432E-07
   79.5859985        -6.40469068E-07
   79.7190018        -1.03814068E-06
   79.8519974        -1.43338127E-06
   79.9850006        -1.82608289E-06
   80.1179962        -2.21619212E-06
   80.2509995        -2.60370098E-06
   80.3840027        -2.98862687E-06
   80.5169983        -3.37098777E-06
   80.6500015        -3.75078844E-06
   80.7829971        -4.12799636E-06
   80.9160004        -4.50252855E-06
   81.0490036        -4.87424359E-06
   81.1819992        -5.24293318E-06
   81.3150024        -5.60832768E-06
   81.4479980        -5.97010012E-06
   81.5810013        -6.32788533E-06
   81.7139969        -6.68129360E-06
   81.8470001        -7.02993020E-06
   81.9800034        -7.37342134E-06
   82.1129990        -7.71142641E-06
   82.2460022        -8.04366482E-06
   82.3789978        -8.36991876E-06
   82.5120010        -8.69004634E-06
   82.6449966        -9.00398300E-06
   82.7779999        -9.31173327E-06
   82.9110031        -9.61336173E-06
   83.0439987        -9.90897115E-06
   83.1770020        -1.01986925E-05