  -24.4200001        -3.11656322E-18
  -24.2870007        -2.35409114E-09
  -24.1539993        -6.73000100E-09
  -24.0209999        -1.24076793E-08
  -23.8880005        -1.84711446E-08
  -23.7549992        -2.40490028E-08
  -23.6219997        -2.85407395E-08
  -23.4890003        -3.17698827E-08
  -23.3560009        -3.40243425E-08
  -23.2229996        -3.59740682E-08
  -23.0900002        -3.84883485E-08
  -22.9570007        -4.24013749E-08
  -22.8239994        -4.82882072E-08
  -22.6910000        -5.63103733E-08
  -22.5580006        -6.61718218E-08
  -22.4249992        -7.71970008E-08
  -22.2919998        -8.85104470E-08
  -22.1590004        -9.92705509E-08
  -22.0259991        -1.08896003E-07
  -21.8929996        -1.17225305E-07
  -21.7600002        -1.24566952E-07
  -21.6270008        -1.31627260E-07
  -21.4939995        -1.39334119E-07
  -21.3610001        -1.48603149E-07
  -21.2280006        -1.60107064E-07
  -21.0949993        -1.74109033E-07
  -20.9619999        -1.90403597E-07
  -20.8290005        -2.08380655E-07
  -20.6959991        -2.27196097E-07
  -20.5629997        -2.46004021E-07
  -20.4300003        -2.64190163E-07
  -20.2970009        -2.81544970E-07
  -20.1639996        -2.98331059E-07
  -20.0310001        -3.15227481E-07
  -19.8980007        -3.33165104E-07
  -19.7649994        -3.53096738E-07
  -19.6320000        -3.75761630E-07
  -19.4990005        -4.01506895E-07
  -19.3659992        -4.30211855E-07
  -19.2329998        -4.61336015E-07
  -19.1000004        -4.94077199E-07
  -18.9669991        -5.27598559E-07
  -18.8339996        -5.61264869E-07
  -18.7010002        -5.94825849E-07
  -18.5680008        -6.28498242E-07
  -18.4349995        -6.62925061E-07
  -18.3020000        -6.99023587E-07
  -18.1690006        -7.37761468E-07
  -18.0359993        -7.79920185E-07
  -17.9029999        -8.25908558E-07
  -17.7700005        -8.75674914E-07
  -17.6369991        -9.28741997E-07
  -17.5039997        -9.84354529E-07
  -17.3710003        -1.04170158E-06
  -17.2380009        -1.10015469E-06
  -17.1049995        -1.15945954E-06
  -16.9720001        -1.21983010E-06
  -16.8390007        -1.28192119E-06
  -16.7059994        -1.34668676E-06
  -16.5730000        -1.41515932E-06
  -16.4400005        -1.48821005E-06
  -16.3069992        -1.56635190E-06
  -16.1739998        -1.64963637E-06
  -16.0410004        -1.73767228E-06
  -15.9080000        -1.82976032E-06
  -15.7749996        -1.92510925E-06
  -15.6420002        -2.02307638E-06
  -15.5089998        -2.12336840E-06
  -15.3760004        -2.22615245E-06
  -15.2430000        -2.33204560E-06
  -15.1099997        -2.44198827E-06
  -14.9770002        -2.55703094E-06
  -14.8439999        -2.67809469E-06
  -14.7110004        -2.80576751E-06
  -14.5780001        -2.94018400E-06
  -14.4449997        -3.08103063E-06
  -14.3120003        -3.22766505E-06
  -14.1789999        -3.37932329E-06
  -14.0459995        -3.53536143E-06
  -13.9130001        -3.69546433E-06
  -13.7799997        -3.85976682E-06
  -13.6470003        -4.02886280E-06
  -13.5139999        -4.20368542E-06
  -13.3809996        -4.38530606E-06
  -13.2480001        -4.57469150E-06
  -13.1149998        -4.77249250E-06
  -12.9820004        -4.97891142E-06
  -12.8490000        -5.19369269E-06
  -12.7159996        -5.41622649E-06
  -12.5830002        -5.64575566E-06
  -12.4499998        -5.88161038E-06
  -12.3170004        -6.12342956E-06
  -12.1840000        -6.37129551E-06
  -12.0509996        -6.62575485E-06
  -11.9180002        -6.88771706E-06
  -11.7849998        -7.15825809E-06
  -11.6520004        -7.43838109E-06
  -11.5190001        -7.72879866E-06
  -11.3859997        -8.02978684E-06
  -11.2530003        -8.34115690E-06
  -11.1199999        -8.66235132E-06
  -10.9870005        -8.99263068E-06
  -10.8540001        -9.33131651E-06
  -10.7209997        -9.67800224E-06
  -10.5880003        -1.00327079E-05
  -10.4549999        -1.03959119E-05
  -10.3219995        -1.07684609E-05
  -10.1890001        -1.11513891E-05
  -10.0559998        -1.15456751E-05
  -9.92300034        -1.19520209E-05
  -9.78999996        -1.23706923E-05
  -9.65699959        -1.28014844E-05
  -9.52400017        -1.32438026E-05
  -9.39099979        -1.36968383E-05
  -9.25800037        -1.41598111E-05
  -9.12500000        -1.46321881E-05
  -8.99199963        -1.51138556E-05
  -8.85900021        -1.56051592E-05
  -8.72599983        -1.61068347E-05
  -8.59300041        -1.66198352E-05
  -8.46000004        -1.71450883E-05
  -8.32699966        -1.76832691E-05
  -8.19400024        -1.82346321E-05
  -8.06099987        -1.87989499E-05
  -7.92799997        -1.93755859E-05
  -7.79500008        -1.99636543E-05
  -7.66200018        -2.05622637E-05
  -7.52899981        -2.11707429E-05
  -7.39599991        -2.17888155E-05
  -7.26300001        -2.24166706E-05
  -7.13000011        -2.30548867E-05
  -6.99700022        -2.37043041E-05
  -6.86399984        -2.43657541E-05
  -6.73099995        -2.50398516E-05
  -6.59800005        -2.57268002E-05
  -6.46500015        -2.64263417E-05
  -6.33199978        -2.71377830E-05
  -6.19899988        -2.78601638E-05
  -6.06599998        -2.85924943E-05
  -5.93300009        -2.93339745E-05
  -5.80000019        -3.00841875E-05
  -5.66699982        -3.08431627E-05
  -5.53399992        -3.16113401E-05
  -5.40100002        -3.23894237E-05
  -5.26800013        -3.31781303E-05
  -5.13500023        -3.39779726E-05
  -5.00199986        -3.47890600E-05
  -4.86899996        -3.56110177E-05
  -4.73600006        -3.64430089E-05
  -4.60300016        -3.72839131E-05
  -4.46999979        -3.81325190E-05
  -4.33699989        -3.89877860E-05
  -4.20400000        -3.98490265E-05
  -4.07100010        -4.07160005E-05
  -3.93799996        -4.15889008E-05
  -3.80500007        -4.24682112E-05
  -3.67199993        -4.33544810E-05
  -3.53900003        -4.42480996E-05
  -3.40599990        -4.51491069E-05
  -3.27300000        -4.60570736E-05
  -3.14000010        -4.69711267E-05
  -3.00699997        -4.78900947E-05
  -2.87400007        -4.88127225E-05
  -2.74099994        -4.97379042E-05
  -2.60800004        -5.06648721E-05
  -2.47499990        -5.15933243E-05
  -2.34200001        -5.25233991E-05
  -2.20900011        -5.34555329E-05
  -2.07599998        -5.43902570E-05
  -1.94299996        -5.53279606E-05
  -1.80999994        -5.62686801E-05
  -1.67700005        -5.72119716E-05
  -1.54400003        -5.81569220E-05
  -1.41100001        -5.91022799E-05
  -1.27800000        -6.00466738E-05
  -1.14499998        -6.09888084E-05
  -1.01199996        -6.19277344E-05
 -0.879000008        -6.28629350E-05
 -0.745999992        -6.37943303E-05
 -0.612999976        -6.47221823E-05
 -0.479999989        -6.56468983E-05
 -0.347000003        -6.65687694E-05
 -0.214000002        -6.74877665E-05
  -8.10000002E-02    -6.84034167E-05
   5.20000011E-02    -6.93148104E-05
  0.185000002        -7.02206889E-05
  0.317999989        -7.11196481E-05
  0.451000005        -7.20103926E-05
  0.583999991        -7.28919695E-05
  0.717000008        -7.37638475E-05
  0.850000024        -7.46259902E-05
  0.982999980        -7.54787397E-05
   1.11600006        -7.63225762E-05
   1.24899995        -7.71579216E-05
   1.38199997        -7.79849215E-05
   1.51499999        -7.88032630E-05
   1.64800000        -7.96121822E-05
   1.78100002        -8.04105584E-05
   1.91400003        -8.11970676E-05
   2.04699993        -8.19704583E-05
   2.18000007        -8.27297627E-05
   2.31299996        -8.34744496E-05
   2.44600010        -8.42044683E-05
   2.57900000        -8.49201388E-05
   2.71199989        -8.56219995E-05
   2.84500003        -8.63105233E-05
   2.97799993        -8.69859286E-05
   3.11100006        -8.76480190E-05
   3.24399996        -8.82961176E-05
   3.37700009        -8.89291987E-05
   3.50999999        -8.95460034E-05
   3.64299989        -9.01453459E-05
   3.77600002        -9.07263093E-05
   3.90899992        -9.12883916E-05
   4.04199982        -9.18316073E-05
   4.17500019        -9.23563348E-05
   4.30800009        -9.28632217E-05
   4.44099998        -9.33528863E-05
   4.57399988        -9.38257363E-05
   4.70699978        -9.42817715E-05
   4.84000015        -9.47205408E-05
   4.97300005        -9.51412221E-05
   5.10599995        -9.55427604E-05
   5.23899984        -9.59241152E-05
   5.37200022        -9.62845443E-05
   5.50500011        -9.66236621E-05
   5.63800001        -9.69416360E-05
   5.77099991        -9.72390262E-05
   5.90399981        -9.75166404E-05
   6.03700018        -9.77753298E-05
   6.17000008        -9.80157347E-05
   6.30299997        -9.82380952E-05
   6.43599987        -9.84421713E-05
   6.56899977        -9.86273808E-05
   6.70200014        -9.87928288E-05
   6.83500004        -9.89376713E-05
   6.96799994        -9.90612098E-05
   7.10099983        -9.91632041E-05
   7.23400021        -9.92438509E-05
   7.36700010        -9.93038047E-05
   7.50000000        -9.93439608E-05
   7.63299990        -9.93653157E-05
   7.76599979        -9.93686335E-05
   7.89900017        -9.93543144E-05
   8.03199959        -9.93223075E-05
   8.16499996        -9.92721398E-05
   8.29800034        -9.92030618E-05
   8.43099976        -9.91142806E-05
   8.56400013        -9.90051558E-05
   8.69699955        -9.88754837E-05
   8.82999992        -9.87254898E-05
   8.96300030        -9.85558581E-05
   9.09599972        -9.83675563E-05
   9.22900009        -9.81616613E-05
   9.36200047        -9.79390679E-05
   9.49499989        -9.77002928E-05
   9.62800026        -9.74454306E-05
   9.76099968        -9.71741247E-05
   9.89400005        -9.68857348E-05
   10.0270004        -9.65795407E-05
   10.1599998        -9.62549966E-05
   10.2930002        -9.59119061E-05
   10.4259996        -9.55505529E-05
   10.5590000        -9.51716793E-05
   10.6920004        -9.47763547E-05
   10.8249998        -9.43657433E-05
   10.9580002        -9.39409001E-05
   11.0909996        -9.35024946E-05
   11.2240000        -9.30507449E-05
   11.3570004        -9.25854474E-05
   11.4899998        -9.21060200E-05
   11.6230001        -9.16118006E-05
   11.7559996        -9.11022435E-05
   11.8889999        -9.05771303E-05
   12.0220003        -9.00366722E-05
   12.1549997        -8.94815530E-05
   12.2880001        -8.89127696E-05
   12.4209995        -8.83314497E-05
   12.5539999        -8.77386192E-05
   12.6870003        -8.71349621E-05
   12.8199997        -8.65207185E-05
   12.9530001        -8.58956773E-05
   13.0860004        -8.52593002E-05
   13.2189999        -8.46109033E-05
   13.3520002        -8.39499044E-05
   13.4849997        -8.32760416E-05
   13.6180000        -8.25895331E-05
   13.7510004        -8.18910412E-05
   13.8839998        -8.11816062E-05
   14.0170002        -8.04624360E-05
   14.1499996        -7.97346365E-05
   14.2830000        -7.89990445E-05
   14.4160004        -7.82560528E-05
   14.5489998        -7.75055669E-05
   14.6820002        -7.67471429E-05
   14.8149996        -7.59801405E-05
   14.9480000        -7.52039996E-05
   15.0810003        -7.44184363E-05
   15.2139997        -7.36236034E-05
   15.3470001        -7.28200976E-05
   15.4799995        -7.20088792E-05
   15.6129999        -7.11911125E-05
   15.7460003        -7.03678525E-05
   15.8789997        -6.95399067E-05
   16.0119991        -6.87076245E-05
   16.1450005        -6.78709039E-05
   16.2779999        -6.70292357E-05
   16.4109993        -6.61819140E-05
   16.5440006        -6.53282841E-05
   16.6770000        -6.44679749E-05
   16.8099995        -6.36010227E-05
   16.9430008        -6.27279442E-05
   17.0760002        -6.18496706E-05
   17.2089996        -6.09673225E-05
   17.3419991        -6.00820131E-05
   17.4750004        -5.91946009E-05
   17.6079998        -5.83055225E-05
   17.7409992        -5.74147562E-05
   17.8740005        -5.65218834E-05
   18.0070000        -5.56262603E-05
   18.1399994        -5.47272539E-05
   18.2730007        -5.38244785E-05
   18.4060001        -5.29179670E-05
   18.5389996        -5.20082212E-05
   18.6720009        -5.10961545E-05
   18.8050003        -5.01829199E-05
   18.9379997        -4.92696818E-05
   19.0709991        -4.83573676E-05
   19.2040005        -4.74465196E-05
   19.3369999        -4.65371850E-05
   19.4699993        -4.56290145E-05
   19.6030006        -4.47214079E-05
   19.7360001        -4.38137249E-05
   19.8689995        -4.29055581E-05
   20.0020008        -4.19968819E-05
   20.1350002        -4.10881439E-05
   20.2679996        -4.01802099E-05
   20.4009991        -3.92741931E-05
   20.5340004        -3.83712613E-05
   20.6669998        -3.74723859E-05
   20.7999992        -3.65781380E-05
   20.9330006        -3.56886303E-05
   21.0660000        -3.48035464E-05
   21.1989994        -3.39223116E-05
   21.3320007        -3.30442963E-05
   21.4650002        -3.21690750E-05
   21.5979996        -3.12965894E-05
   21.7310009        -3.04272762E-05
   21.8640003        -2.95620139E-05
   21.9969997        -2.87019593E-05
   22.1299992        -2.78483421E-05
   22.2630005        -2.70022229E-05
   22.3959999        -2.61642890E-05
   22.5289993        -2.53347662E-05
   22.6620007        -2.45134288E-05
   22.7950001        -2.36997494E-05
   22.9279995        -2.28931167E-05
   23.0610008        -2.20930833E-05
   23.1940002        -2.12995456E-05
   23.3269997        -2.05128672E-05
   23.4599991        -1.97338522E-05
   23.5930004        -1.89636266E-05
   23.7259998        -1.82033964E-05
   23.8589993        -1.74542311E-05
   23.9920006        -1.67168637E-05
   24.1250000        -1.59915689E-05
   24.2579994        -1.52781722E-05
   24.3910007        -1.45761933E-05
   24.5240002        -1.38850346E-05
   24.6569996        -1.32042342E-05
   24.7900009        -1.25336755E-05
   24.9230003        -1.18736871E-05
   25.0559998        -1.12250536E-05
   25.1889992        -1.05888885E-05
   25.3220005        -9.96640756E-06
   25.4549999        -9.35870867E-06
   25.5879993        -8.76654303E-06
   25.7210007        -8.19019169E-06
   25.8540001        -7.62946820E-06
   25.9869995        -7.08382140E-06
   26.1200008        -6.55255099E-06
   26.2530003        -6.03505123E-06
   26.3859997        -5.53102154E-06
   26.5189991        -5.04061200E-06
   26.6520004        -4.56443831E-06
   26.7849998        -4.10346183E-06
   26.9179993        -3.65881328E-06
   27.0510006        -3.23154109E-06
   27.1840000        -2.82238852E-06
   27.3169994        -2.43166323E-06
   27.4500008        -2.05921174E-06
   27.5830002        -1.70452188E-06
   27.7159996        -1.36691961E-06
   27.8490009        -1.04581181E-06
   27.9820004        -7.40894393E-07
   28.1149998        -4.52295012E-07
   28.2479992        -1.80615515E-07
   28.3810005         7.31863707E-08
   28.5139999         3.07986852E-07
   28.6469994         5.22741459E-07
   28.7800007         7.16698253E-07
   28.9130001         8.89574267E-07
   29.0459995         1.04156811E-06
   29.1790009         1.17329830E-06
   29.3120003         1.28559566E-06
   29.4449997         1.37926793E-06
   29.5779991         1.45486831E-06
   29.7110004         1.51254665E-06
   29.8439999         1.55199893E-06
   29.9769993         1.57254317E-06
   30.1100006         1.57330794E-06
   30.2430000         1.55345458E-06
   30.3759995         1.51241272E-06
   30.5090008         1.45003366E-06
   30.6420002         1.36665346E-06
   30.7749996         1.26301495E-06
   30.9080009         1.14008094E-06
   31.0410004         9.98809469E-07
   31.1739998         8.39911024E-07
   31.3069992         6.63702053E-07
   31.4400005         4.70028255E-07
   31.5730000         2.58337565E-07
   31.7059994         2.78568830E-08
   31.8390007        -2.22173597E-07
   31.9720001        -4.92271738E-07
   32.1049995        -7.82528673E-07
   32.2379990        -1.09254768E-06
   32.3709984        -1.42150338E-06
   32.5040016        -1.76829656E-06
   32.6370010        -2.13179737E-06
   32.7700005        -2.51108213E-06
   32.9029999        -2.90560843E-06
   33.0359993        -3.31528463E-06
   33.1689987        -3.74043134E-06
   33.3019981        -4.18161426E-06
   33.4350014        -4.63941888E-06
   33.5680008        -5.11420285E-06
   33.7010002        -5.60592161E-06
   33.8339996        -6.11403448E-06
   33.9669991        -6.63756282E-06
   34.0999985        -7.17523108E-06
   34.2330017        -7.72570638E-06
   34.3660011        -8.28783323E-06
   34.4990005        -8.86082216E-06
   34.6320000        -9.44434032E-06
   34.7649994        -1.00384750E-05
   34.8979988        -1.06435955E-05
   35.0309982        -1.12601201E-05
   35.1640015        -1.18882808E-05
   35.2970009        -1.25279303E-05
   35.4300003        -1.31784536E-05
   35.5629997        -1.38387850E-05
   35.6959991        -1.45075546E-05
   35.8289986        -1.51833219E-05
   35.9620018        -1.58648036E-05
   36.0950012        -1.65510792E-05
   36.2280006        -1.72416931E-05
   36.3610001        -1.79366234E-05
   36.4939995        -1.86361667E-05
   36.6269989        -1.93406977E-05
   36.7599983        -2.00504255E-05
   36.8930016        -2.07652065E-05
   37.0260010        -2.14844131E-05
   37.1590004        -2.22069539E-05
   37.2919998        -2.29314137E-05
   37.4249992        -2.36562410E-05
   37.5579987        -2.43800223E-05
   37.6910019        -2.51016681E-05
   37.8240013        -2.58205455E-05
   37.9570007        -2.65364743E-05
   38.0900002        -2.72495963E-05
   38.2229996        -2.79601809E-05
   38.3559990        -2.86683608E-05
   38.4889984        -2.93739449E-05
   38.6220016        -3.00762804E-05
   38.7550011        -3.07742484E-05
   38.8880005        -3.14663921E-05
   39.0209999        -3.21511179E-05
   39.1539993        -3.28269307E-05
   39.2869987        -3.34926735E-05
   39.4199982        -3.41476298E-05
   39.5530014        -3.47915557E-05
   39.6860008        -3.54245676E-05
   39.8190002        -3.60469276E-05
   39.9519997        -3.66588138E-05
   40.0849991        -3.72601025E-05
   40.2179985        -3.78502191E-05
   40.3510017        -3.84281484E-05
   40.4840012        -3.89925081E-05
   40.6170006        -3.95417810E-05
   40.7500000        -4.00745266E-05
   40.8829994        -4.05896390E-05
   41.0159988        -4.10864559E-05
   41.1489983        -4.15648174E-05
   41.2820015        -4.20249489E-05
   41.4150009        -4.24672617E-05
   41.5480003        -4.28921376E-05
   41.6809998        -4.32996676E-05
   41.8139992        -4.36895316E-05
   41.9469986        -4.40609474E-05
   42.0800018        -4.44127618E-05
   42.2130013        -4.47436323E-05
   42.3460007        -4.50522857E-05
   42.4790001        -4.53377288E-05
   42.6119995        -4.55994050E-05
   42.7449989        -4.58372488E-05
   42.8779984        -4.60515985E-05
   43.0110016        -4.62430144E-05
   43.1440010        -4.64120385E-05
   43.2770004        -4.65589619E-05
   43.4099998        -4.66836791E-05
   43.5429993        -4.67856298E-05
   43.6759987        -4.68638646E-05
   43.8089981        -4.69172519E-05
   43.9420013        -4.69446895E-05
   44.0750008        -4.69453698E-05
   44.2080002        -4.69189181E-05
   44.3409996        -4.68654689E-05
   44.4739990        -4.67855862E-05
   44.6069984        -4.66800957E-05
   44.7400017        -4.65498415E-05
   44.8730011        -4.63954566E-05
   45.0060005        -4.62171702E-05
   45.1389999        -4.60147603E-05
   45.2719994        -4.57876013E-05
   45.4049988        -4.55348381E-05
   45.5379982        -4.52556269E-05
   45.6710014        -4.49493527E-05
   45.8040009        -4.46158410E-05
   45.9370003        -4.42553974E-05
   46.0699997        -4.38687748E-05
   46.2029991        -4.34570175E-05
   46.3359985        -4.30212167E-05
   46.4690018        -4.25622784E-05
   46.6020012        -4.20807301E-05
   46.7350006        -4.15766735E-05
   46.8680000        -4.10498033E-05
   47.0009995        -4.04995590E-05
   47.1339989        -3.99253913E-05
   47.2669983        -3.93269511E-05
   47.4000015        -3.87043219E-05
   47.5330009        -3.80580786E-05
   47.6660004        -3.73892508E-05
   47.7989998        -3.66991808E-05
   47.9319992        -3.59892874E-05
   48.0649986        -3.52608185E-05
   48.1980019        -3.45146655E-05
   48.3310013        -3.37512647E-05
   48.4640007        -3.29706163E-05
   48.5970001        -3.21724292E-05
   48.7299995        -3.13563614E-05
   48.8629990        -3.05222529E-05
   48.9959984        -2.96703183E-05
   49.1290016        -2.88012652E-05
   49.2620010        -2.79162650E-05
   49.3950005        -2.70168184E-05
   49.5279999        -2.61045316E-05
   49.6609993        -2.51808724E-05
   49.7939987        -2.42469705E-05
   49.9269981        -2.33035080E-05
   50.0600014        -2.23507323E-05
   50.1930008        -2.13885814E-05
   50.3260002        -2.04169010E-05
   50.4589996        -1.94357053E-05
   50.5919991        -1.84453602E-05
   50.7249985        -1.74467095E-05
   50.8580017        -1.64410721E-05
   50.9910011        -1.54300997E-05
   51.1240005        -1.44155638E-05
   51.2570000        -1.33991180E-05
   51.3899994        -1.23820746E-05
   51.5229988        -1.13652877E-05
   51.6559982        -1.03491420E-05
   51.7890015        -9.33367573E-06
   51.9220009        -8.31879697E-06
   52.0550003        -7.30452348E-06
   52.1879997        -6.29119495E-06
   52.3209991        -5.27961083E-06
   52.4539986        -4.27103487E-06
   52.5870018        -3.26707618E-06
   52.7200012        -2.26948850E-06
   52.8530006        -1.27992178E-06
   52.9860001        -2.99705277E-07
   53.1189995         6.70293048E-07
   53.2519989         1.62968377E-06
   53.3849983         2.57845204E-06
   53.5180016         3.51675021E-06
   53.6510010         4.44466059E-06
   53.7840004         5.36197012E-06
   53.9169998         6.26802830E-06
   54.0499992         7.16172190E-06
   54.1829987         8.04157571E-06
   54.3160019         8.90594401E-06
   54.4490013         9.75326293E-06
   54.5820007         1.05822701E-05
   54.7150002         1.13921633E-05
   54.8479996         1.21826224E-05
   54.9809990         1.29537348E-05
   55.1139984         1.37057914E-05
   55.2470016         1.44390506E-05
   55.3800011         1.51535096E-05
   55.5130005         1.58487492E-05
   55.6459999         1.65238907E-05
   55.7789993         1.71776883E-05
   55.9119987         1.78087103E-05
   56.0449982         1.84155906E-05
   56.1780014         1.89972579E-05
   56.3110008         1.95530974E-05
   56.4440002         2.00829945E-05
   56.5769997         2.05872657E-05
   56.7099991         2.10664748E-05
   56.8429985         2.15211803E-05
   56.9760017         2.19517060E-05
   57.1090012         2.23579809E-05
   57.2420006         2.27394758E-05
   57.3750000         2.30952664E-05
   57.5079994         2.34242270E-05
   57.6409988         2.37252589E-05
   57.7739983         2.39975361E-05
   57.9070015         2.42406713E-05
   58.0400009         2.44547828E-05
   58.1730003         2.46404379E-05
   58.3059998         2.47984717E-05
   58.4389992         2.49297500E-05
   58.5719986         2.50349422E-05
   58.7050018         2.51143374E-05
   58.8380013         2.51677666E-05
   58.9710007         2.51946694E-05
   59.1040001         2.51942529E-05
   59.2369995         2.51657311E-05
   59.3699989         2.51085658E-05
   59.5029984         2.50226440E-05
   59.6360016         2.49083660E-05
   59.7690010         2.47665921E-05
   59.9020004         2.45984775E-05
   60.0349998         2.44052517E-05
   60.1679993         2.41879552E-05
   60.3009987         2.39472738E-05
   60.4339981         2.36834239E-05
   60.5670013         2.33962146E-05
   60.7000008         2.30851892E-05
   60.8330002         2.27498549E-05
   60.9659996         2.23899333E-05
   61.0989990         2.20055481E-05
   61.2319984         2.15973232E-05
   61.3650017         2.11663464E-05
   61.4980011         2.07140256E-05
   61.6310005         2.02418578E-05
   61.7639999         1.97511836E-05
   61.8969994         1.92429925E-05
   62.0299988         1.87178157E-05
   62.1629982         1.81757568E-05
   62.2960014         1.76166304E-05
   62.4290009         1.70401836E-05
   62.5620003         1.64463472E-05
   62.6949997         1.58354378E-05
   62.8279991         1.52082594E-05
   62.9609985         1.45660915E-05
   63.0940018         1.39105432E-05
   63.2270012         1.32433352E-05
   63.3600006         1.25660463E-05
   63.4930000         1.18799035E-05
   63.6259995         1.11856689E-05
   63.7589989         1.04836417E-05
   63.8919983         9.77378932E-06
   64.0250015         9.05596335E-06
   64.1579971         8.33014747E-06
   64.2910004         7.59666500E-06
   64.4240036         6.85631358E-06
   64.5569992         6.11034966E-06
   64.6900024         5.36037896E-06
   64.8229980         4.60814135E-06
   64.9560013         3.85526619E-06
   65.0889969         3.10305177E-06
   65.2220001         2.35234506E-06
   65.3550034         1.60353068E-06
   65.4879990         8.56646921E-07
   65.6210022         1.11594062E-07
   65.7539978        -6.31623493E-07
   65.8870010        -1.37267489E-06
   66.0199966        -2.11077258E-06
   66.1529999        -2.84466205E-06
   66.2860031        -3.57272665E-06
   66.4189987        -4.29320789E-06
   66.5520020        -5.00444685E-06
   66.6849976        -5.70511475E-06
   66.8180008        -6.39435439E-06
   66.9509964        -7.07181789E-06
   67.0839996        -7.73754527E-06
   67.2170029        -8.39178483E-06
   67.3499985        -9.03473119E-06
   67.4830017        -9.66629796E-06
   67.6159973        -1.02859713E-05
   67.7490005        -1.08927788E-05
   67.8820038        -1.14853774E-05
   68.0149994        -1.20622508E-05
   68.1480026        -1.26219620E-05
   68.2809982        -1.31633724E-05
   68.4140015        -1.36858107E-05
   68.5469971        -1.41890978E-05
   68.6800003        -1.46734692E-05
   68.8130035        -1.51393815E-05
   68.9459991        -1.55872676E-05
   69.0790024        -1.60173040E-05
   69.2119980        -1.64292505E-05
   69.3450012        -1.68224087E-05
   69.4779968        -1.71956963E-05
   69.6110001        -1.75478435E-05
   69.7440033        -1.78776318E-05
   69.8769989        -1.81841297E-05
   70.0100021        -1.84668552E-05
   70.1429977        -1.87258411E-05
   70.2760010        -1.89615530E-05
   70.4089966        -1.91747131E-05
   70.5419998        -1.93660526E-05
   70.6750031        -1.95360790E-05
   70.8079987        -1.96848978E-05
   70.9410019        -1.98121597E-05
   71.0739975        -1.99171172E-05
   71.2070007        -1.99988099E-05
   71.3399963        -2.00562936E-05
   71.4729996        -2.00888844E-05
   71.6060028        -2.00963495E-05
   71.7389984        -2.00789655E-05
   71.8720016        -2.00374598E-05
   72.0049973        -1.99728547E-05
   72.1380005        -1.98862144E-05
   72.2710037        -1.97784029E-05
   72.4039993        -1.96499077E-05
   72.5370026        -1.95007487E-05
   72.6699982        -1.93305405E-05
   72.8030014        -1.91386389E-05
   72.9359970        -1.89243965E-05
   73.0690002        -1.86873840E-05
   73.2020035        -1.84275996E-05
   73.3349991        -1.81455416E-05
   73.4680023        -1.78421669E-05
   73.6009979        -1.75187397E-05
   73.7340012        -1.71765896E-05
   73.8669968        -1.68168699E-05
   74.0000000        -1.64403627E-05
   74.1330032        -1.60473846E-05
   74.2659988        -1.56378246E-05
   74.3990021        -1.52112952E-05
   74.5319977        -1.47673636E-05
   74.6650009        -1.43057978E-05
   74.7979965        -1.38267678E-05
   74.9309998        -1.33309413E-05
   75.0640030        -1.28194561E-05
   75.1969986        -1.22937699E-05
   75.3300018        -1.17554337E-05
   75.4629974        -1.12058369E-05
   75.5960007        -1.06460029E-05
   75.7289963        -1.00764819E-05
   75.8619995        -9.49736295E-06
   75.9950027        -8.90842239E-06
   76.1279984        -8.30933459E-06
   76.2610016        -7.69993130E-06
   76.3939972        -7.08040807E-06
   76.5270004        -6.45143518E-06
   76.6600037        -5.81415088E-06
   76.7929993        -5.17002945E-06
   76.9260025        -4.52066115E-06
   77.0589981        -3.86750298E-06
   77.1920013        -3.21166499E-06
   77.3249969        -2.55379359E-06
   77.4580002        -1.89406978E-06
   77.5910034        -1.23233599E-06
   77.7239990        -5.68311918E-07
   77.8570023         9.81567538E-08
   77.9899979         7.66884625E-07
   78.1230011         1.43721741E-06
   78.2559967         2.10803182E-06
   78.3889999         2.77785807E-06
   78.5220032         3.44509249E-06
   78.6549988         4.10825305E-06
   78.7880020         4.76620153E-06
   78.9209976         5.41828376E-06
   79.0540009         6.06433696E-06
   79.1869965         6.70458257E-06
   79.3199997         7.33941533E-06
   79.4530029         7.96915356E-06
   79.5859985         8.59380725E-06
   79.7190018         9.21293940E-06
   79.8519974         9.82564052E-06
   79.9850006         1.04306364E-05
   80.1179962         1.10264864E-05
   80.2509995         1.16118363E-05
   80.3840027         1.21856492E-05
   80.5169983         1.27473513E-05
   80.6500015         1.32968562E-05
   80.7829971         1.38344740E-05
   80.9160004         1.43607122E-05
   81.0490036         1.48760219E-05
   81.1819992         1.53805759E-05
   81.3150024         1.58741132E-05
   81.4479980         1.63559016E-05
   81.5810013         1.68248371E-05
   81.7139969         1.72796299E-05
   81.8470001         1.77190668E-05
   81.9800034         1.81422347E-05
   82.1129990         1.85486861E-05
   82.2460022         1.89384828E-05
   82.3789978         1.93121159E-05
   82.5120010         1.96703058E-05
   82.6449966         2.00137601E-05
   82.7779999         2.03429336E-05
   82.9110031         2.06578661E-05
   83.0439987         2.09581176E-05
   83.1770020         2.12428604E-05