  -24.4200001         0.00000000    
  -24.2900009        -2.23498642E-09
  -24.1599998        -6.70224587E-09
  -24.0300007        -1.32619018E-08
  -23.8999996        -2.16520810E-08
  -23.7700005        -3.15143431E-08
  -23.6399994        -4.24269757E-08
  -23.5100002        -5.39431078E-08
  -23.3799992        -6.56303101E-08
  -23.2500000        -7.71082469E-08
  -23.1200008        -8.80814355E-08
  -22.9899998        -9.83645876E-08
  -22.8600006        -1.07898565E-07
  -22.7299995        -1.16756148E-07
  -22.6000004        -1.25137220E-07
  -22.4699993        -1.33353822E-07
  -22.3400002        -1.41806638E-07
  -22.2099991        -1.50954207E-07
  -22.0799999        -1.61277839E-07
  -21.9500008        -1.73244345E-07
  -21.8199997        -1.87269947E-07
  -21.6900005        -2.03688174E-07
  -21.5599995        -2.22724253E-07
  -21.4300003        -2.44478741E-07
  -21.2999992        -2.68921525E-07
  -21.1700001        -2.95897536E-07
  -21.0400009        -3.25143333E-07
  -20.9099998        -3.56313734E-07
  -20.7800007        -3.89016179E-07
  -20.6499996        -4.22849752E-07
  -20.5200005        -4.57445395E-07
  -20.3899994        -4.92503716E-07
  -20.2600002        -5.27826955E-07
  -20.1299992        -5.63342383E-07
  -20.0000000        -5.99114628E-07
  -19.8700008        -6.35347192E-07
  -19.7399998        -6.72371414E-07
  -19.6100006        -7.10626068E-07
  -19.4799995        -7.50627919E-07
  -19.3500004        -7.92936987E-07
  -19.2199993        -8.38119036E-07
  -19.0900002        -8.86708222E-07
  -18.9599991        -9.39173447E-07
  -18.8299999        -9.95889991E-07
  -18.7000008        -1.05711979E-06
  -18.5699997        -1.12300040E-06
  -18.4400005        -1.19354479E-06
  -18.3099995        -1.26865086E-06
  -18.1800003        -1.34812103E-06
  -18.0499992        -1.43169075E-06
  -17.9200001        -1.51906102E-06
  -17.7900009        -1.60993773E-06
  -17.6599998        -1.70406815E-06
  -17.5300007        -1.80127824E-06
  -17.3999996        -1.90150070E-06
  -17.2700005        -2.00479735E-06
  -17.1399994        -2.11136967E-06
  -17.0100002        -2.22155677E-06
  -16.8799992        -2.33582318E-06
  -16.7500000        -2.45473530E-06
  -16.6200008        -2.57892862E-06
  -16.4899998        -2.70907026E-06
  -16.3600006        -2.84581961E-06
  -16.2299995        -2.98978830E-06
  -16.1000004        -3.14150816E-06
  -15.9700003        -3.30140392E-06
  -15.8400002        -3.46977754E-06
  -15.7100000        -3.64680295E-06
  -15.5799999        -3.83253155E-06
  -15.4499998        -4.02690875E-06
  -15.3199997        -4.22979974E-06
  -15.1899996        -4.44101943E-06
  -15.0600004        -4.66037045E-06
  -14.9300003        -4.88767864E-06
  -14.8000002        -5.12283077E-06
  -14.6700001        -5.36580183E-06
  -14.5400000        -5.61668276E-06
  -14.4099998        -5.87569548E-06
  -14.2799997        -6.14319742E-06
  -14.1499996        -6.41967790E-06
  -14.0200005        -6.70573991E-06
  -13.8900003        -7.00207647E-06
  -13.7600002        -7.30943702E-06
  -13.6300001        -7.62859099E-06
  -13.5000000        -7.96028417E-06
  -13.3699999        -8.30520548E-06
  -13.2399998        -8.66395021E-06
  -13.1099997        -9.03699765E-06
  -12.9799995        -9.42469524E-06
  -12.8500004        -9.82725669E-06
  -12.7200003        -1.02447711E-05
  -12.5900002        -1.06772231E-05
  -12.4600000        -1.11245254E-05
  -12.3299999        -1.15865478E-05
  -12.1999998        -1.20631630E-05
  -12.0699997        -1.25542792E-05
  -11.9399996        -1.30598819E-05
  -11.8100004        -1.35800528E-05
  -11.6800003        -1.41149958E-05
  -11.5500002        -1.46650445E-05
  -11.4200001        -1.52306602E-05
  -11.2900000        -1.58124203E-05
  -11.1599998        -1.64109915E-05
  -11.0299997        -1.70271160E-05
  -10.8999996        -1.76615576E-05
  -10.7700005        -1.83150842E-05
  -10.6400003        -1.89884140E-05
  -10.5100002        -1.96821875E-05
  -10.3800001        -2.03969430E-05
  -10.2500000        -2.11330898E-05
  -10.1199999        -2.18909026E-05
  -9.98999977        -2.26705160E-05
  -9.85999966        -2.34719373E-05
  -9.72999954        -2.42950700E-05
  -9.60000038        -2.51397450E-05
  -9.47000027        -2.60057604E-05
  -9.34000015        -2.68929107E-05
  -9.21000004        -2.78010393E-05
  -9.07999992        -2.87300627E-05
  -8.94999981        -2.96799972E-05
  -8.81999969        -3.06509828E-05
  -8.68999958        -3.16432852E-05
  -8.56000042        -3.26572917E-05
  -8.43000031        -3.36934827E-05
  -8.30000019        -3.47524219E-05
  -8.17000008        -3.58347097E-05
  -8.03999996        -3.69409499E-05
  -7.90999985        -3.80717102E-05
  -7.78000021        -3.92274851E-05
  -7.65000010        -4.04086713E-05
  -7.51999998        -4.16155308E-05
  -7.38999987        -4.28481835E-05
  -7.26000023        -4.41066150E-05
  -7.13000011        -4.53906432E-05
  -7.00000000        -4.66999918E-05
  -6.86999989        -4.80342678E-05
  -6.73999977        -4.93929947E-05
  -6.61000013        -5.07756922E-05
  -6.48000002        -5.21818547E-05
  -6.34999990        -5.36110347E-05
  -6.21999979        -5.50628574E-05
  -6.09000015        -5.65370319E-05
  -5.96000004        -5.80333981E-05
  -5.82999992        -5.95519050E-05
  -5.69999981        -6.10925999E-05
  -5.57000017        -6.26556284E-05
  -5.44000006        -6.42411906E-05
  -5.30999994        -6.58495046E-05
  -5.17999983        -6.74807743E-05
  -5.05000019        -6.91351524E-05
  -4.92000008        -7.08126900E-05
  -4.78999996        -7.25133068E-05
  -4.65999985        -7.42367774E-05
  -4.53000021        -7.59827381E-05
  -4.40000010        -7.77506502E-05
  -4.26999998        -7.95398519E-05
  -4.13999987        -8.13495499E-05
  -4.01000023        -8.31788639E-05
  -3.88000011        -8.50268771E-05
  -3.75000000        -8.68926290E-05
  -3.61999989        -8.87752030E-05
  -3.49000001        -9.06737405E-05
  -3.35999990        -9.25874483E-05
  -3.23000002        -9.45156426E-05
  -3.09999990        -9.64577703E-05
  -2.97000003        -9.84133731E-05
  -2.83999991        -1.00382080E-04
  -2.71000004        -1.02363636E-04
  -2.57999992        -1.04357801E-04
  -2.45000005        -1.06364358E-04
  -2.31999993        -1.08383050E-04
  -2.19000006        -1.10413574E-04
  -2.05999994        -1.12455535E-04
  -1.92999995        -1.14508366E-04
  -1.79999995        -1.16571377E-04
  -1.66999996        -1.18643737E-04
  -1.53999996        -1.20724428E-04
  -1.40999997        -1.22812329E-04
  -1.27999997        -1.24906190E-04
  -1.14999998        -1.27004736E-04
  -1.01999998        -1.29106600E-04
 -0.889999986        -1.31210472E-04
 -0.759999990        -1.33315043E-04
 -0.629999995        -1.35419134E-04
 -0.500000000        -1.37521638E-04
 -0.370000005        -1.39621610E-04
 -0.239999995        -1.41718163E-04
 -0.109999999        -1.43810597E-04
   1.99999996E-02    -1.45898288E-04
  0.150000006        -1.47980652E-04
  0.280000001        -1.50057196E-04
  0.409999996        -1.52127410E-04
  0.540000021        -1.54190770E-04
  0.670000017        -1.56246664E-04
  0.800000012        -1.58294410E-04
  0.930000007        -1.60333191E-04
   1.05999994        -1.62362048E-04
   1.19000006        -1.64379904E-04
   1.32000005        -1.66385551E-04
   1.45000005        -1.68377679E-04
   1.58000004        -1.70354877E-04
   1.71000004        -1.72315704E-04
   1.84000003        -1.74258719E-04
   1.97000003        -1.76182482E-04
   2.09999990        -1.78085698E-04
   2.23000002        -1.79967101E-04
   2.35999990        -1.81825613E-04
   2.49000001        -1.83660304E-04
   2.61999989        -1.85470315E-04
   2.75000000        -1.87255006E-04
   2.88000011        -1.89013794E-04
   3.00999999        -1.90746185E-04
   3.14000010        -1.92451727E-04
   3.26999998        -1.94130000E-04
   3.40000010        -1.95780522E-04
   3.52999997        -1.97402755E-04
   3.66000009        -1.98996029E-04
   3.78999996        -2.00559633E-04
   3.92000008        -2.02092677E-04
   4.05000019        -2.03594202E-04
   4.17999983        -2.05063145E-04
   4.30999994        -2.06498284E-04
   4.44000006        -2.07898425E-04
   4.57000017        -2.09262362E-04
   4.69999981        -2.10588871E-04
   4.82999992        -2.11876817E-04
   4.96000004        -2.13125139E-04
   5.09000015        -2.14332933E-04
   5.21999979        -2.15499400E-04
   5.34999990        -2.16623914E-04
   5.48000002        -2.17706052E-04
   5.61000013        -2.18745467E-04
   5.73999977        -2.19741967E-04
   5.86999989        -2.20695409E-04
   6.00000000        -2.21605704E-04
   6.13000011        -2.22472794E-04
   6.26000023        -2.23296563E-04
   6.38999987        -2.24076837E-04
   6.51999998        -2.24813310E-04
   6.65000010        -2.25505646E-04
   6.78000021        -2.26153323E-04
   6.90999985        -2.26755757E-04
   7.03999996        -2.27312252E-04
   7.17000008        -2.27822093E-04
   7.30000019        -2.28284480E-04
   7.42999983        -2.28698700E-04
   7.55999994        -2.29064026E-04
   7.69000006        -2.29379846E-04
   7.82000017        -2.29645651E-04
   7.94999981        -2.29861063E-04
   8.07999992        -2.30025864E-04
   8.21000004        -2.30140009E-04
   8.34000015        -2.30203543E-04
   8.47000027        -2.30216669E-04
   8.60000038        -2.30179736E-04
   8.72999954        -2.30093108E-04
   8.85999966        -2.29957164E-04
   8.98999977        -2.29772355E-04
   9.11999989        -2.29538986E-04
   9.25000000        -2.29257348E-04
   9.38000011        -2.28927602E-04
   9.51000023        -2.28549805E-04
   9.64000034        -2.28123885E-04
   9.77000046        -2.27649667E-04
   9.89999962        -2.27126919E-04
   10.0299997        -2.26555319E-04
   10.1599998        -2.25934549E-04
   10.2900000        -2.25264317E-04
   10.4200001        -2.24544405E-04
   10.5500002        -2.23774667E-04
   10.6800003        -2.22955074E-04
   10.8100004        -2.22085800E-04
   10.9399996        -2.21167138E-04
   11.0699997        -2.20199552E-04
   11.1999998        -2.19183596E-04
   11.3299999        -2.18119967E-04
   11.4600000        -2.17009467E-04
   11.5900002        -2.15852924E-04
   11.7200003        -2.14651183E-04
   11.8500004        -2.13405059E-04
   11.9799995        -2.12115337E-04
   12.1099997        -2.10782673E-04
   12.2399998        -2.09407663E-04
   12.3699999        -2.07990772E-04
   12.5000000        -2.06532350E-04
   12.6300001        -2.05032644E-04
   12.7600002        -2.03491873E-04
   12.8900003        -2.01910196E-04
   13.0200005        -2.00287745E-04
   13.1499996        -1.98624693E-04
   13.2799997        -1.96921348E-04
   13.4099998        -1.95178058E-04
   13.5400000        -1.93395332E-04
   13.6700001        -1.91573839E-04
   13.8000002        -1.89714396E-04
   13.9300003        -1.87817990E-04
   14.0600004        -1.85885729E-04
   14.1899996        -1.83918790E-04
   14.3199997        -1.81918469E-04
   14.4499998        -1.79886047E-04
   14.5799999        -1.77822789E-04
   14.7100000        -1.75729947E-04
   14.8400002        -1.73608671E-04
   14.9700003        -1.71459978E-04
   15.1000004        -1.69284831E-04
   15.2299995        -1.67083999E-04
   15.3599997        -1.64858182E-04
   15.4899998        -1.62607976E-04
   15.6199999        -1.60333933E-04
   15.7500000        -1.58036506E-04
   15.8800001        -1.55716203E-04
   16.0100002        -1.53373534E-04
   16.1399994        -1.51009110E-04
   16.2700005        -1.48623672E-04
   16.3999996        -1.46218008E-04
   16.5300007        -1.43793121E-04
   16.6599998        -1.41350145E-04
   16.7900009        -1.38890318E-04
   16.9200001        -1.36415038E-04
   17.0499992        -1.33925729E-04
   17.1800003        -1.31423905E-04
   17.3099995        -1.28911095E-04
   17.4400005        -1.26388739E-04
   17.5699997        -1.23858248E-04
   17.7000008        -1.21320911E-04
   17.8299999        -1.18777898E-04
   17.9599991        -1.16230243E-04
   18.0900002        -1.13678856E-04
   18.2199993        -1.11124529E-04
   18.3500004        -1.08567954E-04
   18.4799995        -1.06009757E-04
   18.6100006        -1.03450555E-04
   18.7399998        -1.00890975E-04
   18.8700008        -9.83316859E-05
   19.0000000        -9.57734592E-05
   19.1299992        -9.32171606E-05
   19.2600002        -9.06637797E-05
   19.3899994        -8.81144515E-05
   19.5200005        -8.55704493E-05
   19.6499996        -8.30331192E-05
   19.7800007        -8.05039454E-05
   19.9099998        -7.79844413E-05
   20.0400009        -7.54761568E-05
   20.1700001        -7.29806197E-05
   20.2999992        -7.04993072E-05
   20.4300003        -6.80335797E-05
   20.5599995        -6.55846889E-05
   20.6900005        -6.31537332E-05
   20.8199997        -6.07416914E-05
   20.9500008        -5.83493602E-05
   21.0799999        -5.59774380E-05
   21.2099991        -5.36264961E-05
   21.3400002        -5.12970510E-05
   21.4699993        -4.89895974E-05
   21.6000004        -4.67046266E-05
   21.7299995        -4.44426914E-05
   21.8600006        -4.22044104E-05
   21.9899998        -3.99905111E-05
   22.1200008        -3.78018449E-05
   22.2500000        -3.56393648E-05
   22.3799992        -3.35041295E-05
   22.5100002        -3.13972814E-05
   22.6399994        -2.93200246E-05
   22.7700005        -2.72735761E-05
   22.8999996        -2.52591290E-05
   23.0300007        -2.32778366E-05
   23.1599998        -2.13307449E-05
   23.2900009        -1.94187869E-05
   23.4200001        -1.75427504E-05
   23.5499992        -1.57032682E-05
   23.6800003        -1.39007943E-05
   23.8099995        -1.21356534E-05
   23.9400005        -1.04080300E-05
   24.0699997        -8.71799966E-06
   24.2000008        -7.06558785E-06
   24.3299999        -5.45077637E-06
   24.4599991        -3.87356522E-06
   24.5900002        -2.33400647E-06
   24.7199993        -8.32222781E-07
   24.8500004         6.31545333E-07
   24.9799995         2.05696097E-06
   25.1100006         3.44357454E-06
   25.2399998         4.79084383E-06
   25.3700008         6.09815243E-06
   25.5000000         7.36485663E-06
   25.6299992         8.59031661E-06
   25.7600002         9.77393393E-06
   25.8899994         1.09151906E-05
   26.0200005         1.20136874E-05
   26.1499996         1.30691706E-05
   26.2800007         1.40815464E-05
   26.4099998         1.50508795E-05
   26.5400009         1.59773972E-05
   26.6700001         1.68614770E-05
   26.7999992         1.77036090E-05
   26.9300003         1.85043718E-05
   27.0599995         1.92643893E-05
   27.1900005         1.99842943E-05
   27.3199997         2.06647055E-05
   27.4500008         2.13061685E-05
   27.5799999         2.19091326E-05
   27.7099991         2.24739470E-05
   27.8400002         2.30008518E-05
   27.9699993         2.34899690E-05
   28.1000004         2.39413293E-05
   28.2299995         2.43548984E-05
   28.3600006         2.47306034E-05
   28.4899998         2.50683861E-05
   28.6200008         2.53682356E-05
   28.7500000         2.56302283E-05
   28.8799992         2.58545679E-05
   29.0100002         2.60415945E-05
   29.1399994         2.61918012E-05
   29.2700005         2.63058573E-05
   29.3999996         2.63845577E-05
   29.5300007         2.64288483E-05
   29.6599998         2.64397368E-05
   29.7900009         2.64183091E-05
   29.9200001         2.63656657E-05
   30.0499992         2.62828707E-05
   30.1800003         2.61709429E-05
   30.3099995         2.60308043E-05
   30.4400005         2.58632663E-05
   30.5699997         2.56690200E-05
   30.7000008         2.54486331E-05
   30.8299999         2.52025584E-05
   30.9599991         2.49311597E-05
   31.0900002         2.46347299E-05
   31.2199993         2.43135382E-05
   31.3500004         2.39678593E-05
   31.4799995         2.35980206E-05
   31.6100006         2.32044240E-05
   31.7399998         2.27875935E-05
   31.8700008         2.23481802E-05
   32.0000000         2.18869864E-05
   32.1300011         2.14049578E-05
   32.2599983         2.09031678E-05
   32.3899994         2.03827876E-05
   32.5200005         1.98450598E-05
   32.6500015         1.92912576E-05
   32.7799988         1.87226360E-05
   32.9099998         1.81403957E-05
   33.0400009         1.75456444E-05
   33.1699982         1.69393679E-05
   33.2999992         1.63224213E-05
   33.4300003         1.56955084E-05
   33.5600014         1.50591995E-05
   33.6899986         1.44139403E-05
   33.8199997         1.37600773E-05
   33.9500008         1.30979024E-05
   34.0800018         1.24276667E-05
   34.2099991         1.17496384E-05
   34.3400002         1.10641349E-05
   34.4700012         1.03715483E-05
   34.5999985         9.67237702E-06
   34.7299995         8.96723304E-06
   34.8600006         8.25685765E-06
   34.9900017         7.54210441E-06
   35.1199989         6.82393238E-06
   35.2500000         6.10337474E-06
   35.3800011         5.38149925E-06
   35.5099983         4.65937865E-06
   35.6399994         3.93804294E-06
   35.7700005         3.21844186E-06
   35.9000015         2.50141011E-06
   36.0299988         1.78764367E-06
   36.1599998         1.07768119E-06
   36.2900009         3.71906481E-07
   36.4199982        -3.29446749E-07
   36.5499992        -1.02626927E-06
   36.6800003        -1.71854799E-06
   36.8100014        -2.40632698E-06
   36.9399986        -3.08966719E-06
   37.0699997        -3.76860294E-06
   37.2000008        -4.44311081E-06
   37.3300018        -5.11307098E-06
   37.4599991        -5.77825176E-06
   37.5900002        -6.43829981E-06
   37.7200012        -7.09274173E-06
   37.8499985        -7.74099135E-06
   37.9799995        -8.38237065E-06
   38.1100006        -9.01614567E-06
   38.2400017        -9.64155970E-06
   38.3699989        -1.02578697E-05
   38.5000000        -1.08643881E-05
   38.6300011        -1.14605100E-05
   38.7599983        -1.20457535E-05
   38.8899994        -1.26197801E-05
   39.0200005        -1.31823890E-05
   39.1500015        -1.37335383E-05
   39.2799988        -1.42733152E-05
   39.4099998        -1.48019271E-05
   39.5400009        -1.53196524E-05
   39.6699982        -1.58268213E-05
   39.7999992        -1.63237564E-05
   39.9300003        -1.68107363E-05
   40.0600014        -1.72879663E-05
   40.1899986        -1.77555467E-05
   40.3199997        -1.82134445E-05
   40.4500008        -1.86615071E-05
   40.5800018        -1.90994451E-05
   40.7099991        -1.95268713E-05
   40.8400002        -1.99433161E-05
   40.9700012        -2.03482614E-05
   41.0999985        -2.07411958E-05
   41.2299995        -2.11216302E-05
   41.3600006        -2.14891588E-05
   41.4900017        -2.18434743E-05
   41.6199989        -2.21844002E-05
   41.7500000        -2.25119056E-05
   41.8800011        -2.28260997E-05
   42.0099983        -2.31272315E-05
   42.1399994        -2.34156723E-05
   42.2700005        -2.36918841E-05
   42.4000015        -2.39563833E-05
   42.5299988        -2.42097121E-05
   42.6599998        -2.44523872E-05
   42.7900009        -2.46848649E-05
   42.9199982        -2.49075092E-05
   43.0499992        -2.51205620E-05
   43.1800003        -2.53241342E-05
   43.3100014        -2.55181967E-05
   43.4399986        -2.57025877E-05
   43.5699997        -2.58770378E-05
   43.7000008        -2.60412035E-05
   43.8300018        -2.61946861E-05
   43.9599991        -2.63371057E-05
   44.0900002        -2.64681148E-05
   44.2200012        -2.65874423E-05
   44.3499985        -2.66949428E-05
   44.4799995        -2.67905907E-05
   44.6100006        -2.68745080E-05
   44.7400017        -2.69469510E-05
   44.8699989        -2.70083074E-05
   45.0000000        -2.70590590E-05
   45.1300011        -2.70997680E-05
   45.2599983        -2.71310109E-05
   45.3899994        -2.71533627E-05
   45.5200005        -2.71673525E-05
   45.6500015        -2.71734170E-05
   45.7799988        -2.71718891E-05
   45.9099998        -2.71629688E-05
   46.0400009        -2.71467052E-05
   46.1699982        -2.71230201E-05
   46.2999992        -2.70916989E-05
   46.4300003        -2.70524379E-05
   46.5600014        -2.70048549E-05
   46.6899986        -2.69485372E-05
   46.8199997        -2.68830845E-05
   46.9500008        -2.68081476E-05
   47.0800018        -2.67234718E-05
   47.2099991        -2.66289153E-05
   47.3400002        -2.65244780E-05
   47.4700012        -2.64103001E-05
   47.5999985        -2.62866743E-05
   47.7299995        -2.61540117E-05
   47.8600006        -2.60128127E-05
   47.9900017        -2.58636373E-05
   48.1199989        -2.57070751E-05
   48.2500000        -2.55436717E-05
   48.3800011        -2.53739236E-05
   48.5099983        -2.51982219E-05
   48.6399994        -2.50168250E-05
   48.7700005        -2.48298693E-05
   48.9000015        -2.46373402E-05
   49.0299988        -2.44390958E-05
   49.1599998        -2.42348797E-05
   49.2900009        -2.40243571E-05
   49.4199982        -2.38071370E-05
   49.5499992        -2.35828302E-05
   49.6800003        -2.33510709E-05
   49.8100014        -2.31115700E-05
   49.9399986        -2.28641347E-05
   50.0699997        -2.26086995E-05
   50.2000008        -2.23453335E-05
   50.3300018        -2.20742568E-05
   50.4599991        -2.17958241E-05
   50.5900002        -2.15104974E-05
   50.7200012        -2.12188224E-05
   50.8499985        -2.09213886E-05
   50.9799995        -2.06187906E-05
   51.1100006        -2.03115796E-05
   51.2400017        -2.00002250E-05
   51.3699989        -1.96850851E-05
   51.5000000        -1.93663764E-05
   51.6300011        -1.90441697E-05
   51.7599983        -1.87183869E-05
   51.8899994        -1.83888169E-05
   52.0200005        -1.80551451E-05
   52.1500015        -1.77169786E-05
   52.2799988        -1.73738936E-05
   52.4099998        -1.70254734E-05
   52.5400009        -1.66713526E-05
   52.6699982        -1.63112527E-05
   52.7999992        -1.59450046E-05
   52.9300003        -1.55725738E-05
   53.0600014        -1.51940667E-05
   53.1899986        -1.48097270E-05
   53.3199997        -1.44199157E-05
   53.4500008        -1.40250977E-05
   53.5800018        -1.36258031E-05
   53.7099991        -1.32225859E-05
   53.8400002        -1.28159936E-05
   53.9700012        -1.24065191E-05
   54.0999985        -1.19945735E-05
   54.2299995        -1.15804469E-05
   54.3600006        -1.11643012E-05
   54.4900017        -1.07461556E-05
   54.6199989        -1.03258935E-05
   54.7500000        -9.90327862E-06
   54.8800011        -9.47798344E-06
   55.0099983        -9.04963053E-06
   55.1399994        -8.61782428E-06
   55.2700005        -8.18220087E-06
   55.4000015        -7.74247110E-06
   55.5299988        -7.29844942E-06
   55.6599998        -6.85008308E-06
   55.7900009        -6.39746622E-06
   55.9199982        -5.94083895E-06
   56.0499992        -5.48058142E-06
   56.1800003        -5.01719023E-06
   56.3100014        -4.55124746E-06
   56.4399986        -4.08338110E-06
   56.5699997        -3.61423031E-06
   56.7000008        -3.14439899E-06
   56.8300018        -2.67442692E-06
   56.9599991        -2.20474772E-06
   57.0900002        -1.73567207E-06
   57.2200012        -1.26738075E-06
   57.3499985        -7.99913380E-07
   57.4799995        -3.33184232E-07
   57.6100006         1.32998309E-07
   57.7400017         5.98901011E-07
   57.8699989         1.06482787E-06
   58.0000000         1.53108363E-06
   58.1300011         1.99792794E-06
   58.2599983         2.46553964E-06
   58.3899994         2.93397898E-06
   58.5200005         3.40317047E-06
   58.6500015         3.87289037E-06
   58.7799988         4.34276444E-06
   58.9099998         4.81228471E-06
   59.0400009         5.28083228E-06
   59.1699982         5.74771684E-06
   59.2999992         6.21221216E-06
   59.4300003         6.67360109E-06
   59.5600014         7.13121835E-06
   59.6899986         7.58448596E-06
   59.8199997         8.03294097E-06
   59.9500008         8.47625415E-06
   60.0800018         8.91423679E-06
   60.2099991         9.34683158E-06
   60.3400002         9.77409945E-06
   60.4700012         1.01961878E-05
   60.5999985         1.06132993E-05
   60.7299995         1.10256560E-05
   60.8600006         1.14334534E-05
   60.9900017         1.18368234E-05
   61.1199989         1.22358042E-05
   61.2500000         1.26303084E-05
   61.3800011         1.30201133E-05
   61.5099983         1.34048496E-05
   61.6399994         1.37840107E-05
   61.7700005         1.41569672E-05
   61.9000015         1.45229978E-05
   62.0299988         1.48813260E-05
   62.1599998         1.52311613E-05
   62.2900009         1.55717389E-05
   62.4199982         1.59023693E-05
   62.5499992         1.62224678E-05
   62.6800003         1.65315796E-05
   62.8100014         1.68294064E-05
   62.9399986         1.71157972E-05
   63.0699997         1.73907465E-05
   63.2000008         1.76543617E-05
   63.3300018         1.79068429E-05
   63.4599991         1.81484393E-05
   63.5900002         1.83794091E-05
   63.7200012         1.85999725E-05
   63.8499985         1.88102822E-05
   63.9799995         1.90103856E-05
   64.1100006         1.92002080E-05
   64.2399979         1.93795440E-05
   64.3700027         1.95480497E-05
   64.5000000         1.97052686E-05
   64.6299973         1.98506405E-05
   64.7600021         1.99835395E-05
   64.8899994         2.01033145E-05
   65.0199966         2.02093233E-05
   65.1500015         2.03009731E-05
   65.2799988         2.03777599E-05
   65.4100037         2.04393000E-05
   65.5400009         2.04853532E-05
   65.6699982         2.05158303E-05
   65.8000031         2.05307988E-05
   65.9300003         2.05304605E-05
   66.0599976         2.05151337E-05
   66.1900024         2.04852167E-05
   66.3199997         2.04411572E-05
   66.4499969         2.03833915E-05
   66.5800018         2.03123182E-05
   66.7099991         2.02282481E-05
   66.8399963         2.01313869E-05
   66.9700012         2.00218055E-05
   67.0999985         1.98994421E-05
   67.2300034         1.97641057E-05
   67.3600006         1.96154961E-05
   67.4899979         1.94532240E-05
   67.6200027         1.92768621E-05
   67.7500000         1.90859755E-05
   67.8799973         1.88801641E-05
   68.0100021         1.86591078E-05
   68.1399994         1.84225955E-05
   68.2699966         1.81705491E-05
   68.4000015         1.79030430E-05
   68.5299988         1.76203102E-05
   68.6600037         1.73227363E-05
   68.7900009         1.70108360E-05
   68.9199982         1.66852296E-05
   69.0500031         1.63466138E-05
   69.1800003         1.59957090E-05
   69.3099976         1.56332335E-05
   69.4400024         1.52598459E-05
   69.5699997         1.48761237E-05
   69.6999969         1.44825308E-05
   69.8300018         1.40794064E-05
   69.9599991         1.36669496E-05
   70.0899963         1.32452406E-05
   70.2200012         1.28142538E-05
   70.3499985         1.23738955E-05
   70.4800034         1.19240349E-05
   70.6100006         1.14645527E-05
   70.7399979         1.09953826E-05
   70.8700027         1.05165500E-05
   71.0000000         1.00282004E-05
   71.1299973         9.53062499E-06
   71.2600021         9.02426746E-06
   71.3899994         8.50972083E-06
   71.5199966         7.98771725E-06
   71.6500015         7.45909711E-06
   71.7799988         6.92478125E-06
   71.9100037         6.38572646E-06
   72.0400009         5.84288819E-06
   72.1699982         5.29717954E-06
   72.3000031         4.74943181E-06
   72.4300003         4.20036804E-06
   72.5599976         3.65057849E-06
   72.6900024         3.10051337E-06
   72.8199997         2.55048440E-06
   72.9499969         2.00067370E-06
   73.0800018         1.45116167E-06
   73.2099991         9.01958401E-07
   73.3399963         3.53043049E-07
   73.4700012        -1.95593501E-07
   73.5999985        -7.43907322E-07
   73.7300034        -1.29176601E-06
   73.8600006        -1.83891211E-06
   73.9899979        -2.38495090E-06
   74.1200027        -2.92933805E-06
   74.2500000        -3.47139166E-06
   74.3799973        -4.01030547E-06
   74.5100021        -4.54518022E-06
   74.6399994        -5.07506184E-06
   74.7699966        -5.59898490E-06
   74.9000015        -6.11601399E-06
   75.0299988        -6.62528646E-06
   75.1600037        -7.12604424E-06
   75.2900009        -7.61766205E-06
   75.4199982        -8.09966332E-06
   75.5500031        -8.57171835E-06
   75.6800003        -9.03363889E-06
   75.8099976        -9.48536217E-06
   75.9400024        -9.92691548E-06
   76.0699997        -1.03583861E-05
   76.1999969        -1.07798796E-05
   76.3300018        -1.11914787E-05
   76.4599991        -1.15932098E-05
   76.5899963        -1.19850010E-05
   76.7200012        -1.23666678E-05
   76.8499985        -1.27378917E-05
   76.9800034        -1.30982207E-05
   77.1100006        -1.34470756E-05
   77.2399979        -1.37837760E-05
   77.3700027        -1.41075689E-05
   77.5000000        -1.44176684E-05
   77.6299973        -1.47132996E-05
   77.7600021        -1.49937414E-05
   77.8899994        -1.52583707E-05
   78.0199966        -1.55066919E-05
   78.1500015        -1.57383602E-05
   78.2799988        -1.59531955E-05
   78.4100037        -1.61511798E-05
   78.5400009        -1.63324403E-05
   78.6699982        -1.64972225E-05
   78.8000031        -1.66458576E-05
   78.9300003        -1.67787221E-05
   79.0599976        -1.68961942E-05
   79.1900024        -1.69986106E-05
   79.3199997        -1.70862368E-05
   79.4499969        -1.71592255E-05
   79.5800018        -1.72176133E-05
   79.7099991        -1.72612999E-05
   79.8399963        -1.72900618E-05
   79.9700012        -1.73035587E-05
   80.0999985        -1.73013686E-05
   80.2300034        -1.72830096E-05
   80.3600006        -1.72479886E-05
   80.4899979        -1.71958400E-05
   80.6200027        -1.71261709E-05
   80.7500000        -1.70386866E-05