  -24.4200001       0.00000000    
  -24.2900009      -2.82625723E-09
  -24.1599998      -8.10268919E-09
  -24.0300007      -1.50038382E-08
  -23.8999996      -2.24655690E-08
  -23.7700005      -2.94526572E-08
  -23.6399994      -3.52163916E-08
  -23.5100002      -3.94779391E-08
  -23.3799992      -4.24920685E-08
  -23.2500000      -4.49758701E-08
  -23.1200008      -4.79211835E-08
  -22.9899998      -5.23383896E-08
  -22.8600006      -5.89966191E-08
  -22.7299995      -6.82260080E-08
  -22.6000004      -7.98318993E-08
  -22.4699993      -9.31428232E-08
  -22.3400002      -1.07180171E-07
  -22.2099991      -1.20906947E-07
  -22.0799999      -1.33493032E-07
  -21.9500008      -1.44530318E-07
  -21.8199997      -1.54143251E-07
  -21.6900005      -1.62967183E-07
  -21.5599995      -1.71999446E-07
  -21.4300003      -1.82360338E-07
  -21.2999992      -1.95023787E-07
  -21.1700001      -2.10585100E-07
  -21.0400009      -2.29123913E-07
  -20.9099998      -2.50196706E-07
  -20.7800007      -2.72960648E-07
  -20.6499996      -2.96397928E-07
  -20.5200005      -3.19584274E-07
  -20.3899994      -3.41934225E-07
  -20.2600002      -3.63362034E-07
  -20.1299992      -3.84317275E-07
  -20.0000000      -4.05686677E-07
  -19.8700008      -4.28586617E-07
  -19.7399998      -4.54098426E-07
  -19.6100006      -4.83012684E-07
  -19.4799995      -5.15647400E-07
  -19.3500004      -5.51784524E-07
  -19.2199993      -5.90742218E-07
  -19.0900002      -6.31563410E-07
  -18.9599991      -6.73274201E-07
  -18.8299999      -7.15146712E-07
  -18.7000008      -7.56900363E-07
  -18.5699997      -7.98791291E-07
  -18.4400005      -8.41567271E-07
  -18.3099995      -8.86299688E-07
  -18.1800003      -9.34134732E-07
  -18.0499992      -9.86026748E-07
  -17.9200001      -1.04252081E-06
  -17.7900009      -1.10363897E-06
  -17.6599998      -1.16889885E-06
  -17.5300007      -1.23746054E-06
  -17.3999996      -1.30836452E-06
  -17.2700005      -1.38080054E-06
  -17.1399994      -1.45433978E-06
  -17.0100002      -1.52907353E-06
  -16.8799992      -1.60562126E-06
  -16.7500000      -1.68500787E-06
  -16.6200008      -1.76843889E-06
  -16.4899998      -1.85703288E-06
  -16.3600006      -1.95157531E-06
  -16.2299995      -2.05235597E-06
  -16.1000004      -2.15913315E-06
  -15.9700003      -2.27122973E-06
  -15.8400002      -2.38773987E-06
  -15.7100000      -2.50779453E-06
  -15.5799999      -2.63081597E-06
  -15.4499998      -2.75670095E-06
  -15.3199997      -2.88588762E-06
  -15.1899996      -3.01928230E-06
  -15.0600004      -3.15807347E-06
  -14.9300003      -3.30347484E-06
  -14.8000002      -3.45646117E-06
  -14.6700001      -3.61756656E-06
  -14.5400000      -3.78679147E-06
  -14.4099998      -3.96364521E-06
  -14.2799997      -4.14731539E-06
  -14.1499996      -4.33691002E-06
  -14.0200005      -4.53172925E-06
  -13.8900003      -4.73148566E-06
  -13.7600002      -4.93641937E-06
  -13.6300001      -5.14728254E-06
  -13.5000000      -5.36519656E-06
  -13.3699999      -5.59141608E-06
  -13.2399998      -5.82705889E-06
  -13.1099997      -6.07287166E-06
  -12.9799995      -6.32908814E-06
  -12.8500004      -6.59541593E-06
  -12.7200003      -6.87115789E-06
  -12.5900002      -7.15543274E-06
  -12.4600000      -7.44744739E-06
  -12.3299999      -7.74673572E-06
  -12.1999998      -8.05333275E-06
  -12.0699997      -8.36780418E-06
  -11.9399996      -8.69116047E-06
  -11.8100004      -9.02464581E-06
  -11.6800003      -9.36947617E-06
  -11.5500002      -9.72658017E-06
  -11.4200001      -1.00964180E-05
  -11.2900000      -1.04789115E-05
  -11.1599998      -1.08735130E-05
  -11.0299997      -1.12793905E-05
  -10.8999996      -1.16956835E-05
  -10.7700005      -1.21217636E-05
  -10.6400003      -1.25574406E-05
  -10.5100002      -1.30030494E-05
  -10.3800001      -1.34594102E-05
  -10.2500000      -1.39276617E-05
  -10.1199999      -1.44090181E-05
  -9.98999977      -1.49044927E-05
  -9.85999966      -1.54146855E-05
  -9.72999954      -1.59396659E-05
  -9.60000038      -1.64789781E-05
  -9.47000027      -1.70317944E-05
  -9.34000015      -1.75971436E-05
  -9.21000004      -1.81741852E-05
  -9.07999992      -1.87624373E-05
  -8.94999981      -1.93619271E-05
  -8.81999969      -1.99731985E-05
  -8.68999958      -2.05971937E-05
  -8.56000042      -2.12350387E-05
  -8.43000031      -2.18877703E-05
  -8.30000019      -2.25560834E-05
  -8.17000008      -2.32401690E-05
  -8.03999996      -2.39396832E-05
  -7.90999985      -2.46538093E-05
  -7.78000021      -2.53815033E-05
  -7.65000010      -2.61217156E-05
  -7.51999998      -2.68736785E-05
  -7.38999987      -2.76370793E-05
  -7.26000023      -2.84121325E-05
  -7.13000011      -2.91995166E-05
  -7.00000000      -3.00001811E-05
  -6.86999989      -3.08150993E-05
  -6.73999977      -3.16450023E-05
  -6.61000013      -3.24901630E-05
  -6.48000002      -3.33503158E-05
  -6.34999990      -3.42246858E-05
  -6.21999979      -3.51121671E-05
  -6.09000015      -3.60115446E-05
  -5.96000004      -3.69217742E-05
  -5.82999992      -3.78422155E-05
  -5.69999981      -3.87727378E-05
  -5.57000017      -3.97137046E-05
  -5.44000006      -4.06658255E-05
  -5.30999994      -4.16299590E-05
  -5.17999983      -4.26067818E-05
  -5.05000019      -4.35966067E-05
  -4.92000008      -4.45992082E-05
  -4.78999996      -4.56138077E-05
  -4.65999985      -4.66392012E-05
  -4.53000021      -4.76739770E-05
  -4.40000010      -4.87167817E-05
  -4.26999998      -4.97665715E-05
  -4.13999987      -5.08227677E-05
  -4.01000023      -5.18853230E-05
  -3.88000011      -5.29546123E-05
  -3.75000000      -5.40312503E-05
  -3.61999989      -5.51158300E-05
  -3.49000001      -5.62086680E-05
  -3.35999990      -5.73095931E-05
  -3.23000002      -5.84179070E-05
  -3.09999990      -5.95324454E-05
  -2.97000003      -6.06517387E-05
  -2.83999991      -6.17742844E-05
  -2.71000004      -6.28987982E-05
  -2.57999992      -6.40244471E-05
  -2.45000005      -6.51508963E-05
  -2.31999993      -6.62783277E-05
  -2.19000006      -6.74072144E-05
  -2.05999994      -6.85381456E-05
  -1.92999995      -6.96714851E-05
  -1.79999995      -7.08071893E-05
  -1.66999996      -7.19446834E-05
  -1.53999996      -7.30828615E-05
  -1.40999997      -7.42202246E-05
  -1.27999997      -7.53550994E-05
  -1.14999998      -7.64859433E-05
  -1.01999998      -7.76115994E-05
 -0.889999986      -7.87313693E-05
 -0.759999990      -7.98450637E-05
 -0.629999995      -8.09529520E-05
 -0.500000000      -8.20554778E-05
 -0.370000005      -8.31529833E-05
 -0.239999995      -8.42455192E-05
 -0.109999999      -8.53326346E-05
   1.99999996E-02  -8.64133690E-05
  0.150000006      -8.74862963E-05
  0.280000001      -8.85497720E-05
  0.409999996      -8.96021738E-05
  0.540000021      -9.06421556E-05
  0.670000017      -9.16688587E-05
  0.800000012      -9.26819848E-05
  0.930000007      -9.36816723E-05
   1.05999994      -9.46684013E-05
   1.19000006      -9.56426666E-05
   1.32000005      -9.66047737E-05
   1.45000005      -9.75546063E-05
   1.58000004      -9.84915023E-05
   1.71000004      -9.94142829E-05
   1.84000003      -1.00321507E-04
   1.97000003      -1.01211575E-04
   2.09999990      -1.02083097E-04
   2.23000002      -1.02935090E-04
   2.35999990      -1.03767081E-04
   2.49000001      -1.04579121E-04
   2.61999989      -1.05371684E-04
   2.75000000      -1.06145337E-04
   2.88000011      -1.06900581E-04
   3.00999999      -1.07637541E-04
   3.14000010      -1.08355853E-04
   3.26999998      -1.09054658E-04
   3.40000010      -1.09732639E-04
   3.52999997      -1.10388319E-04
   3.66000009      -1.11020294E-04
   3.78999996      -1.11627502E-04
   3.92000008      -1.12209360E-04
   4.05000019      -1.12765854E-04
   4.17999983      -1.13297443E-04
   4.30999994      -1.13804803E-04
   4.44000006      -1.14288690E-04
   4.57000017      -1.14749586E-04
   4.69999981      -1.15187497E-04
   4.82999992      -1.15601972E-04
   4.96000004      -1.15992065E-04
   5.09000015      -1.16356568E-04
   5.21999979      -1.16694246E-04
   5.34999990      -1.17004092E-04
   5.48000002      -1.17285599E-04
   5.61000013      -1.17538773E-04
   5.73999977      -1.17764161E-04
   5.86999989      -1.17962656E-04
   6.00000000      -1.18135227E-04
   6.13000011      -1.18282733E-04
   6.26000023      -1.18405645E-04
   6.38999987      -1.18503885E-04
   6.51999998      -1.18576892E-04
   6.65000010      -1.18623779E-04
   6.78000021      -1.18643467E-04
   6.90999985      -1.18635035E-04
   7.03999996      -1.18597949E-04
   7.17000008      -1.18532167E-04
   7.30000019      -1.18438184E-04
   7.42999983      -1.18316952E-04
   7.55999994      -1.18169613E-04
   7.69000006      -1.17997261E-04
   7.82000017      -1.17800701E-04
   7.94999981      -1.17580275E-04
   8.07999992      -1.17335767E-04
   8.21000004      -1.17066564E-04
   8.34000015      -1.16771756E-04
   8.47000027      -1.16450537E-04
   8.60000038      -1.16102296E-04
   8.72999954      -1.15726929E-04
   8.85999966      -1.15324881E-04
   8.98999977      -1.14897084E-04
   9.11999989      -1.14444789E-04
   9.25000000      -1.13969283E-04
   9.38000011      -1.13471673E-04
   9.51000023      -1.12952628E-04
   9.64000034      -1.12412301E-04
   9.77000046      -1.11850379E-04
   9.89999962      -1.11266199E-04
   10.0299997      -1.10659021E-04
   10.1599998      -1.10028239E-04
   10.2900000      -1.09373723E-04
   10.4200001      -1.08695815E-04
   10.5500002      -1.07995424E-04
   10.6800003      -1.07273852E-04
   10.8100004      -1.06532549E-04
   10.9399996      -1.05772859E-04
   11.0699997      -1.04995794E-04
   11.1999998      -1.04201827E-04
   11.3299999      -1.03390921E-04
   11.4600000      -1.02562641E-04
   11.5900002      -1.01716323E-04
   11.7200003      -1.00851365E-04
   11.8500004      -9.99674812E-05
   11.9799995      -9.90648914E-05
   12.1099997      -9.81442863E-05
   12.2399998      -9.72068665E-05
   12.3699999      -9.62540726E-05
   12.5000000      -9.52873452E-05
   12.6300001      -9.43078558E-05
   12.7600002      -9.33163465E-05
   12.8900003      -9.23130428E-05
   13.0200005      -9.12976757E-05
   13.1499996      -9.02696702E-05
   13.2799997      -8.92284152E-05
   13.4099998      -8.81735177E-05
   13.5400000      -8.71050288E-05
   13.6700001      -8.60235159E-05
   13.8000002      -8.49300777E-05
   13.9300003      -8.38261549E-05
   14.0600004      -8.27133044E-05
   14.1899996      -8.15929307E-05
   14.3199997      -8.04660449E-05
   14.4499998      -7.93331419E-05
   14.5799999      -7.81941999E-05
   14.7100000      -7.70487823E-05
   14.8400002      -7.58963142E-05
   14.9700003      -7.47362938E-05
   15.1000004      -7.35685608E-05
   15.2299995      -7.23934645E-05
   15.3599997      -7.12118781E-05
   15.4899998      -7.00250821E-05
   15.6199999      -6.88345754E-05
   15.7500000      -6.76417912E-05
   15.8800001      -6.64478721E-05
   16.0100002      -6.52534363E-05
   16.1399994      -6.40586077E-05
   16.2700005      -6.28630150E-05
   16.3999996      -6.16660545E-05
   16.5300007      -6.04671150E-05
   16.6599998      -5.92658544E-05
   16.7900009      -5.80623746E-05
   16.9200001      -5.68573378E-05
   17.0499992      -5.56518753E-05
   17.1800003      -5.44474460E-05
   17.3099995      -5.32455451E-05
   17.4400005      -5.20474896E-05
   17.5699997      -5.08541380E-05
   17.7000008      -4.96658249E-05
   17.8299999      -4.84823868E-05
   17.9599991      -4.73032924E-05
   18.0900002      -4.61278942E-05
   18.2199993      -4.49556974E-05
   18.3500004      -4.37866038E-05
   18.4799995      -4.26210099E-05
   18.6100006      -4.14598326E-05
   18.7399998      -4.03043887E-05
   18.8700008      -3.91561334E-05
   19.0000000      -3.80164347E-05
   19.1299992      -3.68862966E-05
   19.2600002      -3.57662211E-05
   19.3899994      -3.46561792E-05
   19.5200005      -3.35557124E-05
   19.6499996      -3.24641405E-05
   19.7800007      -3.13808268E-05
   19.9099998      -3.03054239E-05
   20.0400009      -2.92380701E-05
   20.1700001      -2.81794255E-05
   20.2999992      -2.71306162E-05
   20.4300003      -2.60930228E-05
   20.5599995      -2.50680478E-05
   20.6900005      -2.40568133E-05
   20.8199997      -2.30599944E-05
   20.9500008      -2.20777238E-05
   21.0799999      -2.11096467E-05
   21.2099991      -2.01550829E-05
   21.3400002      -1.92132975E-05
   21.4699993      -1.82837484E-05
   21.6000004      -1.73663138E-05
   21.7299995      -1.64614084E-05
   21.8600006      -1.55699327E-05
   21.9899998      -1.46931579E-05
   22.1200008      -1.38324458E-05
   22.2500000      -1.29890104E-05
   22.3799992      -1.21636676E-05
   22.5100002      -1.13567112E-05
   22.6399994      -1.05678973E-05
   22.7700005      -9.79658307E-06
   22.8999996      -9.04193348E-06
   23.0300007      -8.30321278E-06
   23.1599998      -7.58001488E-06
   23.2900009      -6.87243801E-06
   23.4200001      -6.18109198E-06
   23.5499992      -5.50702089E-06
   23.6800003      -4.85148348E-06
   23.8099995      -4.21568166E-06
   23.9400005      -3.60052718E-06
   24.0699997      -3.00644911E-06
   24.2000008      -2.43334284E-06
   24.3299999      -1.88062700E-06
   24.4599991      -1.34745653E-06
   24.5900002      -8.32963053E-07
   24.7199993      -3.36529439E-07
   24.8500004       1.42023623E-07
   24.9799995       6.02355954E-07
   25.1100006       1.04364426E-06
   25.2399998       1.46477191E-06
   25.3700008       1.86456191E-06
   25.5000000       2.24205701E-06
   25.6299992       2.59672947E-06
   25.7600002       2.92860250E-06
   25.8899994       3.23822837E-06
   26.0200005       3.52652683E-06
   26.1499996       3.79455219E-06
   26.2800007       4.04321918E-06
   26.4099998       4.27307305E-06
   26.5400009       4.48415312E-06
   26.6700001       4.67596328E-06
   26.7999992       4.84761813E-06
   26.9300003       4.99804491E-06
   27.0599995       5.12627639E-06
   27.1900005       5.23166955E-06
   27.3199997       5.31409205E-06
   27.4500008       5.37394408E-06
   27.5799999       5.41206191E-06
   27.7099991       5.42950511E-06
   27.8400002       5.42730140E-06
   27.9699993       5.40619521E-06
   28.1000004       5.36646394E-06
   28.2299995       5.30785019E-06
   28.3600006       5.22966366E-06
   28.4899998       5.13093619E-06
   28.6200008       5.01071372E-06
   28.7500000       4.86830413E-06
   28.8799992       4.70349642E-06
   29.0100002       4.51662481E-06
   29.1399994       4.30854016E-06
   29.2700005       4.08043479E-06
   29.3999996       3.83359020E-06
   29.5300007       3.56910050E-06
   29.6599998       3.28766623E-06
   29.7900009       2.98947430E-06
   29.9200001       2.67420637E-06
   30.0499992       2.34118329E-06
   30.1800003       1.98961106E-06
   30.3099995       1.61884839E-06
   30.4400005       1.22863014E-06
   30.5699997       8.19209333E-07
   30.7000008       3.91367280E-07
   30.8299999      -5.37063691E-08
   30.9599991      -5.14638828E-07
   31.0900002      -9.90137323E-07
   31.2199993      -1.47923481E-06
   31.3500004      -1.98146245E-06
   31.4799995      -2.49687037E-06
   31.6100006      -3.02594117E-06
   31.7399998      -3.56937767E-06
   31.8700008      -4.12783356E-06
   32.0000000      -4.70166833E-06
   32.1300011      -5.29075169E-06
   32.2599983      -5.89440606E-06
   32.3899994      -6.51147047E-06
   32.5200005      -7.14049611E-06
   32.6500015      -7.78000231E-06
   32.7799988      -8.42873851E-06
   32.9099998      -9.08589755E-06
   33.0400009      -9.75119292E-06
   33.1699982      -1.04248320E-05
   33.2999992      -1.11073387E-05
   33.4300003      -1.17993022E-05
   33.5600014      -1.25011138E-05
   33.6899986      -1.32127425E-05
   33.8199997      -1.39336244E-05
   33.9500008      -1.46626653E-05
   34.0800018      -1.53984001E-05
   34.2099991      -1.61392272E-05
   34.3400002      -1.68836759E-05
   34.4700012      -1.76306439E-05
   34.5999985      -1.83795364E-05
   34.7299995      -1.91302788E-05
   34.8600006      -1.98832058E-05
   34.9900017      -2.06388195E-05
   35.1199989      -2.13975363E-05
   35.2500000      -2.21594401E-05
   35.3800011      -2.29241232E-05
   35.5099983      -2.36906326E-05
   35.6399994      -2.44575876E-05
   35.7700005      -2.52233676E-05
   35.9000015      -2.59863900E-05
   36.0299988      -2.67453561E-05
   36.1599998      -2.74994509E-05
   36.2900009      -2.82483979E-05
   36.4199982      -2.89923883E-05
   36.5499992      -2.97319075E-05
   36.6800003      -3.04674559E-05
   36.8100014      -3.11993099E-05
   36.9399986      -3.19272986E-05
   37.0699997      -3.26507034E-05
   37.2000008      -3.33683165E-05
   37.3300018      -3.40786100E-05
   37.4599991      -3.47799578E-05
   37.5900002      -3.54709300E-05
   37.7200012      -3.61505117E-05
   37.8499985      -3.68182191E-05
   37.9799995      -3.74740812E-05
   38.1100006      -3.81185164E-05
   38.2400017      -3.87520740E-05
   38.3699989      -3.93751870E-05
   38.5000000      -3.99879173E-05
   38.6300011      -4.05898172E-05
   38.7599983      -4.11799192E-05
   38.8899994      -4.17568517E-05
   39.0200005      -4.23190650E-05
   39.1500015      -4.28650856E-05
   39.2799988      -4.33937894E-05
   39.4099998      -4.39045434E-05
   39.5400009      -4.43972676E-05
   39.6699982      -4.48723258E-05
   39.7999992      -4.53303328E-05
   39.9300003      -4.57718961E-05
   40.0600014      -4.61973505E-05
   40.1899986      -4.66065540E-05
   40.3199997      -4.69988590E-05
   40.4500008      -4.73731561E-05
   40.5800018      -4.77280628E-05
   40.7099991      -4.80621857E-05
   40.8400002      -4.83743897E-05
   40.9700012      -4.86640056E-05
   41.0999985      -4.89309023E-05
   41.2299995      -4.91754727E-05
   41.3600006      -4.93984771E-05
   41.4900017      -4.96007524E-05
   41.6199989      -4.97829897E-05
   41.7500000      -4.99454800E-05
   41.8800011      -5.00880124E-05
   42.0099983      -5.02098665E-05
   42.1399994      -5.03099654E-05
   42.2700005      -5.03871015E-05
   42.4000015      -5.04402160E-05
   42.5299988      -5.04686323E-05
   42.6599998      -5.04721938E-05
   42.7900009      -5.04512864E-05
   42.9199982      -5.04067284E-05
   43.0499992      -5.03395422E-05
   43.1800003      -5.02506882E-05
   43.3100014      -5.01408322E-05
   43.4399986      -5.00101451E-05
   43.5699997      -4.98583067E-05
   43.7000008      -4.96845496E-05
   43.8300018      -4.94878877E-05
   43.9599991      -4.92673862E-05
   44.0900002      -4.90224011E-05
   44.2200012      -4.87527832E-05
   44.3499985      -4.84589436E-05
   44.4799995      -4.81417810E-05
   44.6100006      -4.78025067E-05
   44.7400017      -4.74423869E-05
   44.8699989      -4.70624618E-05
   45.0000000      -4.66633501E-05
   45.1300011      -4.62451353E-05
   45.2599983      -4.58074246E-05
   45.3899994      -4.53494831E-05
   45.5200005      -4.48704996E-05
   45.6500015      -4.43698445E-05
   45.7799988      -4.38473035E-05
   45.9099998      -4.33032110E-05
   46.0400009      -4.27384293E-05
   46.1699982      -4.21542027E-05
   46.2999992      -4.15519426E-05
   46.4300003      -4.09329405E-05
   46.5600014      -4.02981495E-05
   46.6899986      -3.96480245E-05
   46.8199997      -3.89825072E-05
   46.9500008      -3.83011356E-05
   47.0800018      -3.76032876E-05
   47.2099991      -3.68884248E-05
   47.3400002      -3.61563507E-05
   47.4700012      -3.54073818E-05
   47.5999985      -3.46423876E-05
   47.7299995      -3.38626996E-05
   47.8600006      -3.30699149E-05
   47.9900017      -3.22656160E-05
   48.1199989      -3.14511235E-05
   48.2500000      -3.06272959E-05
   48.3800011      -2.97944498E-05
   48.5099983      -2.89524323E-05
   48.6399994      -2.81007906E-05
   48.7700005      -2.72390353E-05
   48.9000015      -2.63668990E-05
   49.0299988      -2.54845545E-05
   49.1599998      -2.45927022E-05
   49.2900009      -2.36925607E-05
   49.4199982      -2.27856799E-05
   49.5499992      -2.18737132E-05
   49.6800003      -2.09581394E-05
   49.8100014      -2.00400355E-05
   49.9399986      -1.91199561E-05
   50.0699997      -1.81979449E-05
   50.2000008      -1.72736636E-05
   50.3300018      -1.63466320E-05
   50.4599991      -1.54164991E-05
   50.5900002      -1.44832775E-05
   50.7200012      -1.35475048E-05
   50.8499985      -1.26102532E-05
   50.9799995      -1.16730162E-05
   51.1100006      -1.07374926E-05
   51.2400017      -9.80530604E-06
   51.3699989      -8.87775968E-06
   51.5000000      -7.95565666E-06
   51.6300011      -7.03925798E-06
   51.7599983      -6.12836175E-06
   51.8899994      -5.22251412E-06
   52.0200005      -4.32125626E-06
   52.1500015      -3.42439921E-06
   52.2799988      -2.53221174E-06
   52.4099998      -1.64548487E-06
   52.5400009      -7.65488096E-07
   52.6699982       1.06228924E-07
   52.7999992       9.68078780E-07
   52.9300003       1.81871542E-06
   53.0600014       2.65724202E-06
   53.1899986       3.48330832E-06
   53.3199997       4.29707734E-06
   53.4500008       5.09906704E-06
   53.5800018       5.88990270E-06
   53.7099991       6.67004224E-06
   53.8400002       7.43956207E-06
   53.9700012       8.19801608E-06
   54.0999985       8.94443929E-06
   54.2299995       9.67749565E-06
   54.3600006       1.03957036E-05
   54.4900017       1.10977016E-05
   54.6199989       1.17824975E-05
   54.7500000       1.24496191E-05
   54.8800011       1.30991411E-05
   55.0099983       1.37315710E-05
   55.1399994       1.43476273E-05
   55.2700005       1.49479838E-05
   55.4000015       1.55330072E-05
   55.5299988       1.61025873E-05
   55.6599998       1.66560912E-05
   55.7900009       1.71924366E-05
   55.9199982       1.77103084E-05
   56.0499992       1.82084113E-05
   56.1800003       1.86857433E-05
   56.3100014       1.91417857E-05
   56.4399986       1.95765806E-05
   56.5699997       1.99906717E-05
   56.7000008       2.03849268E-05
   56.8300018       2.07602752E-05
   56.9599991       2.11174374E-05
   57.0900002       2.14567244E-05
   57.2200012       2.17779198E-05
   57.3499985       2.20803122E-05
   57.4799995       2.23628649E-05
   57.6100006       2.26244501E-05
   57.7400017       2.28641202E-05
   57.8699989       2.30813475E-05
   58.0000000       2.32761413E-05
   58.1300011       2.34490453E-05
   58.2599983       2.36010092E-05
   58.3899994       2.37331478E-05
   58.5200005       2.38464763E-05
   58.6500015       2.39416695E-05
   58.7799988       2.40189020E-05
   58.9099998       2.40778318E-05
   59.0400009       2.41177095E-05
   59.1699982       2.41375892E-05
   59.2999992       2.41366070E-05
   59.4300003       2.41142243E-05
   59.5600014       2.40704139E-05
   59.6899986       2.40057016E-05
   59.8199997       2.39210858E-05
   59.9500008       2.38178382E-05
   60.0800018       2.36972464E-05
   60.2099991       2.35603347E-05
   60.3400002       2.34076815E-05
   60.4700012       2.32393340E-05
   60.5999985       2.30548612E-05
   60.7299995       2.28535355E-05
   60.8600006       2.26345837E-05
   60.9900017       2.23974585E-05
   61.1199989       2.21420578E-05
   61.2500000       2.18688219E-05
   61.3800011       2.15787113E-05
   61.5099983       2.12730483E-05
   61.6399994       2.09532682E-05
   61.7700005       2.06206551E-05
   61.9000015       2.02761112E-05
   62.0299988       1.99200185E-05
   62.1599998       1.95522480E-05
   62.2900009       1.91722884E-05
   62.4199982       1.87794849E-05
   62.5499992       1.83733009E-05
   62.6800003       1.79535691E-05
   62.8100014       1.75206442E-05
   62.9399986       1.70754247E-05
   63.0699997       1.66192440E-05
   63.2000008       1.61536518E-05
   63.3300018       1.56801434E-05
   63.4599991       1.51999002E-05
   63.5900002       1.47136116E-05
   63.7200012       1.42214240E-05
   63.8499985       1.37230181E-05
   63.9799995       1.32178111E-05
   64.1100006       1.27052144E-05
   64.2399979       1.21848989E-05
   64.3700027       1.16569954E-05
   64.5000000       1.11221743E-05
   64.6299973       1.05815916E-05
   64.7600021       1.00367188E-05
   64.8899994       9.48907837E-06
   65.0199966       8.93998731E-06
   65.1500015       8.39033692E-06
   65.2799988       7.84049007E-06
   65.4100037       7.29030126E-06
   65.5400009       6.73927843E-06
   65.6699982       6.18682634E-06
   65.8000031       5.63250660E-06
   65.9300003       5.07628283E-06
   66.0599976       4.51864253E-06
   66.1900024       3.96059841E-06
   66.3199997       3.40355427E-06
   66.4499969       2.84907924E-06
   66.5800018       2.29862644E-06
   66.7099991       1.75329058E-06
   66.8399963       1.21364565E-06
   66.9700012       6.79711832E-07
   67.0999985       1.51073721E-07
   67.2300034      -3.72918748E-07
   67.3600006      -8.92874766E-07
   67.4899979      -1.40910902E-06
   67.6200027      -1.92145876E-06
   67.7500000      -2.42923011E-06
   67.8799973      -2.93127050E-06
   68.0100021      -3.42617363E-06
   68.1399994      -3.91254298E-06
   68.2699966      -4.38924690E-06
   68.4000015      -4.85562396E-06
   68.5299988      -5.31157139E-06
   68.6600037      -5.75748072E-06
   68.7900009      -6.19407410E-06
   68.9199982      -6.62213370E-06
   69.0500031      -7.04224612E-06
   69.1800003      -7.45458328E-06
   69.3099976      -7.85878456E-06
   69.4400024      -8.25399093E-06
   69.5699997      -8.63899277E-06
   69.6999969      -9.01248586E-06
   69.8300018      -9.37332425E-06
   69.9599991      -9.72076941E-06
   70.0899963      -1.00546113E-05
   70.2200012      -1.03751854E-05
   70.3499985      -1.06832294E-05
   70.4800034      -1.09796583E-05
   70.6100006      -1.12652961E-05
   70.7399979      -1.15406237E-05
   70.8700027      -1.18056259E-05
   71.0000000      -1.20597615E-05
   71.1299973      -1.23020645E-05
   71.2600021      -1.25313618E-05
   71.3899994      -1.27465355E-05
   71.5199966      -1.29467880E-05
   71.6500015      -1.31318175E-05
   71.7799988      -1.33018812E-05
   71.9100037      -1.34577131E-05
   72.0400009      -1.36003382E-05
   72.1699982      -1.37307934E-05
   72.3000031      -1.38498799E-05
   72.4300003      -1.39579461E-05
   72.5599976      -1.40548136E-05
   72.6900024      -1.41398132E-05
   72.8199997      -1.42119743E-05
   72.9499969      -1.42702693E-05
   73.0800018      -1.43138859E-05
   73.2099991      -1.43424504E-05
   73.3399963      -1.43561319E-05
   73.4700012      -1.43556272E-05
   73.5999985      -1.43420066E-05
   73.7300034      -1.43164671E-05
   73.8600006      -1.42800636E-05
   73.9899979      -1.42334684E-05
   74.1200027      -1.41768360E-05
   74.2500000      -1.41098071E-05
   74.3799973      -1.40316206E-05
   74.5100021      -1.39413569E-05
   74.6399994      -1.38382038E-05
   74.7699966      -1.37217021E-05
   74.9000015      -1.35919117E-05
   75.0299988      -1.34494367E-05
   75.1600037      -1.32953255E-05
   75.2900009      -1.31308525E-05
   75.4199982      -1.29572518E-05
   75.5500031      -1.27754593E-05
   75.6800003      -1.25859242E-05
   75.8099976      -1.23885593E-05
   75.9400024      -1.21828043E-05
   76.0699997      -1.19678307E-05
   76.1999969      -1.17427935E-05
   76.3300018      -1.15071098E-05
   76.4599991      -1.12606513E-05
   76.5899963      -1.10038345E-05
   76.7200012      -1.07375799E-05
   76.8499985      -1.04631290E-05
   76.9800034      -1.01818032E-05
   77.1100006      -9.89472392E-06
   77.2399979      -9.60259695E-06
   77.3700027      -9.30560327E-06
   77.5000000      -9.00341365E-06
   77.6299973      -8.69534142E-06
   77.7600021      -8.38058168E-06
   77.8899994      -8.05848413E-06
   78.0199966      -7.72878866E-06
   78.1500015      -7.39176085E-06
   78.2799988      -7.04820013E-06
   78.4100037      -6.69930932E-06
   78.5400009      -6.34646722E-06
   78.6699982      -5.99095347E-06
   78.8000031      -5.63369576E-06
   78.9300003      -5.27511065E-06
   79.0599976      -4.91506353E-06
   79.1900024      -4.55297095E-06
   79.3199997      -4.18801528E-06
   79.4499969      -3.81941118E-06
   79.5800018      -3.44666637E-06
   79.7099991      -3.06977199E-06
   79.8399963      -2.68926306E-06
   79.9700012      -2.30614387E-06
   80.0999985      -1.92169932E-06
   80.2300034      -1.53723272E-06
   80.3600006      -1.15379635E-06
   80.4899979      -7.71991779E-07
   80.6200027      -3.91879041E-07
   80.7500000      -1.30255193E-08
   80.8799973       3.65327651E-07
   81.0100021       7.44006513E-07
   81.1399994       1.12363739E-06
   81.2699966       1.50442429E-06
   81.4000015       1.88603565E-06
   81.5299988       2.26762859E-06
   81.6600037       2.64798950E-06
   81.7900009       3.02579133E-06
   81.9199982       3.39985422E-06
   82.0500031       3.76939215E-06
   82.1800003       4.13414728E-06
   82.3099976       4.49440950E-06
   82.4400024       4.85087367E-06
   82.5699997       5.20443109E-06
   82.6999969       5.55588349E-06
   82.8300018       5.90569834E-06
   82.9599991       6.25384610E-06
   83.0899963       6.59975740E-06
   83.2200012       6.94242726E-06
   83.3499985       7.28062287E-06
   83.4800034       7.61314732E-06
   83.6100006       7.93910476E-06
   83.7399979       8.25808365E-06
   83.8700027       8.57023224E-06
   84.0000000       8.87616716E-06
   84.1299973       9.17680245E-06
   84.2600021       9.47307308E-06
   84.3899994       9.76567662E-06
   84.5199966       1.00548605E-05
   84.6500015       1.03403372E-05
   84.7799988       1.06213174E-05
   84.9100037       1.08966924E-05
   85.0400009       1.11652807E-05
   85.1699982       1.14260956E-05
   85.3000031       1.16785732E-05
   85.4300003       1.19226934E-05
   85.5599976       1.21589546E-05
   85.6900024       1.23882292E-05
   85.8199997       1.26115174E-05
   85.9499969       1.28296815E-05
   86.0800018       1.30432054E-05
   86.2099991       1.32520481E-05
   86.3399963       1.34556367E-05
   86.4700012       1.36529943E-05
   86.5999985       1.38429596E-05
   86.7300034       1.40244720E-05
   86.8600006       1.41968167E-05