  -24.4200001       0.00000000    
  -24.2900009      -7.50590215E-12
  -24.1599998      -1.86256410E-11
  -24.0300007      -2.53782568E-11
  -23.8999996      -1.64392701E-11
  -23.7700005       2.16978571E-11
  -23.6399994       1.03265098E-10
  -23.5100002       2.41624221E-10
  -23.3799992       4.47714116E-10
  -23.2500000       7.28715810E-10
  -23.1200008       1.08709808E-09
  -22.9899998       1.52016177E-09
  -22.8600006       2.02014960E-09
  -22.7299995       2.57492294E-09
  -22.6000004       3.16914894E-09
  -22.4699993       3.78587561E-09
  -22.3400002       4.40835990E-09
  -22.2099991       5.02197128E-09
  -22.0799999       5.61599256E-09
  -21.9500008       6.18516216E-09
  -21.8199997       6.73079947E-09
  -21.6900005       7.26141991E-09
  -21.5599995       7.79273979E-09
  -21.4300003       8.34705993E-09
  -21.2999992       8.95204266E-09
  -21.1700001       9.63895186E-09
  -21.0400009       1.04405133E-08
  -20.9099998       1.13885470E-08
  -20.7800007       1.25116220E-08
  -20.6499996       1.38329392E-08
  -20.5200005       1.53686646E-08
  -20.3899994       1.71268972E-08
  -20.2600002       1.91073450E-08
  -20.1299992       2.13018012E-08
  -20.0000000       2.36953461E-08
  -19.8700008       2.62681539E-08
  -19.7399998       2.89977713E-08
  -19.6100006       3.18616387E-08
  -19.4799995       3.48396689E-08
  -19.3500004       3.79165783E-08
  -19.2199993       4.10839007E-08
  -19.0900002       4.43414265E-08
  -18.9599991       4.76979451E-08
  -18.8299999       5.11712557E-08
  -18.7000008       5.47874492E-08
  -18.5699997       5.85794595E-08
  -18.4400005       6.25850944E-08
  -18.3099995       6.68446489E-08
  -18.1800003       7.13983042E-08
  -18.0499992       7.62836692E-08
  -17.9200001       8.15335781E-08
  -17.7900009       8.71743211E-08
  -17.6599998       9.32245143E-08
  -17.5300007       9.96948160E-08
  -17.3999996       1.06588281E-07
  -17.2700005       1.13901422E-07
  -17.1399994       1.21626073E-07
  -17.0100002       1.29751527E-07
  -16.8799992       1.38267083E-07
  -16.7500000       1.47164741E-07
  -16.6200008       1.56441487E-07
  -16.4899998       1.66101543E-07
  -16.3600006       1.76157769E-07
  -16.2299995       1.86632462E-07
  -16.1000004       1.97557426E-07
  -15.9700003       2.08973120E-07
  -15.8400002       2.20927248E-07
  -15.7100000       2.33472548E-07
  -15.5799999       2.46664598E-07
  -15.4499998       2.60558977E-07
  -15.3199997       2.75209118E-07
  -15.1899996       2.90663991E-07
  -15.0600004       3.06966541E-07
  -14.9300003       3.24152580E-07
  -14.8000002       3.42250559E-07
  -14.6700001       3.61281678E-07
  -14.5400000       3.81261117E-07
  -14.4099998       4.02199390E-07
  -14.2799997       4.24104400E-07
  -14.1499996       4.46983677E-07
  -14.0200005       4.70846857E-07
  -13.8900003       4.95707752E-07
  -13.7600002       5.21586514E-07
  -13.6300001       5.48511309E-07
  -13.5000000       5.76518801E-07
  -13.3699999       6.05654805E-07
  -13.2399998       6.35973777E-07
  -13.1099997       6.67537279E-07
  -12.9799995       7.00412841E-07
  -12.8500004       7.34671517E-07
  -12.7200003       7.70385384E-07
  -12.5900002       8.07625497E-07
  -12.4600000       8.46459614E-07
  -12.3299999       8.86949977E-07
  -12.1999998       9.29152463E-07
  -12.0699997       9.73115448E-07
  -11.9399996       1.01888020E-06
  -11.8100004       1.06648110E-06
  -11.6800003       1.11594738E-06
  -11.5500002       1.16730519E-06
  -11.4200001       1.22057918E-06
  -11.2900000       1.27579574E-06
  -11.1599998       1.33298511E-06
  -11.0299997       1.39218344E-06
  -10.8999996       1.45343495E-06
  -10.7700005       1.51679251E-06
  -10.6400003       1.58231853E-06
  -10.5100002       1.65008476E-06
  -10.3800001       1.72017076E-06
  -10.2500000       1.79266340E-06
  -10.1199999       1.86765340E-06
  -9.98999977       1.94523409E-06
  -9.85999966       2.02549813E-06
  -9.72999954       2.10853568E-06
  -9.60000038       2.19443109E-06
  -9.47000027       2.28326257E-06
  -9.34000015       2.37510017E-06
  -9.21000004       2.47000548E-06
  -9.07999992       2.56803241E-06
  -8.94999981       2.66922848E-06
  -8.81999969       2.77363574E-06
  -8.68999958       2.88129559E-06
  -8.56000042       2.99224848E-06
  -8.43000031       3.10653877E-06
  -8.30000019       3.22421533E-06
  -8.17000008       3.34533502E-06
  -8.03999996       3.46996239E-06
  -7.90999985       3.59817136E-06
  -7.78000021       3.73004423E-06
  -7.65000010       3.86566990E-06
  -7.51999998       4.00514227E-06
  -7.38999987       4.14855867E-06
  -7.26000023       4.29601550E-06
  -7.13000011       4.44760644E-06
  -7.00000000       4.60341789E-06
  -6.86999989       4.76352989E-06
  -6.73999977       4.92801064E-06
  -6.61000013       5.09691654E-06
  -6.48000002       5.27029306E-06
  -6.34999990       5.44817385E-06
  -6.21999979       5.63058347E-06
  -6.09000015       5.81753739E-06
  -5.96000004       6.00904878E-06
  -5.82999992       6.20512492E-06
  -5.69999981       6.40577809E-06
  -5.57000017       6.61102104E-06
  -5.44000006       6.82087466E-06
  -5.30999994       7.03536489E-06
  -5.17999983       7.25452946E-06
  -5.05000019       7.47840977E-06
  -4.92000008       7.70705901E-06
  -4.78999996       7.94053267E-06
  -4.65999985       8.17889031E-06
  -4.53000021       8.42218924E-06
  -4.40000010       8.67048220E-06
  -4.26999998       8.92381740E-06
  -4.13999987       9.18223031E-06
  -4.01000023       9.44574276E-06
  -3.88000011       9.71436384E-06
  -3.75000000       9.98808900E-06
  -3.61999989       1.02668973E-05
  -3.49000001       1.05507561E-05
  -3.35999990       1.08396225E-05
  -3.23000002       1.11334439E-05
  -3.09999990       1.14321665E-05
  -2.97000003       1.17357331E-05
  -2.83999991       1.20440882E-05
  -2.71000004       1.23571826E-05
  -2.57999992       1.26749728E-05
  -2.45000005       1.29974251E-05
  -2.31999993       1.33245130E-05
  -2.19000006       1.36562167E-05
  -2.05999994       1.39925232E-05
  -1.92999995       1.43334209E-05
  -1.79999995       1.46789007E-05
  -1.66999996       1.50289443E-05
  -1.53999996       1.53835299E-05
  -1.40999997       1.57426221E-05
  -1.27999997       1.61061707E-05
  -1.14999998       1.64741068E-05
  -1.01999998       1.68463466E-05
 -0.889999986       1.72227865E-05
 -0.759999990       1.76033045E-05
 -0.629999995       1.79877679E-05
 -0.500000000       1.83760258E-05
 -0.370000005       1.87679252E-05
 -0.239999995       1.91633026E-05
 -0.109999999       1.95619996E-05
   1.99999996E-02   1.99638580E-05
  0.150000006       2.03687250E-05
  0.280000001       2.07764533E-05
  0.409999996       2.11869065E-05
  0.540000021       2.15999553E-05
  0.670000017       2.20154798E-05
  0.800000012       2.24333580E-05
  0.930000007       2.28534736E-05
   1.05999994       2.32757047E-05
   1.19000006       2.36999222E-05
   1.32000005       2.41259877E-05
   1.45000005       2.45537485E-05
   1.58000004       2.49830337E-05
   1.71000004       2.54136557E-05
   1.84000003       2.58454038E-05
   1.97000003       2.62780541E-05
   2.09999990       2.67113646E-05
   2.23000002       2.71450754E-05
   2.35999990       2.75789207E-05
   2.49000001       2.80126242E-05
   2.61999989       2.84459111E-05
   2.75000000       2.88785086E-05
   2.88000011       2.93101457E-05
   3.00999999       2.97405604E-05
   3.14000010       3.01695054E-05
   3.26999998       3.05967369E-05
   3.40000010       3.10220239E-05
   3.52999997       3.14451463E-05
   3.66000009       3.18658786E-05
   3.78999996       3.22840024E-05
   3.92000008       3.26992922E-05
   4.05000019       3.31115189E-05
   4.17999983       3.35204422E-05
   4.30999994       3.39258113E-05
   4.44000006       3.43273459E-05
   4.57000017       3.47247733E-05
   4.69999981       3.51177805E-05
   4.82999992       3.55060583E-05
   4.96000004       3.58892794E-05
   5.09000015       3.62671126E-05
   5.21999979       3.66392233E-05
   5.34999990       3.70052803E-05
   5.48000002       3.73649491E-05
   5.61000013       3.77179203E-05
   5.73999977       3.80638812E-05
   5.86999989       3.84025479E-05
   6.00000000       3.87336404E-05
   6.13000011       3.90569003E-05
   6.26000023       3.93720802E-05
   6.38999987       3.96789437E-05
   6.51999998       3.99772616E-05
   6.65000010       4.02668084E-05
   6.78000021       4.05473547E-05
   6.90999985       4.08186643E-05
   7.03999996       4.10804932E-05
   7.17000008       4.13325943E-05
   7.30000019       4.15746945E-05
   7.42999983       4.18065247E-05
   7.55999994       4.20277975E-05
   7.69000006       4.22382145E-05
   7.82000017       4.24374884E-05
   7.94999981       4.26253100E-05
   8.07999992       4.28014027E-05
   8.21000004       4.29654756E-05
   8.34000015       4.31172630E-05
   8.47000027       4.32565175E-05
   8.60000038       4.33830101E-05
   8.72999954       4.34965259E-05
   8.85999966       4.35968832E-05
   8.98999977       4.36839146E-05
   9.11999989       4.37574745E-05
   9.25000000       4.38174211E-05
   9.38000011       4.38636343E-05
   9.51000023       4.38960014E-05
   9.64000034       4.39144023E-05
   9.77000046       4.39187279E-05
   9.89999962       4.39088544E-05
   10.0299997       4.38846619E-05
   10.1599998       4.38460120E-05
   10.2900000       4.37927702E-05
   10.4200001       4.37248018E-05
   10.5500002       4.36419650E-05
   10.6800003       4.35441143E-05
   10.8100004       4.34311260E-05
   10.9399996       4.33028872E-05
   11.0699997       4.31592925E-05
   11.1999998       4.30002656E-05
   11.3299999       4.28257481E-05
   11.4600000       4.26357146E-05
   11.5900002       4.24301579E-05
   11.7200003       4.22090998E-05
   11.8500004       4.19725911E-05
   11.9799995       4.17206902E-05
   12.1099997       4.14534807E-05
   12.2399998       4.11710680E-05
   12.3699999       4.08735432E-05
   12.5000000       4.05610226E-05
   12.6300001       4.02336154E-05
   12.7600002       3.98914235E-05
   12.8900003       3.95345596E-05
   13.0200005       3.91631220E-05
   13.1499996       3.87772161E-05
   13.2799997       3.83769438E-05
   13.4099998       3.79624107E-05
   13.5400000       3.75337331E-05
   13.6700001       3.70910348E-05
   13.8000002       3.66344648E-05
   13.9300003       3.61641869E-05
   14.0600004       3.56803830E-05
   14.1899996       3.51832714E-05
   14.3199997       3.46730958E-05
   14.4499998       3.41501182E-05
   14.5799999       3.36146331E-05
   14.7100000       3.30669463E-05
   14.8400002       3.25073997E-05
   14.9700003       3.19363280E-05
   15.1000004       3.13540877E-05
   15.2299995       3.07610389E-05
   15.3599997       3.01575346E-05
   15.4899998       2.95439331E-05
   15.6199999       2.89205782E-05
   15.7500000       2.82878173E-05
   15.8800001       2.76459832E-05
   16.0100002       2.69954089E-05
   16.1399994       2.63364273E-05
   16.2700005       2.56693675E-05
   16.3999996       2.49945715E-05
   16.5300007       2.43123905E-05
   16.6599998       2.36231845E-05
   16.7900009       2.29273355E-05
   16.9200001       2.22252511E-05
   17.0499992       2.15173550E-05
   17.1800003       2.08040929E-05
   17.3099995       2.00859395E-05
   17.4400005       1.93633787E-05
   17.5699997       1.86369089E-05
   17.7000008       1.79070503E-05
   17.8299999       1.71743141E-05
   17.9599991       1.64392186E-05
   18.0900002       1.57022714E-05
   18.2199993       1.49639682E-05
   18.3500004       1.42247936E-05
   18.4799995       1.34852144E-05
   18.6100006       1.27456779E-05
   18.7399998       1.20066197E-05
   18.8700008       1.12684547E-05
   19.0000000       1.05315967E-05
   19.1299992       9.79644483E-06
   19.2600002       9.06340210E-06
   19.3899994       8.33287686E-06
   19.5200005       7.60528428E-06
   19.6499996       6.88105138E-06
   19.7800007       6.16062152E-06
   19.9099998       5.44445356E-06
   20.0400009       4.73301907E-06
   20.1700001       4.02680462E-06
   20.2999992       3.32630566E-06
   20.4300003       2.63201900E-06
   20.5599995       1.94444374E-06
   20.6900005       1.26406633E-06
   20.8199997       5.91363971E-07
   20.9500008      -7.32095842E-08
   21.0799999      -7.29223302E-07
   21.2099991      -1.37627183E-06
   21.3400002      -2.01398120E-06
   21.4699993      -2.64200230E-06
   21.6000004      -3.26001418E-06
   21.7299995      -3.86771899E-06
   21.8600006      -4.46483409E-06
   21.9899998      -5.05109028E-06
   22.1200008      -5.62622427E-06
   22.2500000      -6.18997183E-06
   22.3799992      -6.74206649E-06
   22.5100002      -7.28223358E-06
   22.6399994      -7.81018753E-06
   22.7700005      -8.32563455E-06
   22.8999996      -8.82826953E-06
   23.0300007      -9.31778595E-06
   23.1599998      -9.79387369E-06
   23.2900009      -1.02562290E-05
   23.4200001      -1.07045616E-05
   23.5499992      -1.11385980E-05
   23.6800003      -1.15580906E-05
   23.8099995      -1.19628194E-05
   23.9400005      -1.23525970E-05
   24.0699997      -1.27272715E-05
   24.2000008      -1.30867220E-05
   24.3299999      -1.34308630E-05
   24.4599991      -1.37596353E-05
   24.5900002      -1.40730017E-05
   24.7199993      -1.43709412E-05
   24.8500004      -1.46534458E-05
   24.9799995      -1.49205080E-05
   25.1100006      -1.51721197E-05
   25.2399998      -1.54082627E-05
   25.3700008      -1.56289170E-05
   25.5000000      -1.58340426E-05
   25.6299992      -1.60235941E-05
   25.7600002      -1.61975186E-05
   25.8899994      -1.63557597E-05
   26.0200005      -1.64982648E-05
   26.1499996      -1.66249902E-05
   26.2800007      -1.67359085E-05
   26.4099998      -1.68310162E-05
   26.5400009      -1.69103369E-05
   26.6700001      -1.69739233E-05
   26.7999992      -1.70218627E-05
   26.9300003      -1.70542789E-05
   27.0599995      -1.70713211E-05
   27.1900005      -1.70731710E-05
   27.3199997      -1.70600288E-05
   27.4500008      -1.70321127E-05
   27.5799999      -1.69896502E-05
   27.7099991      -1.69328650E-05
   27.8400002      -1.68619808E-05
   27.9699993      -1.67772123E-05
   28.1000004      -1.66787522E-05
   28.2299995      -1.65667861E-05
   28.3600006      -1.64414760E-05
   28.4899998      -1.63029763E-05
   28.6200008      -1.61514254E-05
   28.7500000      -1.59869596E-05
   28.8799992      -1.58097173E-05
   29.0100002      -1.56198457E-05
   29.1399994      -1.54175013E-05
   29.2700005      -1.52028742E-05
   29.3999996      -1.49761645E-05
   29.5300007      -1.47376131E-05
   29.6599998      -1.44874848E-05
   29.7900009      -1.42260724E-05
   29.9200001      -1.39536933E-05
   30.0499992      -1.36706885E-05
   30.1800003      -1.33774092E-05
   30.3099995      -1.30742137E-05
   30.4400005      -1.27614585E-05
   30.5699997      -1.24394910E-05
   30.7000008      -1.21086468E-05
   30.8299999      -1.17692416E-05
   30.9599991      -1.14215654E-05
   31.0900002      -1.10658921E-05
   31.2199993      -1.07024698E-05
   31.3500004      -1.03315288E-05
   31.4799995      -9.95328992E-06
   31.6100006      -9.56796703E-06
   31.7399998      -9.17577017E-06
   31.8700008      -8.77692491E-06
   32.0000000      -8.37166317E-06
   32.1300011      -7.96024142E-06
   32.2599983      -7.54293478E-06
   32.3899994      -7.12004794E-06
   32.5200005      -6.69190786E-06
   32.6500015      -6.25886469E-06
   32.7799988      -5.82128632E-06
   32.9099998      -5.37955520E-06
   33.0400009      -4.93405469E-06
   33.1699982      -4.48516857E-06
   33.2999992      -4.03327022E-06
   33.4300003      -3.57871681E-06
   33.5600014      -3.12184397E-06
   33.6899986      -2.66296115E-06
   33.8199997      -2.20235393E-06
   33.9500008      -1.74028230E-06
   34.0800018      -1.27698672E-06
   34.2099991      -8.12691667E-07
   34.3400002      -3.47605891E-07
   34.4700012       1.18057223E-07
   34.5999985       5.84085967E-07
   34.7299995       1.05025356E-06
   34.8600006       1.51631434E-06
   34.9900017       1.98200246E-06
   35.1199989       2.44702665E-06
   35.2500000       2.91107244E-06
   35.3800011       3.37379470E-06
   35.5099983       3.83483939E-06
   35.6399994       4.29383135E-06
   35.7700005       4.75039496E-06
   35.9000015       5.20415097E-06
   36.0299988       5.65473647E-06
   36.1599998       6.10179995E-06
   36.2900009       6.54501446E-06
   36.4199982       6.98408076E-06
   36.5499992       7.41872509E-06
   36.6800003       7.84870736E-06
   36.8100014       8.27381155E-06
   36.9399986       8.69384348E-06
   37.0699997       9.10862400E-06
   37.2000008       9.51798393E-06
   37.3300018       9.92175137E-06
   37.4599991       1.03197453E-05
   37.5900002       1.07117739E-05
   37.7200012       1.10976180E-05
   37.8499985       1.14770401E-05
   37.9799995       1.18497710E-05
   38.1100006       1.22155225E-05
   38.2400017       1.25739853E-05
   38.3699989       1.29248319E-05
   38.5000000       1.32677287E-05
   38.6300011       1.36023364E-05
   38.7599983       1.39283338E-05
   38.8899994       1.42454028E-05
   39.0200005       1.45532586E-05
   39.1500015       1.48516401E-05
   39.2799988       1.51403137E-05
   39.4099998       1.54190857E-05
   39.5400009       1.56877904E-05
   39.6699982       1.59462888E-05
   39.7999992       1.61944663E-05
   39.9300003       1.64322173E-05
   40.0600014       1.66594436E-05
   40.1899986       1.68760471E-05
   40.3199997       1.70819239E-05
   40.4500008       1.72769451E-05
   40.5800018       1.74609722E-05
   40.7099991       1.76338344E-05
   40.8400002       1.77953461E-05
   40.9700012       1.79452982E-05
   41.0999985       1.80834650E-05
   41.2299995       1.82096155E-05
   41.3600006       1.83235152E-05
   41.4900017       1.84249438E-05
   41.6199989       1.85136905E-05
   41.7500000       1.85895733E-05
   41.8800011       1.86524394E-05
   42.0099983       1.87021742E-05
   42.1399994       1.87386959E-05
   42.2700005       1.87619626E-05
   42.4000015       1.87719688E-05
   42.5299988       1.87687274E-05
   42.6599998       1.87522801E-05
   42.7900009       1.87226815E-05
   42.9199982       1.86799880E-05
   43.0499992       1.86242505E-05
   43.1800003       1.85555109E-05
   43.3100014       1.84737946E-05
   43.4399986       1.83791071E-05
   43.5699997       1.82714321E-05
   43.7000008       1.81507348E-05
   43.8300018       1.80169591E-05
   43.9599991       1.78700484E-05
   44.0900002       1.77099355E-05
   44.2200012       1.75365658E-05
   44.3499985       1.73498993E-05
   44.4799995       1.71499196E-05
   44.6100006       1.69366394E-05
   44.7400017       1.67101152E-05
   44.8699989       1.64704379E-05
   45.0000000       1.62177457E-05
   45.1300011       1.59522078E-05
   45.2599983       1.56740316E-05
   45.3899994       1.53834517E-05
   45.5200005       1.50807246E-05
   45.6500015       1.47661085E-05
   45.7799988       1.44398728E-05
   45.9099998       1.41022765E-05
   46.0400009       1.37535599E-05
   46.1699982       1.33939520E-05
   46.2999992       1.30236549E-05
   46.4300003       1.26428567E-05
   46.5600014       1.22517240E-05
   46.6899986       1.18504095E-05
   46.8199997       1.14390605E-05
   46.9500008       1.10178325E-05
   47.0800018       1.05868867E-05
   47.2099991       1.01464066E-05
   47.3400002       9.69660414E-06
   47.4700012       9.23772132E-06
   47.5999985       8.77004368E-06
   47.7299995       8.29389319E-06
   47.8600006       7.80963182E-06
   47.9900017       7.31765567E-06
   48.1199989       6.81838992E-06
   48.2500000       6.31227704E-06
   48.3800011       5.79977768E-06
   48.5099983       5.28134797E-06
   48.6399994       4.75744218E-06
   48.7700005       4.22850007E-06
   48.9000015       3.69493932E-06
   49.0299988       3.15715124E-06
   49.1599998       2.61550781E-06
   49.2900009       2.07034918E-06
   49.4199982       1.52199948E-06
   49.5499992       9.70769065E-07
   49.6800003       4.16960347E-07
   49.8100014      -1.39116963E-07
   49.9399986      -6.97147868E-07
   50.0699997      -1.25679196E-06
   50.2000008      -1.81768416E-06
   50.3300018      -2.37942709E-06
   50.4599991      -2.94159258E-06
   50.5900002      -3.50371283E-06
   50.7200012      -4.06529352E-06
   50.8499985      -4.62581011E-06
   50.9799995      -5.18472416E-06
   51.1100006      -5.74148589E-06
   51.2400017      -6.29554279E-06
   51.3699989      -6.84635825E-06
   51.5000000      -7.39341158E-06
   51.6300011      -7.93620893E-06
   51.7599983      -8.47428782E-06
   51.8899994      -9.00722353E-06
   52.0200005      -9.53461949E-06
   52.1500015      -1.00561174E-05
   52.2799988      -1.05713862E-05
   52.4099998      -1.10801066E-05
   52.5400009      -1.15819812E-05
   52.6699982      -1.20767081E-05
   52.7999992      -1.25639790E-05
   52.9300003      -1.30434737E-05
   53.0600014      -1.35148484E-05
   53.1899986      -1.39777349E-05
   53.3199997      -1.44317419E-05
   53.4500008      -1.48764493E-05
   53.5800018      -1.53114270E-05
   53.7099991      -1.57362210E-05
   53.8400002      -1.61503795E-05
   53.9700012      -1.65534493E-05
   54.0999985      -1.69449959E-05
   54.2299995      -1.73246081E-05
   54.3600006      -1.76919020E-05
   54.4900017      -1.80465358E-05
   54.6199989      -1.83882057E-05
   54.7500000      -1.87166515E-05
   54.8800011      -1.90316478E-05
   55.0099983      -1.93330161E-05
   55.1399994      -1.96205947E-05
   55.2700005      -1.98942544E-05
   55.4000015      -2.01538733E-05
   55.5299988      -2.03993295E-05
   55.6599998      -2.06305067E-05
   55.7900009      -2.08472666E-05
   55.9199982      -2.10494582E-05
   56.0499992      -2.12369087E-05
   56.1800003      -2.14094289E-05
   56.3100014      -2.15668097E-05
   56.4399986      -2.17088345E-05
   56.5699997      -2.18352798E-05
   56.7000008      -2.19459289E-05
   56.8300018      -2.20405782E-05
   56.9599991      -2.21190476E-05
   57.0900002      -2.21811897E-05
   57.2200012      -2.22268991E-05
   57.3499985      -2.22561048E-05
   57.4799995      -2.22687941E-05
   57.6100006      -2.22649887E-05
   57.7400017      -2.22447561E-05
   57.8699989      -2.22081944E-05
   58.0000000      -2.21554365E-05
   58.1300011      -2.20866295E-05
   58.2599983      -2.20019338E-05
   58.3899994      -2.19015055E-05
   58.5200005      -2.17854904E-05
   58.6500015      -2.16540302E-05
   58.7799988      -2.15072414E-05
   58.9099998      -2.13452186E-05
   59.0400009      -2.11680435E-05
   59.1699982      -2.09757782E-05
   59.2999992      -2.07684770E-05
   59.4300003      -2.05461947E-05
   59.5600014      -2.03089912E-05
   59.6899986      -2.00569466E-05
   59.8199997      -1.97901645E-05
   59.9500008      -1.95087832E-05
   60.0800018      -1.92129810E-05
   60.2099991      -1.89029779E-05
   60.3400002      -1.85790395E-05
   60.4700012      -1.82414697E-05
   60.5999985      -1.78906103E-05
   60.7299995      -1.75268269E-05
   60.8600006      -1.71505144E-05
   60.9900017      -1.67620692E-05
   61.1199989      -1.63618915E-05
   61.2500000      -1.59503707E-05
   61.3800011      -1.55278813E-05
   61.5099983      -1.50947762E-05
   61.6399994      -1.46513767E-05
   61.7700005      -1.41979826E-05
   61.9000015      -1.37348716E-05
   62.0299988      -1.32622972E-05
   62.1599998      -1.27805042E-05
   62.2900009      -1.22897336E-05
   62.4199982      -1.17902300E-05
   62.5499992      -1.12822563E-05
   62.6800003      -1.07660953E-05
   62.8100014      -1.02420654E-05
   62.9399986      -9.71051486E-06
   63.0699997      -9.17183206E-06
   63.2000008      -8.62644265E-06
   63.3300018      -8.07480137E-06
   63.4599991      -7.51739435E-06
   63.5900002      -6.95472500E-06
   63.7200012      -6.38730353E-06
   63.8499985      -5.81564109E-06
   63.9799995      -5.24023608E-06
   64.1100006      -4.66156598E-06
   64.2399979      -4.08008054E-06
   64.3700027      -3.49619927E-06
   64.5000000      -2.91030165E-06
   64.6299973      -2.32274101E-06
   64.7600021      -1.73383330E-06
   64.8899994      -1.14387990E-06
   65.0199966      -5.53160135E-07
   65.1500015       3.80478653E-08
   65.2799988       6.29463784E-07
   65.4100037       1.22079280E-06
   65.5400009       1.81171652E-06
   65.6699982       2.40189070E-06
   65.8000031       2.99093881E-06
   65.9300003       3.57845170E-06
   66.0599976       4.16399007E-06
   66.1900024       4.74708941E-06
   66.3199997       5.32726744E-06
   66.4499969       5.90403397E-06
   66.5800018       6.47689967E-06
   66.7099991       7.04538979E-06
   66.8399963       7.60904641E-06
   66.9700012       8.16744705E-06
   67.0999985       8.72020792E-06
   67.2300034       9.26698158E-06
   67.3600006       9.80746518E-06
   67.4899979       1.03413959E-05
   67.6200027       1.08685399E-05
   67.7500000       1.13886945E-05
   67.8799973       1.19016704E-05
   68.0100021       1.24072849E-05
   68.1399994       1.29053515E-05
   68.2699966       1.33956710E-05
   68.4000015       1.38780197E-05
   68.5299988       1.43521502E-05
   68.6600037       1.48177851E-05
   68.7900009       1.52746125E-05
   68.9199982       1.57223021E-05
   69.0500031       1.61604967E-05
   69.1800003       1.65888305E-05
   69.3099976       1.70069397E-05
   69.4400024       1.74144589E-05
   69.5699997       1.78110531E-05
   69.6999969       1.81964133E-05
   69.8300018       1.85702611E-05
   69.9599991       1.89323673E-05
   70.0899963       1.92825464E-05
   70.2200012       1.96206511E-05
   70.3499985       1.99465758E-05
   70.4800034       2.02602532E-05
   70.6100006       2.05616343E-05
   70.7399979       2.08506863E-05
   70.8700027       2.11273818E-05
   71.0000000       2.13916865E-05
   71.1299973       2.16435474E-05
   71.2600021       2.18828973E-05
   71.3899994       2.21096343E-05
   71.5199966       2.23236311E-05
   71.6500015       2.25247331E-05
   71.7799988       2.27127657E-05
   71.9100037       2.28875324E-05
   72.0400009       2.30488386E-05
   72.1699982       2.31964896E-05
   72.3000031       2.33303090E-05
   72.4300003       2.34501422E-05
   72.5599976       2.35558709E-05
   72.6900024       2.36474170E-05
   72.8199997       2.37247423E-05
   72.9499969       2.37878521E-05
   73.0800018       2.38367975E-05
   73.2099991       2.38716584E-05
   73.3399963       2.38925477E-05
   73.4700012       2.38995981E-05
   73.5999985       2.38929479E-05
   73.7300034       2.38727316E-05
   73.8600006       2.38390730E-05
   73.9899979       2.37920758E-05
   74.1200027       2.37318163E-05
   74.2500000       2.36583492E-05
   74.3799973       2.35716907E-05
   74.5100021       2.34718409E-05
   74.6399994       2.33587798E-05
   74.7699966       2.32324674E-05
   74.9000015       2.30928799E-05
   75.0299988       2.29399884E-05
   75.1600037       2.27737964E-05
   75.2900009       2.25943277E-05
   75.4199982       2.24016476E-05
   75.5500031       2.21958635E-05
   75.6800003       2.19771191E-05
   75.8099976       2.17456072E-05
   75.9400024       2.15015552E-05
   76.0699997       2.12452178E-05
   76.1999969       2.09768732E-05
   76.3300018       2.06968107E-05
   76.4599991       2.04053176E-05
   76.5899963       2.01026687E-05
   76.7200012       1.97891222E-05
   76.8499985       1.94649128E-05
   76.9800034       1.91302406E-05
   77.1100006       1.87852784E-05
   77.2399979       1.84301662E-05
   77.3700027       1.80650277E-05
   77.5000000       1.76899666E-05
   77.6299973       1.73050794E-05
   77.7600021       1.69104678E-05
   77.8899994       1.65062465E-05
   78.0199966       1.60925556E-05
   78.1500015       1.56695660E-05
   78.2799988       1.52374869E-05
   78.4100037       1.47965666E-05
   78.5400009       1.43470979E-05
   78.6699982       1.38894093E-05
   78.8000031       1.34238589E-05
   78.9300003       1.29508289E-05
   79.0599976       1.24707130E-05
   79.1900024       1.19839069E-05
   79.3199997       1.14907971E-05
   79.4499969       1.09917510E-05
   79.5800018       1.04871078E-05
   79.7099991       9.97717689E-06
   79.8399963       9.46222917E-06
   79.9700012       8.94250570E-06
   80.0999985       8.41821566E-06
   80.2300034       7.88954367E-06
   80.3600006       7.35666572E-06
   80.4899979       6.81974598E-06
   80.6200027       6.27895997E-06
   80.7500000       5.73450006E-06
   80.8799973       5.18658226E-06
   81.0100021       4.63545530E-06
   81.1399994       4.08140795E-06
   81.2699966       3.52476559E-06
   81.4000015       2.96588814E-06
   81.5299988       2.40516897E-06
   81.6600037       1.84302462E-06
   81.7900009       1.27988449E-06
   81.9199982       7.16179613E-07
   82.0500031       1.52336852E-07
   82.1800003      -4.11240023E-07
   82.3099976      -9.74171144E-07
   82.4400024      -1.53611450E-06
   82.5699997      -2.09676546E-06
   82.6999969      -2.65585663E-06
   82.8300018      -3.21315974E-06
   82.9599991      -3.76847652E-06
   83.0899963      -4.32163142E-06
   83.2200012      -4.87245825E-06
   83.3499985      -5.42079488E-06
   83.4800034      -5.96646851E-06
   83.6100006      -6.50928405E-06
   83.7399979      -7.04902095E-06
   83.8700027      -7.58542092E-06
   84.0000000      -8.11819064E-06
   84.1299973      -8.64700178E-06
   84.2600021      -9.17149373E-06
   84.3899994      -9.69127814E-06
   84.5199966      -1.02059566E-05
   84.6500015      -1.07151209E-05
   84.7799988      -1.12183734E-05
   84.9100037      -1.17153313E-05
   85.0400009      -1.22056408E-05
   85.1699982      -1.26889872E-05
   85.3000031      -1.31650959E-05
   85.4300003      -1.36337367E-05
   85.5599976      -1.40947213E-05
   85.6900024      -1.45479007E-05
   85.8199997      -1.49931584E-05
   85.9499969      -1.54303962E-05
   86.0800018      -1.58595267E-05
   86.2099991      -1.62804627E-05
   86.3399963      -1.66931040E-05
   86.4700012      -1.70973253E-05
   86.5999985      -1.74929773E-05
   86.7300034      -1.78798709E-05
   86.8600006      -1.82577824E-05