  -24.4200001         9.87594839E-18
  -24.2870007        -2.60536991E-11
  -24.1539993        -7.79892956E-11
  -24.0209999        -1.53873109E-10
  -23.8880005        -2.50224869E-10
  -23.7549992        -3.62372687E-10
  -23.6219997        -4.84912721E-10
  -23.4890003        -6.12228712E-10
  -23.3560009        -7.39021677E-10
  -23.2229996        -8.60802041E-10
  -23.0900002        -9.74301306E-10
  -22.9570007        -1.07776832E-09
  -22.8239994        -1.17112708E-09
  -22.6910000        -1.25598720E-09
  -22.5580006        -1.33550726E-09
  -22.4249992        -1.41412582E-09
  -22.2919998        -1.49718260E-09
  -22.1590004        -1.59046398E-09
  -22.0259991        -1.69970815E-09
  -21.8929996        -1.83011406E-09
  -21.7600002        -1.98589367E-09
  -21.6270008        -2.16990981E-09
  -21.4939995        -2.38343145E-09
  -21.3610001        -2.62603339E-09
  -21.2280006        -2.89565016E-09
  -21.0949993        -3.18878635E-09
  -20.9619999        -3.50086449E-09
  -20.8290005        -3.82668031E-09
  -20.6959991        -4.16092183E-09
  -20.5629997        -4.49870985E-09
  -20.4300003        -4.83609686E-09
  -20.2970009        -5.17048582E-09
  -20.1639996        -5.50092327E-09
  -20.0310001        -5.82824233E-09
  -19.8980007        -6.15504314E-09
  -19.7649994        -6.48551524E-09
  -19.6320000        -6.82512313E-09
  -19.4990005        -7.18018400E-09
  -19.3659992        -7.55737428E-09
  -19.2329998        -7.96322475E-09
  -19.1000004        -8.40362890E-09
  -18.9669991        -8.88342289E-09
  -18.8339996        -9.40605371E-09
  -18.7010002        -9.97338034E-09
  -18.5680008        -1.05856168E-08
  -18.4349995        -1.12414007E-08
  -18.3020000        -1.19380195E-08
  -18.1690006        -1.26717437E-08
  -18.0359993        -1.34382532E-08
  -17.9029999        -1.42331258E-08
  -17.7700005        -1.50523309E-08
  -17.6369991        -1.58927111E-08
  -17.5039997        -1.67523702E-08
  -17.3710003        -1.76309882E-08
  -17.2380009        -1.85299527E-08
  -17.1049995        -1.94523757E-08
  -16.9720001        -2.04029202E-08
  -16.8390007        -2.13875140E-08
  -16.7059994        -2.24129195E-08
  -16.5730000        -2.34862405E-08
  -16.4400005        -2.46143976E-08
  -16.3069992        -2.58036241E-08
  -16.1739998        -2.70590341E-08
  -16.0410004        -2.83842940E-08
  -15.9080000        -2.97814449E-08
  -15.7749996        -3.12508632E-08
  -15.6420002        -3.27913874E-08
  -15.5089998        -3.44005464E-08
  -15.3760004        -3.60749688E-08
  -15.2430000        -3.78107821E-08
  -15.1099997        -3.96041209E-08
  -14.9770002        -4.14515888E-08
  -14.8439999        -4.33506848E-08
  -14.7110004        -4.53001796E-08
  -14.5780001        -4.73003361E-08
  -14.4449997        -4.93530621E-08
  -14.3120003        -5.14618606E-08
  -14.1789999        -5.36316946E-08
  -14.0459995        -5.58686857E-08
  -13.9130001        -5.81797330E-08
  -13.7799997        -6.05720629E-08
  -13.6470003        -6.30526742E-08
  -13.5139999        -6.56279298E-08
  -13.3809996        -6.83030450E-08
  -13.2480001        -7.10817716E-08
  -13.1149998        -7.39662340E-08
  -12.9820004        -7.69567947E-08
  -12.8490000        -8.00522031E-08
  -12.7159996        -8.32498301E-08
  -12.5830002        -8.65460450E-08
  -12.4499998        -8.99366341E-08
  -12.3170004        -9.34173272E-08
  -12.1840000        -9.69843015E-08
  -12.0509996        -1.00634601E-07
  -11.9180002        -1.04366492E-07
  -11.7849998        -1.08179691E-07
  -11.6520004        -1.12075469E-07
  -11.5190001        -1.16056583E-07
  -11.3859997        -1.20127112E-07
  -11.2530003        -1.24292100E-07
  -11.1199999        -1.28557247E-07
  -10.9870005        -1.32928378E-07
  -10.8540001        -1.37411007E-07
  -10.7209997        -1.42009853E-07
  -10.5880003        -1.46728468E-07
  -10.4549999        -1.51568941E-07
  -10.3219995        -1.56531627E-07
  -10.1890001        -1.61615162E-07
  -10.0559998        -1.66816477E-07
  -9.92300034        -1.72131081E-07
  -9.78999996        -1.77553360E-07
  -9.65699959        -1.83077020E-07
  -9.52400017        -1.88695523E-07
  -9.39099979        -1.94402688E-07
  -9.25800037        -2.00193085E-07
  -9.12500000        -2.06062339E-07
  -8.99199963        -2.12007535E-07
  -8.85900021        -2.18027168E-07
  -8.72599983        -2.24121138E-07
  -8.59300041        -2.30290539E-07
  -8.46000004        -2.36537389E-07
  -8.32699966        -2.42864076E-07
  -8.19400024        -2.49272972E-07
  -8.06099987        -2.55766025E-07
  -7.92799997        -2.62344116E-07
  -7.79500008        -2.69006932E-07
  -7.66200018        -2.75752512E-07
  -7.52899981        -2.82577304E-07
  -7.39599991        -2.89476162E-07
  -7.26300001        -2.96442352E-07
  -7.13000011        -3.03468113E-07
  -6.99700022        -3.10544834E-07
  -6.86399984        -3.17663563E-07
  -6.73099995        -3.24815431E-07
  -6.59800005        -3.31992055E-07
  -6.46500015        -3.39186016E-07
  -6.33199978        -3.46390976E-07
  -6.19899988        -3.53601990E-07
  -6.06599998        -3.60815193E-07
  -5.93300009        -3.68027941E-07
  -5.80000019        -3.75238244E-07
  -5.66699982        -3.82444483E-07
  -5.53399992        -3.89644754E-07
  -5.40100002        -3.96836185E-07
  -5.26800013        -4.04014742E-07
  -5.13500023        -4.11174398E-07
  -5.00199986        -4.18306826E-07
  -4.86899996        -4.25401481E-07
  -4.73600006        -4.32445347E-07
  -4.60300016        -4.39423445E-07
  -4.46999979        -4.46318808E-07
  -4.33699989        -4.53113586E-07
  -4.20400000        -4.59789305E-07
  -4.07100010        -4.66327634E-07
  -3.93799996        -4.72711264E-07
  -3.80500007        -4.78924221E-07
  -3.67199993        -4.84952807E-07
  -3.53900003        -4.90785169E-07
  -3.40599990        -4.96412213E-07
  -3.27300000        -5.01827003E-07
  -3.14000010        -5.07024538E-07
  -3.00699997        -5.12001179E-07
  -2.87400007        -5.16754255E-07
  -2.74099994        -5.21280867E-07
  -2.60800004        -5.25577434E-07
  -2.47499990        -5.29638953E-07
  -2.34200001        -5.33458035E-07
  -2.20900011        -5.37024675E-07
  -2.07599998        -5.40325516E-07
  -1.94299996        -5.43344413E-07
  -1.80999994        -5.46062211E-07
  -1.67700005        -5.48457024E-07
  -1.54400003        -5.50505490E-07
  -1.41100001        -5.52183167E-07
  -1.27800000        -5.53465497E-07
  -1.14499998        -5.54329119E-07
  -1.01199996        -5.54752205E-07
 -0.879000008        -5.54715712E-07
 -0.745999992        -5.54203552E-07
 -0.612999976        -5.53203279E-07
 -0.479999989        -5.51705682E-07
 -0.347000003        -5.49704794E-07
 -0.214000002        -5.47197089E-07
  -8.10000002E-02    -5.44181034E-07
   5.20000011E-02    -5.40656231E-07
  0.185000002        -5.36622110E-07
  0.317999989        -5.32077252E-07
  0.451000005        -5.27018187E-07
  0.583999991        -5.21439063E-07
  0.717000008        -5.15331010E-07
  0.850000024        -5.08681808E-07
  0.982999980        -5.01475711E-07
   1.11600006        -4.93693847E-07
   1.24899995        -4.85315013E-07
   1.38199997        -4.76316131E-07
   1.51499999        -4.66673214E-07
   1.64800000        -4.56362272E-07
   1.78100002        -4.45360769E-07
   1.91400003        -4.33647841E-07
   2.04699993        -4.21205385E-07
   2.18000007        -4.08018906E-07
   2.31299996        -3.94077205E-07
   2.44600010        -3.79372750E-07
   2.57900000        -3.63901137E-07
   2.71199989        -3.47660858E-07
   2.84500003        -3.30652171E-07
   2.97799993        -3.12876324E-07
   3.11100006        -2.94334910E-07
   3.24399996        -2.75028583E-07
   3.37700009        -2.54956944E-07
   3.50999999        -2.34116996E-07
   3.64299989        -2.12503565E-07
   3.77600002        -1.90108935E-07
   3.90899992        -1.66922959E-07
   4.04199982        -1.42933288E-07
   4.17500019        -1.18125975E-07
   4.30800009        -9.24862391E-08
   4.44099998        -6.59993091E-08
   4.57399988        -3.86509100E-08
   4.70699978        -1.04282467E-08
   4.84000015         1.86792910E-08
   4.97300005         4.86798193E-08
   5.10599995         7.95785482E-08
   5.23899984         1.11377823E-07
   5.37200022         1.44077433E-07
   5.50500011         1.77674707E-07
   5.63800001         2.12165361E-07
   5.77099991         2.47544165E-07
   5.90399981         2.83805775E-07
   6.03700018         3.20945389E-07
   6.17000008         3.58959483E-07
   6.30299997         3.97846463E-07
   6.43599987         4.37606843E-07
   6.56899977         4.78243635E-07
   6.70200014         5.19761841E-07
   6.83500004         5.62168566E-07
   6.96799994         6.05472280E-07
   7.10099983         6.49682022E-07
   7.23400021         6.94807227E-07
   7.36700010         7.40856478E-07
   7.50000000         7.87837166E-07
   7.63299990         8.35754690E-07
   7.76599979         8.84612234E-07
   7.89900017         9.34410537E-07
   8.03199959         9.85147608E-07
   8.16499996         1.03681930E-06
   8.29800034         1.08941902E-06
   8.43099976         1.14293869E-06
   8.56400013         1.19736933E-06
   8.69699955         1.25270117E-06
   8.82999992         1.30892465E-06
   8.96300030         1.36603069E-06
   9.09599972         1.42401120E-06
   9.22900009         1.48285937E-06
   9.36200047         1.54256929E-06
   9.49499989         1.60313618E-06
   9.62800026         1.66455595E-06
   9.76099968         1.72682439E-06
   9.89400005         1.78993673E-06
   10.0270004         1.85388683E-06
   10.1599998         1.91866684E-06
   10.2930002         1.98426574E-06
   10.4259996         2.05066999E-06
   10.5590000         2.11786164E-06
   10.6920004         2.18581954E-06
   10.8249998         2.25451890E-06
   10.9580002         2.32393063E-06
   11.0909996         2.39402357E-06
   11.2240000         2.46476293E-06
   11.3570004         2.53611211E-06
   11.4899998         2.60803245E-06
   11.6230001         2.68048484E-06
   11.7559996         2.75342836E-06
   11.8889999         2.82682186E-06
   12.0220003         2.90062417E-06
   12.1549997         2.97479255E-06
   12.2880001         3.04928403E-06
   12.4209995         3.12405359E-06
   12.5539999         3.19905462E-06
   12.6870003         3.27423800E-06
   12.8199997         3.34955007E-06
   12.9530001         3.42493422E-06
   13.0860004         3.50032815E-06
   13.2189999         3.57566455E-06
   13.3520002         3.65087067E-06
   13.4849997         3.72586805E-06
   13.6180000         3.80057281E-06
   13.7510004         3.87489581E-06
   13.8839998         3.94874314E-06
   14.0170002         4.02201704E-06
   14.1499996         4.09461700E-06
   14.2830000         4.16644116E-06
   14.4160004         4.23738356E-06
   14.5489998         4.30733871E-06
   14.6820002         4.37620065E-06
   14.8149996         4.44386160E-06
   14.9480000         4.51021560E-06
   15.0810003         4.57515443E-06
   15.2139997         4.63856622E-06
   15.3470001         4.70034183E-06
   15.4799995         4.76036575E-06
   15.6129999         4.81852067E-06
   15.7460003         4.87468515E-06
   15.8789997         4.92873232E-06
   16.0119991         4.98053032E-06
   16.1450005         5.02994089E-06
   16.2779999         5.07682216E-06
   16.4109993         5.12102406E-06
   16.5440006         5.16239379E-06
   16.6770000         5.20077219E-06
   16.8099995         5.23599783E-06
   16.9430008         5.26790654E-06
   17.0760002         5.29632962E-06
   17.2089996         5.32110198E-06
   17.3419991         5.34205537E-06
   17.4750004         5.35902063E-06
   17.6079998         5.37183132E-06
   17.7409992         5.38032100E-06
   17.8740005         5.38432369E-06
   18.0070000         5.38367294E-06
   18.1399994         5.37820051E-06
   18.2730007         5.36774087E-06
   18.4060001         5.35212121E-06
   18.5389996         5.33116872E-06
   18.6720009         5.30470561E-06
   18.8050003         5.27255088E-06
   18.9379997         5.23451899E-06
   19.0709991         5.19041987E-06
   19.2040005         5.14006206E-06
   19.3369999         5.08324729E-06
   19.4699993         5.01977820E-06
   19.6030006         4.94945471E-06
   19.7360001         4.87207853E-06
   19.8689995         4.78745005E-06
   20.0020008         4.69537554E-06
   20.1350002         4.59566309E-06
   20.2679996         4.48812625E-06
   20.4009991         4.37258359E-06
   20.5340004         4.24885911E-06
   20.6669998         4.11678320E-06
   20.7999992         3.97619169E-06
   20.9330006         3.82692724E-06
   21.0660000         3.66883637E-06
   21.1989994         3.50176947E-06
   21.3320007         3.32558147E-06
   21.4650002         3.14012823E-06
   21.5979996         2.94527104E-06
   21.7310009         2.74087097E-06
   21.8640003         2.52679365E-06
   21.9969997         2.30290493E-06
   22.1299992         2.06907703E-06
   22.2630005         1.82518625E-06
   22.3959999         1.57111265E-06
   22.5289993         1.30674471E-06
   22.6620007         1.03197783E-06
   22.7950001         7.46718285E-07
   22.9279995         4.50882027E-07
   23.0610008         1.44397973E-07
   23.1940002        -1.72794230E-07
   23.3269997        -5.00742146E-07
   23.4599991        -8.39480037E-07
   23.5930004        -1.18902813E-06
   23.7259998        -1.54939687E-06
   23.8589993        -1.92058292E-06
   23.9920006        -2.30257433E-06
   24.1250000        -2.69534689E-06
   24.2579994        -3.09886968E-06
   24.3910007        -3.51310223E-06
   24.5240002        -3.93799564E-06
   24.6569996        -4.37349399E-06
   24.7900009        -4.81953157E-06
   24.9230003        -5.27603788E-06
   25.0559998        -5.74293153E-06
   25.1889992        -6.22012112E-06
   25.3220005        -6.70750524E-06
   25.4549999        -7.20496973E-06
   25.5879993        -7.71238774E-06
   25.7210007        -8.22962193E-06
   25.8540001        -8.75651676E-06
   25.9869995        -9.29290400E-06
   26.1200008        -9.83859991E-06
   26.2530003        -1.03934053E-05
   26.3859997        -1.09571092E-05
   26.5189991        -1.15294861E-05
   26.6520004        -1.21102967E-05
   26.7849998        -1.26992882E-05
   26.9179993        -1.32962004E-05
   27.0510006        -1.39007616E-05
   27.1840000        -1.45126951E-05
   27.3169994        -1.51317090E-05
   27.4500008        -1.57575068E-05
   27.5830002        -1.63897876E-05
   27.7159996        -1.70282365E-05
   27.8490009        -1.76725298E-05
   27.9820004        -1.83223437E-05
   28.1149998        -1.89773345E-05
   28.2479992        -1.96371529E-05
   28.3810005        -2.03014406E-05
   28.5139999        -2.09698228E-05
   28.6469994        -2.16419139E-05
   28.7800007        -2.23173174E-05
   28.9130001        -2.29956277E-05
   29.0459995        -2.36764226E-05
   29.1790009        -2.43592713E-05
   29.3120003        -2.50437351E-05
   29.4449997        -2.57293686E-05
   29.5779991        -2.64157134E-05
   29.7110004        -2.71023073E-05
   29.8439999        -2.77886902E-05
   29.9769993        -2.84743928E-05
   30.1100006        -2.91589477E-05
   30.2430000        -2.98418800E-05
   30.3759995        -3.05227186E-05
   30.5090008        -3.12009870E-05
   30.6420002        -3.18762177E-05
   30.7749996        -3.25479341E-05
   30.9080009        -3.32156524E-05
   31.0410004        -3.38788959E-05
   31.1739998        -3.45371845E-05
   31.3069992        -3.51900308E-05
   31.4400005        -3.58369507E-05
   31.5730000        -3.64774460E-05
   31.7059994        -3.71110327E-05
   31.8390007        -3.77372089E-05
   31.9720001        -3.83554834E-05
   32.1049995        -3.89653615E-05
   32.2379990        -3.95663519E-05
   32.3709984        -4.01579600E-05
   32.5040016        -4.07397092E-05
   32.6370010        -4.13111156E-05
   32.7700005        -4.18717100E-05
   32.9029999        -4.24210266E-05
   33.0359993        -4.29586180E-05
   33.1689987        -4.34840331E-05
   33.3019981        -4.39968426E-05
   33.4350014        -4.44966172E-05
   33.5680008        -4.49829313E-05
   33.7010002        -4.54553883E-05
   33.8339996        -4.59135808E-05
   33.9669991        -4.63571123E-05
   34.0999985        -4.67856007E-05
   34.2330017        -4.71986605E-05
   34.3660011        -4.75959168E-05
   34.4990005        -4.79770060E-05
   34.6320000        -4.83415752E-05
   34.7649994        -4.86892714E-05
   34.8979988        -4.90197526E-05
   35.0309982        -4.93326916E-05
   35.1640015        -4.96277826E-05
   35.2970009        -4.99047237E-05
   35.4300003        -5.01632203E-05
   35.5629997        -5.04030068E-05
   35.6959991        -5.06238321E-05
   35.8289986        -5.08254598E-05
   35.9620018        -5.10076643E-05
   36.0950012        -5.11702419E-05
   36.2280006        -5.13130035E-05
   36.3610001        -5.14357707E-05
   36.4939995        -5.15383908E-05
   36.6269989        -5.16207147E-05
   36.7599983        -5.16826003E-05
   36.8930016        -5.17239314E-05
   37.0260010        -5.17445915E-05
   37.1590004        -5.17444823E-05
   37.2919998        -5.17235167E-05
   37.4249992        -5.16816181E-05
   37.5579987        -5.16187247E-05
   37.6910019        -5.15347856E-05
   37.8240013        -5.14297681E-05
   37.9570007        -5.13036539E-05
   38.0900002        -5.11564431E-05
   38.2229996        -5.09881575E-05
   38.3559990        -5.07988261E-05
   38.4889984        -5.05885182E-05
   38.6220016        -5.03573065E-05
   38.7550011        -5.01052782E-05
   38.8880005        -4.98325535E-05
   39.0209999        -4.95392596E-05
   39.1539993        -4.92255349E-05
   39.2869987        -4.88915503E-05
   39.4199982        -4.85374767E-05
   39.5530014        -4.81634961E-05
   39.6860008        -4.77698122E-05
   39.8190002        -4.73566324E-05
   39.9519997        -4.69241750E-05
   40.0849991        -4.64726727E-05
   40.2179985        -4.60023621E-05
   40.3510017        -4.55134941E-05
   40.4840012        -4.50063271E-05
   40.6170006        -4.44811485E-05
   40.7500000        -4.39382275E-05
   40.8829994        -4.33778732E-05
   41.0159988        -4.28003914E-05
   41.1489983        -4.22061275E-05
   41.2820015        -4.15954128E-05
   41.4150009        -4.09686181E-05
   41.5480003        -4.03261074E-05
   41.6809998        -3.96682735E-05
   41.8139992        -3.89955130E-05
   41.9469986        -3.83082443E-05
   42.0800018        -3.76068820E-05
   42.2130013        -3.68918627E-05
   42.3460007        -3.61636157E-05
   42.4790001        -3.54225922E-05
   42.6119995        -3.46692359E-05
   42.7449989        -3.39039943E-05
   42.8779984        -3.31273259E-05
   43.0110016        -3.23396926E-05
   43.1440010        -3.15415564E-05
   43.2770004        -3.07333830E-05
   43.4099998        -2.99156436E-05
   43.5429993        -2.90888165E-05
   43.6759987        -2.82533874E-05
   43.8089981        -2.74098456E-05
   43.9420013        -2.65586896E-05
   44.0750008        -2.57004267E-05
   44.2080002        -2.48355664E-05
   44.3409996        -2.39646306E-05
   44.4739990        -2.30881415E-05
   44.6069984        -2.22066337E-05
   44.7400017        -2.13206367E-05
   44.8730011        -2.04306871E-05
   45.0060005        -1.95373177E-05
   45.1389999        -1.86410616E-05
   45.2719994        -1.77424536E-05
   45.4049988        -1.68420120E-05
   45.5379982        -1.59402625E-05
   45.6710014        -1.50377200E-05
   45.8040009        -1.41348937E-05
   45.9370003        -1.32322884E-05
   46.0699997        -1.23304080E-05
   46.2029991        -1.14297472E-05
   46.3359985        -1.05307981E-05
   46.4690018        -9.63405273E-06
   46.6020012        -8.73999761E-06
   46.7350006        -7.84912208E-06
   46.8680000        -6.96190955E-06
   47.0009995        -6.07884522E-06
   47.1339989        -5.20041249E-06
   47.2669983        -4.32709066E-06
   47.4000015        -3.45935655E-06
   47.5330009        -2.59768308E-06
   47.6660004        -1.74253444E-06
   47.7989998        -8.94369350E-07
   47.9319992        -5.36353113E-08
   48.0649986         7.79230959E-07
   48.1980019         1.60380409E-06
   48.3310013         2.41967064E-06
   48.4640007         3.22643200E-06
   48.5970001         4.02370188E-06
   48.7299995         4.81110555E-06
   48.8629990         5.58828333E-06
   48.9959984         6.35488368E-06
   49.1290016         7.11056782E-06
   49.2620010         7.85500561E-06
   49.3950005         8.58787644E-06
   49.5279999         9.30886745E-06
   49.6609993         1.00176721E-05
   49.7939987         1.07139940E-05
   49.9269981         1.13975429E-05
   50.0600014         1.20680379E-05
   50.1930008         1.27252079E-05
   50.3260002         1.33687909E-05
   50.4589996         1.39985386E-05
   50.5919991         1.46142138E-05
   50.7249985         1.52155953E-05
   50.8580017         1.58024777E-05
   50.9910011         1.63746718E-05
   51.1240005         1.69320010E-05
   51.2570000         1.74743127E-05
   51.3899994         1.80014667E-05
   51.5229988         1.85133376E-05
   51.6559982         1.90098162E-05
   51.7890015         1.94908116E-05
   51.9220009         1.99562364E-05
   52.0550003         2.04060234E-05
   52.1879997         2.08401088E-05
   52.3209991         2.12584400E-05
   52.4539986         2.16609733E-05
   52.5870018         2.20476686E-05
   52.7200012         2.24185023E-05
   52.8530006         2.27734490E-05
   52.9860001         2.31125014E-05
   53.1189995         2.34356503E-05
   53.2519989         2.37429085E-05
   53.3849983         2.40342943E-05
   53.5180016         2.43098366E-05
   53.6510010         2.45695846E-05
   53.7840004         2.48135966E-05
   53.9169998         2.50419471E-05
   54.0499992         2.52547215E-05
   54.1829987         2.54520219E-05
   54.3160019         2.56339590E-05
   54.4490013         2.58006567E-05
   54.5820007         2.59522494E-05
   54.7150002         2.60888792E-05
   54.8479996         2.62106932E-05
   54.9809990         2.63178445E-05
   55.1139984         2.64104929E-05
   55.2470016         2.64887949E-05
   55.3800011         2.65529161E-05
   55.5130005         2.66030238E-05
   55.6459999         2.66392854E-05
   55.7789993         2.66618754E-05
   55.9119987         2.66709721E-05
   56.0449982         2.66667557E-05
   56.1780014         2.66494171E-05
   56.3110008         2.66191546E-05
   56.4440002         2.65761701E-05
   56.5769997         2.65206781E-05
   56.7099991         2.64529008E-05
   56.8429985         2.63730653E-05
   56.9760017         2.62814065E-05
   57.1090012         2.61781679E-05
   57.2420006         2.60635916E-05
   57.3750000         2.59379249E-05
   57.5079994         2.58014152E-05
   57.6409988         2.56543080E-05
   57.7739983         2.54968490E-05
   57.9070015         2.53292765E-05
   58.0400009         2.51518268E-05
   58.1730003         2.49647310E-05
   58.3059998         2.47682092E-05
   58.4389992         2.45624869E-05
   58.5719986         2.43477753E-05
   58.7050018         2.41242942E-05
   58.8380013         2.38922494E-05
   58.9710007         2.36518517E-05
   59.1040001         2.34033141E-05
   59.2369995         2.31468439E-05
   59.3699989         2.28826539E-05
   59.5029984         2.26109587E-05
   59.6360016         2.23319730E-05
   59.7690010         2.20459115E-05
   59.9020004         2.17529887E-05
   60.0349998         2.14534193E-05
   60.1679993         2.11474071E-05
   60.3009987         2.08351594E-05
   60.4339981         2.05168708E-05
   60.5670013         2.01927287E-05
   60.7000008         1.98629132E-05
   60.8330002         1.95275970E-05
   60.9659996         1.91869349E-05
   61.0989990         1.88410813E-05
   61.2319984         1.84901783E-05
   61.3650017         1.81343603E-05
   61.4980011         1.77737584E-05
   61.6310005         1.74084944E-05
   61.7639999         1.70386920E-05
   61.8969994         1.66644695E-05
   62.0299988         1.62859469E-05
   62.1629982         1.59032461E-05
   62.2960014         1.55164835E-05
   62.4290009         1.51257855E-05
   62.5620003         1.47312721E-05
   62.6949997         1.43330653E-05
   62.8279991         1.39312851E-05
   62.9609985         1.35260507E-05
   63.0940018         1.31174756E-05
   63.2270012         1.27056683E-05
   63.3600006         1.22907322E-05
   63.4930000         1.18727639E-05
   63.6259995         1.14518534E-05
   63.7589989         1.10280807E-05
   63.8919983         1.06015250E-05
   64.0250015         1.01722544E-05
   64.1579971         9.74033719E-06
   64.2910004         9.30583610E-06
   64.4240036         8.86881389E-06
   64.5569992         8.42933423E-06
   64.6900024         7.98746169E-06
   64.8229980         7.54326629E-06
   64.9560013         7.09681899E-06
   65.0889969         6.64819572E-06
   65.2220001         6.19747652E-06
   65.3550034         5.74474461E-06
   65.4879990         5.29008867E-06
   65.6210022         4.83359554E-06
   65.7539978         4.37535482E-06
   65.8870010         3.91545518E-06
   66.0199966         3.45398348E-06
   66.1529999         2.99102226E-06
   66.2860031         2.52665336E-06
   66.4189987         2.06095433E-06
   66.5520020         1.59399974E-06
   66.6849976         1.12586099E-06
   66.8180008         6.56610382E-07
   66.9509964         1.86318829E-07
   67.0839996        -2.84940569E-07
   67.2170029        -7.57091129E-07
   67.3499985        -1.23005088E-06
   67.4830017        -1.70373141E-06
   67.6159973        -2.17803608E-06
   67.7490005        -2.65286008E-06
   67.8820038        -3.12808834E-06
   68.0149994        -3.60359877E-06
   68.1480026        -4.07926018E-06
   68.2809982        -4.55493318E-06
   68.4140015        -5.03047659E-06
   68.5469971        -5.50574214E-06
   68.6800003        -5.98057795E-06
   68.8130035        -6.45483260E-06
   68.9459991        -6.92835147E-06
   69.0790024        -7.40098449E-06
   69.2119980        -7.87257613E-06
   69.3450012        -8.34297498E-06
   69.4779968        -8.81202959E-06
   69.6110001        -9.27958718E-06
   69.7440033        -9.74549130E-06
   69.8769989        -1.02095837E-05
   70.0100021        -1.06716989E-05
   70.1429977        -1.11316667E-05
   70.2760010        -1.15893072E-05
   70.4089966        -1.20444320E-05
   70.5419998        -1.24968446E-05
   70.6750031        -1.29463360E-05
   70.8079987        -1.33926924E-05
   70.9410019        -1.38356872E-05
   71.0739975        -1.42750941E-05
   71.2070007        -1.47106766E-05
   71.3399963        -1.51421982E-05
   71.4729996        -1.55694197E-05
   71.6060028        -1.59921055E-05
   71.7389984        -1.64100184E-05
   71.8720016        -1.68229308E-05
   72.0049973        -1.72306172E-05
   72.1380005        -1.76328576E-05
   72.2710037        -1.80294319E-05
   72.4039993        -1.84201290E-05
   72.5370026        -1.88047434E-05
   72.6699982        -1.91830659E-05
   72.8030014        -1.95548910E-05
   72.9359970        -1.99200113E-05
   73.0690002        -2.02782157E-05
   73.2020035        -2.06292934E-05
   73.3349991        -2.09730279E-05
   73.4680023        -2.13091989E-05
   73.6009979        -2.16375811E-05
   73.7340012        -2.19579506E-05
   73.8669968        -2.22700837E-05
   74.0000000        -2.25737513E-05
   74.1330032        -2.28687295E-05
   74.2659988        -2.31548001E-05
   74.3990021        -2.34317540E-05
   74.5319977        -2.36993837E-05
   74.6650009        -2.39574947E-05
   74.7979965        -2.42059014E-05
   74.9309998        -2.44444327E-05
   75.0640030        -2.46729251E-05
   75.1969986        -2.48912238E-05
   75.3300018        -2.50991834E-05
   75.4629974        -2.52966711E-05
   75.5960007        -2.54835504E-05
   75.7289963        -2.56596977E-05
   75.8619995        -2.58249893E-05
   75.9950027        -2.59793032E-05
   76.1279984        -2.61225196E-05
   76.2610016        -2.62545236E-05
   76.3939972        -2.63751954E-05
   76.5270004        -2.64844221E-05
   76.6600037        -2.65820945E-05
   76.7929993        -2.66681036E-05
   76.9260025        -2.67423529E-05
   77.0589981        -2.68047479E-05
   77.1920013        -2.68552067E-05
   77.3249969        -2.68936601E-05
   77.4580002        -2.69200464E-05
   77.5910034        -2.69343200E-05
   77.7239990        -2.69364500E-05
   77.8570023        -2.69264128E-05
   77.9899979        -2.69042011E-05
   78.1230011        -2.68698150E-05
   78.2559967        -2.68232652E-05
   78.3889999        -2.67645719E-05
   78.5220032        -2.66937623E-05
   78.6549988        -2.66108618E-05
   78.7880020        -2.65159088E-05
   78.9209976        -2.64089376E-05
   79.0540009        -2.62899885E-05
   79.1869965        -2.61591013E-05
   79.3199997        -2.60163233E-05
   79.4530029        -2.58617038E-05
   79.5859985        -2.56952990E-05
   79.7190018        -2.55171726E-05
   79.8519974        -2.53273956E-05
   79.9850006        -2.51260481E-05
   80.1179962        -2.49132263E-05
   80.2509995        -2.46890322E-05
   80.3840027        -2.44535822E-05
   80.5169983        -2.42070073E-05
   80.6500015        -2.39494493E-05
   80.7829971        -2.36810611E-05
   80.9160004        -2.34020008E-05
   81.0490036        -2.31124395E-05
   81.1819992        -2.28125573E-05
   81.3150024        -2.25025287E-05
   81.4479980        -2.21825430E-05
   81.5810013        -2.18527839E-05
   81.7139969        -2.15134405E-05
   81.8470001        -2.11647002E-05
   81.9800034        -2.08067559E-05
   82.1129990        -2.04397966E-05
   82.2460022        -2.00640170E-05
   82.3789978        -1.96796191E-05
   82.5120010        -1.92868029E-05
   82.6449966        -1.88857794E-05
   82.7779999        -1.84767687E-05
   82.9110031        -1.80599945E-05
   83.0439987        -1.76356934E-05
   83.1770020        -1.72041109E-05