  -24.4200001        -3.44073014E-18
  -24.2870007        -2.46476659E-11
  -24.1539993        -7.03810413E-11
  -24.0209999        -1.29534564E-10
  -23.8880005        -1.92419983E-10
  -23.7549992        -2.49925608E-10
  -23.6219997        -2.95947683E-10
  -23.4890003        -3.29012401E-10
  -23.3560009        -3.52660234E-10
  -23.2229996        -3.74492160E-10
  -23.0900002        -4.04130590E-10
  -22.9570007        -4.50633503E-10
  -22.8239994        -5.20046617E-10
  -22.6910000        -6.13742168E-10
  -22.5580006        -7.27986060E-10
  -22.4249992        -8.54854187E-10
  -22.2919998        -9.84261672E-10
  -22.1590004        -1.10657916E-09
  -22.0259991        -1.21515309E-09
  -21.8929996        -1.30807409E-09
  -21.7600002        -1.38873113E-09
  -21.6270008        -1.46500900E-09
  -21.4939995        -1.54733970E-09
  -21.3610001        -1.64611857E-09
  -21.2280006        -1.76915738E-09
  -21.0949993        -1.91984162E-09
  -20.9619999        -2.09646367E-09
  -20.8290005        -2.29290320E-09
  -20.6959991        -2.50046073E-09
  -20.5629997        -2.71036193E-09
  -20.4300003        -2.91626034E-09
  -20.2970009        -3.11607629E-09
  -20.1639996        -3.31268679E-09
  -20.0310001        -3.51328389E-09
  -19.8980007        -3.72756803E-09
  -19.7649994        -3.96526678E-09
  -19.6320000        -4.23362545E-09
  -19.4990005        -4.53555371E-09
  -19.3659992        -4.86891327E-09
  -19.2329998        -5.22715293E-09
  -19.1000004        -5.60112712E-09
  -18.9669991        -5.98163163E-09
  -18.8339996        -6.36197894E-09
  -18.7010002        -6.73995926E-09
  -18.5680008        -7.11864745E-09
  -18.4349995        -7.50584928E-09
  -18.3020000        -7.91233301E-09
  -18.1690006        -8.34929104E-09
  -18.0359993        -8.82570816E-09
  -17.9029999        -9.34630595E-09
  -17.7700005        -9.91060656E-09
  -17.6369991        -1.05133608E-08
  -17.5039997        -1.11461995E-08
  -17.3710003        -1.18001102E-08
  -17.2380009        -1.24680417E-08
  -17.1049995        -1.31469999E-08
  -16.9720001        -1.38390455E-08
  -16.8390007        -1.45509764E-08
  -16.7059994        -1.52927644E-08
  -16.5730000        -1.60751590E-08
  -16.4400005        -1.69071335E-08
  -16.3069992        -1.77937967E-08
  -16.1739998        -1.87353724E-08
  -16.0410004        -1.97274908E-08
  -15.9080000        -2.07627124E-08
  -15.7749996        -2.18329070E-08
  -15.6420002        -2.29318200E-08
  -15.5089998        -2.40571687E-08
  -15.3760004        -2.52117065E-08
  -15.2430000        -2.64029651E-08
  -15.1099997        -2.76417165E-08
  -14.9770002        -2.89395850E-08
  -14.8439999        -3.03063992E-08
  -14.7110004        -3.17480087E-08
  -14.5780001        -3.32650991E-08
  -14.4449997        -3.48533788E-08
  -14.3120003        -3.65049999E-08
  -14.1789999        -3.82109704E-08
  -14.0459995        -3.99637941E-08
  -13.9130001        -4.17597548E-08
  -13.7799997        -4.36002310E-08
  -13.6470003        -4.54916105E-08
  -13.5139999        -4.74439972E-08
  -13.3809996        -4.94688983E-08
  -13.2480001        -5.15765883E-08
  -13.1149998        -5.37738565E-08
  -12.9820004        -5.60626248E-08
  -12.8490000        -5.84399515E-08
  -12.7159996        -6.08992394E-08
  -12.5830002        -6.34324877E-08
  -12.4499998        -6.60328396E-08
  -12.3170004        -6.86968420E-08
  -12.1840000        -7.14258306E-08
  -12.0509996        -7.42259090E-08
  -11.9180002        -7.71068045E-08
  -11.7849998        -8.00795732E-08
  -11.6520004        -8.31540561E-08
  -11.5190001        -8.63365557E-08
  -11.3859997        -8.96284575E-08
  -11.2530003        -9.30260882E-08
  -11.1199999        -9.65219442E-08
  -10.9870005        -1.00106945E-07
  -10.8540001        -1.03772983E-07
  -10.7209997        -1.07515369E-07
  -10.5880003        -1.11334288E-07
  -10.4549999        -1.15235082E-07
  -10.3219995        -1.19227039E-07
  -10.1890001        -1.23321243E-07
  -10.0559998        -1.27527940E-07
  -9.92300034        -1.31854023E-07
  -9.78999996        -1.36301480E-07
  -9.65699959        -1.40866973E-07
  -9.52400017        -1.45542828E-07
  -9.39099979        -1.50319153E-07
  -9.25800037        -1.55186370E-07
  -9.12500000        -1.60137660E-07
  -8.99199963        -1.65170690E-07
  -8.85900021        -1.70287876E-07
  -8.72599983        -1.75495572E-07
  -8.59300041        -1.80802033E-07
  -8.46000004        -1.86214876E-07
  -8.32699966        -1.91738621E-07
  -8.19400024        -1.97373140E-07
  -8.06099987        -2.03113174E-07
  -7.92799997        -2.08949217E-07
  -7.79500008        -2.14869530E-07
  -7.66200018        -2.20862660E-07
  -7.52899981        -2.26919923E-07
  -7.39599991        -2.33037156E-07
  -7.26300001        -2.39214955E-07
  -7.13000011        -2.45457983E-07
  -6.99700022        -2.51772889E-07
  -6.86399984        -2.58165613E-07
  -6.73099995        -2.64638885E-07
  -6.59800005        -2.71190487E-07
  -6.46500015        -2.77812376E-07
  -6.33199978        -2.84491790E-07
  -6.19899988        -2.91212984E-07
  -6.06599998        -2.97959815E-07
  -5.93300009        -3.04718554E-07
  -5.80000019        -3.11479596E-07
  -5.66699982        -3.18238421E-07
  -5.53399992        -3.24994971E-07
  -5.40100002        -3.31751920E-07
  -5.26800013        -3.38512280E-07
  -5.13500023        -3.45276817E-07
  -5.00199986        -3.52042321E-07
  -4.86899996        -3.58800833E-07
  -4.73600006        -3.65540245E-07
  -4.60300016        -3.72246149E-07
  -4.46999979        -3.78904105E-07
  -4.33699989        -3.85502489E-07
  -4.20400000        -3.92034110E-07
  -4.07100010        -3.98497122E-07
  -3.93799996        -4.04894536E-07
  -3.80500007        -4.11232321E-07
  -3.67199993        -4.17517043E-07
  -3.53900003        -4.23753221E-07
  -3.40599990        -4.29941423E-07
  -3.27300000        -4.36077329E-07
  -3.14000010        -4.42152015E-07
  -3.00699997        -4.48153742E-07
  -2.87400007        -4.54070204E-07
  -2.74099994        -4.59891197E-07
  -2.60800004        -4.65610213E-07
  -2.47499990        -4.71225604E-07
  -2.34200001        -4.76739615E-07
  -2.20900011        -4.82156793E-07
  -2.07599998        -4.87481032E-07
  -1.94299996        -4.92713184E-07
  -1.80999994        -4.97848646E-07
  -1.67700005        -5.02875878E-07
  -1.54400003        -5.07777372E-07
  -1.41100001        -5.12530676E-07
  -1.27800000        -5.17111118E-07
  -1.14499998        -5.21494826E-07
  -1.01199996        -5.25660596E-07
 -0.879000008        -5.29591944E-07
 -0.745999992        -5.33276989E-07
 -0.612999976        -5.36707432E-07
 -0.479999989        -5.39876396E-07
 -0.347000003        -5.42776320E-07
 -0.214000002        -5.45397370E-07
  -8.10000002E-02    -5.47726529E-07
   5.20000011E-02    -5.49748052E-07
  0.185000002        -5.51444884E-07
  0.317999989        -5.52801453E-07
  0.451000005        -5.53805933E-07
  0.583999991        -5.54453038E-07
  0.717000008        -5.54744474E-07
  0.850000024        -5.54689223E-07
  0.982999980        -5.54301380E-07
   1.11600006        -5.53597999E-07
   1.24899995        -5.52595850E-07
   1.38199997        -5.51309142E-07
   1.51499999        -5.49747256E-07
   1.64800000        -5.47914851E-07
   1.78100002        -5.45812838E-07
   1.91400003        -5.43439796E-07
   2.04699993        -5.40794701E-07
   2.18000007        -5.37878918E-07
   2.31299996        -5.34697335E-07
   2.44600010        -5.31258706E-07
   2.57900000        -5.27574002E-07
   2.71199989        -5.23654592E-07
   2.84500003        -5.19509911E-07
   2.97799993        -5.15145189E-07
   3.11100006        -5.10560426E-07
   3.24399996        -5.05751075E-07
   3.37700009        -5.00709007E-07
   3.50999999        -4.95425525E-07
   3.64299989        -4.89894262E-07
   3.77600002        -4.84113968E-07
   3.90899992        -4.78090556E-07
   4.04199982        -4.71837183E-07
   4.17500019        -4.65373859E-07
   4.30800009        -4.58724969E-07
   4.44099998        -4.51917060E-07
   4.57399988        -4.44976109E-07
   4.70699978        -4.37926218E-07
   4.84000015        -4.30788873E-07
   4.97300005        -4.23583998E-07
   5.10599995        -4.16331744E-07
   5.23899984        -4.09054735E-07
   5.37200022        -4.01780142E-07
   5.50500011        -3.94541331E-07
   5.63800001        -3.87377611E-07
   5.77099991        -3.80333574E-07
   5.90399981        -3.73456317E-07
   6.03700018        -3.66793358E-07
   6.17000008        -3.60389862E-07
   6.30299997        -3.54287124E-07
   6.43599987        -3.48522292E-07
   6.56899977        -3.43129557E-07
   6.70200014        -3.38142058E-07
   6.83500004        -3.33594841E-07
   6.96799994        -3.29527808E-07
   7.10099983        -3.25986946E-07
   7.23400021        -3.23025461E-07
   7.36700010        -3.20703037E-07
   7.50000000        -3.19083881E-07
   7.63299990        -3.18234015E-07
   7.76599979        -3.18218781E-07
   7.89900017        -3.19100963E-07
   8.03199959        -3.20939705E-07
   8.16499996        -3.23791340E-07
   8.29800034        -3.27711092E-07
   8.43099976        -3.32755292E-07
   8.56400013        -3.38983483E-07
   8.69699955        -3.46460581E-07
   8.82999992        -3.55256958E-07
   8.96300030        -3.65448130E-07
   9.09599972        -3.77112571E-07
   9.22900009        -3.90329944E-07
   9.36200047        -4.05178071E-07
   9.49499989        -4.21731329E-07
   9.62800026        -4.40060404E-07
   9.76099968        -4.60232883E-07
   9.89400005        -4.82314988E-07
   10.0270004        -5.06374477E-07
   10.1599998        -5.32482773E-07
   10.2930002        -5.60717410E-07
   10.4259996        -5.91162745E-07
   10.5590000        -6.23908193E-07
   10.6920004        -6.59047203E-07
   10.8249998        -6.96674022E-07
   10.9580002        -7.36881077E-07
   11.0909996        -7.79756306E-07
   11.2240000        -8.25382358E-07
   11.3570004        -8.73836427E-07
   11.4899998        -9.25191387E-07
   11.6230001        -9.79519086E-07
   11.7559996        -1.03689126E-06
   11.8889999        -1.09738312E-06
   12.0220003        -1.16107242E-06
   12.1549997        -1.22804113E-06
   12.2880001        -1.29837179E-06
   12.4209995        -1.37214693E-06
   12.5539999        -1.44944499E-06
   12.6870003        -1.53033989E-06
   12.8199997        -1.61489891E-06
   12.9530001        -1.70318299E-06
   13.0860004        -1.79525034E-06
   13.2189999        -1.89115622E-06
   13.3520002        -1.99095689E-06
   13.4849997        -2.09471091E-06
   13.6180000        -2.20248080E-06
   13.7510004        -2.31433205E-06
   13.8839998        -2.43033151E-06
   14.0170002        -2.55054510E-06
   14.1499996        -2.67503378E-06
   14.2830000        -2.80385188E-06
   14.4160004        -2.93704693E-06
   14.5489998        -3.07465803E-06
   14.6820002        -3.21671723E-06
   14.8149996        -3.36325365E-06
   14.9480000        -3.51429389E-06
   15.0810003        -3.66986569E-06
   15.2139997        -3.82999906E-06
   15.3470001        -3.99472492E-06
   15.4799995        -4.16407602E-06
   15.6129999        -4.33808282E-06
   15.7460003        -4.51677215E-06
   15.8789997        -4.70016448E-06
   16.0119991        -4.88827118E-06
   16.1450005        -5.08109633E-06
   16.2779999        -5.27863494E-06
   16.4109993        -5.48087974E-06
   16.5440006        -5.68781752E-06
   16.6770000        -5.89943511E-06
   16.8099995        -6.11571977E-06
   16.9430008        -6.33665741E-06
   17.0760002        -6.56223028E-06
   17.2089996        -6.79241748E-06
   17.3419991        -7.02719171E-06
   17.4750004        -7.26651297E-06
   17.6079998        -7.51033213E-06
   17.7409992        -7.75858916E-06
   17.8740005        -8.01121314E-06
   18.0070000        -8.26812720E-06
   18.1399994        -8.52925132E-06
   18.2730007        -8.79450090E-06
   18.4060001        -9.06379591E-06
   18.5389996        -9.33705542E-06
   18.6720009        -9.61419755E-06
   18.8050003        -9.89514047E-06
   18.9379997        -1.01797968E-05
   19.0709991        -1.04680739E-05
   19.2040005        -1.07598707E-05
   19.3369999        -1.10550764E-05
   19.4699993        -1.13535734E-05
   19.6030006        -1.16552401E-05
   19.7360001        -1.19599526E-05
   19.8689995        -1.22675829E-05
   20.0020008        -1.25780098E-05
   20.1350002        -1.28911088E-05
   20.2679996        -1.32067562E-05
   20.4009991        -1.35248320E-05
   20.5340004        -1.38452051E-05
   20.6669998        -1.41677428E-05
   20.7999992        -1.44923024E-05
   20.9330006        -1.48187328E-05
   21.0660000        -1.51468794E-05
   21.1989994        -1.54765767E-05
   21.3320007        -1.58076546E-05
   21.4650002        -1.61399494E-05
   21.5979996        -1.64732937E-05
   21.7310009        -1.68075203E-05
   21.8640003        -1.71424690E-05
   21.9969997        -1.74779725E-05
   22.1299992        -1.78138671E-05
   22.2630005        -1.81499763E-05
   22.3959999        -1.84861219E-05
   22.5289993        -1.88221184E-05
   22.6620007        -1.91577710E-05
   22.7950001        -1.94928816E-05
   22.9279995        -1.98272555E-05
   23.0610008        -2.01606981E-05
   23.1940002        -2.04930220E-05
   23.3269997        -2.08240435E-05
   23.4599991        -2.11535917E-05
   23.5930004        -2.14814954E-05
   23.7259998        -2.18075929E-05
   23.8589993        -2.21317187E-05
   23.9920006        -2.24537089E-05
   24.1250000        -2.27733926E-05
   24.2579994        -2.30906007E-05
   24.3910007        -2.34051640E-05
   24.5240002        -2.37169133E-05
   24.6569996        -2.40256850E-05
   24.7900009        -2.43313207E-05
   24.9230003        -2.46336658E-05
   25.0559998        -2.49325713E-05
   25.1889992        -2.52278933E-05
   25.3220005        -2.55194846E-05
   25.4549999        -2.58071996E-05
   25.5879993        -2.60908855E-05
   25.7210007        -2.63703841E-05
   25.8540001        -2.66455390E-05
   25.9869995        -2.69161865E-05
   26.1200008        -2.71821682E-05
   26.2530003        -2.74433314E-05
   26.3859997        -2.76995306E-05
   26.5189991        -2.79506348E-05
   26.6520004        -2.81965204E-05
   26.7849998        -2.84370726E-05
   26.9179993        -2.86721897E-05
   27.0510006        -2.89017717E-05
   27.1840000        -2.91257202E-05
   27.3169994        -2.93439389E-05
   27.4500008        -2.95563350E-05
   27.5830002        -2.97628139E-05
   27.7159996        -2.99632884E-05
   27.8490009        -3.01576747E-05
   27.9820004        -3.03458946E-05
   28.1149998        -3.05278845E-05
   28.2479992        -3.07035807E-05
   28.3810005        -3.08729359E-05
   28.5139999        -3.10358919E-05
   28.6469994        -3.11924050E-05
   28.7800007        -3.13424207E-05
   28.9130001        -3.14858917E-05
   29.0459995        -3.16227597E-05
   29.1790009        -3.17529666E-05
   29.3120003        -3.18764651E-05
   29.4449997        -3.19932115E-05
   29.5779991        -3.21031621E-05
   29.7110004        -3.22062915E-05
   29.8439999        -3.23025888E-05
   29.9769993        -3.23920431E-05
   30.1100006        -3.24746616E-05
   30.2430000        -3.25504479E-05
   30.3759995        -3.26194095E-05
   30.5090008        -3.26815534E-05
   30.6420002        -3.27368907E-05
   30.7749996        -3.27854286E-05
   30.9080009        -3.28271708E-05
   31.0410004        -3.28621391E-05
   31.1739998        -3.28903479E-05
   31.3069992        -3.29118266E-05
   31.4400005        -3.29266186E-05
   31.5730000        -3.29347677E-05
   31.7059994        -3.29363284E-05
   31.8390007        -3.29313516E-05
   31.9720001        -3.29198956E-05
   32.1049995        -3.29020077E-05
   32.2379990        -3.28777423E-05
   32.3709984        -3.28471433E-05
   32.5040016        -3.28102615E-05
   32.6370010        -3.27671514E-05
   32.7700005        -3.27178641E-05
   32.9029999        -3.26624722E-05
   33.0359993        -3.26010413E-05
   33.1689987        -3.25336550E-05
   33.3019981        -3.24603898E-05
   33.4350014        -3.23813219E-05
   33.5680008        -3.22965243E-05
   33.7010002        -3.22060696E-05
   33.8339996        -3.21100197E-05
   33.9669991        -3.20084255E-05
   34.0999985        -3.19013452E-05
   34.2330017        -3.17888262E-05
   34.3660011        -3.16709302E-05
   34.4990005        -3.15477191E-05
   34.6320000        -3.14192621E-05
   34.7649994        -3.12856391E-05
   34.8979988        -3.11469303E-05
   35.0309982        -3.10032228E-05
   35.1640015        -3.08546005E-05
   35.2970009        -3.07011505E-05
   35.4300003        -3.05429530E-05
   35.5629997        -3.03800862E-05
   35.6959991        -3.02126336E-05
   35.8289986        -3.00406755E-05
   35.9620018        -2.98642917E-05
   36.0950012        -2.96835806E-05
   36.2280006        -2.94986366E-05
   36.3610001        -2.93095600E-05
   36.4939995        -2.91164579E-05
   36.6269989        -2.89194340E-05
   36.7599983        -2.87185812E-05
   36.8930016        -2.85139959E-05
   37.0260010        -2.83057634E-05
   37.1590004        -2.80939639E-05
   37.2919998        -2.78786720E-05
   37.4249992        -2.76599621E-05
   37.5579987        -2.74379108E-05
   37.6910019        -2.72126035E-05
   37.8240013        -2.69841221E-05
   37.9570007        -2.67525629E-05
   38.0900002        -2.65180206E-05
   38.2229996        -2.62805934E-05
   38.3559990        -2.60403776E-05
   38.4889984        -2.57974607E-05
   38.6220016        -2.55519353E-05
   38.7550011        -2.53038706E-05
   38.8880005        -2.50533431E-05
   39.0209999        -2.48004271E-05
   39.1539993        -2.45451956E-05
   39.2869987        -2.42877340E-05
   39.4199982        -2.40281279E-05
   39.5530014        -2.37664681E-05
   39.6860008        -2.35028547E-05
   39.8190002        -2.32373877E-05
   39.9519997        -2.29701600E-05
   40.0849991        -2.27012733E-05
   40.2179985        -2.24308187E-05
   40.3510017        -2.21588853E-05
   40.4840012        -2.18855675E-05
   40.6170006        -2.16109547E-05
   40.7500000        -2.13351432E-05
   40.8829994        -2.10582384E-05
   41.0159988        -2.07803496E-05
   41.1489983        -2.05016004E-05
   41.2820015        -2.02221108E-05
   41.4150009        -1.99420083E-05
   41.5480003        -1.96614092E-05
   41.6809998        -1.93804281E-05
   41.8139992        -1.90991723E-05
   41.9469986        -1.88177473E-05
   42.0800018        -1.85362496E-05
   42.2130013        -1.82547719E-05
   42.3460007        -1.79734106E-05
   42.4790001        -1.76922640E-05
   42.6119995        -1.74114448E-05
   42.7449989        -1.71310603E-05
   42.8779984        -1.68512342E-05
   43.0110016        -1.65720885E-05
   43.1440010        -1.62937486E-05
   43.2770004        -1.60163381E-05
   43.4099998        -1.57399827E-05
   43.5429993        -1.54648005E-05
   43.6759987        -1.51909117E-05
   43.8089981        -1.49184389E-05
   43.9420013        -1.46475049E-05
   44.0750008        -1.43782427E-05
   44.2080002        -1.41107857E-05
   44.3409996        -1.38452779E-05
   44.4739990        -1.35818618E-05
   44.6069984        -1.33206831E-05
   44.7400017        -1.30618837E-05
   44.8730011        -1.28055981E-05
   45.0060005        -1.25519509E-05
   45.1389999        -1.23010605E-05
   45.2719994        -1.20530412E-05
   45.4049988        -1.18079979E-05
   45.5379982        -1.15660432E-05
   45.6710014        -1.13272890E-05
   45.8040009        -1.10918572E-05
   45.9370003        -1.08598742E-05
   46.0699997        -1.06314783E-05
   46.2029991        -1.04068058E-05
   46.3359985        -1.01859969E-05
   46.4690018        -9.96918880E-06
   46.6020012        -9.75651619E-06
   46.7350006        -9.54810639E-06
   46.8680000        -9.34408490E-06
   47.0009995        -9.14457451E-06
   47.1339989        -8.94969799E-06
   47.2669983        -8.75957994E-06
   47.4000015        -8.57434497E-06
   47.5330009        -8.39412496E-06
   47.6660004        -8.21904541E-06
   47.7989998        -8.04923638E-06
   47.9319992        -7.88481429E-06
   48.0649986        -7.72589010E-06
   48.1980019        -7.57256430E-06
   48.3310013        -7.42492512E-06
   48.4640007        -7.28305076E-06
   48.5970001        -7.14701400E-06
   48.7299995        -7.01688487E-06
   48.8629990        -6.89273156E-06
   48.9959984        -6.77462685E-06
   49.1290016        -6.66264532E-06
   49.2620010        -6.55686335E-06
   49.3950005        -6.45735417E-06
   49.5279999        -6.36418918E-06
   49.6609993        -6.27743111E-06
   49.7939987        -6.19713410E-06
   49.9269981        -6.12334088E-06
   50.0600014        -6.05608557E-06
   50.1930008        -5.99539362E-06
   50.3260002        -5.94128642E-06
   50.4589996        -5.89378169E-06
   50.5919991        -5.85289945E-06
   50.7249985        -5.81865652E-06
   50.8580017        -5.79107018E-06
   50.9910011        -5.77015453E-06
   51.1240005        -5.75591503E-06
   51.2570000        -5.74835030E-06
   51.3899994        -5.74744854E-06
   51.5229988        -5.75318518E-06
   51.6559982        -5.76552475E-06
   51.7890015        -5.78442359E-06
   51.9220009        -5.80983397E-06
   52.0550003        -5.84170402E-06
   52.1879997        -5.87998056E-06
   52.3209991        -5.92460992E-06
   52.4539986        -5.97553571E-06
   52.5870018        -6.03269837E-06
   52.7200012        -6.09602557E-06
   52.8530006        -6.16544094E-06
   52.9860001        -6.24085078E-06
   53.1189995        -6.32215051E-06
   53.2519989        -6.40922053E-06
   53.3849983        -6.50193397E-06
   53.5180016        -6.60015712E-06
   53.6510010        -6.70375448E-06
   53.7840004        -6.81259326E-06
   53.9169998        -6.92653975E-06
   54.0499992        -7.04546665E-06
   54.1829987        -7.16924387E-06
   54.3160019        -7.29774138E-06
   54.4490013        -7.43082728E-06
   54.5820007        -7.56835880E-06
   54.7150002        -7.71018676E-06
   54.8479996        -7.85615612E-06
   54.9809990        -8.00610360E-06
   55.1139984        -8.15986459E-06
   55.2470016        -8.31726993E-06
   55.3800011        -8.47815136E-06
   55.5130005        -8.64234244E-06
   55.6459999        -8.80967582E-06
   55.7789993        -8.97998416E-06
   55.9119987        -9.15308920E-06
   56.0449982        -9.32880630E-06
   56.1780014        -9.50693993E-06
   56.3110008        -9.68728182E-06
   56.4440002        -9.86961913E-06
   56.5769997        -1.00537300E-05
   56.7099991        -1.02393897E-05
   56.8429985        -1.04263727E-05
   56.9760017        -1.06144635E-05
   57.1090012        -1.08034492E-05
   57.2420006        -1.09931252E-05
   57.3750000        -1.11832951E-05
   57.5079994        -1.13737651E-05
   57.6409988        -1.15643425E-05
   57.7739983        -1.17548307E-05
   57.9070015        -1.19450351E-05
   58.0400009        -1.21347530E-05
   58.1730003        -1.23237860E-05
   58.3059998        -1.25119332E-05
   58.4389992        -1.26989980E-05
   58.5719986        -1.28847914E-05
   58.7050018        -1.30691296E-05
   58.8380013        -1.32518362E-05
   58.9710007        -1.34327420E-05
   59.1040001        -1.36116805E-05
   59.2369995        -1.37884817E-05
   59.3699989        -1.39629810E-05
   59.5029984        -1.41350047E-05
   59.6360016        -1.43043826E-05
   59.7690010        -1.44709375E-05
   59.9020004        -1.46345028E-05
   60.0349998        -1.47949168E-05
   60.1679993        -1.49520229E-05
   60.3009987        -1.51056765E-05
   60.4339981        -1.52557450E-05
   60.5670013        -1.54021000E-05
   60.7000008        -1.55446232E-05
   60.8330002        -1.56831939E-05
   60.9659996        -1.58176863E-05
   61.0989990        -1.59479805E-05
   61.2319984        -1.60739437E-05
   61.3650017        -1.61954504E-05
   61.4980011        -1.63123659E-05
   61.6310005        -1.64245703E-05
   61.7639999        -1.65319398E-05
   61.8969994        -1.66343616E-05
   62.0299988        -1.67317376E-05
   62.1629982        -1.68239749E-05
   62.2960014        -1.69109808E-05
   62.4290009        -1.69926789E-05
   62.5620003        -1.70689873E-05
   62.6949997        -1.71398333E-05
   62.8279991        -1.72051405E-05
   62.9609985        -1.72648361E-05
   63.0940018        -1.73188619E-05
   63.2270012        -1.73671579E-05
   63.3600006        -1.74096785E-05
   63.4930000        -1.74463930E-05
   63.6259995        -1.74772758E-05
   63.7589989        -1.75023160E-05
   63.8919983        -1.75215064E-05
   64.0250015        -1.75348414E-05
   64.1579971        -1.75423156E-05
   64.2910004        -1.75439200E-05
   64.4240036        -1.75396381E-05
   64.5569992        -1.75294554E-05
   64.6900024        -1.75133537E-05
   64.8229980        -1.74913184E-05
   64.9560013        -1.74633406E-05
   65.0889969        -1.74294164E-05
   65.2220001        -1.73895460E-05
   65.3550034        -1.73437475E-05
   65.4879990        -1.72920336E-05
   65.6210022        -1.72344262E-05
   65.7539978        -1.71709453E-05
   65.8870010        -1.71016072E-05
   66.0199966        -1.70264302E-05
   66.1529999        -1.69454288E-05
   66.2860031        -1.68586175E-05
   66.4189987        -1.67660182E-05
   66.5520020        -1.66676546E-05
   66.6849976        -1.65635593E-05
   66.8180008        -1.64537760E-05
   66.9509964        -1.63383465E-05
   67.0839996        -1.62173237E-05
   67.2170029        -1.60907548E-05
   67.3499985        -1.59586889E-05
   67.4830017        -1.58211715E-05
   67.6159973        -1.56782407E-05
   67.7490005        -1.55299367E-05
   67.8820038        -1.53762958E-05
   68.0149994        -1.52173579E-05
   68.1480026        -1.50531687E-05
   68.2809982        -1.48837817E-05
   68.4140015        -1.47092551E-05
   68.5469971        -1.45296544E-05
   68.6800003        -1.43450497E-05
   68.8130035        -1.41555147E-05
   68.9459991        -1.39611211E-05
   69.0790024        -1.37619363E-05
   69.2119980        -1.35580276E-05
   69.3450012        -1.33494532E-05
   69.4779968        -1.31362740E-05
   69.6110001        -1.29185510E-05
   69.7440033        -1.26963459E-05
   69.8769989        -1.24697272E-05
   70.0100021        -1.22387710E-05
   70.1429977        -1.20035602E-05
   70.2760010        -1.17641830E-05
   70.4089966        -1.15207285E-05
   70.5419998        -1.12732887E-05
   70.6750031        -1.10219544E-05
   70.8079987        -1.07668138E-05
   70.9410019        -1.05079534E-05
   71.0739975        -1.02454642E-05
   71.2070007        -9.97943425E-06
   71.3399963        -9.70996098E-06
   71.4729996        -9.43714622E-06
   71.6060028        -9.16109548E-06
   71.7389984        -8.88192244E-06
   71.8720016        -8.59974443E-06
   72.0049973        -8.31467696E-06
   72.1380005        -8.02683280E-06
   72.2710037        -7.73632019E-06
   72.4039993        -7.44323825E-06
   72.5370026        -7.14768385E-06
   72.6699982        -6.84974611E-06
   72.8030014        -6.54951555E-06
   72.9359970        -6.24708264E-06
   73.0690002        -5.94254516E-06
   73.2020035        -5.63600634E-06
   73.3349991        -5.32758031E-06
   73.4680023        -5.01738486E-06
   73.6009979        -4.70554733E-06
   73.7340012        -4.39219866E-06
   73.8669968        -4.07747302E-06
   74.0000000        -3.76150501E-06
   74.1330032        -3.44442742E-06
   74.2659988        -3.12637735E-06
   74.3990021        -2.80749623E-06
   74.5319977        -2.48792639E-06
   74.6650009        -2.16781882E-06
   74.7979965        -1.84732789E-06
   74.9309998        -1.52661437E-06
   75.0640030        -1.20583968E-06
   75.1969986        -8.85164923E-07
   75.3300018        -5.64745505E-07
   75.4629974        -2.44730757E-07
   75.5960007         7.47390771E-08
   75.7289963         3.93529689E-07
   75.8619995         7.11516634E-07
   75.9950027         1.02857484E-06
   76.1279984         1.34458151E-06
   76.2610016         1.65941003E-06
   76.3939972         1.97292638E-06
   76.5270004         2.28499198E-06
   76.6600037         2.59545891E-06
   76.7929993         2.90417915E-06
   76.9260025         3.21099878E-06
   77.0589981         3.51576591E-06
   77.1920013         3.81832751E-06
   77.3249969         4.11853352E-06
   77.4580002         4.41623479E-06
   77.5910034         4.71128078E-06
   77.7239990         5.00351871E-06
   77.8570023         5.29279168E-06
   77.9899979         5.57894100E-06
   78.1230011         5.86180340E-06
   78.2559967         6.14121427E-06
   78.3889999         6.41701263E-06
   78.5220032         6.68904022E-06
   78.6549988         6.95714471E-06
   78.7880020         7.22118602E-06
   78.9209976         7.48103184E-06
   79.0540009         7.73655756E-06
   79.1869965         7.98764268E-06
   79.3199997         8.23417304E-06
   79.4530029         8.47603224E-06
   79.5859985         8.71310567E-06
   79.7190018         8.94527693E-06
   79.8519974         9.17243233E-06
   79.9850006         9.39445363E-06
   80.1179962         9.61123169E-06
   80.2509995         9.82266010E-06
   80.3840027         1.00286370E-05
   80.5169983         1.02290733E-05
   80.6500015         1.04238843E-05
   80.7829971         1.06129919E-05
   80.9160004         1.07963215E-05
   81.0490036         1.09737985E-05
   81.1819992         1.11453483E-05
   81.3150024         1.13108936E-05
   81.4479980         1.14703562E-05
   81.5810013         1.16236624E-05
   81.7139969         1.17707368E-05
   81.8470001         1.19115139E-05
   81.9800034         1.20459326E-05
   82.1129990         1.21739422E-05
   82.2460022         1.22954934E-05
   82.3789978         1.24105463E-05
   82.5120010         1.25190618E-05
   82.6449966         1.26210025E-05
   82.7779999         1.27163321E-05
   82.9110031         1.28050096E-05
   83.0439987         1.28869970E-05
   83.1770020         1.29622613E-05