  -24.4200001       0.00000000    
  -24.2900009      -2.03856133E-11
  -24.1599998      -6.10670473E-11
  -24.0300007      -1.20642635E-10
  -23.8999996      -1.96549194E-10
  -23.7700005      -2.85312579E-10
  -23.6399994      -3.82874593E-10
  -23.5100002      -4.84965401E-10
  -23.3799992      -5.87488558E-10
  -23.2500000      -6.86883828E-10
  -23.1200008      -7.80438936E-10
  -22.9899998      -8.66523575E-10
  -22.8600006      -9.44729961E-10
  -22.7299995      -1.01590936E-09
  -22.6000004      -1.08210418E-09
  -22.4699993      -1.14638310E-09
  -22.3400002      -1.21259269E-09
  -22.2099991      -1.28504640E-09
  -22.0799999      -1.36817480E-09
  -21.9500008      -1.46616619E-09
  -21.8199997      -1.58262481E-09
  -21.6900005      -1.72027603E-09
  -21.5599995      -1.88074423E-09
  -21.4300003      -2.06442308E-09
  -21.2999992      -2.27045382E-09
  -21.1700001      -2.49681165E-09
  -21.0400009      -2.74050027E-09
  -20.9099998      -2.99783642E-09
  -20.7800007      -3.26479999E-09
  -20.6499996      -3.53742058E-09
  -20.5200005      -3.81216170E-09
  -20.3899994      -4.08627177E-09
  -20.2600002      -4.35806813E-09
  -20.1299992      -4.62712224E-09
  -20.0000000      -4.89434271E-09
  -19.8700008      -5.16193754E-09
  -19.7399998      -5.43326495E-09
  -19.6100006      -5.71259395E-09
  -19.4799995      -6.00478600E-09
  -19.3500004      -6.31493879E-09
  -19.2199993      -6.64801147E-09
  -19.0900002      -7.00847691E-09
  -18.9599991      -7.40000816E-09
  -18.8299999      -7.82524889E-09
  -18.7000008      -8.28566016E-09
  -18.5699997      -8.78147599E-09
  -18.4400005      -9.31175048E-09
  -18.3099995      -9.87451187E-09
  -18.1800003      -1.04669979E-08
  -18.0499992      -1.10859553E-08
  -17.9200001      -1.17279857E-08
  -17.7900009      -1.23899193E-08
  -17.6599998      -1.30691564E-08
  -17.5300007      -1.37639784E-08
  -17.3999996      -1.44737857E-08
  -17.2700005      -1.51992374E-08
  -17.1399994      -1.59422910E-08
  -17.0100002      -1.67061227E-08
  -16.8799992      -1.74949442E-08
  -16.7500000      -1.83137256E-08
  -16.6200008      -1.91678478E-08
  -16.4899998      -2.00627284E-08
  -16.3600006      -2.10034319E-08
  -16.2299995      -2.19943264E-08
  -16.1000004      -2.30388029E-08
  -15.9700003      -2.41390783E-08
  -15.8400002      -2.52961154E-08
  -15.7100000      -2.65096443E-08
  -15.5799999      -2.77782899E-08
  -15.4499998      -2.90998088E-08
  -15.3199997      -3.04713623E-08
  -15.1899996      -3.18898650E-08
  -15.0600004      -3.33523573E-08
  -14.9300003      -3.48563347E-08
  -14.8000002      -3.64000350E-08
  -14.6700001      -3.79827227E-08
  -14.5400000      -3.96048065E-08
  -14.4099998      -4.12679455E-08
  -14.2799997      -4.29749818E-08
  -14.1499996      -4.47298234E-08
  -14.0200005      -4.65372274E-08
  -13.8900003      -4.84024874E-08
  -13.7600002      -5.03310957E-08
  -13.6300001      -5.23283745E-08
  -13.5000000      -5.43991163E-08
  -13.3699999      -5.65472540E-08
  -13.2399998      -5.87756261E-08
  -13.1099997      -6.10857995E-08
  -12.9799995      -6.34780264E-08
  -12.8500004      -6.59512907E-08
  -12.7200003      -6.85035246E-08
  -12.5900002      -7.11318151E-08
  -12.4600000      -7.38327799E-08
  -12.3299999      -7.66029160E-08
  -12.1999998      -7.94389905E-08
  -12.0699997      -8.23383530E-08
  -11.9399996      -8.52992557E-08
  -11.8100004      -8.83210234E-08
  -11.6800003      -9.14041465E-08
  -11.5500002      -9.45502947E-08
  -11.4200001      -9.77621610E-08
  -11.2900000      -1.01043348E-07
  -11.1599998      -1.04397976E-07
  -11.0299997      -1.07830431E-07
  -10.8999996      -1.11345003E-07
  -10.7700005      -1.14945500E-07
  -10.6400003      -1.18634937E-07
  -10.5100002      -1.22415273E-07
  -10.3800001      -1.26287219E-07
  -10.2500000      -1.30250186E-07
  -10.1199999      -1.34302184E-07
  -9.98999977      -1.38440043E-07
  -9.85999966      -1.42659516E-07
  -9.72999954      -1.46955642E-07
  -9.60000038      -1.51323079E-07
  -9.47000027      -1.55756496E-07
  -9.34000015      -1.60250821E-07
  -9.21000004      -1.64801747E-07
  -9.07999992      -1.69405908E-07
  -8.94999981      -1.74061014E-07
  -8.81999969      -1.78765958E-07
  -8.68999958      -1.83520697E-07
  -8.56000042      -1.88326098E-07
  -8.43000031      -1.93183666E-07
  -8.30000019      -1.98095208E-07
  -8.17000008      -2.03062442E-07
  -8.03999996      -2.08086604E-07
  -7.90999985      -2.13168178E-07
  -7.78000021      -2.18306440E-07
  -7.65000010      -2.23499512E-07
  -7.51999998      -2.28744085E-07
  -7.38999987      -2.34035497E-07
  -7.26000023      -2.39367921E-07
  -7.13000011      -2.44734508E-07
  -7.00000000      -2.50127698E-07
  -6.86999989      -2.55539703E-07
  -6.73999977      -2.60962622E-07
  -6.61000013      -2.66389094E-07
  -6.48000002      -2.71812439E-07
  -6.34999990      -2.77226860E-07
  -6.21999979      -2.82627781E-07
  -6.09000015      -2.88011762E-07
  -5.96000004      -2.93376360E-07
  -5.82999992      -2.98719925E-07
  -5.69999981      -3.04041350E-07
  -5.57000017      -3.09339583E-07
  -5.44000006      -3.14613175E-07
  -5.30999994      -3.19859851E-07
  -5.17999983      -3.25075973E-07
  -5.05000019      -3.30256370E-07
  -4.92000008      -3.35393764E-07
  -4.78999996      -3.40478948E-07
  -4.65999985      -3.45500780E-07
  -4.53000021      -3.50446214E-07
  -4.40000010      -3.55301040E-07
  -4.26999998      -3.60049967E-07
  -4.13999987      -3.64677305E-07
  -4.01000023      -3.69167537E-07
  -3.88000011      -3.73505998E-07
  -3.75000000      -3.77679214E-07
  -3.61999989      -3.81675306E-07
  -3.49000001      -3.85484356E-07
  -3.35999990      -3.89098460E-07
  -3.23000002      -3.92511623E-07
  -3.09999990      -3.95719496E-07
  -2.97000003      -3.98719180E-07
  -2.83999991      -4.01508402E-07
  -2.71000004      -4.04085199E-07
  -2.57999992      -4.06447157E-07
  -2.45000005      -4.08590751E-07
  -2.31999993      -4.10510779E-07
  -2.19000006      -4.12199967E-07
  -2.05999994      -4.13648706E-07
  -1.92999995      -4.14844635E-07
  -1.79999995      -4.15773030E-07
  -1.66999996      -4.16416810E-07
  -1.53999996      -4.16757160E-07
  -1.40999997      -4.16774014E-07
  -1.27999997      -4.16447136E-07
  -1.14999998      -4.15756205E-07
  -1.01999998      -4.14681892E-07
 -0.889999986      -4.13206806E-07
 -0.759999990      -4.11315824E-07
 -0.629999995      -4.08996073E-07
 -0.500000000      -4.06237916E-07
 -0.370000005      -4.03033965E-07
 -0.239999995      -3.99379616E-07
 -0.109999999      -3.95272053E-07
   1.99999996E-02  -3.90709999E-07
  0.150000006      -3.85692630E-07
  0.280000001      -3.80219262E-07
  0.409999996      -3.74288419E-07
  0.540000021      -3.67896973E-07
  0.670000017      -3.61039895E-07
  0.800000012      -3.53709851E-07
  0.930000007      -3.45896893E-07
   1.05999994      -3.37588574E-07
   1.19000006      -3.28770341E-07
   1.32000005      -3.19425681E-07
   1.45000005      -3.09536858E-07
   1.58000004      -2.99085741E-07
   1.71000004      -2.88054508E-07
   1.84000003      -2.76426476E-07
   1.97000003      -2.64186667E-07
   2.09999990      -2.51322660E-07
   2.23000002      -2.37824935E-07
   2.35999990      -2.23686726E-07
   2.49000001      -2.08904495E-07
   2.61999989      -1.93477661E-07
   2.75000000      -1.77407671E-07
   2.88000011      -1.60698107E-07
   3.00999999      -1.43353375E-07
   3.14000010      -1.25378222E-07
   3.26999998      -1.06776909E-07
   3.40000010      -8.75525288E-08
   3.52999997      -6.77065231E-08
   3.66000009      -4.72381103E-08
   3.78999996      -2.61442334E-08
   3.92000008      -4.41954162E-09
   4.05000019       1.79434227E-08
   4.17999983       4.09537897E-08
   4.30999994       6.46221281E-08
   4.44000006       8.89593608E-08
   4.57000017       1.13976498E-07
   4.69999981       1.39683564E-07
   4.82999992       1.66089620E-07
   4.96000004       1.93201615E-07
   5.09000015       2.21024678E-07
   5.21999979       2.49561623E-07
   5.34999990       2.78812905E-07
   5.48000002       3.08777174E-07
   5.61000013       3.39451532E-07
   5.73999977       3.70832112E-07
   5.86999989       4.02914708E-07
   6.00000000       4.35695483E-07
   6.13000011       4.69171511E-07
   6.26000023       5.03341482E-07
   6.38999987       5.38205882E-07
   6.51999998       5.73767693E-07
   6.65000010       6.10031691E-07
   6.78000021       6.47004754E-07
   6.90999985       6.84695635E-07
   7.03999996       7.23114056E-07
   7.17000008       7.62270133E-07
   7.30000019       8.02173702E-07
   7.42999983       8.42833686E-07
   7.55999994       8.84257418E-07
   7.69000006       9.26449900E-07
   7.82000017       9.69413350E-07
   7.94999981       1.01314777E-06
   8.07999992       1.05764957E-06
   8.21000004       1.10291262E-06
   8.34000015       1.14892850E-06
   8.47000027       1.19568699E-06
   8.60000038       1.24317603E-06
   8.72999954       1.29138311E-06
   8.85999966       1.34029563E-06
   8.98999977       1.38990117E-06
   9.11999989       1.44018838E-06
   9.25000000       1.49114726E-06
   9.38000011       1.54276881E-06
   9.51000023       1.59504589E-06
   9.64000034       1.64797166E-06
   9.77000046       1.70154044E-06
   9.89999962       1.75574655E-06
   10.0299997       1.81058351E-06
   10.1599998       1.86604404E-06
   10.2900000       1.92211792E-06
   10.4200001       1.97879331E-06
   10.5500002       2.03605464E-06
   10.6800003       2.09388372E-06
   10.8100004       2.15225828E-06
   10.9399996       2.21115306E-06
   11.0699997       2.27054034E-06
   11.1999998       2.33038850E-06
   11.3299999       2.39066549E-06
   11.4600000       2.45133720E-06
   11.5900002       2.51236861E-06
   11.7200003       2.57372494E-06
   11.8500004       2.63537140E-06
   11.9799995       2.69727389E-06
   12.1099997       2.75939897E-06
   12.2399998       2.82171391E-06
   12.3699999       2.88418482E-06
   12.5000000       2.94677920E-06
   12.6300001       3.00946249E-06
   12.7600002       3.07219830E-06
   12.8900003       3.13494797E-06
   13.0200005       3.19766946E-06
   13.1499996       3.26031500E-06
   13.2799997       3.32283344E-06
   13.4099998       3.38516747E-06
   13.5400000       3.44725481E-06
   13.6700001       3.50902724E-06
   13.8000002       3.57041154E-06
   13.9300003       3.63132972E-06
   14.0600004       3.69169970E-06
   14.1899996       3.75143645E-06
   14.3199997       3.81045152E-06
   14.4499998       3.86865622E-06
   14.5799999       3.92596075E-06
   14.7100000       3.98227394E-06
   14.8400002       4.03750619E-06
   14.9700003       4.09156746E-06
   15.1000004       4.14436772E-06
   15.2299995       4.19581556E-06
   15.3599997       4.24582095E-06
   15.4899998       4.29428928E-06
   15.6199999       4.34112508E-06
   15.7500000       4.38622828E-06
   15.8800001       4.42949704E-06
   16.0100002       4.47082175E-06
   16.1399994       4.51008827E-06
   16.2700005       4.54717883E-06
   16.3999996       4.58196700E-06
   16.5300007       4.61432364E-06
   16.6599998       4.64411505E-06
   16.7900009       4.67119980E-06
   16.9200001       4.69543693E-06
   17.0499992       4.71668136E-06
   17.1800003       4.73478940E-06
   17.3099995       4.74961416E-06
   17.4400005       4.76101150E-06
   17.5699997       4.76883770E-06
   17.7000008       4.77295089E-06
   17.8299999       4.77320964E-06
   17.9599991       4.76947571E-06
   18.0900002       4.76160994E-06
   18.2199993       4.74947365E-06
   18.3500004       4.73292721E-06
   18.4799995       4.71182875E-06
   18.6100006       4.68603366E-06
   18.7399998       4.65539415E-06
   18.8700008       4.61975969E-06
   19.0000000       4.57897204E-06
   19.1299992       4.53286975E-06
   19.2600002       4.48128867E-06
   19.3899994       4.42405917E-06
   19.5200005       4.36100845E-06
   19.6499996       4.29196234E-06
   19.7800007       4.21674804E-06
   19.9099998       4.13519138E-06
   20.0400009       4.04712137E-06
   20.1700001       3.95236884E-06
   20.2999992       3.85077010E-06
   20.4300003       3.74216711E-06
   20.5599995       3.62640685E-06
   20.6900005       3.50334199E-06
   20.8199997       3.37283132E-06
   20.9500008       3.23473751E-06
   21.0799999       3.08893095E-06
   21.2099991       2.93528228E-06
   21.3400002       2.77366462E-06
   21.4699993       2.60395677E-06
   21.6000004       2.42603710E-06
   21.7299995       2.23978009E-06
   21.8600006       2.04506659E-06
   21.9899998       1.84177566E-06
   22.1200008       1.62979052E-06
   22.2500000       1.40899112E-06
   22.3799992       1.17926652E-06
   22.5100002       9.40504037E-07
   22.6399994       6.92601247E-07
   22.7700005       4.35462937E-07
   22.8999996       1.69001055E-07
   23.0300007      -1.06861386E-07
   23.1599998      -3.92189008E-07
   23.2900009      -6.87038835E-07
   23.4200001      -9.91454158E-07
   23.5499992      -1.30546505E-06
   23.6800003      -1.62909089E-06
   23.8099995      -1.96234009E-06
   23.9400005      -2.30521164E-06
   24.0699997      -2.65769404E-06
   24.2000008      -3.01977047E-06
   24.3299999      -3.39141411E-06
   24.4599991      -3.77259403E-06
   24.5900002      -4.16327339E-06
   24.7199993      -4.56340740E-06
   24.8500004      -4.97294968E-06
   24.9799995      -5.39184657E-06
   25.1100006      -5.82003804E-06
   25.2399998      -6.25745952E-06
   25.3700008      -6.70403233E-06
   25.5000000      -7.15967371E-06
   25.6299992      -7.62428363E-06
   25.7600002      -8.09775975E-06
   25.8899994      -8.57997475E-06
   26.0200005      -9.07079630E-06
   26.1499996      -9.57007433E-06
   26.2800007      -1.00776479E-05
   26.4099998      -1.05933414E-05
   26.5400009      -1.11169629E-05
   26.6700001      -1.16483134E-05
   26.7999992      -1.21871835E-05
   26.9300003      -1.27333515E-05
   27.0599995      -1.32865871E-05
   27.1900005      -1.38466585E-05
   27.3199997      -1.44133201E-05
   27.4500008      -1.49863245E-05
   27.5799999      -1.55654197E-05
   27.7099991      -1.61503485E-05
   27.8400002      -1.67408434E-05
   27.9699993      -1.73366352E-05
   28.1000004      -1.79374438E-05
   28.2299995      -1.85429835E-05
   28.3600006      -1.91529580E-05
   28.4899998      -1.97670615E-05
   28.6200008      -2.03849777E-05
   28.7500000      -2.10063718E-05
   28.8799992      -2.16309090E-05
   29.0100002      -2.22582330E-05
   29.1399994      -2.28879835E-05
   29.2700005      -2.35197840E-05
   29.3999996      -2.41532543E-05
   29.5300007      -2.47879998E-05
   29.6599998      -2.54236238E-05
   29.7900009      -2.60597280E-05
   29.9200001      -2.66959050E-05
   30.0499992      -2.73317473E-05
   30.1800003      -2.79668475E-05
   30.3099995      -2.86007999E-05
   30.4400005      -2.92331897E-05
   30.5699997      -2.98636151E-05
   30.7000008      -3.04916612E-05
   30.8299999      -3.11169206E-05
   30.9599991      -3.17389859E-05
   31.0900002      -3.23574350E-05
   31.2199993      -3.29718605E-05
   31.3500004      -3.35818331E-05
   31.4799995      -3.41869381E-05
   31.6100006      -3.47867353E-05
   31.7399998      -3.53807955E-05
   31.8700008      -3.59686856E-05
   32.0000000      -3.65499654E-05
   32.1300011      -3.71241986E-05
   32.2599983      -3.76909375E-05
   32.3899994      -3.82497528E-05
   32.5200005      -3.88001972E-05
   32.6500015      -3.93418486E-05
   32.7799988      -3.98742850E-05
   32.9099998      -4.03970844E-05
   33.0400009      -4.09098393E-05
   33.1699982      -4.14121532E-05
   33.2999992      -4.19036332E-05
   33.4300003      -4.23838937E-05
   33.5600014      -4.28525673E-05
   33.6899986      -4.33092828E-05
   33.8199997      -4.37536801E-05
   33.9500008      -4.41854027E-05
   34.0800018      -4.46041049E-05
   34.2099991      -4.50094340E-05
   34.3400002      -4.54010551E-05
   34.4700012      -4.57786264E-05
   34.5999985      -4.61418167E-05
   34.7299995      -4.64902951E-05
   34.8600006      -4.68237413E-05
   34.9900017      -4.71418425E-05
   35.1199989      -4.74442932E-05
   35.2500000      -4.77307949E-05
   35.3800011      -4.80010676E-05
   35.5099983      -4.82548458E-05
   35.6399994      -4.84918673E-05
   35.7700005      -4.87119032E-05
   35.9000015      -4.89147169E-05
   36.0299988      -4.91001083E-05
   36.1599998      -4.92678919E-05
   36.2900009      -4.94178821E-05
   36.4199982      -4.95499189E-05
   36.5499992      -4.96638531E-05
   36.6800003      -4.97595465E-05
   36.8100014      -4.98368718E-05
   36.9399986      -4.98957124E-05
   37.0699997      -4.99359521E-05
   37.2000008      -4.99574999E-05
   37.3300018      -4.99602575E-05
   37.4599991      -4.99441412E-05
   37.5900002      -4.99090784E-05
   37.7200012      -4.98550071E-05
   37.8499985      -4.97818764E-05
   37.9799995      -4.96896500E-05
   38.1100006      -4.95783133E-05
   38.2400017      -4.94478481E-05
   38.3699989      -4.92982726E-05
   38.5000000      -4.91296196E-05
   38.6300011      -4.89419363E-05
   38.7599983      -4.87352954E-05
   38.8899994      -4.85097771E-05
   39.0200005      -4.82654905E-05
   39.1500015      -4.80025556E-05
   39.2799988      -4.77211106E-05
   39.4099998      -4.74213011E-05
   39.5400009      -4.71032872E-05
   39.6699982      -4.67672326E-05
   39.7999992      -4.64133227E-05
   39.9300003      -4.60417323E-05
   40.0600014      -4.56526577E-05
   40.1899986      -4.52463028E-05
   40.3199997      -4.48228639E-05
   40.4500008      -4.43825556E-05
   40.5800018      -4.39256073E-05
   40.7099991      -4.34522481E-05
   40.8400002      -4.29627180E-05
   40.9700012      -4.24572754E-05
   41.0999985      -4.19361859E-05
   41.2299995      -4.13997404E-05
   41.3600006      -4.08482301E-05
   41.4900017      -4.02819751E-05
   41.6199989      -3.97013027E-05
   41.7500000      -3.91065514E-05
   41.8800011      -3.84980813E-05
   42.0099983      -3.78762597E-05
   42.1399994      -3.72414579E-05
   42.2700005      -3.65940577E-05
   42.4000015      -3.59344449E-05
   42.5299988      -3.52630086E-05
   42.6599998      -3.45801382E-05
   42.7900009      -3.38862337E-05
   42.9199982      -3.31816882E-05
   43.0499992      -3.24668945E-05
   43.1800003      -3.17422491E-05
   43.3100014      -3.10081523E-05
   43.4399986      -3.02650151E-05
   43.5699997      -2.95132340E-05
   43.7000008      -2.87532257E-05
   43.8300018      -2.79854085E-05
   43.9599991      -2.72102116E-05
   44.0900002      -2.64280770E-05
   44.2200012      -2.56394414E-05
   44.3499985      -2.48447705E-05
   44.4799995      -2.40445188E-05
   44.6100006      -2.32391594E-05
   44.7400017      -2.24291616E-05
   44.8699989      -2.16150038E-05
   45.0000000      -2.07971607E-05
   45.1300011      -1.99761052E-05
   45.2599983      -1.91523104E-05
   45.3899994      -1.83262400E-05
   45.5200005      -1.74983543E-05
   45.6500015      -1.66691007E-05
   45.7799988      -1.58389284E-05
   45.9099998      -1.50082697E-05
   46.0400009      -1.41775572E-05
   46.1699982      -1.33472122E-05
   46.2999992      -1.25176584E-05
   46.4300003      -1.16893098E-05
   46.5600014      -1.08625845E-05
   46.6899986      -1.00378948E-05
   46.8199997      -9.21565879E-06
   46.9500008      -8.39629138E-06
   47.0800018      -7.58020997E-06
   47.2099991      -6.76783293E-06
   47.3400002      -5.95957727E-06
   47.4700012      -5.15585862E-06
   47.5999985      -4.35708807E-06
   47.7299995      -3.56366900E-06
   47.8600006      -2.77600020E-06
   47.9900017      -1.99447231E-06
   48.1199989      -1.21945880E-06
   48.2500000      -4.51322848E-07
   48.3800011       3.09587278E-07
   48.5099983       1.06293646E-06
   48.6399994       1.80840266E-06
   48.7700005       2.54568158E-06
   48.9000015       3.27447674E-06
   49.0299988       3.99450755E-06
   49.1599998       4.70549503E-06
   49.2900009       5.40717565E-06
   49.4199982       6.09928929E-06
   49.5499992       6.78157949E-06
   49.6800003       7.45379748E-06
   49.8100014       8.11569589E-06
   49.9399986       8.76702961E-06
   50.0699997       9.40756036E-06
   50.2000008       1.00370544E-05
   50.3300018       1.06552852E-05
   50.4599991       1.12620328E-05
   50.5900002       1.18570933E-05
   50.7200012       1.24402713E-05
   50.8499985       1.30113822E-05
   50.9799995       1.35702639E-05
   51.1100006       1.41167684E-05
   51.2400017       1.46507600E-05
   51.3699989       1.51721233E-05
   51.5000000       1.56807619E-05
   51.6300011       1.61765893E-05
   51.7599983       1.66595328E-05
   51.8899994       1.71295324E-05
   52.0200005       1.75865353E-05
   52.1500015       1.80304978E-05
   52.2799988       1.84613800E-05
   52.4099998       1.88791455E-05
   52.5400009       1.92837633E-05
   52.6699982       1.96752044E-05
   52.7999992       2.00534396E-05
   52.9300003       2.04184416E-05
   53.0600014       2.07701942E-05
   53.1899986       2.11086826E-05
   53.3199997       2.14338997E-05
   53.4500008       2.17458455E-05
   53.5800018       2.20445363E-05
   53.7099991       2.23299958E-05
   53.8400002       2.26022621E-05
   53.9700012       2.28613881E-05
   54.0999985       2.31074391E-05
   54.2299995       2.33404899E-05
   54.3600006       2.35606349E-05
   54.4900017       2.37679687E-05
   54.6199989       2.39626024E-05
   54.7500000       2.41446451E-05
   54.8800011       2.43142185E-05
   55.0099983       2.44714392E-05
   55.1399994       2.46164254E-05
   55.2700005       2.47492972E-05
   55.4000015       2.48701672E-05
   55.5299988       2.49791519E-05
   55.6599998       2.50763642E-05
   55.7900009       2.51619131E-05
   55.9199982       2.52359114E-05
   56.0499992       2.52984737E-05
   56.1800003       2.53497183E-05
   56.3100014       2.53897724E-05
   56.4399986       2.54187617E-05
   56.5699997       2.54368333E-05
   56.7000008       2.54441293E-05
   56.8300018       2.54408151E-05
   56.9599991       2.54270508E-05
   57.0900002       2.54030165E-05
   57.2200012       2.53688868E-05
   57.3499985       2.53248454E-05
   57.4799995       2.52710797E-05
   57.6100006       2.52077698E-05
   57.7400017       2.51350975E-05
   57.8699989       2.50532376E-05
   58.0000000       2.49623590E-05
   58.1300011       2.48626202E-05
   58.2599983       2.47541757E-05
   58.3899994       2.46371710E-05
   58.5200005       2.45117390E-05
   58.6500015       2.43780160E-05
   58.7799988       2.42361257E-05
   58.9099998       2.40861955E-05
   59.0400009       2.39283490E-05
   59.1699982       2.37627100E-05
   59.2999992       2.35894113E-05
   59.4300003       2.34085819E-05
   59.5600014       2.32203583E-05
   59.6899986       2.30248843E-05
   59.8199997       2.28223016E-05
   59.9500008       2.26127595E-05
   60.0800018       2.23964016E-05
   60.2099991       2.21733753E-05
   60.3400002       2.19438225E-05
   60.4700012       2.17078759E-05
   60.5999985       2.14656611E-05
   60.7299995       2.12172963E-05
   60.8600006       2.09628834E-05
   60.9900017       2.07025223E-05
   61.1199989       2.04362932E-05
   61.2500000       2.01642688E-05
   61.3800011       1.98865164E-05
   61.5099983       1.96030905E-05
   61.6399994       1.93140422E-05
   61.7700005       1.90194296E-05
   61.9000015       1.87192982E-05
   62.0299988       1.84137043E-05
   62.1599998       1.81027026E-05
   62.2900009       1.77863567E-05
   62.4199982       1.74647339E-05
   62.5499992       1.71379070E-05
   62.6800003       1.68059578E-05
   62.8100014       1.64689609E-05
   62.9399986       1.61270018E-05
   63.0699997       1.57801624E-05
   63.2000008       1.54285244E-05
   63.3300018       1.50721589E-05
   63.4599991       1.47111368E-05
   63.5900002       1.43455181E-05
   63.7200012       1.39753593E-05
   63.8499985       1.36007020E-05
   63.9799995       1.32215882E-05
   64.1100006       1.28380480E-05
   64.2399979       1.24501112E-05
   64.3700027       1.20578034E-05
   64.5000000       1.16611518E-05
   64.6299973       1.12601865E-05
   64.7600021       1.08549420E-05
   64.8899994       1.04454621E-05
   65.0199966       1.00317975E-05
   65.1500015       9.61400929E-06
   65.2799988       9.19216473E-06
   65.4100037       8.76634294E-06
   65.5400009       8.33663034E-06
   65.6699982       7.90311606E-06
   65.8000031       7.46589649E-06
   65.9300003       7.02506850E-06
   66.0599976       6.58072668E-06
   66.1900024       6.13296424E-06
   66.3199997       5.68187079E-06
   66.4499969       5.22753044E-06
   66.5800018       4.77002231E-06
   66.7099991       4.30942100E-06
   66.8399963       3.84579698E-06
   66.9700012       3.37921915E-06
   67.0999985       2.90975458E-06
   67.2300034       2.43747536E-06
   67.3600006       1.96245833E-06
   67.4899979       1.48478728E-06
   67.6200027       1.00455588E-06
   67.7500000       5.21871698E-07
   67.8799973       3.68519437E-08
   68.0100021      -4.50371346E-07
   68.1399994      -9.39655138E-07
   68.2699966      -1.43084367E-06
   68.4000015      -1.92377183E-06
   68.5299988      -2.41826797E-06
   68.6600037      -2.91415336E-06
   68.7900009      -3.41124769E-06
   68.9199982      -3.90936930E-06
   69.0500031      -4.40833901E-06
   69.1800003      -4.90797993E-06
   69.3099976      -5.40811789E-06
   69.4400024      -5.90858326E-06
   69.5699997      -6.40920962E-06
   69.6999969      -6.90983052E-06
   69.8300018      -7.41028089E-06
   69.9599991      -7.91039201E-06
   70.0899963      -8.40999201E-06
   70.2200012      -8.90889896E-06
   70.3499985      -9.40692280E-06
   70.4800034      -9.90386343E-06
   70.6100006      -1.03995062E-05
   70.7399979      -1.08936247E-05
   70.8700027      -1.13859796E-05
   71.0000000      -1.18763210E-05
   71.1299973      -1.23643904E-05
   71.2600021      -1.28499169E-05
   71.3899994      -1.33326321E-05
   71.5199966      -1.38122623E-05
   71.6500015      -1.42885337E-05
   71.7799988      -1.47611809E-05
   71.9100037      -1.52299408E-05
   72.0400009      -1.56945553E-05
   72.1699982      -1.61547796E-05
   72.3000031      -1.66103746E-05
   72.4300003      -1.70611074E-05
   72.5599976      -1.75067507E-05
   72.6900024      -1.79470826E-05
   72.8199997      -1.83818829E-05
   72.9499969      -1.88109261E-05
   73.0800018      -1.92339903E-05
   73.2099991      -1.96508427E-05
   73.3399963      -2.00612467E-05
   73.4700012      -2.04649550E-05
   73.5999985      -2.08617166E-05
   73.7300034      -2.12512714E-05
   73.8600006      -2.16333538E-05
   73.9899979      -2.20077000E-05
   74.1200027      -2.23740371E-05
   74.2500000      -2.27321016E-05
   74.3799973      -2.30816295E-05
   74.5100021      -2.34223698E-05
   74.6399994      -2.37540808E-05
   74.7699966      -2.40765312E-05
   74.9000015      -2.43895065E-05
   75.0299988      -2.46928030E-05
   75.1600037      -2.49862333E-05
   75.2900009      -2.52696209E-05
   75.4199982      -2.55428022E-05
   75.5500031      -2.58056152E-05
   75.6800003      -2.60579163E-05
   75.8099976      -2.62995545E-05
   75.9400024      -2.65303843E-05
   76.0699997      -2.67502564E-05
   76.1999969      -2.69590219E-05
   76.3300018      -2.71565314E-05
   76.4599991      -2.73426267E-05
   76.5899963      -2.75171533E-05
   76.7200012      -2.76799565E-05
   76.8499985      -2.78308817E-05
   76.9800034      -2.79697797E-05
   77.1100006      -2.80965050E-05
   77.2399979      -2.82109286E-05
   77.3700027      -2.83129320E-05
   77.5000000      -2.84024081E-05
   77.6299973      -2.84792714E-05
   77.7600021      -2.85434471E-05
   77.8899994      -2.85948827E-05
   78.0199966      -2.86335344E-05
   78.1500015      -2.86593786E-05
   78.2799988      -2.86724026E-05
   78.4100037      -2.86726008E-05
   78.5400009      -2.86599770E-05
   78.6699982      -2.86345385E-05
   78.8000031      -2.85962924E-05
   78.9300003      -2.85452479E-05
   79.0599976      -2.84814159E-05
   79.1900024      -2.84048001E-05
   79.3199997      -2.83154059E-05
   79.4499969      -2.82132460E-05
   79.5800018      -2.80983222E-05
   79.7099991      -2.79706528E-05
   79.8399963      -2.78302559E-05
   79.9700012      -2.76771680E-05
   80.0999985      -2.75114271E-05
   80.2300034      -2.73330934E-05
   80.3600006      -2.71422414E-05
   80.4899979      -2.69389584E-05
   80.6200027      -2.67233572E-05
   80.7500000      -2.64955597E-05
   80.8799973      -2.62557060E-05
   81.0100021      -2.60039451E-05
   81.1399994      -2.57404408E-05
   81.2699966      -2.54653660E-05
   81.4000015      -2.51788952E-05
   81.5299988      -2.48812048E-05
   81.6600037      -2.45724732E-05
   81.7900009      -2.42528822E-05
   81.9199982      -2.39226065E-05
   82.0500031      -2.35818206E-05
   82.1800003      -2.32307011E-05
   82.3099976      -2.28694225E-05
   82.4400024      -2.24981613E-05
   82.5699997      -2.21170958E-05
   82.6999969      -2.17264187E-05
   82.8300018      -2.13263265E-05
   82.9599991      -2.09170303E-05
   83.0899963      -2.04987537E-05
   83.2200012      -2.00717350E-05
   83.3499985      -1.96362271E-05
   83.4800034      -1.91924937E-05
   83.6100006      -1.87408132E-05
   83.7399979      -1.82814747E-05
   83.8700027      -1.78147766E-05
   84.0000000      -1.73410153E-05
   84.1299973      -1.68605002E-05
   84.2600021      -1.63735313E-05
   84.3899994      -1.58804069E-05
   84.5199966      -1.53814235E-05
   84.6500015      -1.48768677E-05
   84.7799988      -1.43670259E-05
   84.9100037      -1.38521737E-05
   85.0400009      -1.33325811E-05
   85.1699982      -1.28085203E-05
   85.3000031      -1.22802576E-05
   85.4300003      -1.17480649E-05
   85.5599976      -1.12122152E-05
   85.6900024      -1.06729894E-05
   85.8199997      -1.01306796E-05
   85.9499969      -9.58558576E-06
   86.0800018      -9.03801811E-06
   86.2099991      -8.48829495E-06
   86.3399963      -7.93674917E-06
   86.4700012      -7.38371318E-06
   86.5999985      -6.82953078E-06
   86.7300034      -6.27454483E-06
   86.8600006      -5.71909777E-06