  -24.4200001         0.00000000    
  -24.2900009        -2.48916079E-11
  -24.1599998        -7.45536272E-11
  -24.0300007        -1.47252169E-10
  -23.8999996        -2.39826325E-10
  -23.7700005        -3.47997409E-10
  -23.6399994        -4.66772176E-10
  -23.5100002        -5.90902272E-10
  -23.3799992        -7.15358606E-10
  -23.2500000        -8.35778724E-10
  -23.1200008        -9.48849221E-10
  -22.9899998        -1.05259401E-09
  -22.8600006        -1.14654408E-09
  -22.7299995        -1.23178012E-09
  -22.6000004        -1.31084577E-09
  -22.4699993        -1.38754008E-09
  -22.3400002        -1.46660850E-09
  -22.2099991        -1.55335633E-09
  -22.0799999        -1.65321623E-09
  -21.9500008        -1.77130421E-09
  -21.8199997        -1.91199967E-09
  -21.6900005        -2.07858508E-09
  -21.5599995        -2.27297714E-09
  -21.4300003        -2.49557308E-09
  -21.2999992        -2.74522982E-09
  -21.1700001        -3.01938008E-09
  -21.0400009        -3.31427663E-09
  -20.9099998        -3.62534847E-09
  -20.7800007        -3.94763688E-09
  -20.6499996        -4.27627045E-09
  -20.5200005        -4.60693794E-09
  -20.3899994        -4.93631713E-09
  -20.2600002        -5.26241228E-09
  -20.1299992        -5.58478019E-09
  -20.0000000        -5.90461768E-09
  -19.8700008        -6.22471186E-09
  -19.7399998        -6.54924692E-09
  -19.6100006        -6.88350399E-09
  -19.4799995        -7.23346893E-09
  -19.3500004        -7.60538832E-09
  -19.2199993        -8.00531819E-09
  -19.0900002        -8.43868975E-09
  -18.9599991        -8.90994034E-09
  -18.8299999        -9.42222567E-09
  -18.7000008        -9.97724925E-09
  -18.5699997        -1.05752083E-08
  -18.4400005        -1.12148637E-08
  -18.3099995        -1.18937331E-08
  -18.1800003        -1.26083872E-08
  -18.0499992        -1.33548239E-08
  -17.9200001        -1.41288963E-08
  -17.7900009        -1.49267674E-08
  -17.6599998        -1.57453286E-08
  -17.5300007        -1.65825771E-08
  -17.3999996        -1.74378876E-08
  -17.2700005        -1.83121944E-08
  -17.1399994        -1.92080041E-08
  -17.0100002        -2.01293027E-08
  -16.8799992        -2.10813127E-08
  -16.7500000        -2.20701502E-08
  -16.6200008        -2.31024000E-08
  -16.4899998        -2.41846436E-08
  -16.3600006        -2.53230024E-08
  -16.2299995        -2.65227236E-08
  -16.1000004        -2.77878502E-08
  -15.9700003        -2.91209901E-08
  -15.8400002        -3.05232355E-08
  -15.7100000        -3.19941904E-08
  -15.5799999        -3.35321531E-08
  -15.4499998        -3.51343878E-08
  -15.3199997        -3.67974842E-08
  -15.1899996        -3.85177792E-08
  -15.0600004        -4.02917664E-08
  -14.9300003        -4.21165502E-08
  -14.8000002        -4.39901555E-08
  -14.6700001        -4.59118645E-08
  -14.5400000        -4.78823807E-08
  -14.4099998        -4.99038855E-08
  -14.2799997        -5.19800167E-08
  -14.1499996        -5.41156773E-08
  -14.0200005        -5.63167717E-08
  -13.8900003        -5.85898299E-08
  -13.7600002        -6.09415949E-08
  -13.6300001        -6.33785575E-08
  -13.5000000        -6.59065336E-08
  -13.3699999        -6.85302908E-08
  -13.2399998        -7.12532611E-08
  -13.1099997        -7.40773132E-08
  -12.9799995        -7.70027739E-08
  -12.8500004        -8.00284710E-08
  -12.7200003        -8.31519813E-08
  -12.5900002        -8.63699299E-08
  -12.4600000        -8.96784087E-08
  -12.3299999        -9.30734174E-08
  -12.1999998        -9.65513109E-08
  -12.0699997        -1.00109197E-07
  -11.9399996        -1.03745251E-07
  -11.8100004        -1.07458959E-07
  -11.6800003        -1.11251190E-07
  -11.5500002        -1.15124230E-07
  -11.4200001        -1.19081591E-07
  -11.2900000        -1.23127791E-07
  -11.1599998        -1.27267981E-07
  -11.0299997        -1.31507619E-07
  -10.8999996        -1.35852005E-07
  -10.7700005        -1.40305858E-07
  -10.6400003        -1.44872971E-07
  -10.5100002        -1.49555888E-07
  -10.3800001        -1.54355618E-07
  -10.2500000        -1.59271607E-07
  -10.1199999        -1.64301767E-07
  -9.98999977        -1.69442501E-07
  -9.85999966        -1.74689077E-07
  -9.72999954        -1.80035869E-07
  -9.60000038        -1.85476864E-07
  -9.47000027        -1.91006080E-07
  -9.34000015        -1.96617890E-07
  -9.21000004        -2.02307589E-07
  -9.07999992        -2.08071555E-07
  -8.94999981        -2.13907398E-07
  -8.81999969        -2.19814169E-07
  -8.68999958        -2.25792093E-07
  -8.56000042        -2.31842407E-07
  -8.43000031        -2.37967114E-07
  -8.30000019        -2.44168518E-07
  -8.17000008        -2.50448750E-07
  -8.03999996        -2.56809528E-07
  -7.90999985        -2.63251536E-07
  -7.78000021        -2.69774205E-07
  -7.65000010        -2.76375715E-07
  -7.51999998        -2.83052572E-07
  -7.38999987        -2.89799885E-07
  -7.26000023        -2.96611404E-07
  -7.13000011        -3.03479794E-07
  -7.00000000        -3.10397070E-07
  -6.86999989        -3.17354875E-07
  -6.73999977        -3.24344825E-07
  -6.61000013        -3.31359132E-07
  -6.48000002        -3.38390691E-07
  -6.34999990        -3.45433477E-07
  -6.21999979        -3.52482516E-07
  -6.09000015        -3.59534113E-07
  -5.96000004        -3.66585567E-07
  -5.82999992        -3.73634975E-07
  -5.69999981        -3.80680717E-07
  -5.57000017        -3.87721059E-07
  -5.44000006        -3.94753783E-07
  -5.30999994        -4.01775367E-07
  -5.17999983        -4.08780778E-07
  -5.05000019        -4.15763196E-07
  -4.92000008        -4.22713526E-07
  -4.78999996        -4.29620599E-07
  -4.65999985        -4.36471055E-07
  -4.53000021        -4.43249860E-07
  -4.40000010        -4.49940728E-07
  -4.26999998        -4.56526521E-07
  -4.13999987        -4.62990073E-07
  -4.01000023        -4.69314529E-07
  -3.88000011        -4.75484256E-07
  -3.75000000        -4.81485131E-07
  -3.61999989        -4.87304931E-07
  -3.49000001        -4.92933736E-07
  -3.35999990        -4.98363590E-07
  -3.23000002        -5.03588637E-07
  -3.09999990        -5.08604671E-07
  -2.97000003        -5.13408622E-07
  -2.83999991        -5.17997989E-07
  -2.71000004        -5.22370101E-07
  -2.57999992        -5.26521262E-07
  -2.45000005        -5.30446414E-07
  -2.31999993        -5.34138223E-07
  -2.19000006        -5.37586914E-07
  -2.05999994        -5.40779979E-07
  -1.92999995        -5.43701788E-07
  -1.79999995        -5.46334263E-07
  -1.66999996        -5.48657056E-07
  -1.53999996        -5.50648167E-07
  -1.40999997        -5.52284860E-07
  -1.27999997        -5.53544226E-07
  -1.14999998        -5.54404153E-07
  -1.01999998        -5.54844405E-07
 -0.889999986        -5.54846679E-07
 -0.759999990        -5.54395911E-07
 -0.629999995        -5.53479936E-07
 -0.500000000        -5.52089546E-07
 -0.370000005        -5.50218772E-07
 -0.239999995        -5.47863920E-07
 -0.109999999        -5.45023283E-07
   1.99999996E-02    -5.41696352E-07
  0.150000006        -5.37882556E-07
  0.280000001        -5.33581044E-07
  0.409999996        -5.28789144E-07
  0.540000021        -5.23502365E-07
  0.670000017        -5.17713374E-07
  0.800000012        -5.11411884E-07
  0.930000007        -5.04584534E-07
   1.05999994        -4.97214955E-07
   1.19000006        -4.89284162E-07
   1.32000005        -4.80771462E-07
   1.45000005        -4.71654658E-07
   1.58000004        -4.61911185E-07
   1.71000004        -4.51519270E-07
   1.84000003        -4.40458194E-07
   1.97000003        -4.28709768E-07
   2.09999990        -4.16258359E-07
   2.23000002        -4.03091462E-07
   2.35999990        -3.89199869E-07
   2.49000001        -3.74577525E-07
   2.61999989        -3.59221161E-07
   2.75000000        -3.43129983E-07
   2.88000011        -3.26304416E-07
   3.00999999        -3.08745882E-07
   3.14000010        -2.90455802E-07
   3.26999998        -2.71434772E-07
   3.40000010        -2.51681627E-07
   3.52999997        -2.31193624E-07
   3.66000009        -2.09965663E-07
   3.78999996        -1.87990238E-07
   3.92000008        -1.65257546E-07
   4.05000019        -1.41756146E-07
   4.17999983        -1.17472936E-07
   4.30999994        -9.23941457E-08
   4.44000006        -6.65058622E-08
   4.57000017        -3.97947559E-08
   4.69999981        -1.22489459E-08
   4.82999992         1.61418932E-08
   4.96000004         4.53854696E-08
   5.09000015         7.54871010E-08
   5.21999979         1.06449413E-07
   5.34999990         1.38272469E-07
   5.48000002         1.70954252E-07
   5.61000013         2.04491059E-07
   5.73999977         2.38878215E-07
   5.86999989         2.74110675E-07
   6.00000000         3.10183765E-07
   6.13000011         3.47093703E-07
   6.26000023         3.84838557E-07
   6.38999987         4.23417873E-07
   6.51999998         4.62833725E-07
   6.65000010         5.03089950E-07
   6.78000021         5.44192517E-07
   6.90999985         5.86148758E-07
   7.03999996         6.28967086E-07
   7.17000008         6.72656199E-07
   7.30000019         7.17224623E-07
   7.42999983         7.62679917E-07
   7.55999994         8.09028336E-07
   7.69000006         8.56273914E-07
   7.82000017         9.04418869E-07
   7.94999981         9.53462973E-07
   8.07999992         1.00340355E-06
   8.21000004         1.05423612E-06
   8.34000015         1.10595397E-06
   8.47000027         1.15854948E-06
   8.60000038         1.21201367E-06
   8.72999954         1.26633768E-06
   8.85999966         1.32151263E-06
   8.98999977         1.37753034E-06
   9.11999989         1.43438331E-06
   9.25000000         1.49206517E-06
   9.38000011         1.55057057E-06
   9.51000023         1.60989532E-06
   9.64000034         1.67003543E-06
   9.77000046         1.73098726E-06
   9.89999962         1.79274582E-06
   10.0299997         1.85530575E-06
   10.1599998         1.91865956E-06
   10.2900000         1.98279736E-06
   10.4200001         2.04770618E-06
   10.5500002         2.11336987E-06
   10.6800003         2.17976867E-06
   10.8100004         2.24688006E-06
   10.9399996         2.31467766E-06
   11.0699997         2.38313237E-06
   11.1999998         2.45221236E-06
   11.3299999         2.52188352E-06
   11.4600000         2.59211060E-06
   11.5900002         2.66285679E-06
   11.7200003         2.73408409E-06
   11.8500004         2.80575455E-06
   11.9799995         2.87782927E-06
   12.1099997         2.95026894E-06
   12.2399998         3.02303374E-06
   12.3699999         3.09608208E-06
   12.5000000         3.16937144E-06
   12.6300001         3.24285611E-06
   12.7600002         3.31648880E-06
   12.8900003         3.39021790E-06
   13.0200005         3.46398701E-06
   13.1499996         3.53773680E-06
   13.2799997         3.61140201E-06
   13.4099998         3.68491214E-06
   13.5400000         3.75819172E-06
   13.6700001         3.83116048E-06
   13.8000002         3.90373361E-06
   13.9300003         3.97582244E-06
   14.0600004         4.04733419E-06
   14.1899996         4.11817473E-06
   14.3199997         4.18824720E-06
   14.4499998         4.25745293E-06
   14.5799999         4.32569323E-06
   14.7100000         4.39286896E-06
   14.8400002         4.45888008E-06
   14.9700003         4.52362474E-06
   15.1000004         4.58700333E-06
   15.2299995         4.64891173E-06
   15.3599997         4.70924579E-06
   15.4899998         4.76789955E-06
   15.6199999         4.82476207E-06
   15.7500000         4.87972011E-06
   15.8800001         4.93265497E-06
   16.0100002         4.98344343E-06
   16.1399994         5.03195724E-06
   16.2700005         5.07806317E-06
   16.3999996         5.12162296E-06
   16.5300007         5.16249293E-06
   16.6599998         5.20052663E-06
   16.7900009         5.23557264E-06
   16.9200001         5.26747772E-06
   17.0499992         5.29608587E-06
   17.1800003         5.32124159E-06
   17.3099995         5.34278661E-06
   17.4400005         5.36056541E-06
   17.5699997         5.37442020E-06
   17.7000008         5.38419545E-06
   17.8299999         5.38973609E-06
   17.9599991         5.39088660E-06
   18.0900002         5.38749100E-06
   18.2199993         5.37939377E-06
   18.3500004         5.36643438E-06
   18.4799995         5.34845367E-06
   18.6100006         5.32528702E-06
   18.7399998         5.29676845E-06
   18.8700008         5.26272470E-06
   19.0000000         5.22298342E-06
   19.1299992         5.17736362E-06
   19.2600002         5.12568568E-06
   19.3899994         5.06776450E-06
   19.5200005         5.00341457E-06
   19.6499996         4.93244943E-06
   19.7800007         4.85468308E-06
   19.9099998         4.76993000E-06
   20.0400009         4.67801010E-06
   20.1700001         4.57874603E-06
   20.2999992         4.47196362E-06
   20.4300003         4.35749416E-06
   20.5599995         4.23517440E-06
   20.6900005         4.10484790E-06
   20.8199997         3.96636051E-06
   20.9500008         3.81956670E-06
   21.0799999         3.66432300E-06
   21.2099991         3.50049027E-06
   21.3400002         3.32793365E-06
   21.4699993         3.14651902E-06
   21.6000004         2.95611653E-06
   21.7299995         2.75659636E-06
   21.8600006         2.54783345E-06
   21.9899998         2.32970388E-06
   22.1200008         2.10208759E-06
   22.2500000         1.86486716E-06
   22.3799992         1.61793264E-06
   22.5100002         1.36117717E-06
   22.6399994         1.09450230E-06
   22.7700005         8.17819114E-07
   22.8999996         5.31046567E-07
   23.0300007         2.34114665E-07
   23.1599998        -7.30350180E-08
   23.2900009        -3.90448236E-07
   23.4200001        -7.18162596E-07
   23.5499992        -1.05620074E-06
   23.6800003        -1.40457621E-06
   23.8099995        -1.76328967E-06
   23.9400005        -2.13233511E-06
   24.0699997        -2.51169286E-06
   24.2000008        -2.90133676E-06
   24.3299999        -3.30123180E-06
   24.4599991        -3.71133524E-06
   24.5900002        -4.13159978E-06
   24.7199993        -4.56196676E-06
   24.8500004        -5.00237547E-06
   24.9799995        -5.45275316E-06
   25.1100006        -5.91301796E-06
   25.2399998        -6.38308347E-06
   25.3700008        -6.86285057E-06
   25.5000000        -7.35220829E-06
   25.6299992        -7.85103475E-06
   25.7600002        -8.35919855E-06
   25.8899994        -8.87654824E-06
   26.0200005        -9.40292466E-06
   26.1499996        -9.93815229E-06
   26.2800007        -1.04820447E-05
   26.4099998        -1.10343999E-05
   26.5400009        -1.15950043E-05
   26.6700001        -1.21636340E-05
   26.7999992        -1.27400544E-05
   26.9300003        -1.33240192E-05
   27.0599995        -1.39152762E-05
   27.1900005        -1.45135600E-05
   27.3199997        -1.51186032E-05
   27.4500008        -1.57301274E-05
   27.5799999        -1.63478471E-05
   27.7099991        -1.69714731E-05
   27.8400002        -1.76007052E-05
   27.9699993        -1.82352342E-05
   28.1000004        -1.88747454E-05
   28.2299995        -1.95189150E-05
   28.3600006        -2.01674084E-05
   28.4899998        -2.08198744E-05
   28.6200008        -2.14759621E-05
   28.7500000        -2.21352966E-05
   28.8799992        -2.27975088E-05
   29.0100002        -2.34622021E-05
   29.1399994        -2.41289817E-05
   29.2700005        -2.47974403E-05
   29.3999996        -2.54671595E-05
   29.5300007        -2.61377136E-05
   29.6599998        -2.68086787E-05
   29.7900009        -2.74796184E-05
   29.9200001        -2.81500998E-05
   30.0499992        -2.88196861E-05
   30.1800003        -2.94879337E-05
   30.3099995        -3.01544060E-05
   30.4400005        -3.08186573E-05
   30.5699997        -3.14802455E-05
   30.7000008        -3.21387270E-05
   30.8299999        -3.27936614E-05
   30.9599991        -3.34445976E-05
   31.0900002        -3.40910883E-05
   31.2199993        -3.47326786E-05
   31.3500004        -3.53689247E-05
   31.4799995        -3.59993610E-05
   31.6100006        -3.66235327E-05
   31.7399998        -3.72409850E-05
   31.8700008        -3.78512486E-05
   32.0000000        -3.84538616E-05
   32.1300011        -3.90483692E-05
   32.2599983        -3.96343094E-05
   32.3899994        -4.02112200E-05
   32.5200005        -4.07786574E-05
   32.6500015        -4.13361704E-05
   32.7799988        -4.18833188E-05
   32.9099998        -4.24196733E-05
   33.0400009        -4.29448082E-05
   33.1699982        -4.34583126E-05
   33.2999992        -4.39597788E-05
   33.4300003        -4.44487960E-05
   33.5600014        -4.49249892E-05
   33.6899986        -4.53879657E-05
   33.8199997        -4.58373543E-05
   33.9500008        -4.62727803E-05
   34.0800018        -4.66938909E-05
   34.2099991        -4.71003223E-05
   34.3400002        -4.74917324E-05
   34.4700012        -4.78677757E-05
   34.5999985        -4.82281139E-05
   34.7299995        -4.85724267E-05
   34.8600006        -4.89003905E-05
   34.9900017        -4.92116960E-05
   35.1199989        -4.95060485E-05
   35.2500000        -4.97831643E-05
   35.3800011        -5.00427705E-05
   35.5099983        -5.02846087E-05
   35.6399994        -5.05084281E-05
   35.7700005        -5.07140103E-05
   35.9000015        -5.09011297E-05
   36.0299988        -5.10695936E-05
   36.1599998        -5.12192164E-05
   36.2900009        -5.13498344E-05
   36.4199982        -5.14612802E-05
   36.5499992        -5.15534193E-05
   36.6800003        -5.16261098E-05
   36.8100014        -5.16792352E-05
   36.9399986        -5.17126864E-05
   37.0699997        -5.17263652E-05
   37.2000008        -5.17201734E-05
   37.3300018        -5.16940454E-05
   37.4599991        -5.16479122E-05
   37.5900002        -5.15817119E-05
   37.7200012        -5.14954118E-05
   37.8499985        -5.13889754E-05
   37.9799995        -5.12623883E-05
   38.1100006        -5.11156613E-05
   38.2400017        -5.09488018E-05
   38.3699989        -5.07618533E-05
   38.5000000        -5.05548705E-05
   38.6300011        -5.03279225E-05
   38.7599983        -5.00810966E-05
   38.8899994        -4.98144946E-05
   39.0200005        -4.95282402E-05
   39.1500015        -4.92224644E-05
   39.2799988        -4.88973237E-05
   39.4099998        -4.85529818E-05
   39.5400009        -4.81896132E-05
   39.6699982        -4.78073925E-05
   39.7999992        -4.74065237E-05
   39.9300003        -4.69872139E-05
   40.0600014        -4.65496742E-05
   40.1899986        -4.60941228E-05
   40.3199997        -4.56207963E-05
   40.4500008        -4.51299384E-05
   40.5800018        -4.46218000E-05
   40.7099991        -4.40966360E-05
   40.8400002        -4.35547336E-05
   40.9700012        -4.29963766E-05
   41.0999985        -4.24218597E-05
   41.2299995        -4.18315067E-05
   41.3600006        -4.12256450E-05
   41.4900017        -4.06046129E-05
   41.6199989        -3.99687779E-05
   41.7500000        -3.93184964E-05
   41.8800011        -3.86541615E-05
   42.0099983        -3.79761477E-05
   42.1399994        -3.72848626E-05
   42.2700005        -3.65807100E-05
   42.4000015        -3.58640973E-05
   42.5299988        -3.51354429E-05
   42.6599998        -3.43951651E-05
   42.7900009        -3.36436860E-05
   42.9199982        -3.28814349E-05
   43.0499992        -3.21088410E-05
   43.1800003        -3.13263372E-05
   43.3100014        -3.05343638E-05
   43.4399986        -2.97333609E-05
   43.5699997        -2.89237760E-05
   43.7000008        -2.81060620E-05
   43.8300018        -2.72806774E-05
   43.9599991        -2.64480841E-05
   44.0900002        -2.56087624E-05
   44.2200012        -2.47631851E-05
   44.3499985        -2.39118399E-05
   44.4799995        -2.30552123E-05
   44.6100006        -2.21938026E-05
   44.7400017        -2.13281055E-05
   44.8699989        -2.04586158E-05
   45.0000000        -1.95858393E-05
   45.1300011        -1.87102687E-05
   45.2599983        -1.78324026E-05
   45.3899994        -1.69527320E-05
   45.5200005        -1.60717409E-05
   45.6500015        -1.51899194E-05
   45.7799988        -1.43077432E-05
   45.9099998        -1.34256807E-05
   46.0400009        -1.25442057E-05
   46.1699982        -1.16637812E-05
   46.2999992        -1.07848673E-05
   46.4300003        -9.90792250E-06
   46.5600014        -9.03340333E-06
   46.6899986        -8.16176362E-06
   46.8199997        -7.29345629E-06
   46.9500008        -6.42893428E-06
   47.0800018        -5.56864825E-06
   47.2099991        -4.71304747E-06
   47.3400002        -3.86257625E-06
   47.4700012        -3.01767841E-06
   47.5999985        -2.17879028E-06
   47.7299995        -1.34634183E-06
   47.8600006        -5.20758476E-07
   47.9900017         2.97546734E-07
   48.1199989         1.10816961E-06
   48.2500000         1.91071786E-06
   48.3800011         2.70480973E-06
   48.5099983         3.49007632E-06
   48.6399994         4.26615998E-06
   48.7700005         5.03271531E-06
   48.9000015         5.78940853E-06
   49.0299988         6.53591496E-06
   49.1599998         7.27192037E-06
   49.2900009         7.99711870E-06
   49.4199982         8.71121301E-06
   49.5499992         9.41391227E-06
   49.6800003         1.01049354E-05
   49.8100014         1.07840042E-05
   49.9399986         1.14508503E-05
   50.0699997         1.21052144E-05
   50.2000008         1.27468429E-05
   50.3300018         1.33754920E-05
   50.4599991         1.39909307E-05
   50.5900002         1.45929389E-05
   50.7200012         1.51813074E-05
   50.8499985         1.57558425E-05
   50.9799995         1.63163659E-05
   51.1100006         1.68627139E-05
   51.2400017         1.73947374E-05
   51.3699989         1.79123035E-05
   51.5000000         1.84152941E-05
   51.6300011         1.89036018E-05
   51.7599983         1.93771393E-05
   51.8899994         1.98358248E-05
   52.0200005         2.02795909E-05
   52.1500015         2.07083758E-05
   52.2799988         2.11221304E-05
   52.4099998         2.15208111E-05
   52.5400009         2.19043814E-05
   52.6699982         2.22728158E-05
   52.7999992         2.26260872E-05
   52.9300003         2.29641864E-05
   53.0600014         2.32871043E-05
   53.1899986         2.35948446E-05
   53.3199997         2.38874200E-05
   53.4500008         2.41648559E-05
   53.5800018         2.44271869E-05
   53.7099991         2.46744603E-05
   53.8400002         2.49067361E-05
   53.9700012         2.51240872E-05
   54.0999985         2.53266007E-05
   54.2299995         2.55143732E-05
   54.3600006         2.56875101E-05
   54.4900017         2.58461332E-05
   54.6199989         2.59903682E-05
   54.7500000         2.61203459E-05
   54.8800011         2.62362100E-05
   55.0099983         2.63381025E-05
   55.1399994         2.64261726E-05
   55.2700005         2.65005729E-05
   55.4000015         2.65614563E-05
   55.5299988         2.66089792E-05
   55.6599998         2.66432999E-05
   55.7900009         2.66645802E-05
   55.9199982         2.66729876E-05
   56.0499992         2.66686948E-05
   56.1800003         2.66518746E-05
   56.3100014         2.66227107E-05
   56.4399986         2.65813978E-05
   56.5699997         2.65281305E-05
   56.7000008         2.64631126E-05
   56.8300018         2.63865604E-05
   56.9599991         2.62986869E-05
   57.0900002         2.61997175E-05
   57.2200012         2.60898796E-05
   57.3499985         2.59694025E-05
   57.4799995         2.58385171E-05
   57.6100006         2.56974527E-05
   57.7400017         2.55464402E-05
   57.8699989         2.53857033E-05
   58.0000000         2.52154659E-05
   58.1300011         2.50359426E-05
   58.2599983         2.48473461E-05
   58.3899994         2.46498839E-05
   58.5200005         2.44437597E-05
   58.6500015         2.42291771E-05
   58.7799988         2.40063291E-05
   58.9099998         2.37754157E-05
   59.0400009         2.35366279E-05
   59.1699982         2.32901621E-05
   59.2999992         2.30362184E-05
   59.4300003         2.27749933E-05
   59.5600014         2.25066815E-05
   59.6899986         2.22314866E-05
   59.8199997         2.19496069E-05
   59.9500008         2.16612389E-05
   60.0800018         2.13665826E-05
   60.2099991         2.10658272E-05
   60.3400002         2.07591638E-05
   60.4700012         2.04467724E-05
   60.5999985         2.01288258E-05
   60.7299995         1.98054913E-05
   60.8600006         1.94769273E-05
   60.9900017         1.91432828E-05
   61.1199989         1.88046961E-05
   61.2500000         1.84613000E-05
   61.3800011         1.81132218E-05
   61.5099983         1.77605816E-05
   61.6399994         1.74034940E-05
   61.7700005         1.70420735E-05
   61.9000015         1.66764294E-05
   62.0299988         1.63066725E-05
   62.1599998         1.59329120E-05
   62.2900009         1.55552643E-05
   62.4199982         1.51738359E-05
   62.5499992         1.47887440E-05
   62.6800003         1.44000996E-05
   62.8100014         1.40080147E-05
   62.9399986         1.36125991E-05
   63.0699997         1.32139603E-05
   63.2000008         1.28122010E-05
   63.3300018         1.24074195E-05
   63.4599991         1.19997085E-05
   63.5900002         1.15891526E-05
   63.7200012         1.11758327E-05
   63.8499985         1.07598216E-05
   63.9799995         1.03411876E-05
   64.1100006         9.91999423E-06
   64.2399979         9.49630248E-06
   64.3700027         9.07017056E-06
   64.5000000         8.64165850E-06
   64.6299973         8.21082449E-06
   64.7600021         7.77772948E-06
   64.8899994         7.34243895E-06
   65.0199966         6.90501975E-06
   65.1500015         6.46554463E-06
   65.2799988         6.02408818E-06
   65.4100037         5.58072907E-06
   65.5400009         5.13554869E-06
   65.6699982         4.68863027E-06
   65.8000031         4.24005520E-06
   65.9300003         3.78990694E-06
   66.0599976         3.33826551E-06
   66.1900024         2.88521028E-06
   66.3199997         2.43081695E-06
   66.4499969         1.97515737E-06
   66.5800018         1.51830261E-06
   66.7099991         1.06032132E-06
   66.8399963         6.01279112E-07
   66.9700012         1.41243945E-07
   67.0999985        -3.19714388E-07
   67.2300034        -7.81524591E-07
   67.3600006        -1.24410963E-06
   67.4899979        -1.70738781E-06
   67.6200027        -2.17126785E-06
   67.7500000        -2.63565244E-06
   67.8799973        -3.10043629E-06
   68.0100021        -3.56550618E-06
   68.1399994        -4.03073955E-06
   68.2699966        -4.49600884E-06
   68.4000015        -4.96118128E-06
   68.5299988        -5.42611997E-06
   68.6600037        -5.89068304E-06
   68.7900009        -6.35472634E-06
   68.9199982        -6.81810843E-06
   69.0500031        -7.28068335E-06
   69.1800003        -7.74230830E-06
   69.3099976        -8.20284004E-06
   69.4400024        -8.66213395E-06
   69.5699997        -9.12004634E-06
   69.6999969        -9.57643351E-06
   69.8300018        -1.00311472E-05
   69.9599991        -1.04840365E-05
   70.0899963        -1.09349430E-05
   70.2200012        -1.13837032E-05
   70.3499985        -1.18301459E-05
   70.4800034        -1.22740912E-05
   70.6100006        -1.27153507E-05
   70.7399979        -1.31537299E-05
   70.8700027        -1.35890214E-05
   71.0000000        -1.40210159E-05
   71.1299973        -1.44494952E-05
   71.2600021        -1.48742392E-05
   71.3899994        -1.52950252E-05
   71.5199966        -1.57116301E-05
   71.6500015        -1.61238331E-05
   71.7799988        -1.65314141E-05
   71.9100037        -1.69341583E-05
   72.0400009        -1.73318549E-05
   72.1699982        -1.77242964E-05
   72.3000031        -1.81112828E-05
   72.4300003        -1.84926121E-05
   72.5599976        -1.88680933E-05
   72.6900024        -1.92375301E-05
   72.8199997        -1.96007277E-05
   72.9499969        -1.99574988E-05
   73.0800018        -2.03076434E-05
   73.2099991        -2.06509631E-05
   73.3399963        -2.09872596E-05
   73.4700012        -2.13163239E-05
   73.5999985        -2.16379540E-05
   73.7300034        -2.19519352E-05
   73.8600006        -2.22580566E-05
   73.9899979        -2.25561089E-05
   74.1200027        -2.28458848E-05
   74.2500000        -2.31271752E-05
   74.3799973        -2.33997798E-05
   74.5100021        -2.36635078E-05
   74.6399994        -2.39181736E-05
   74.7699966        -2.41636026E-05
   74.9000015        -2.43996292E-05
   75.0299988        -2.46260934E-05
   75.1600037        -2.48428532E-05
   75.2900009        -2.50497706E-05
   75.4199982        -2.52467107E-05
   75.5500031        -2.54335519E-05
   75.6800003        -2.56101739E-05
   75.8099976        -2.57764605E-05
   75.9400024        -2.59322987E-05
   76.0699997        -2.60775778E-05
   76.1999969        -2.62121866E-05
   76.3300018        -2.63360180E-05
   76.4599991        -2.64489645E-05
   76.5899963        -2.65509188E-05
   76.7200012        -2.66417810E-05
   76.8499985        -2.67214546E-05
   76.9800034        -2.67898486E-05
   77.1100006        -2.68468793E-05
   77.2399979        -2.68924723E-05
   77.3700027        -2.69265656E-05
   77.5000000        -2.69491065E-05
   77.6299973        -2.69600532E-05
   77.7600021        -2.69593802E-05
   77.8899994        -2.69470638E-05
   78.0199966        -2.69231023E-05
   78.1500015        -2.68874992E-05
   78.2799988        -2.68402637E-05
   78.4100037        -2.67814157E-05
   78.5400009        -2.67109808E-05
   78.6699982        -2.66289881E-05
   78.8000031        -2.65354684E-05
   78.9300003        -2.64304563E-05
   79.0599976        -2.63139918E-05
   79.1900024        -2.61861132E-05
   79.3199997        -2.60468641E-05
   79.4499969        -2.58962937E-05
   79.5800018        -2.57344509E-05
   79.7099991        -2.55613959E-05
   79.8399963        -2.53771941E-05
   79.9700012        -2.51819165E-05
   80.0999985        -2.49756504E-05
   80.2300034        -2.47584921E-05
   80.3600006        -2.45305473E-05
   80.4899979        -2.42919323E-05
   80.6200027        -2.40427762E-05
   80.7500000        -2.37832173E-05