  -24.4200001         0.00000000    
  -24.2900009        -1.02834218E-13
  -24.1599998        -2.25732993E-13
  -24.0300007        -2.40400988E-13
  -23.8999996        -5.35445508E-14
  -23.7700005         2.99218983E-13
  -23.6399994         5.75252140E-13
  -23.5100002         2.89531067E-13
  -23.3799992        -1.26066941E-12
  -23.2500000        -4.90825956E-12
  -23.1200008        -1.14789393E-11
  -22.9899998        -2.16301074E-11
  -22.8600006        -3.56992769E-11
  -22.7299995        -5.35945767E-11
  -22.6000004        -7.47516979E-11
  -22.4699993        -9.81677864E-11
  -22.3400002        -1.22506755E-10
  -22.2099991        -1.46256063E-10
  -22.0799999        -1.67905106E-10
  -21.9500008        -1.86113111E-10
  -21.8199997        -1.99838854E-10
  -21.6900005        -2.08415091E-10
  -21.5599995        -2.11564322E-10
  -21.4300003        -2.09365622E-10
  -21.2999992        -2.02191930E-10
  -21.1700001        -1.90641281E-10
  -21.0400009        -1.75481837E-10
  -20.9099998        -1.57622540E-10
  -20.7800007        -1.38109690E-10
  -20.6499996        -1.18137097E-10
  -20.5200005        -9.90504900E-11
  -20.3899994        -8.23231067E-11
  -20.2600002        -6.94860905E-11
  -20.1299992        -6.20041379E-11
  -20.0000000        -6.11077924E-11
  -19.8700008        -6.76003281E-11
  -19.7399998        -8.16760409E-11
  -19.6100006        -1.02784128E-10
  -19.4799995        -1.29574573E-10
  -19.3500004        -1.59945682E-10
  -19.2199993        -1.91195504E-10
  -19.0900002        -2.20265362E-10
  -18.9599991        -2.44039011E-10
  -18.8299999        -2.59656768E-10
  -18.7000008        -2.64796685E-10
  -18.5699997        -2.57886823E-10
  -18.4400005        -2.38223385E-10
  -18.3099995        -2.05985548E-10
  -18.1800003        -1.62161395E-10
  -18.0499992        -1.08405056E-10
  -17.9200001        -4.68536598E-11
  -17.7900009         2.00633694E-11
  -17.6599998         8.98049690E-11
  -17.5300007         1.59880248E-10
  -17.3999996         2.27987920E-10
  -17.2700005         2.92144364E-10
  -17.1399994         3.50808632E-10
  -17.0100002         4.03013040E-10
  -16.8799992         4.48487220E-10
  -16.7500000         4.87769825E-10
  -16.6200008         5.22287269E-10
  -16.4899998         5.54358726E-10
  -16.3600006         5.87123017E-10
  -16.2299995         6.24357177E-10
  -16.1000004         6.70199229E-10
  -15.9700003         7.28790361E-10
  -15.8400002         8.03878131E-10
  -15.7100000         8.98424557E-10
  -15.5799999         1.01427378E-09
  -15.4499998         1.15193843E-09
  -15.3199997         1.31051403E-09
  -15.1899996         1.48775658E-09
  -15.0600004         1.68031233E-09
  -14.9300003         1.88404869E-09
  -14.8000002         2.09446727E-09
  -14.6700001         2.30714381E-09
  -14.5400000         2.51811971E-09
  -14.4099998         2.72424794E-09
  -14.2799997         2.92343416E-09
  -14.1499996         3.11476400E-09
  -14.0200005         3.29857963E-09
  -13.8900003         3.47640827E-09
  -13.7600002         3.65087205E-09
  -13.6300001         3.82552656E-09
  -13.5000000         4.00465439E-09
  -13.3699999         4.19301305E-09
  -13.2399998         4.39554615E-09
  -13.1099997         4.61705119E-09
  -12.9799995         4.86182561E-09
  -12.8500004         5.13330312E-09
  -12.7200003         5.43370815E-09
  -12.5900002         5.76380277E-09
  -12.4600000         6.12272011E-09
  -12.3299999         6.50795018E-09
  -12.1999998         6.91553836E-09
  -12.0699997         7.34038164E-09
  -11.9399996         7.77673126E-09
  -11.8100004         8.21874568E-09
  -11.6800003         8.66110028E-09
  -11.5500002         9.09955045E-09
  -11.4200001         9.53138901E-09
  -11.2900000         9.95569582E-09
  -11.1599998         1.03734727E-08
  -11.0299997         1.07875060E-08
  -10.8999996         1.12021192E-08
  -10.7700005         1.16227481E-08
  -10.6400003         1.20554757E-08
  -10.5100002         1.25064741E-08
  -10.3800001         1.29815518E-08
  -10.2500000         1.34856739E-08
  -10.1199999         1.40226408E-08
  -9.98999977         1.45948009E-08
  -9.85999966         1.52028843E-08
  -9.72999954         1.58459486E-08
  -9.60000038         1.65213514E-08
  -9.47000027         1.72249734E-08
  -9.34000015         1.79513933E-08
  -9.21000004         1.86942177E-08
  -9.07999992         1.94465262E-08
  -8.94999981         2.02013997E-08
  -8.81999969         2.09523758E-08
  -8.68999958         2.16940421E-08
  -8.56000042         2.24224532E-08
  -8.43000031         2.31354793E-08
  -8.30000019         2.38329889E-08
  -8.17000008         2.45167620E-08
  -8.03999996         2.51902676E-08
  -7.90999985         2.58582507E-08
  -7.78000021         2.65261360E-08
  -7.65000010         2.71993255E-08
  -7.51999998         2.78825372E-08
  -7.38999987         2.85792296E-08
  -7.26000023         2.92911508E-08
  -7.13000011         3.00180538E-08
  -7.00000000         3.07576293E-08
  -6.86999989         3.15055786E-08
  -6.73999977         3.22558940E-08
  -6.61000013         3.30012462E-08
  -6.48000002         3.37333610E-08
  -6.34999990         3.44435449E-08
  -6.21999979         3.51231151E-08
  -6.09000015         3.57636942E-08
  -5.96000004         3.63576902E-08
  -5.82999992         3.68984878E-08
  -5.69999981         3.73806337E-08
  -5.57000017         3.78000138E-08
  -5.44000006         3.81537610E-08
  -5.30999994         3.84403123E-08
  -5.17999983         3.86588361E-08
  -5.05000019         3.88091799E-08
  -4.92000008         3.88913755E-08
  -4.78999996         3.89048687E-08
  -4.65999985         3.88482029E-08
  -4.53000021         3.87184329E-08
  -4.40000010         3.85105707E-08
  -4.26999998         3.82175820E-08
  -4.13999987         3.78302119E-08
  -4.01000023         3.73372337E-08
  -3.88000011         3.67256305E-08
  -3.75000000         3.59814614E-08
  -3.61999989         3.50902027E-08
  -3.49000001         3.40375053E-08
  -3.35999990         3.28099254E-08
  -3.23000002         3.13953237E-08
  -3.09999990         2.97830667E-08
  -2.97000003         2.79643384E-08
  -2.83999991         2.59320885E-08
  -2.71000004         2.36806201E-08
  -2.57999992         2.12054232E-08
  -2.45000005         1.85026625E-08
  -2.31999993         1.55685171E-08
  -2.19000006         1.23989095E-08
  -2.05999994         8.98880437E-09
  -1.92999995         5.33183631E-09
  -1.79999995         1.41991585E-09
  -1.66999996        -2.75722734E-09
  -1.53999996        -7.21216242E-09
  -1.40999997        -1.19600365E-08
  -1.27999997        -1.70182002E-08
  -1.14999998        -2.24061054E-08
  -1.01999998        -2.81450543E-08
 -0.889999986        -3.42576918E-08
 -0.759999990        -4.07668601E-08
 -0.629999995        -4.76953836E-08
 -0.500000000        -5.50648842E-08
 -0.370000005        -6.28955519E-08
 -0.239999995        -7.12054273E-08
 -0.109999999        -8.00101745E-08
   1.99999996E-02    -8.93230094E-08
  0.150000006        -9.91552156E-08
  0.280000001        -1.09516151E-07
  0.409999996        -1.20414441E-07
  0.540000021        -1.31858513E-07
  0.670000017        -1.43857164E-07
  0.800000012        -1.56420228E-07
  0.930000007        -1.69559357E-07
   1.05999994        -1.83288421E-07
   1.19000006        -1.97623606E-07
   1.32000005        -2.12583330E-07
   1.45000005        -2.28188242E-07
   1.58000004        -2.44461035E-07
   1.71000004        -2.61425896E-07
   1.84000003        -2.79108065E-07
   1.97000003        -2.97533177E-07
   2.09999990        -3.16726869E-07
   2.23000002        -3.36713867E-07
   2.35999990        -3.57517820E-07
   2.49000001        -3.79160241E-07
   2.61999989        -4.01660685E-07
   2.75000000        -4.25036006E-07
   2.88000011        -4.49300899E-07
   3.00999999        -4.74467214E-07
   3.14000010        -5.00545127E-07
   3.26999998        -5.27543477E-07
   3.40000010        -5.55470308E-07
   3.52999997        -5.84333691E-07
   3.66000009        -6.14142778E-07
   3.78999996        -6.44908027E-07
   3.92000008        -6.76641832E-07
   4.05000019        -7.09359085E-07
   4.17999983        -7.43076441E-07
   4.30999994        -7.77812545E-07
   4.44000006        -8.13587462E-07
   4.57000017        -8.50421827E-07
   4.69999981        -8.88336444E-07
   4.82999992        -9.27350982E-07
   4.96000004        -9.67484311E-07
   5.09000015        -1.00875263E-06
   5.21999979        -1.05117022E-06
   5.34999990        -1.09474797E-06
   5.48000002        -1.13949386E-06
   5.61000013        -1.18541334E-06
   5.73999977        -1.23250845E-06
   5.86999989        -1.28077897E-06
   6.00000000        -1.33022195E-06
   6.13000011        -1.38083328E-06
   6.26000023        -1.43260729E-06
   6.38999987        -1.48553795E-06
   6.51999998        -1.53961946E-06
   6.65000010        -1.59484682E-06
   6.78000021        -1.65121628E-06
   6.90999985        -1.70872556E-06
   7.03999996        -1.76737410E-06
   7.17000008        -1.82716246E-06
   7.30000019        -1.88809224E-06
   7.42999983        -1.95016514E-06
   7.55999994        -2.01338230E-06
   7.69000006        -2.07774337E-06
   7.82000017        -2.14324518E-06
   7.94999981        -2.20988204E-06
   8.07999992        -2.27764372E-06
   8.21000004        -2.34651679E-06
   8.34000015        -2.41648263E-06
   8.47000027        -2.48751940E-06
   8.60000038        -2.55960049E-06
   8.72999954        -2.63269658E-06
   8.85999966        -2.70677560E-06
   8.98999977        -2.78180278E-06
   9.11999989        -2.85774149E-06
   9.25000000        -2.93455537E-06
   9.38000011        -3.01220598E-06
   9.51000023        -3.09065626E-06
   9.64000034        -3.16986825E-06
   9.77000046        -3.24980510E-06
   9.89999962        -3.33043067E-06
   10.0299997        -3.41170858E-06
   10.1599998        -3.49360334E-06
   10.2900000        -3.57607837E-06
   10.4200001        -3.65909636E-06
   10.5500002        -3.74261799E-06
   10.6800003        -3.82660164E-06
   10.8100004        -3.91100275E-06
   10.9399996        -3.99577129E-06
   11.0699997        -4.08085498E-06
   11.1999998        -4.16619514E-06
   11.3299999        -4.25173084E-06
   11.4600000        -4.33739478E-06
   11.5900002        -4.42311830E-06
   11.7200003        -4.50882908E-06
   11.8500004        -4.59445391E-06
   11.9799995        -4.67991822E-06
   12.1099997        -4.76514697E-06
   12.2399998        -4.85006603E-06
   12.3699999        -4.93460311E-06
   12.5000000        -5.01868499E-06
   12.6300001        -5.10224208E-06
   12.7600002        -5.18520392E-06
   12.8900003        -5.26750227E-06
   13.0200005        -5.34906849E-06
   13.1499996        -5.42983435E-06
   13.2799997        -5.50973209E-06
   13.4099998        -5.58869033E-06
   13.5400000        -5.66663903E-06
   13.6700001        -5.74350315E-06
   13.8000002        -5.81920722E-06
   13.9300003        -5.89367210E-06
   14.0600004        -5.96681502E-06
   14.1899996        -6.03855051E-06
   14.3199997        -6.10879169E-06
   14.4499998        -6.17744809E-06
   14.5799999        -6.24442964E-06
   14.7100000        -6.30964587E-06
   14.8400002        -6.37300673E-06
   14.9700003        -6.43442354E-06
   15.1000004        -6.49381172E-06
   15.2299995        -6.55108852E-06
   15.3599997        -6.60617707E-06
   15.4899998        -6.65900097E-06
   15.6199999        -6.70949066E-06
   15.7500000        -6.75757747E-06
   15.8800001        -6.80319545E-06
   16.0100002        -6.84628139E-06
   16.1399994        -6.88677301E-06
   16.2700005        -6.92460890E-06
   16.3999996        -6.95972767E-06
   16.5300007        -6.99206612E-06
   16.6599998        -7.02156285E-06
   16.7900009        -7.04815511E-06
   16.9200001        -7.07177969E-06
   17.0499992        -7.09237247E-06
   17.1800003        -7.10987160E-06
   17.3099995        -7.12421433E-06
   17.4400005        -7.13534155E-06
   17.5699997        -7.14319503E-06
   17.7000008        -7.14772250E-06
   17.8299999        -7.14887528E-06
   17.9599991        -7.14660882E-06
   18.0900002        -7.14088628E-06
   18.2199993        -7.13167719E-06
   18.3500004        -7.11895700E-06
   18.4799995        -7.10270751E-06
   18.6100006        -7.08291645E-06
   18.7399998        -7.05957791E-06
   18.8700008        -7.03268825E-06
   19.0000000        -7.00224746E-06
   19.1299992        -6.96825873E-06
   19.2600002        -6.93072570E-06
   19.3899994        -6.88965338E-06
   19.5200005        -6.84504766E-06
   19.6499996        -6.79691584E-06
   19.7800007        -6.74526473E-06
   19.9099998        -6.69010387E-06
   20.0400009        -6.63144556E-06
   20.1700001        -6.56930433E-06
   20.2999992        -6.50369975E-06
   20.4300003        -6.43465501E-06
   20.5599995        -6.36220102E-06
   20.6900005        -6.28637417E-06
   20.8199997        -6.20721721E-06
   20.9500008        -6.12478243E-06
   21.0799999        -6.03912713E-06
   21.2099991        -5.95031815E-06
   21.3400002        -5.85842872E-06
   21.4699993        -5.76353750E-06
   21.6000004        -5.66572908E-06
   21.7299995        -5.56509121E-06
   21.8600006        -5.46171759E-06
   21.9899998        -5.35570098E-06
   22.1200008        -5.24713550E-06
   22.2500000        -5.13611576E-06
   22.3799992        -5.02273679E-06
   22.5100002        -4.90709135E-06
   22.6399994        -4.78927177E-06
   22.7700005        -4.66937308E-06
   22.8999996        -4.54748988E-06
   23.0300007        -4.42371856E-06
   23.1599998        -4.29816009E-06
   23.2900009        -4.17091951E-06
   23.4200001        -4.04210641E-06
   23.5499992        -3.91183676E-06
   23.6800003        -3.78023196E-06
   23.8099995        -3.64742004E-06
   23.9400005        -3.51353333E-06
   24.0699997        -3.37871120E-06
   24.2000008        -3.24309508E-06
   24.3299999        -3.10682913E-06
   24.4599991        -2.97006090E-06
   24.5900002        -2.83293593E-06
   24.7199993        -2.69560155E-06
   24.8500004        -2.55820055E-06
   24.9799995        -2.42087413E-06
   25.1100006        -2.28375939E-06
   25.2399998        -2.14698866E-06
   25.3700008        -2.01069042E-06
   25.5000000        -1.87499006E-06
   25.6299992        -1.74000866E-06
   25.7600002        -1.60586399E-06
   25.8899994        -1.47267394E-06
   26.0200005        -1.34055665E-06
   26.1499996        -1.20963102E-06
   26.2800007        -1.08001632E-06
   26.4099998        -9.51836228E-07
   26.5400009        -8.25216205E-07
   26.6700001        -7.00284886E-07
   26.7999992        -5.77171988E-07
   26.9300003        -4.56007598E-07
   27.0599995        -3.36921147E-07
   27.1900005        -2.20041784E-07
   27.3199997        -1.05490969E-07
   27.4500008         6.61165567E-09
   27.5799999         1.16155874E-07
   27.7099991         2.23037190E-07
   27.8400002         3.27161132E-07
   27.9699993         4.28440245E-07
   28.1000004         5.26797578E-07
   28.2299995         6.22162872E-07
   28.3600006         7.14474083E-07
   28.4899998         8.03675277E-07
   28.6200008         8.89716205E-07
   28.7500000         9.72549969E-07
   28.8799992         1.05213223E-06
   29.0100002         1.12842110E-06
   29.1399994         1.20137429E-06
   29.2700005         1.27094995E-06
   29.3999996         1.33710614E-06
   29.5300007         1.39980000E-06
   29.6599998         1.45899048E-06
   29.7900009         1.51463803E-06
   29.9200001         1.56670649E-06
   30.0499992         1.61516414E-06
   30.1800003         1.65998654E-06
   30.3099995         1.70115800E-06
   30.4400005         1.73867147E-06
   30.5699997         1.77253139E-06
   30.7000008         1.80275208E-06
   30.8299999         1.82936026E-06
   30.9599991         1.85239139E-06
   31.0900002         1.87189050E-06
   31.2199993         1.88791068E-06
   31.3500004         1.90051139E-06
   31.4799995         1.90975652E-06
   31.6100006         1.91571371E-06
   31.7399998         1.91845083E-06
   31.8700008         1.91803815E-06
   32.0000000         1.91454387E-06
   32.1300011         1.90803621E-06
   32.2599983         1.89858258E-06
   32.3899994         1.88624938E-06
   32.5200005         1.87110300E-06
   32.6500015         1.85321130E-06
   32.7799988         1.83264376E-06
   32.9099998         1.80947404E-06
   33.0400009         1.78378014E-06
   33.1699982         1.75564696E-06
   33.2999992         1.72516604E-06
   33.4300003         1.69243674E-06
   33.5600014         1.65756705E-06
   33.6899986         1.62067192E-06
   33.8199997         1.58187311E-06
   33.9500008         1.54129759E-06
   34.0800018         1.49907635E-06
   34.2099991         1.45534250E-06
   34.3400002         1.41022872E-06
   34.4700012         1.36386643E-06
   34.5999985         1.31638342E-06
   34.7299995         1.26790383E-06
   34.8600006         1.21854634E-06
   34.9900017         1.16842477E-06
   35.1199989         1.11764905E-06
   35.2500000         1.06632365E-06
   35.3800011         1.01455214E-06
   35.5099983         9.62435365E-07
   35.6399994         9.10073595E-07
   35.7700005         8.57568750E-07
   35.9000015         8.05024172E-07
   36.0299988         7.52545873E-07
   36.1599998         7.00244129E-07
   36.2900009         6.48232287E-07
   36.4199982         5.96627842E-07
   36.5499992         5.45549653E-07
   36.6800003         4.95119650E-07
   36.8100014         4.45459960E-07
   36.9399986         3.96691405E-07
   37.0699997         3.48931337E-07
   37.2000008         3.02293387E-07
   37.3300018         2.56883851E-07
   37.4599991         2.12802547E-07
   37.5900002         1.70140410E-07
   37.7200012         1.28980588E-07
   37.8499985         8.93972185E-08
   37.9799995         5.14565954E-08
   38.1100006         1.52192641E-08
   38.2400017        -1.92590459E-08
   38.3699989        -5.19247436E-08
   38.5000000        -8.27274036E-08
   38.6300011        -1.11615691E-07
   38.7599983        -1.38535853E-07
   38.8899994        -1.63433484E-07
   39.0200005        -1.86249693E-07
   39.1500015        -2.06924724E-07
   39.2799988        -2.25394658E-07
   39.4099998        -2.41595956E-07
   39.5400009        -2.55463760E-07
   39.6699982        -2.66935785E-07
   39.7999992        -2.75951663E-07
   39.9300003        -2.82456057E-07
   40.0600014        -2.86397920E-07
   40.1899986        -2.87736100E-07
   40.3199997        -2.86435238E-07
   40.4500008        -2.82469927E-07
   40.5800018        -2.75821492E-07
   40.7099991        -2.66481408E-07
   40.8400002        -2.54446348E-07
   40.9700012        -2.39720407E-07
   41.0999985        -2.22310490E-07
   41.2299995        -2.02225763E-07
   41.3600006        -1.79477226E-07
   41.4900017        -1.54073319E-07
   41.6199989        -1.26018776E-07
   41.7500000        -9.53154782E-08
   41.8800011        -6.19614653E-08
   42.0099983        -2.59479780E-08
   42.1399994         1.27350814E-08
   42.2700005         5.41015304E-08
   42.4000015         9.81661898E-08
   42.5299988         1.44943371E-07
   42.6599998         1.94445846E-07
   42.7900009         2.46683555E-07
   42.9199982         3.01661004E-07
   43.0499992         3.59377594E-07
   43.1800003         4.19825454E-07
   43.3100014         4.82991993E-07
   43.4399986         5.48857088E-07
   43.5699997         6.17397689E-07
   43.7000008         6.88585430E-07
   43.8300018         7.62388424E-07
   43.9599991         8.38775918E-07
   44.0900002         9.17716591E-07
   44.2200012         9.99181225E-07
   44.3499985         1.08314543E-06
   44.4799995         1.16958847E-06
   44.6100006         1.25849635E-06
   44.7400017         1.34985987E-06
   44.8699989         1.44367607E-06
   45.0000000         1.53994711E-06
   45.1300011         1.63867662E-06
   45.2599983         1.73987212E-06
   45.3899994         1.84353951E-06
   45.5200005         1.94968356E-06
   45.6500015         2.05830406E-06
   45.7799988         2.16939725E-06
   45.9099998         2.28295153E-06
   46.0400009         2.39894916E-06
   46.1699982         2.51736560E-06
   46.2999992         2.63816992E-06
   46.4300003         2.76132687E-06
   46.5600014         2.88679712E-06
   46.6899986         3.01453974E-06
   46.8199997         3.14451290E-06
   46.9500008         3.27667613E-06
   47.0800018         3.41099235E-06
   47.2099991         3.54742792E-06
   47.3400002         3.68595397E-06
   47.4700012         3.82654571E-06
   47.5999985         3.96918449E-06
   47.7299995         4.11385463E-06
   47.8600006         4.26054476E-06
   47.9900017         4.40924350E-06
   48.1199989         4.55993950E-06
   48.2500000         4.71261910E-06
   48.3800011         4.86726549E-06
   48.5099983         5.02385456E-06
   48.6399994         5.18235493E-06
   48.7700005         5.34272704E-06
   48.9000015         5.50492132E-06
   49.0299988         5.66888002E-06
   49.1599998         5.83453448E-06
   49.2900009         6.00181238E-06
   49.4199982         6.17063415E-06
   49.5499992         6.34091657E-06
   49.6800003         6.51257369E-06
   49.8100014         6.68552093E-06
   49.9399986         6.85967552E-06
   50.0699997         7.03495607E-06
   50.2000008         7.21128617E-06
   50.3300018         7.38859217E-06
   50.4599991         7.56680265E-06
   50.5900002         7.74584987E-06
   50.7200012         7.92566516E-06
   50.8499985         8.10618076E-06
   50.9799995         8.28732209E-06
   51.1100006         8.46901457E-06
   51.2400017         8.65117363E-06
   51.3699989         8.83370649E-06
   51.5000000         9.01651310E-06
   51.6300011         9.19948343E-06
   51.7599983         9.38249559E-06
   51.8899994         9.56541953E-06
   52.0200005         9.74811428E-06
   52.1500015         9.93042977E-06
   52.2799988         1.01122159E-05
   52.4099998         1.02933154E-05
   52.5400009         1.04735691E-05
   52.6699982         1.06528196E-05
   52.7999992         1.08309105E-05
   52.9300003         1.10076908E-05
   53.0600014         1.11830141E-05
   53.1899986         1.13567366E-05
   53.3199997         1.15287212E-05
   53.4500008         1.16988340E-05
   53.5800018         1.18669404E-05
   53.7099991         1.20329078E-05
   53.8400002         1.21966013E-05
   53.9700012         1.23578830E-05
   54.0999985         1.25166098E-05
   54.2299995         1.26726300E-05
   54.3600006         1.28257852E-05
   54.4900017         1.29759119E-05
   54.6199989         1.31228389E-05
   54.7500000         1.32663863E-05
   54.8800011         1.34063748E-05
   55.0099983         1.35426171E-05
   55.1399994         1.36749313E-05
   55.2700005         1.38031328E-05
   55.4000015         1.39270378E-05
   55.5299988         1.40464736E-05
   55.6599998         1.41612745E-05
   55.7900009         1.42712788E-05
   55.9199982         1.43763400E-05
   56.0499992         1.44763135E-05
   56.1800003         1.45710710E-05
   56.3100014         1.46604871E-05
   56.4399986         1.47444453E-05
   56.5699997         1.48228301E-05
   56.7000008         1.48955323E-05
   56.8300018         1.49624402E-05
   56.9599991         1.50234409E-05
   57.0900002         1.50784153E-05
   57.2200012         1.51272516E-05
   57.3499985         1.51698250E-05
   57.4799995         1.52060147E-05
   57.6100006         1.52356970E-05
   57.7400017         1.52587527E-05
   57.8699989         1.52750636E-05
   58.0000000         1.52845205E-05
   58.1300011         1.52870234E-05
   58.2599983         1.52824796E-05
   58.3899994         1.52708071E-05
   58.5200005         1.52519469E-05
   58.6500015         1.52258490E-05
   58.7799988         1.51924742E-05
   58.9099998         1.51518034E-05
   59.0400009         1.51038275E-05
   59.1699982         1.50485494E-05
   59.2999992         1.49859816E-05
   59.4300003         1.49161433E-05
   59.5600014         1.48390582E-05
   59.6899986         1.47547526E-05
   59.8199997         1.46632547E-05
   59.9500008         1.45645918E-05
   60.0800018         1.44587921E-05
   60.2099991         1.43458756E-05
   60.3400002         1.42258723E-05
   60.4700012         1.40988095E-05
   60.5999985         1.39647163E-05
   60.7299995         1.38236319E-05
   60.8600006         1.36755989E-05
   60.9900017         1.35206756E-05
   61.1199989         1.33589319E-05
   61.2500000         1.31904517E-05
   61.3800011         1.30153312E-05
   61.5099983         1.28336887E-05
   61.6399994         1.26456525E-05
   61.7700005         1.24513663E-05
   61.9000015         1.22509846E-05
   62.0299988         1.20446730E-05
   62.1599998         1.18326043E-05
   62.2900009         1.16149531E-05
   62.4199982         1.13919004E-05
   62.5499992         1.11636200E-05
   62.6800003         1.09302900E-05
   62.8100014         1.06920843E-05
   62.9399986         1.04491673E-05
   63.0699997         1.02017084E-05
   63.2000008         9.94986658E-06
   63.3300018         9.69380471E-06
   63.4599991         9.43368559E-06
   63.5900002         9.16967201E-06
   63.7200012         8.90193587E-06
   63.8499985         8.63065270E-06
   63.9799995         8.35600986E-06
   64.1100006         8.07820379E-06
   64.2399979         7.79744278E-06
   64.3700027         7.51394555E-06
   64.5000000         7.22793857E-06
   64.6299973         6.93965922E-06
   64.7600021         6.64934760E-06
   64.8899994         6.35724882E-06
   65.0199966         6.06360436E-06
   65.1500015         5.76865250E-06
   65.2799988         5.47262562E-06
   65.4100037         5.17575063E-06
   65.5400009         4.87824082E-06
   65.6699982         4.58030263E-06
   65.8000031         4.28212752E-06
   65.9300003         3.98390057E-06
   66.0599976         3.68580004E-06
   66.1900024         3.38799373E-06
   66.3199997         3.09064967E-06
   66.4499969         2.79393180E-06
   66.5800018         2.49800655E-06
   66.7099991         2.20304082E-06
   66.8399963         1.90920787E-06
   66.9700012         1.61668629E-06
   67.0999985         1.32565947E-06
   67.2300034         1.03631635E-06
   67.3600006         7.48849004E-07
   67.4899979         4.63452551E-07
   67.6200027         1.80319375E-07
   67.7500000        -1.00360175E-07
   67.8799973        -3.78404337E-07
   68.0100021        -6.53638494E-07
   68.1399994        -9.25902555E-07
   68.2699966        -1.19505012E-06
   68.4000015        -1.46094931E-06
   68.5299988        -1.72348348E-06
   68.6600037        -1.98255157E-06
   68.7900009        -2.23806433E-06
   68.9199982        -2.48994388E-06
   69.0500031        -2.73811929E-06
   69.1800003        -2.98252598E-06
   69.3099976        -3.22310007E-06
   69.4400024        -3.45977787E-06
   69.5699997        -3.69249346E-06
   69.6999969        -3.92117590E-06
   69.8300018        -4.14574970E-06
   69.9599991        -4.36613391E-06
   70.0899963        -4.58224531E-06
   70.2200012        -4.79399569E-06
   70.3499985        -5.00129954E-06
   70.4800034        -5.20407184E-06
   70.6100006        -5.40223209E-06
   70.7399979        -5.59570935E-06
   70.8700027        -5.78444360E-06
   71.0000000        -5.96838481E-06
   71.1299973        -6.14749842E-06
   71.2600021        -6.32176625E-06
   71.3899994        -6.49118192E-06
   71.5199966        -6.65575226E-06
   71.6500015        -6.81549545E-06
   71.7799988        -6.97043833E-06
   71.9100037        -7.12061183E-06
   72.0400009        -7.26604821E-06
   72.1699982        -7.40677933E-06
   72.3000031        -7.54283064E-06
   72.4300003        -7.67422171E-06
   72.5599976        -7.80096616E-06
   72.6900024        -7.92306309E-06
   72.8199997        -8.04050978E-06
   72.9499969        -8.15329349E-06
   73.0800018        -8.26139876E-06
   73.2099991        -8.36480558E-06
   73.3399963        -8.46349667E-06
   73.4700012        -8.55746021E-06
   73.5999985        -8.64668618E-06
   73.7300034        -8.73117824E-06
   73.8600006        -8.81094911E-06
   73.9899979        -8.88602244E-06
   74.1200027        -8.95643370E-06
   74.2500000        -9.02222746E-06
   74.3799973        -9.08345919E-06
   74.5100021        -9.14019165E-06
   74.6399994        -9.19248760E-06
   74.7699966        -9.24041433E-06
   74.9000015        -9.28403097E-06
   75.0299988        -9.32339663E-06
   75.1600037        -9.35855496E-06
   75.2900009        -9.38954690E-06
   75.4199982        -9.41639701E-06
   75.5500031        -9.43911800E-06
   75.6800003        -9.45771353E-06
   75.8099976        -9.47218268E-06
   75.9400024        -9.48251363E-06
   76.0699997        -9.48869456E-06
   76.1999969        -9.49071546E-06
   76.3300018        -9.48857087E-06
   76.4599991        -9.48226261E-06
   76.5899963        -9.47180160E-06
   76.7200012        -9.45720785E-06
   76.8499985        -9.43851774E-06
   76.9800034        -9.41577218E-06
   77.1100006        -9.38902485E-06
   77.2399979        -9.35833577E-06
   77.3700027        -9.32376952E-06
   77.5000000        -9.28538884E-06
   77.6299973        -9.24325832E-06
   77.7600021        -9.19743434E-06
   77.8899994        -9.14796510E-06
   78.0199966        -9.09488972E-06
   78.1500015        -9.03823820E-06
   78.2799988        -8.97802602E-06
   78.4100037        -8.91426043E-06
   78.5400009        -8.84693873E-06
   78.6699982        -8.77605453E-06
   78.8000031        -8.70159511E-06
   78.9300003        -8.62355137E-06
   79.0599976        -8.54191785E-06
   79.1900024        -8.45669729E-06
   79.3199997        -8.36790150E-06
   79.4499969        -8.27555596E-06
   79.5800018        -8.17969976E-06
   79.7099991        -8.08038840E-06
   79.8399963        -7.97768644E-06
   79.9700012        -7.87167301E-06
   80.0999985        -7.76243451E-06
   80.2300034        -7.65005916E-06
   80.3600006        -7.53464155E-06
   80.4899979        -7.41627127E-06
   80.6200027        -7.29503017E-06
   80.7500000        -7.17099829E-06