  -24.4200001         3.52078840E-18
  -24.2870007        -1.07631792E-13
  -24.1539993        -2.32072960E-13
  -24.0209999        -2.34987268E-13
  -23.8880005        -2.23072005E-14
  -23.7549992         3.50533188E-13
  -23.6219997         5.94285580E-13
  -23.4890003         1.53377758E-13
  -23.3560009        -1.75623871E-12
  -23.2229996        -6.03821420E-12
  -23.0900002        -1.35541222E-11
  -22.9570007        -2.49417761E-11
  -22.8239994        -4.04532761E-11
  -22.6910000        -5.98494032E-11
  -22.5580006        -8.23752663E-11
  -22.4249992        -1.06824348E-10
  -22.2919998        -1.31678696E-10
  -22.1590004        -1.55297303E-10
  -22.0259991        -1.76115761E-10
  -21.8929996        -1.92820468E-10
  -21.7600002        -2.04469094E-10
  -21.6270008        -2.10544054E-10
  -21.4939995        -2.10942111E-10
  -21.3610001        -2.05917727E-10
  -21.2280006        -1.96006156E-10
  -21.0949993        -1.81952675E-10
  -20.9619999        -1.64666794E-10
  -20.8290005        -1.45207610E-10
  -20.6959991        -1.24792038E-10
  -20.5629997        -1.04805498E-10
  -20.4300003        -8.67886318E-11
  -20.2970009        -7.23762578E-11
  -20.1639996        -6.31767277E-11
  -20.0310001        -6.05940922E-11
  -19.8980007        -6.56151869E-11
  -19.7649994        -7.85991619E-11
  -19.6320000        -9.91108723E-11
  -19.4990005        -1.25841268E-10
  -19.3659992        -1.56641200E-10
  -19.2329998        -1.88678004E-10
  -19.1000004        -2.18697768E-10
  -18.9669991        -2.43357667E-10
  -18.8339996        -2.59576888E-10
  -18.7010002        -2.64856276E-10
  -18.5680008        -2.57516536E-10
  -18.4349995        -2.36829084E-10
  -18.3020000        -2.03030273E-10
  -18.1690006        -1.57232533E-10
  -18.0359993        -1.01260722E-10
  -17.9029999        -3.74461712E-11
  -17.7700005         3.15863204E-11
  -17.6369991         1.03117216E-10
  -17.5039997         1.74506576E-10
  -17.3710003         2.43349424E-10
  -17.2380009         3.07616571E-10
  -17.1049995         3.65797642E-10
  -16.9720001         4.17045037E-10
  -16.8390007         4.61314320E-10
  -16.7059994         4.99484343E-10
  -16.5730000         5.33418587E-10
  -16.4400005         5.65945790E-10
  -16.3069992         6.00730521E-10
  -16.1739998         6.42028208E-10
  -16.0410004         6.94326652E-10
  -15.9080000         7.61923302E-10
  -15.7749996         8.48467685E-10
  -15.6420002         9.56554835E-10
  -15.5089998         1.08741449E-09
  -15.3760004         1.24074262E-09
  -15.2430000         1.41471124E-09
  -15.1099997         1.60615754E-09
  -14.9770002         1.81091853E-09
  -14.8439999         2.02426476E-09
  -14.7110004         2.24138752E-09
  -14.5780001         2.45786258E-09
  -14.4449997         2.67005174E-09
  -14.3120003         2.87540525E-09
  -14.1789999         3.07264858E-09
  -14.0459995         3.26185345E-09
  -13.9130001         3.44442541E-09
  -13.7799997         3.62298169E-09
  -13.6470003         3.80119580E-09
  -13.5139999         3.98357303E-09
  -13.3809996         4.17517576E-09
  -13.2480001         4.38129888E-09
  -13.1149998         4.60709959E-09
  -12.9820004         4.85720708E-09
  -12.8490000         5.13530507E-09
  -12.7159996         5.44374679E-09
  -12.5830002         5.78326675E-09
  -12.4499998         6.15281026E-09
  -12.3170004         6.54953736E-09
  -12.1840000         6.96902758E-09
  -12.0509996         7.40568229E-09
  -11.9180002         7.85327803E-09
  -11.7849998         8.30561131E-09
  -11.6520004         8.75719497E-09
  -11.5190001         9.20383147E-09
  -11.3859997         9.64309432E-09
  -11.2530003         1.00745829E-08
  -11.1199999         1.04999707E-08
  -10.9870005         1.09228218E-08
  -10.8540001         1.13482361E-08
  -10.7209997         1.17823493E-08
  -10.5880003         1.22317614E-08
  -10.4549999         1.27029827E-08
  -10.3219995         1.32018814E-08
  -10.1890001         1.37332448E-08
  -10.0559998         1.43004044E-08
  -9.92300034         1.49050248E-08
  -9.78999996         1.55469237E-08
  -9.65699959         1.62240852E-08
  -9.52400017         1.69327592E-08
  -9.39099979         1.76676398E-08
  -9.25800037         1.84222220E-08
  -9.12500000         1.91892582E-08
  -8.99199963         1.99612362E-08
  -8.85900021         2.07310311E-08
  -8.72599983         2.14924878E-08
  -8.59300041         2.22409238E-08
  -8.46000004         2.29735893E-08
  -8.32699966         2.36899158E-08
  -8.19400024         2.43914293E-08
  -8.06099987         2.50816399E-08
  -7.92799997         2.57654929E-08
  -7.79500008         2.64487081E-08
  -7.66200018         2.71370943E-08
  -7.52899981         2.78357764E-08
  -7.39599991         2.85485413E-08
  -7.26300001         2.92772917E-08
  -7.13000011         3.00217806E-08
  -6.99700022         3.07794288E-08
  -6.86399984         3.15455893E-08
  -6.73099995         3.23136966E-08
  -6.59800005         3.30758425E-08
  -6.46500015         3.38231310E-08
  -6.33199978         3.45462041E-08
  -6.19899988         3.52358143E-08
  -6.06599998         3.58831151E-08
  -5.93300009         3.64802126E-08
  -5.80000019         3.70202748E-08
  -5.66699982         3.74977844E-08
  -5.53399992         3.79087695E-08
  -5.40100002         3.82506293E-08
  -5.26800013         3.85218826E-08
  -5.13500023         3.87220567E-08
  -5.00199986         3.88511658E-08
  -4.86899996         3.89090147E-08
  -4.73600006         3.88947292E-08
  -4.60300016         3.88060855E-08
  -4.46999979         3.86389516E-08
  -4.33699989         3.83870251E-08
  -4.20400000         3.80414917E-08
  -4.07100010         3.75912599E-08
  -3.93799996         3.70231916E-08
  -3.80500007         3.63226711E-08
  -3.67199993         3.54742546E-08
  -3.53900003         3.44625484E-08
  -3.40599990         3.32727126E-08
  -3.27300000         3.18912292E-08
  -3.14000010         3.03062393E-08
  -3.00699997         2.85078219E-08
  -2.87400007         2.64879176E-08
  -2.74099994         2.42401601E-08
  -2.60800004         2.17594796E-08
  -2.47499990         1.90416536E-08
  -2.34200001         1.60826854E-08
  -2.20900011         1.28782753E-08
  -2.07599998         9.42318934E-09
  -1.94299996         5.71079584E-09
  -1.80999994         1.73250148E-09
  -1.67700005        -2.52256527E-09
  -1.54400003        -7.06766157E-09
  -1.41100001        -1.19189147E-08
  -1.27800000        -1.70950383E-08
  -1.14499998        -2.26169838E-08
  -1.01199996        -2.85078041E-08
 -0.879000008        -3.47917108E-08
 -0.745999992        -4.14932444E-08
 -0.612999976        -4.86365863E-08
 -0.479999989        -5.62448044E-08
 -0.347000003        -6.43391829E-08
 -0.214000002        -7.29383558E-08
  -8.10000002E-02    -8.20584773E-08
   5.20000011E-02    -9.17130905E-08
  0.185000002        -1.01913749E-07
  0.317999989        -1.12670229E-07
  0.451000005        -1.23991541E-07
  0.583999991        -1.35886623E-07
  0.717000008        -1.48365288E-07
  0.850000024        -1.61438933E-07
  0.982999980        -1.75120874E-07
   1.11600006        -1.89427098E-07
   1.24899995        -2.04376008E-07
   1.38199997        -2.19988522E-07
   1.51499999        -2.36287946E-07
   1.64800000        -2.53299589E-07
   1.78100002        -2.71049885E-07
   1.91400003        -2.89566231E-07
   2.04699993        -3.08876110E-07
   2.18000007        -3.29006667E-07
   2.31299996        -3.49983594E-07
   2.44600010        -3.71830765E-07
   2.57900000        -3.94569895E-07
   2.71199989        -4.18219912E-07
   2.84500003        -4.42797045E-07
   2.97799993        -4.68314767E-07
   3.11100006        -4.94784274E-07
   3.24399996        -5.22215032E-07
   3.37700009        -5.50615880E-07
   3.50999999        -5.79995515E-07
   3.64299989        -6.10363486E-07
   3.77600002        -6.41731049E-07
   3.90899992        -6.74111277E-07
   4.04199982        -7.07520201E-07
   4.17500019        -7.41975555E-07
   4.30800009        -7.77497462E-07
   4.44099998        -8.14107466E-07
   4.57399988        -8.51827679E-07
   4.70699978        -8.90680326E-07
   4.84000015        -9.30686724E-07
   4.97300005        -9.71866484E-07
   5.10599995        -1.01423677E-06
   5.23899984        -1.05781237E-06
   5.37200022        -1.10260453E-06
   5.50500011        -1.14862144E-06
   5.63800001        -1.19586809E-06
   5.77099991        -1.24434598E-06
   5.90399981        -1.29405407E-06
   6.03700018        -1.34498896E-06
   6.17000008        -1.39714541E-06
   6.30299997        -1.45051729E-06
   6.43599987        -1.50509857E-06
   6.56899977        -1.56088288E-06
   6.70200014        -1.61786579E-06
   6.83500004        -1.67604401E-06
   6.96799994        -1.73541605E-06
   7.10099983        -1.79598203E-06
   7.23400021        -1.85774320E-06
   7.36700010        -1.92070183E-06
   7.50000000        -1.98485964E-06
   7.63299990        -2.05021684E-06
   7.76599979        -2.11677161E-06
   7.89900017        -2.18451919E-06
   8.03199959        -2.25345025E-06
   8.16499996        -2.32355160E-06
   8.29800034        -2.39480551E-06
   8.43099976        -2.46718878E-06
   8.56400013        -2.54067527E-06
   8.69699955        -2.61523360E-06
   8.82999992        -2.69083034E-06
   8.96300030        -2.76742890E-06
   9.09599972        -2.84499083E-06
   9.22900009        -2.92347659E-06
   9.36200047        -3.00284614E-06
   9.49499989        -3.08305903E-06
   9.62800026        -3.16407545E-06
   9.76099968        -3.24585585E-06
   9.89400005        -3.32836134E-06
   10.0270004        -3.41155373E-06
   10.1599998        -3.49539437E-06
   10.2930002        -3.57984459E-06
   10.4259996        -3.66486461E-06
   10.5590000        -3.75041213E-06
   10.6920004        -3.83644237E-06
   10.8249998        -3.92290667E-06
   10.9580002        -4.00975159E-06
   11.0909996        -4.09691938E-06
   11.2240000        -4.18434774E-06
   11.3570004        -4.27196892E-06
   11.4899998        -4.35971106E-06
   11.6230001        -4.44749912E-06
   11.7559996        -4.53525581E-06
   11.8889999        -4.62290245E-06
   12.0220003        -4.71035855E-06
   12.1549997        -4.79754499E-06
   12.2880001        -4.88438218E-06
   12.4209995        -4.97079282E-06
   12.5539999        -5.05670050E-06
   12.6870003        -5.14203066E-06
   12.8199997        -5.22670825E-06
   12.9530001        -5.31066053E-06
   13.0860004        -5.39381517E-06
   13.2189999        -5.47609761E-06
   13.3520002        -5.55743509E-06
   13.4849997        -5.63775075E-06
   13.6180000        -5.71696728E-06
   13.7510004        -5.79500374E-06
   13.8839998        -5.87177647E-06
   14.0170002        -5.94719859E-06
   14.1499996        -6.02117916E-06
   14.2830000        -6.09362496E-06
   14.4160004        -6.16444049E-06
   14.5489998        -6.23352935E-06
   14.6820002        -6.30079330E-06
   14.8149996        -6.36613640E-06
   14.9480000        -6.42946452E-06
   15.0810003        -6.49068534E-06
   15.2139997        -6.54971063E-06
   15.3470001        -6.60645674E-06
   15.4799995        -6.66084270E-06
   15.6129999        -6.71279349E-06
   15.7460003        -6.76223453E-06
   15.8789997        -6.80909716E-06
   16.0119991        -6.85331270E-06
   16.1450005        -6.89481431E-06
   16.2779999        -6.93353513E-06
   16.4109993        -6.96941015E-06
   16.5440006        -7.00237115E-06
   16.6770000        -7.03235219E-06
   16.8099995        -7.05928551E-06
   16.9430008        -7.08310336E-06
   17.0760002        -7.10373752E-06
   17.2089996        -7.12112069E-06
   17.3419991        -7.13518693E-06
   17.4750004        -7.14587304E-06
   17.6079998        -7.15311808E-06
   17.7409992        -7.15686747E-06
   17.8740005        -7.15706983E-06
   18.0070000        -7.15368105E-06
   18.1399994        -7.14666430E-06
   18.2730007        -7.13598911E-06
   18.4060001        -7.12163228E-06
   18.5389996        -7.10357745E-06
   18.6720009        -7.08181415E-06
   18.8050003        -7.05633647E-06
   18.9379997        -7.02714351E-06
   19.0709991        -6.99423617E-06
   19.2040005        -6.95761810E-06
   19.3369999        -6.91729383E-06
   19.4699993        -6.87326883E-06
   19.6030006        -6.82555037E-06
   19.7360001        -6.77414528E-06
   19.8689995        -6.71906264E-06
   20.0020008        -6.66031474E-06
   20.1350002        -6.59791613E-06
   20.2679996        -6.53188590E-06
   20.4009991        -6.46224862E-06
   20.5340004        -6.38903475E-06
   20.6669998        -6.31228158E-06
   20.7999992        -6.23203459E-06
   20.9330006        -6.14834744E-06
   21.0660000        -6.06128242E-06
   21.1989994        -5.97090957E-06
   21.3320007        -5.87730483E-06
   21.4650002        -5.78055415E-06
   21.5979996        -5.68074665E-06
   21.7310009        -5.57797694E-06
   21.8640003        -5.47234413E-06
   21.9969997        -5.36394646E-06
   22.1299992        -5.25288624E-06
   22.2630005        -5.13926398E-06
   22.3959999        -5.02317971E-06
   22.5289993        -4.90473394E-06
   22.6620007        -4.78402535E-06
   22.7950001        -4.66115489E-06
   22.9279995        -4.53622306E-06
   23.0610008        -4.40933673E-06
   23.1940002        -4.28060275E-06
   23.3269997        -4.15013528E-06
   23.4599991        -4.01805300E-06
   23.5930004        -3.88448325E-06
   23.7259998        -3.74955857E-06
   23.8589993        -3.61341745E-06
   23.9920006        -3.47620517E-06
   24.1250000        -3.33807066E-06
   24.2579994        -3.19916785E-06
   24.3910007        -3.05965227E-06
   24.5240002        -2.91968104E-06
   24.6569996        -2.77941103E-06
   24.7900009        -2.63899756E-06
   24.9230003        -2.49859136E-06
   25.0559998        -2.35834159E-06
   25.1889992        -2.21839241E-06
   25.3220005        -2.07888138E-06
   25.4549999        -1.93994379E-06
   25.5879993        -1.80171071E-06
   25.7210007        -1.66430937E-06
   25.8540001        -1.52786652E-06
   25.9869995        -1.39250778E-06
   26.1200008        -1.25835982E-06
   26.2530003        -1.12555188E-06
   26.3859997        -9.94214247E-07
   26.5189991        -8.64482445E-07
   26.6520004        -7.36493291E-07
   26.7849998        -6.10385143E-07
   26.9179993        -4.86299427E-07
   27.0510006        -3.64374074E-07
   27.1840000        -2.44746246E-07
   27.3169994        -1.27547310E-07
   27.4500008        -1.29045077E-08
   27.5830002         9.90641240E-08
   27.7159996         2.08247215E-07
   27.8490009         3.14543456E-07
   27.9820004         4.17862140E-07
   28.1149998         5.18119805E-07
   28.2479992         6.15243778E-07
   28.3810005         7.09168035E-07
   28.5139999         7.99834368E-07
   28.6469994         8.87190026E-07
   28.7800007         9.71183908E-07
   28.9130001         1.05177003E-06
   29.0459995         1.12890302E-06
   29.1790009         1.20253719E-06
   29.3120003         1.27262695E-06
   29.4449997         1.33912636E-06
   29.5779991         1.40199006E-06
   29.7110004         1.46117372E-06
   29.8439999         1.51663608E-06
   29.9769993         1.56834096E-06
   30.1100006         1.61625735E-06
   30.2430000         1.66036341E-06
   30.3759995         1.70064618E-06
   30.5090008         1.73710600E-06
   30.6420002         1.76975345E-06
   30.7749996         1.79861081E-06
   30.9080009         1.82371298E-06
   31.0410004         1.84510395E-06
   31.1739998         1.86283819E-06
   31.3069992         1.87697697E-06
   31.4400005         1.88758690E-06
   31.5730000         1.89473860E-06
   31.7059994         1.89850482E-06
   31.8390007         1.89895934E-06
   31.9720001         1.89617606E-06
   32.1049995         1.89022671E-06
   32.2379990         1.88118338E-06
   32.3709984         1.86911655E-06
   32.5040016         1.85409715E-06
   32.6370010         1.83619761E-06
   32.7700005         1.81549206E-06
   32.9029999         1.79205836E-06
   33.0359993         1.76598087E-06
   33.1689987         1.73734998E-06
   33.3019981         1.70626447E-06
   33.4350014         1.67283122E-06
   33.5680008         1.63716652E-06
   33.7010002         1.59939452E-06
   33.8339996         1.55964597E-06
   33.9669991         1.51805796E-06
   34.0999985         1.47477078E-06
   34.2330017         1.42992667E-06
   34.3660011         1.38366704E-06
   34.4990005         1.33613128E-06
   34.6320000         1.28745455E-06
   34.7649994         1.23776761E-06
   34.8979988         1.18719549E-06
   35.0309982         1.13585804E-06
   35.1640015         1.08387121E-06
   35.2970009         1.03134607E-06
   35.4300003         9.78391540E-07
   35.5629997         9.25115728E-07
   35.6959991         8.71627094E-07
   35.8289986         8.18035005E-07
   35.9620018         7.64452921E-07
   36.0950012         7.10996858E-07
   36.2280006         6.57786188E-07
   36.3610001         6.04945626E-07
   36.4939995         5.52602160E-07
   36.6269989         5.00886017E-07
   36.7599983         4.49927683E-07
   36.8930016         3.99856987E-07
   37.0260010         3.50800804E-07
   37.1590004         3.02881972E-07
   37.2919998         2.56216680E-07
   37.4249992         2.10912702E-07
   37.5579987         1.67069871E-07
   37.6910019         1.24777173E-07
   37.8240013         8.41155128E-08
   37.9570007         4.51584334E-08
   38.0900002         7.97012145E-09
   38.2229996        -2.73882268E-08
   38.3559990        -6.08598896E-08
   38.4889984        -9.23895485E-08
   38.6220016        -1.21921133E-07
   38.7550011        -1.49397508E-07
   38.8880005        -1.74759492E-07
   39.0209999        -1.97944061E-07
   39.1539993        -2.18884907E-07
   39.2869987        -2.37514712E-07
   39.4199982        -2.53764313E-07
   39.5530014        -2.67564587E-07
   39.6860008        -2.78847352E-07
   39.8190002        -2.87549966E-07
   39.9519997        -2.93614704E-07
   40.0849991        -2.96988844E-07
   40.2179985        -2.97629867E-07
   40.3510017        -2.95503440E-07
   40.4840012        -2.90583557E-07
   40.6170006        -2.82855325E-07
   40.7500000        -2.72311325E-07
   40.8829994        -2.58951104E-07
   41.0159988        -2.42780828E-07
   41.1489983        -2.23808669E-07
   41.2820015        -2.02045825E-07
   41.4150009        -1.77500553E-07
   41.5480003        -1.50181265E-07
   41.6809998        -1.20090320E-07
   41.8139992        -8.72269226E-08
   41.9469986        -5.15854559E-08
   42.0800018        -1.31539561E-08
   42.2130013         2.80803381E-08
   42.3460007         7.21332825E-08
   42.4790001         1.19021422E-07
   42.6119995         1.68759001E-07
   42.7449989         2.21357496E-07
   42.8779984         2.76822590E-07
   43.0110016         3.35154994E-07
   43.1440010         3.96348810E-07
   43.2770004         4.60390112E-07
   43.4099998         5.27259829E-07
   43.5429993         5.96932523E-07
   43.6759987         6.69378437E-07
   43.8089981         7.44564545E-07
   43.9420013         8.22457253E-07
   44.0750008         9.03023135E-07
   44.2080002         9.86231498E-07
   44.3409996         1.07205540E-06
   44.4739990         1.16047454E-06
   44.6069984         1.25147335E-06
   44.7400017         1.34504330E-06
   44.8730011         1.44118201E-06
   45.0060005         1.53989163E-06
   45.1389999         1.64117785E-06
   45.2719994         1.74504817E-06
   45.4049988         1.85150884E-06
   45.5379982         1.96056408E-06
   45.6710014         2.07221274E-06
   45.8040009         2.18644823E-06
   45.9370003         2.30325577E-06
   46.0699997         2.42261444E-06
   46.2029991         2.54449537E-06
   46.3359985         2.66886354E-06
   46.4690018         2.79567962E-06
   46.6020012         2.92490063E-06
   46.7350006         3.05648246E-06
   46.8680000         3.19038145E-06
   47.0009995         3.32655509E-06
   47.1339989         3.46496654E-06
   47.2669983         3.60558215E-06
   47.4000015         3.74837350E-06
   47.5330009         3.89331854E-06
   47.6660004         4.04039974E-06
   47.7989998         4.18960326E-06
   47.9319992         4.34091680E-06
   48.0649986         4.49432946E-06
   48.1980019         4.64982713E-06
   48.3310013         4.80739482E-06
   48.4640007         4.96700613E-06
   48.5970001         5.12863198E-06
   48.7299995         5.29223098E-06
   48.8629990         5.45775220E-06
   48.9959984         5.62513651E-06
   49.1290016         5.79431253E-06
   49.2620010         5.96520158E-06
   49.3950005         6.13772181E-06
   49.5279999         6.31178318E-06
   49.6609993         6.48729520E-06
   49.7939987         6.66416736E-06
   49.9269981         6.84231145E-06
   50.0600014         7.02164198E-06
   50.1930008         7.20207709E-06
   50.3260002         7.38353947E-06
   50.4589996         7.56595227E-06
   50.5919991         7.74924320E-06
   50.7249985         7.93334038E-06
   50.8580017         8.11816790E-06
   50.9910011         8.30365025E-06
   51.1240005         8.48970194E-06
   51.2570000         8.67623294E-06
   51.3899994         8.86314319E-06
   51.5229988         9.05032357E-06
   51.6559982         9.23764946E-06
   51.7890015         9.42498991E-06
   51.9220009         9.61220121E-06
   52.0550003         9.79912966E-06
   52.1879997         9.98561609E-06
   52.3209991         1.01714941E-05
   52.4539986         1.03565962E-05
   52.5870018         1.05407516E-05
   52.7200012         1.07237929E-05
   52.8530006         1.09055582E-05
   52.9860001         1.10858864E-05
   53.1189995         1.12646248E-05
   53.2519989         1.14416243E-05
   53.3849983         1.16167394E-05
   53.5180016         1.17898262E-05
   53.6510010         1.19607439E-05
   53.7840004         1.21293479E-05
   53.9169998         1.22954907E-05
   54.0499992         1.24590197E-05
   54.1829987         1.26197756E-05
   54.3160019         1.27775911E-05
   54.4490013         1.29322934E-05
   54.5820007         1.30836988E-05
   54.7150002         1.32316163E-05
   54.8479996         1.33758513E-05
   54.9809990         1.35162099E-05
   55.1139984         1.36524914E-05
   55.2470016         1.37845000E-05
   55.3800011         1.39120384E-05
   55.5130005         1.40349212E-05
   55.6459999         1.41529690E-05
   55.7789993         1.42660147E-05
   55.9119987         1.43738971E-05
   56.0449982         1.44764645E-05
   56.1780014         1.45735776E-05
   56.3110008         1.46651055E-05
   56.4440002         1.47509190E-05
   56.5769997         1.48308982E-05
   56.7099991         1.49049247E-05
   56.8429985         1.49728730E-05
   56.9760017         1.50346259E-05
   57.1090012         1.50900551E-05
   57.2420006         1.51390350E-05
   57.3750000         1.51814320E-05
   57.5079994         1.52171178E-05
   57.6409988         1.52459588E-05
   57.7739983         1.52678240E-05
   57.9070015         1.52825924E-05
   58.0400009         1.52901484E-05
   58.1730003         1.52903849E-05
   58.3059998         1.52832126E-05
   58.4389992         1.52685552E-05
   58.5719986         1.52463454E-05
   58.7050018         1.52165403E-05
   58.8380013         1.51791101E-05
   58.9710007         1.51340382E-05
   59.1040001         1.50813230E-05
   59.2369995         1.50209698E-05
   59.3699989         1.49529988E-05
   59.5029984         1.48774297E-05
   59.6360016         1.47942947E-05
   59.7690010         1.47036162E-05
   59.9020004         1.46054253E-05
   60.0349998         1.44997493E-05
   60.1679993         1.43866137E-05
   60.3009987         1.42660438E-05
   60.4339981         1.41380669E-05
   60.5670013         1.40027141E-05
   60.7000008         1.38600253E-05
   60.8330002         1.37100460E-05
   60.9659996         1.35528308E-05
   61.0989990         1.33884550E-05
   61.2319984         1.32170098E-05
   61.3650017         1.30385979E-05
   61.4980011         1.28533420E-05
   61.6310005         1.26613804E-05
   61.7639999         1.24628687E-05
   61.8969994         1.22579722E-05
   62.0299988         1.20468658E-05
   62.1629982         1.18297366E-05
   62.2960014         1.16067722E-05
   62.4290009         1.13781616E-05
   62.5620003         1.11440913E-05
   62.6949997         1.09047505E-05
   62.8279991         1.06603220E-05
   62.9609985         1.04109849E-05
   63.0940018         1.01569158E-05
   63.2270012         9.89828550E-06
   63.3600006         9.63526600E-06
   63.4930000         9.36803099E-06
   63.6259995         9.09675873E-06
   63.7589989         8.82163476E-06
   63.8919983         8.54285099E-06
   64.0250015         8.26061296E-06
   64.1579971         7.97513530E-06
   64.2910004         7.68664904E-06
   64.4240036         7.39539200E-06
   64.5569992         7.10161567E-06
   64.6900024         6.80557287E-06
   64.8229980         6.50752554E-06
   64.9560013         6.20773244E-06
   65.0889969         5.90645277E-06
   65.2220001         5.60393801E-06
   65.3550034         5.30043098E-06
   65.4879990         4.99616590E-06
   65.6210022         4.69136467E-06
   65.7539978         4.38623738E-06
   65.8870010         4.08098458E-06
   66.0199966         3.77579704E-06
   66.1529999         3.47086075E-06
   66.2860031         3.16635214E-06
   66.4189987         2.86244767E-06
   66.5520020         2.55932628E-06
   66.6849976         2.25716849E-06
   66.8180008         1.95615985E-06
   66.9509964         1.65649101E-06
   67.0839996         1.35835876E-06
   67.2170029         1.06196728E-06
   67.3499985         7.67523431E-07
   67.4830017         4.75236277E-07
   67.6159973         1.85313311E-07
   67.7490005        -1.02041170E-07
   67.8820038        -3.86632621E-07
   68.0149994        -6.68276243E-07
   68.1480026        -9.46802004E-07
   68.2809982        -1.22205597E-06
   68.4140015        -1.49389950E-06
   68.5469971        -1.76221135E-06
   68.6800003        -2.02688534E-06
   68.8130035        -2.28782915E-06
   68.9459991        -2.54496103E-06
   69.0790024        -2.79820574E-06
   69.2119980        -3.04749437E-06
   69.3450012        -3.29275804E-06
   69.4779968        -3.53392625E-06
   69.6110001        -3.77092533E-06
   69.7440033        -4.00367617E-06
   69.8769989        -4.23209485E-06
   70.0100021        -4.45609157E-06
   70.1429977        -4.67557402E-06
   70.2760010        -4.89044851E-06
   70.4089966        -5.10062137E-06
   70.5419998        -5.30600482E-06
   70.6750031        -5.50651703E-06
   70.8079987        -5.70208840E-06
   70.9410019        -5.89266074E-06
   71.0739975        -6.07819175E-06
   71.2070007        -6.25865505E-06
   71.3399963        -6.43403928E-06
   71.4729996        -6.60434989E-06
   71.6060028        -6.76960235E-06
   71.7389984        -6.92982167E-06
   71.8720016        -7.08504194E-06
   72.0049973        -7.23529638E-06
   72.1380005        -7.38061772E-06
   72.2710037        -7.52103415E-06
   72.4039993        -7.65656659E-06
   72.5370026        -7.78722733E-06
   72.6699982        -7.91301954E-06
   72.8030014        -8.03393596E-06
   72.9359970        -8.14996565E-06
   73.0690002        -8.26108953E-06
   73.2020035        -8.36728850E-06
   73.3349991        -8.46854255E-06
   73.4680023        -8.56483712E-06
   73.6009979        -8.65616767E-06
   73.7340012        -8.74253692E-06
   73.8669968        -8.82395852E-06
   74.0000000        -8.90046067E-06
   74.1330032        -8.97208429E-06
   74.2659988        -9.03887940E-06
   74.3990021        -9.10090785E-06
   74.5319977        -9.15823784E-06
   74.6650009        -9.21093488E-06
   74.7979965        -9.25906988E-06
   74.9309998        -9.30270835E-06
   75.0640030        -9.34190484E-06
   75.1969986        -9.37670666E-06
   75.3300018        -9.40714745E-06
   75.4629974        -9.43325085E-06
   75.5960007        -9.45502597E-06
   75.7289963        -9.47247190E-06
   75.8619995        -9.48558227E-06
   75.9950027        -9.49434525E-06
   76.1279984        -9.49874720E-06
   76.2610016        -9.49878176E-06
   76.3939972        -9.49444620E-06
   76.5270004        -9.48574689E-06
   76.6600037        -9.47270564E-06
   76.7929993        -9.45535248E-06
   76.9260025        -9.43373288E-06
   77.0589981        -9.40790051E-06
   77.1920013        -9.37791629E-06
   77.3249969        -9.34385025E-06
   77.4580002        -9.30577062E-06
   77.5910034        -9.26374560E-06
   77.7239990        -9.21783521E-06
   77.8570023        -9.16809404E-06
   77.9899979        -9.11456573E-06
   78.1230011        -9.05728120E-06
   78.2559967        -8.99626139E-06
   78.3889999        -8.93151173E-06
   78.5220032        -8.86303042E-06
   78.6549988        -8.79080926E-06
   78.7880020        -8.71483462E-06
   78.9209976        -8.63509922E-06
   79.0540009        -8.55159487E-06
   79.1869965        -8.46432704E-06
   79.3199997        -8.37330845E-06
   79.4530029        -8.27857002E-06
   79.5859985        -8.18015542E-06
   79.7190018        -8.07812648E-06
   79.8519974        -7.97255689E-06
   79.9850006        -7.86353121E-06
   80.1179962        -7.75114131E-06
   80.2509995        -7.63548633E-06
   80.3840027        -7.51666539E-06
   80.5169983        -7.39477127E-06
   80.6500015        -7.26989083E-06
   80.7829971        -7.14210637E-06
   80.9160004        -7.01148429E-06
   81.0490036        -6.87808324E-06
   81.1819992        -6.74195189E-06
   81.3150024        -6.60313253E-06
   81.4479980        -6.46166154E-06
   81.5810013        -6.31757393E-06
   81.7139969        -6.17090745E-06
   81.8470001        -6.02170894E-06
   81.9800034        -5.87003160E-06
   82.1129990        -5.71594319E-06
   82.2460022        -5.55952647E-06
   82.3789978        -5.40088104E-06
   82.5120010        -5.24012239E-06
   82.6449966        -5.07737923E-06
   82.7779999        -4.91279525E-06
   82.9110031        -4.74652052E-06
   83.0439987        -4.57871374E-06
   83.1770020        -4.40953045E-06