  -24.4200001       0.00000000    
  -24.2900009      -1.92828271E-11
  -24.1599998      -5.52235202E-11
  -24.0300007      -1.02095915E-10
  -23.8999996      -1.52554594E-10
  -23.7700005      -1.99512018E-10
  -23.6399994      -2.37938197E-10
  -23.5100002      -2.66129424E-10
  -23.3799992      -2.86128038E-10
  -23.2500000      -3.03187891E-10
  -23.1200008      -3.24422100E-10
  -22.9899998      -3.56975116E-10
  -22.8600006      -4.06181783E-10
  -22.7299995      -4.74178363E-10
  -22.6000004      -5.59319036E-10
  -22.4699993      -6.56546706E-10
  -22.3400002      -7.58629770E-10
  -22.2099991      -8.57955818E-10
  -22.0799999      -9.48436552E-10
  -21.9500008      -1.02704734E-09
  -21.8199997      -1.09461751E-09
  -21.6900005      -1.15567356E-09
  -21.5599995      -1.21737609E-09
  -21.4300003      -1.28781619E-09
  -21.2999992      -1.37409650E-09
  -21.1700001      -1.48067669E-09
  -21.0400009      -1.60839386E-09
  -20.9099998      -1.75440074E-09
  -20.7800007      -1.91303040E-09
  -20.6499996      -2.07736695E-09
  -20.5200005      -2.24112218E-09
  -20.3899994      -2.40034326E-09
  -20.2600002      -2.55451993E-09
  -20.1299992      -2.70681055E-09
  -20.0000000      -2.86332935E-09
  -19.8700008      -3.03167913E-09
  -19.7399998      -3.21909432E-09
  -19.6100006      -3.43067375E-09
  -19.4799995      -3.66814468E-09
  -19.3500004      -3.92948118E-09
  -19.2199993      -4.20947366E-09
  -19.0900002      -4.50111459E-09
  -18.9599991      -4.79744999E-09
  -18.8299999      -5.09344122E-09
  -18.7000008      -5.38736389E-09
  -18.5699997      -5.68139003E-09
  -18.4400005      -5.98121197E-09
  -18.3099995      -6.29479624E-09
  -18.1800003      -6.63057254E-09
  -18.0499992      -6.99551794E-09
  -17.9200001      -7.39360706E-09
  -17.7900009      -7.82502063E-09
  -17.6599998      -8.28630409E-09
  -17.5300007      -8.77142359E-09
  -17.3999996      -9.27348331E-09
  -17.2700005      -9.78662396E-09
  -17.1399994      -1.03076783E-08
  -17.0100002      -1.08371303E-08
  -16.8799992      -1.13791536E-08
  -16.7500000      -1.19407364E-08
  -16.6200008      -1.25300916E-08
  -16.4899998      -1.31547786E-08
  -16.3600006      -1.38199923E-08
  -16.2299995      -1.45274788E-08
  -16.1000004      -1.52753152E-08
  -15.9700003      -1.60586424E-08
  -15.8400002      -1.68711569E-08
  -15.7100000      -1.77069683E-08
  -15.5799999      -1.85623676E-08
  -15.4499998      -1.94370813E-08
  -15.3199997      -2.03346175E-08
  -15.1899996      -2.12617124E-08
  -15.0600004      -2.22269403E-08
  -14.9300003      -2.32388402E-08
  -14.8000002      -2.43040663E-08
  -14.6700001      -2.54259742E-08
  -14.5400000      -2.66040523E-08
  -14.4099998      -2.78342842E-08
  -14.2799997      -2.91103976E-08
  -14.1499996      -3.04256602E-08
  -14.0200005      -3.17748103E-08
  -13.8900003      -3.31555725E-08
  -13.7600002      -3.45694744E-08
  -13.6300001      -3.60216674E-08
  -13.5000000      -3.75198823E-08
  -13.3699999      -3.90727308E-08
  -13.2399998      -4.06877945E-08
  -13.1099997      -4.23699973E-08
  -12.9799995      -4.41206787E-08
  -12.8500004      -4.59375293E-08
  -12.7200003      -4.78155222E-08
  -12.5900002      -4.97484791E-08
  -12.4600000      -5.17309502E-08
  -12.3299999      -5.37599156E-08
  -12.1999998      -5.58358408E-08
  -12.0699997      -5.79628505E-08
  -11.9399996      -6.01479897E-08
  -11.8100004      -6.23997138E-08
  -11.6800003      -6.47259668E-08
  -11.5500002      -6.71324756E-08
  -11.4200001      -6.96214286E-08
  -11.2900000      -7.21912201E-08
  -11.1599998      -7.48369331E-08
  -11.0299997      -7.75518103E-08
  -10.8999996      -8.03290945E-08
  -10.7700005      -8.31638971E-08
  -10.6400003      -8.60545626E-08
  -10.5100002      -8.90032581E-08
  -10.3800001      -9.20155898E-08
  -10.2500000      -9.50993240E-08
  -10.1199999      -9.82625608E-08
  -9.98999977      -1.01511830E-07
  -9.85999966      -1.04850528E-07
  -9.72999954      -1.08278144E-07
  -9.60000038      -1.11790463E-07
  -9.47000027      -1.15380658E-07
  -9.34000015      -1.19040962E-07
  -9.21000004      -1.22764675E-07
  -9.07999992      -1.26547761E-07
  -8.94999981      -1.30389893E-07
  -8.81999969      -1.34294382E-07
  -8.68999958      -1.38267325E-07
  -8.56000042      -1.42315940E-07
  -8.43000031      -1.46446695E-07
  -8.30000019      -1.50663553E-07
  -8.17000008      -1.54966742E-07
  -8.03999996      -1.59352624E-07
  -7.90999985      -1.63814249E-07
  -7.78000021      -1.68342851E-07
  -7.65000010      -1.72929688E-07
  -7.51999998      -1.77567600E-07
  -7.38999987      -1.82252364E-07
  -7.26000023      -1.86982945E-07
  -7.13000011      -1.91760890E-07
  -7.00000000      -1.96588928E-07
  -6.86999989      -2.01469319E-07
  -6.73999977      -2.06401921E-07
  -6.61000013      -2.11383096E-07
  -6.48000002      -2.16405155E-07
  -6.34999990      -2.21457000E-07
  -6.21999979      -2.26525643E-07
  -6.09000015      -2.31598094E-07
  -5.96000004      -2.36663453E-07
  -5.82999992      -2.41714588E-07
  -5.69999981      -2.46748925E-07
  -5.57000017      -2.51768427E-07
  -5.44000006      -2.56778435E-07
  -5.30999994      -2.61786084E-07
  -5.17999983      -2.66798054E-07
  -5.05000019      -2.71819118E-07
  -4.92000008      -2.76850699E-07
  -4.78999996      -2.81890919E-07
  -4.65999985      -2.86935204E-07
  -4.53000021      -2.91977670E-07
  -4.40000010      -2.97012861E-07
  -4.26999998      -3.02037222E-07
  -4.13999987      -3.07049987E-07
  -4.01000023      -3.12053345E-07
  -3.88000011      -3.17051587E-07
  -3.75000000      -3.22049743E-07
  -3.61999989      -3.27051481E-07
  -3.49000001      -3.32057795E-07
  -3.35999990      -3.37065728E-07
  -3.23000002      -3.42068290E-07
  -3.09999990      -3.47055447E-07
  -2.97000003      -3.52015491E-07
  -2.83999991      -3.56937250E-07
  -2.71000004      -3.61812198E-07
  -2.57999992      -3.66635703E-07
  -2.45000005      -3.71407879E-07
  -2.31999993      -3.76132931E-07
  -2.19000006      -3.80817909E-07
  -2.05999994      -3.85470713E-07
  -1.92999995      -3.90097711E-07
  -1.79999995      -3.94702283E-07
  -1.66999996      -3.99283579E-07
  -1.53999996      -4.03836538E-07
  -1.40999997      -4.08352548E-07
  -1.27999997      -4.12821436E-07
  -1.14999998      -4.17232599E-07
  -1.01999998      -4.21576743E-07
 -0.889999986      -4.25847190E-07
 -0.759999990      -4.30039535E-07
 -0.629999995      -4.34150934E-07
 -0.500000000      -4.38179086E-07
 -0.370000005      -4.42120182E-07
 -0.239999995      -4.45968027E-07
 -0.109999999      -4.49712985E-07
   1.99999996E-02  -4.53342722E-07
  0.150000006      -4.56843026E-07
  0.280000001      -4.60199942E-07
  0.409999996      -4.63401875E-07
  0.540000021      -4.66441776E-07
  0.670000017      -4.69318792E-07
  0.800000012      -4.72038323E-07
  0.930000007      -4.74611909E-07
   1.05999994      -4.77055607E-07
   1.19000006      -4.79387609E-07
   1.32000005      -4.81626785E-07
   1.45000005      -4.83790359E-07
   1.58000004      -4.85893111E-07
   1.71000004      -4.87947489E-07
   1.84000003      -4.89964066E-07
   1.97000003      -4.91952960E-07
   2.09999990      -4.93925313E-07
   2.23000002      -4.95894369E-07
   2.35999990      -4.97876044E-07
   2.49000001      -4.99888245E-07
   2.61999989      -5.01949899E-07
   2.75000000      -5.04078969E-07
   2.88000011      -5.06290803E-07
   3.00999999      -5.08596827E-07
   3.14000010      -5.11003861E-07
   3.26999998      -5.13514465E-07
   3.40000010      -5.16128864E-07
   3.52999997      -5.18846548E-07
   3.66000009      -5.21669278E-07
   3.78999996      -5.24602683E-07
   3.92000008      -5.27658187E-07
   4.05000019      -5.30853583E-07
   4.17999983      -5.34212347E-07
   4.30999994      -5.37762276E-07
   4.44000006      -5.41533780E-07
   4.57000017      -5.45557953E-07
   4.69999981      -5.49865035E-07
   4.82999992      -5.54483904E-07
   4.96000004      -5.59442697E-07
   5.09000015      -5.64769266E-07
   5.21999979      -5.70493171E-07
   5.34999990      -5.76646983E-07
   5.48000002      -5.83267195E-07
   5.61000013      -5.90394677E-07
   5.73999977      -5.98074223E-07
   5.86999989      -6.06352501E-07
   6.00000000      -6.15276804E-07
   6.13000011      -6.24892664E-07
   6.26000023      -6.35242486E-07
   6.38999987      -6.46365095E-07
   6.51999998      -6.58296358E-07
   6.65000010      -6.71069813E-07
   6.78000021      -6.84719168E-07
   6.90999985      -6.99280406E-07
   7.03999996      -7.14793771E-07
   7.17000008      -7.31304510E-07
   7.30000019      -7.48863556E-07
   7.42999983      -7.67525933E-07
   7.55999994      -7.87349848E-07
   7.69000006      -8.08394304E-07
   7.82000017      -8.30716886E-07
   7.94999981      -8.54373411E-07
   8.07999992      -8.79416518E-07
   8.21000004      -9.05896798E-07
   8.34000015      -9.33864044E-07
   8.47000027      -9.63368848E-07
   8.60000038      -9.94464699E-07
   8.72999954      -1.02720799E-06
   8.85999966      -1.06165965E-06
   8.98999977      -1.09788334E-06
   9.11999989      -1.13594456E-06
   9.25000000      -1.17590923E-06
   9.38000011      -1.21784092E-06
   9.51000023      -1.26180055E-06
   9.64000034      -1.30784520E-06
   9.77000046      -1.35602954E-06
   9.89999962      -1.40640691E-06
   10.0299997      -1.45903107E-06
   10.1599998      -1.51395852E-06
   10.2900000      -1.57124896E-06
   10.4200001      -1.63096740E-06
   10.5500002      -1.69318275E-06
   10.6800003      -1.75796720E-06
   10.8100004      -1.82539316E-06
   10.9399996      -1.89553191E-06
   11.0699997      -1.96845144E-06
   11.1999998      -2.04421463E-06
   11.3299999      -2.12288001E-06
   11.4600000      -2.20450193E-06
   11.5900002      -2.28913200E-06
   11.7200003      -2.37682002E-06
   11.8500004      -2.46761624E-06
   11.9799995      -2.56157250E-06
   12.1099997      -2.65874223E-06
   12.2399998      -2.75917864E-06
   12.3699999      -2.86293312E-06
   12.5000000      -2.97005454E-06
   12.6300001      -3.08058679E-06
   12.7600002      -3.19456808E-06
   12.8900003      -3.31202932E-06
   13.0200005      -3.43299507E-06
   13.1499996      -3.55748671E-06
   13.2799997      -3.68552310E-06
   13.4099998      -3.81712152E-06
   13.5400000      -3.95229972E-06
   13.6700001      -4.09107906E-06
   13.8000002      -4.23348047E-06
   13.9300003      -4.37952440E-06
   14.0600004      -4.52922859E-06
   14.1899996      -4.68260760E-06
   14.3199997      -4.83966960E-06
   14.4499998      -5.00041733E-06
   14.5799999      -5.16484624E-06
   14.7100000      -5.33294678E-06
   14.8400002      -5.50470531E-06
   14.9700003      -5.68010864E-06
   15.1000004      -5.85914131E-06
   15.2299995      -6.04179149E-06
   15.3599997      -6.22804600E-06
   15.4899998      -6.41789438E-06
   15.6199999      -6.61132162E-06
   15.7500000      -6.80830999E-06
   15.8800001      -7.00883811E-06
   16.0100002      -7.21287552E-06
   16.1399994      -7.42038492E-06
   16.2700005      -7.63132357E-06
   16.3999996      -7.84564418E-06
   16.5300007      -8.06329626E-06
   16.6599998      -8.28422435E-06
   16.7900009      -8.50837841E-06
   16.9200001      -8.73570207E-06
   17.0499992      -8.96614165E-06
   17.1800003      -9.19963713E-06
   17.3099995      -9.43612758E-06
   17.4400005      -9.67554115E-06
   17.5699997      -9.91780053E-06
   17.7000008      -1.01628193E-05
   17.8299999      -1.04105029E-05
   17.9599991      -1.06607476E-05
   18.0900002      -1.09134489E-05
   18.2199993      -1.11684958E-05
   18.3500004      -1.14257782E-05
   18.4799995      -1.16851861E-05
   18.6100006      -1.19466076E-05
   18.7399998      -1.22099318E-05
   18.8700008      -1.24750431E-05
   19.0000000      -1.27418261E-05
   19.1299992      -1.30101544E-05
   19.2600002      -1.32799014E-05
   19.3899994      -1.35509299E-05
   19.5200005      -1.38231053E-05
   19.6499996      -1.40962866E-05
   19.7800007      -1.43703355E-05
   19.9099998      -1.46451157E-05
   20.0400009      -1.49204980E-05
   20.1700001      -1.51963550E-05
   20.2999992      -1.54725658E-05
   20.4300003      -1.57490067E-05
   20.5599995      -1.60255604E-05
   20.6900005      -1.63021050E-05
   20.8199997      -1.65785150E-05
   20.9500008      -1.68546612E-05
   21.0799999      -1.71304127E-05
   21.2099991      -1.74056368E-05
   21.3400002      -1.76801968E-05
   21.4699993      -1.79539638E-05
   21.6000004      -1.82268031E-05
   21.7299995      -1.84985875E-05
   21.8600006      -1.87691912E-05
   21.9899998      -1.90384853E-05
   22.1200008      -1.93063424E-05
   22.2500000      -1.95726298E-05
   22.3799992      -1.98372109E-05
   22.5100002      -2.00999457E-05
   22.6399994      -2.03606924E-05
   22.7700005      -2.06193054E-05
   22.8999996      -2.08756392E-05
   23.0300007      -2.11295537E-05
   23.1599998      -2.13809144E-05
   23.2900009      -2.16295957E-05
   23.4200001      -2.18754813E-05
   23.5499992      -2.21184564E-05
   23.6800003      -2.23584193E-05
   23.8099995      -2.25952663E-05
   23.9400005      -2.28288991E-05
   24.0699997      -2.30592195E-05
   24.2000008      -2.32861348E-05
   24.3299999      -2.35095504E-05
   24.4599991      -2.37293734E-05
   24.5900002      -2.39455203E-05
   24.7199993      -2.41579110E-05
   24.8500004      -2.43664726E-05
   24.9799995      -2.45711417E-05
   25.1100006      -2.47718544E-05
   25.2399998      -2.49685545E-05
   25.3700008      -2.51611873E-05
   25.5000000      -2.53496946E-05
   25.6299992      -2.55340201E-05
   25.7600002      -2.57141073E-05
   25.8899994      -2.58898981E-05
   26.0200005      -2.60613415E-05
   26.1499996      -2.62283829E-05
   26.2800007      -2.63909824E-05
   26.4099998      -2.65491071E-05
   26.5400009      -2.67027299E-05
   26.6700001      -2.68518343E-05
   26.7999992      -2.69964166E-05
   26.9300003      -2.71364752E-05
   27.0599995      -2.72720117E-05
   27.1900005      -2.74030353E-05
   27.3199997      -2.75295533E-05
   27.4500008      -2.76515748E-05
   27.5799999      -2.77691088E-05
   27.7099991      -2.78821681E-05
   27.8400002      -2.79907727E-05
   27.9699993      -2.80949444E-05
   28.1000004      -2.81947159E-05
   28.2299995      -2.82901183E-05
   28.3600006      -2.83811878E-05
   28.4899998      -2.84679663E-05
   28.6200008      -2.85504921E-05
   28.7500000      -2.86288014E-05
   28.8799992      -2.87029325E-05
   29.0100002      -2.87729108E-05
   29.1399994      -2.88387746E-05
   29.2700005      -2.89005566E-05
   29.3999996      -2.89582877E-05
   29.5300007      -2.90120133E-05
   29.6599998      -2.90617791E-05
   29.7900009      -2.91076394E-05
   29.9200001      -2.91496599E-05
   30.0499992      -2.91879023E-05
   30.1800003      -2.92224377E-05
   30.3099995      -2.92533314E-05
   30.4400005      -2.92806526E-05
   30.5699997      -2.93044650E-05
   30.7000008      -2.93248304E-05
   30.8299999      -2.93418088E-05
   30.9599991      -2.93554622E-05
   31.0900002      -2.93658486E-05
   31.2199993      -2.93730336E-05
   31.3500004      -2.93770827E-05
   31.4799995      -2.93780631E-05
   31.6100006      -2.93760440E-05
   31.7399998      -2.93710909E-05
   31.8700008      -2.93632729E-05
   32.0000000      -2.93526482E-05
   32.1300011      -2.93392732E-05
   32.2599983      -2.93231988E-05
   32.3899994      -2.93044704E-05
   32.5200005      -2.92831319E-05
   32.6500015      -2.92592358E-05
   32.7799988      -2.92328223E-05
   32.9099998      -2.92039495E-05
   33.0400009      -2.91726665E-05
   33.1699982      -2.91390279E-05
   33.2999992      -2.91030883E-05
   33.4300003      -2.90648986E-05
   33.5600014      -2.90245025E-05
   33.6899986      -2.89819418E-05
   33.8199997      -2.89372456E-05
   33.9500008      -2.88904412E-05
   34.0800018      -2.88415504E-05
   34.2099991      -2.87905896E-05
   34.3400002      -2.87375788E-05
   34.4700012      -2.86825343E-05
   34.5999985      -2.86254708E-05
   34.7299995      -2.85664046E-05
   34.8600006      -2.85053575E-05
   34.9900017      -2.84423368E-05
   35.1199989      -2.83773534E-05
   35.2500000      -2.83104055E-05
   35.3800011      -2.82414949E-05
   35.5099983      -2.81706089E-05
   35.6399994      -2.80977401E-05
   35.7700005      -2.80228705E-05
   35.9000015      -2.79459819E-05
   36.0299988      -2.78670686E-05
   36.1599998      -2.77861145E-05
   36.2900009      -2.77031140E-05
   36.4199982      -2.76180581E-05
   36.5499992      -2.75309412E-05
   36.6800003      -2.74417489E-05
   36.8100014      -2.73504684E-05
   36.9399986      -2.72570815E-05
   37.0699997      -2.71615645E-05
   37.2000008      -2.70638920E-05
   37.3300018      -2.69640423E-05
   37.4599991      -2.68619788E-05
   37.5900002      -2.67576852E-05
   37.7200012      -2.66511397E-05
   37.8499985      -2.65423223E-05
   37.9799995      -2.64312202E-05
   38.1100006      -2.63178172E-05
   38.2400017      -2.62020931E-05
   38.3699989      -2.60840261E-05
   38.5000000      -2.59635926E-05
   38.6300011      -2.58407617E-05
   38.7599983      -2.57154989E-05
   38.8899994      -2.55877676E-05
   39.0200005      -2.54575352E-05
   39.1500015      -2.53247636E-05
   39.2799988      -2.51894271E-05
   39.4099998      -2.50514968E-05
   39.5400009      -2.49109507E-05
   39.6699982      -2.47677708E-05
   39.7999992      -2.46219424E-05
   39.9300003      -2.44734474E-05
   40.0600014      -2.43222748E-05
   40.1899986      -2.41684174E-05
   40.3199997      -2.40118570E-05
   40.4500008      -2.38525881E-05
   40.5800018      -2.36906071E-05
   40.7099991      -2.35259104E-05
   40.8400002      -2.33585088E-05
   40.9700012      -2.31884114E-05
   41.0999985      -2.30156365E-05
   41.2299995      -2.28402168E-05
   41.3600006      -2.26621742E-05
   41.4900017      -2.24815394E-05
   41.6199989      -2.22983472E-05
   41.7500000      -2.21126229E-05
   41.8800011      -2.19243993E-05
   42.0099983      -2.17337001E-05
   42.1399994      -2.15405562E-05
   42.2700005      -2.13449966E-05
   42.4000015      -2.11470560E-05
   42.5299988      -2.09467780E-05
   42.6599998      -2.07442117E-05
   42.7900009      -2.05394208E-05
   42.9199982      -2.03324707E-05
   43.0499992      -2.01234270E-05
   43.1800003      -1.99123697E-05
   43.3100014      -1.96993788E-05
   43.4399986      -1.94845361E-05
   43.5699997      -1.92679199E-05
   43.7000008      -1.90496175E-05
   43.8300018      -1.88297199E-05
   43.9599991      -1.86083253E-05
   44.0900002      -1.83855427E-05
   44.2200012      -1.81614778E-05
   44.3499985      -1.79362560E-05
   44.4799995      -1.77099955E-05
   44.6100006      -1.74828238E-05
   44.7400017      -1.72548644E-05
   44.8699989      -1.70262447E-05
   45.0000000      -1.67970829E-05
   45.1300011      -1.65675046E-05
   45.2599983      -1.63376280E-05
   45.3899994      -1.61075750E-05
   45.5200005      -1.58774710E-05
   45.6500015      -1.56474489E-05
   45.7799988      -1.54176432E-05
   45.9099998      -1.51881986E-05
   46.0400009      -1.49592670E-05
   46.1699982      -1.47310038E-05
   46.2999992      -1.45035701E-05
   46.4300003      -1.42771278E-05
   46.5600014      -1.40518396E-05
   46.6899986      -1.38278674E-05
   46.8199997      -1.36053723E-05
   46.9500008      -1.33845151E-05
   47.0800018      -1.31654624E-05
   47.2099991      -1.29483797E-05
   47.3400002      -1.27334370E-05
   47.4700012      -1.25208062E-05
   47.5999985      -1.23106620E-05
   47.7299995      -1.21031799E-05
   47.8600006      -1.18985326E-05
   47.9900017      -1.16968895E-05
   48.1199989      -1.14984132E-05
   48.2500000      -1.13032584E-05
   48.3800011      -1.11115769E-05
   48.5099983      -1.09235116E-05
   48.6399994      -1.07392043E-05
   48.7700005      -1.05587933E-05
   48.9000015      -1.03824177E-05
   49.0299988      -1.02102149E-05
   49.1599998      -1.00423267E-05
   49.2900009      -9.87889143E-06
   49.4199982      -9.72004364E-06
   49.5499992      -9.56591612E-06
   49.6800003      -9.41663438E-06
   49.8100014      -9.27231849E-06
   49.9399986      -9.13308031E-06
   50.0699997      -8.99902352E-06
   50.2000008      -8.87024999E-06
   50.3300018      -8.74685247E-06
   50.4599991      -8.62892739E-06
   50.5900002      -8.51656296E-06
   50.7200012      -8.40985194E-06
   50.8499985      -8.30888075E-06
   50.9799995      -8.21373396E-06
   51.1100006      -8.12448798E-06
   51.2400017      -8.04121646E-06
   51.3699989      -7.96398035E-06
   51.5000000      -7.89283240E-06
   51.6300011      -7.82781899E-06
   51.7599983      -7.76897468E-06
   51.8899994      -7.71633222E-06
   52.0200005      -7.66991434E-06
   52.1500015      -7.62974014E-06
   52.2799988      -7.59582463E-06
   52.4099998      -7.56817735E-06
   52.5400009      -7.54680286E-06
   52.6699982      -7.53169616E-06
   52.7999992      -7.52283995E-06
   52.9300003      -7.52020878E-06
   53.0600014      -7.52376263E-06
   53.1899986      -7.53345375E-06
   53.3199997      -7.54922212E-06
   53.4500008      -7.57099906E-06
   53.5800018      -7.59871136E-06
   53.7099991      -7.63228127E-06
   53.8400002      -7.67162874E-06
   53.9700012      -7.71667419E-06
   54.0999985      -7.76733123E-06
   54.2299995      -7.82351435E-06
   54.3600006      -7.88513171E-06
   54.4900017      -7.95208689E-06
   54.6199989      -8.02427348E-06
   54.7500000      -8.10158144E-06
   54.8800011      -8.18389253E-06
   55.0099983      -8.27107851E-06
   55.1399994      -8.36301206E-06
   55.2700005      -8.45955765E-06
   55.4000015      -8.56057886E-06
   55.5299988      -8.66593564E-06
   55.6599998      -8.77548337E-06
   55.7900009      -8.88907562E-06
   55.9199982      -9.00655778E-06
   56.0499992      -9.12776522E-06
   56.1800003      -9.25252425E-06
   56.3100014      -9.38065477E-06
   56.4399986      -9.51196580E-06
   56.5699997      -9.64625997E-06
   56.7000008      -9.78333355E-06
   56.8300018      -9.92298465E-06
   56.9599991      -1.00650068E-05
   57.0900002      -1.02091990E-05
   57.2200012      -1.03553602E-05
   57.3499985      -1.05032914E-05
   57.4799995      -1.06527941E-05
   57.6100006      -1.08036720E-05
   57.7400017      -1.09557204E-05
   57.8699989      -1.11087393E-05
   58.0000000      -1.12625203E-05
   58.1300011      -1.14168533E-05
   58.2599983      -1.15715293E-05
   58.3899994      -1.17263407E-05
   58.5200005      -1.18810804E-05
   58.6500015      -1.20355471E-05
   58.7799988      -1.21895437E-05
   58.9099998      -1.23428727E-05
   59.0400009      -1.24953485E-05
   59.1699982      -1.26467776E-05
   59.2999992      -1.27969761E-05
   59.4300003      -1.29457540E-05
   59.5600014      -1.30929220E-05
   59.6899986      -1.32382884E-05
   59.8199997      -1.33816675E-05
   59.9500008      -1.35228729E-05
   60.0800018      -1.36617246E-05
   60.2099991      -1.37980496E-05
   60.3400002      -1.39316862E-05
   60.4700012      -1.40624770E-05
   60.5999985      -1.41902719E-05
   60.7299995      -1.43149255E-05
   60.8600006      -1.44362939E-05
   60.9900017      -1.45542335E-05
   61.1199989      -1.46686007E-05
   61.2500000      -1.47792498E-05
   61.3800011      -1.48860381E-05
   61.5099983      -1.49888201E-05
   61.6399994      -1.50874575E-05
   61.7700005      -1.51818203E-05
   61.9000015      -1.52717803E-05
   62.0299988      -1.53572219E-05
   62.1599998      -1.54380359E-05
   62.2900009      -1.55141188E-05
   62.4199982      -1.55853722E-05
   62.5499992      -1.56517053E-05
   62.6800003      -1.57130253E-05
   62.8100014      -1.57692502E-05
   62.9399986      -1.58202947E-05
   63.0699997      -1.58660860E-05
   63.2000008      -1.59065494E-05
   63.3300018      -1.59416322E-05
   63.4599991      -1.59712818E-05
   63.5900002      -1.59954616E-05
   63.7200012      -1.60141408E-05
   63.8499985      -1.60273030E-05
   63.9799995      -1.60349355E-05
   64.1100006      -1.60370200E-05
   64.2399979      -1.60335494E-05
   64.3700027      -1.60245163E-05
   64.5000000      -1.60099025E-05
   64.6299973      -1.59897045E-05
   64.7600021      -1.59639094E-05
   64.8899994      -1.59325136E-05
   65.0199966      -1.58955172E-05
   65.1500015      -1.58529219E-05
   65.2799988      -1.58047460E-05
   65.4100037      -1.57510021E-05
   65.5400009      -1.56917122E-05
   65.6699982      -1.56269016E-05
   65.8000031      -1.55565922E-05
   65.9300003      -1.54808076E-05
   66.0599976      -1.53995697E-05
   66.1900024      -1.53129004E-05
   66.3199997      -1.52208249E-05
   66.4499969      -1.51233689E-05
   66.5800018      -1.50205669E-05
   66.7099991      -1.49124571E-05
   66.8399963      -1.47990877E-05
   66.9700012      -1.46805105E-05
   67.0999985      -1.45567883E-05
   67.2300034      -1.44279838E-05
   67.3600006      -1.42941590E-05
   67.4899979      -1.41553819E-05
   67.6200027      -1.40117136E-05
   67.7500000      -1.38632167E-05
   67.8799973      -1.37099560E-05
   68.0100021      -1.35519967E-05
   68.1399994      -1.33894073E-05
   68.2699966      -1.32222594E-05
   68.4000015      -1.30506314E-05
   68.5299988      -1.28746051E-05
   68.6600037      -1.26942668E-05
   68.7900009      -1.25097049E-05
   68.9199982      -1.23210029E-05
   69.0500031      -1.21282455E-05
   69.1800003      -1.19315091E-05
   69.3099976      -1.17308673E-05
   69.4400024      -1.15263892E-05
   69.5699997      -1.13181432E-05
   69.6999969      -1.11061963E-05
   69.8300018      -1.08906215E-05
   69.9599991      -1.06714915E-05
   70.0899963      -1.04488890E-05
   70.2200012      -1.02228987E-05
   70.3499985      -9.99361055E-06
   70.4800034      -9.76111278E-06
   70.6100006      -9.52549999E-06
   70.7399979      -9.28686040E-06
   70.8700027      -9.04528224E-06
   71.0000000      -8.80085099E-06
   71.1299973      -8.55365488E-06
   71.2600021      -8.30378303E-06
   71.3899994      -8.05132549E-06
   71.5199966      -7.79637867E-06
   71.6500015      -7.53904078E-06
   71.7799988      -7.27941642E-06
   71.9100037      -7.01760746E-06
   72.0400009      -6.75371484E-06
   72.1699982      -6.48783816E-06
   72.3000031      -6.22006928E-06
   72.4300003      -5.95049369E-06
   72.5599976      -5.67919324E-06
   72.6900024      -5.40624433E-06
   72.8199997      -5.13172381E-06
   72.9499969      -4.85570808E-06
   73.0800018      -4.57827855E-06
   73.2099991      -4.29952115E-06
   73.3399963      -4.01952821E-06
   73.4700012      -3.73839907E-06
   73.5999985      -3.45623698E-06
   73.7300034      -3.17315039E-06
   73.8600006      -2.88924662E-06
   73.9899979      -2.60463435E-06
   74.1200027      -2.31942204E-06
   74.2500000      -2.03371701E-06
   74.3799973      -1.74763125E-06
   74.5100021      -1.46127695E-06
   74.6399994      -1.17476566E-06
   74.7699966      -8.88218551E-07
   74.9000015      -6.01757847E-07
   75.0299988      -3.15504082E-07
   75.1600037      -2.95818747E-08
   75.2900009       2.55892559E-07
   75.4199982       5.40805786E-07
   75.5500031       8.25051814E-07
   75.6800003       1.10853136E-06
   75.8099976       1.39115275E-06
   75.9400024       1.67282724E-06
   76.0699997       1.95346911E-06
   76.1999969       2.23299025E-06
   76.3300018       2.51129973E-06
   76.4599991       2.78830112E-06
   76.5899963       3.06388938E-06
   76.7200012       3.33795651E-06
   76.8499985       3.61039019E-06
   76.9800034       3.88107719E-06
   77.1100006       4.14990336E-06
   77.2399979       4.41675684E-06
   77.3700027       4.68151984E-06
   77.5000000       4.94407914E-06
   77.6299973       5.20431968E-06
   77.7600021       5.46212414E-06
   77.8899994       5.71737201E-06
   78.0199966       5.96994096E-06
   78.1500015       6.21970230E-06
   78.2799988       6.46653052E-06
   78.4100037       6.71029647E-06
   78.5400009       6.95087783E-06
   78.6699982       7.18815818E-06
   78.8000031       7.42202883E-06
   78.9300003       7.65238838E-06
   79.0599976       7.87913905E-06
   79.1900024       8.10219535E-06
   79.3199997       8.32146634E-06
   79.4499969       8.53686470E-06
   79.5800018       8.74830494E-06
   79.7099991       8.95569519E-06
   79.8399963       9.15893997E-06
   79.9700012       9.35794378E-06
   80.0999985       9.55261385E-06
   80.2300034       9.74285649E-06
   80.3600006       9.92858531E-06
   80.4899979       1.01097203E-05
   80.6200027       1.02861832E-05
   80.7500000       1.04579003E-05
   80.8799973       1.06248035E-05
   81.0100021       1.07868227E-05
   81.1399994       1.09438852E-05
   81.2699966       1.10959181E-05
   81.4000015       1.12428497E-05
   81.5299988       1.13846054E-05
   81.6600037       1.15211114E-05
   81.7900009       1.16523042E-05
   81.9199982       1.17781210E-05
   82.0500031       1.18985126E-05
   82.1800003       1.20134300E-05
   82.3099976       1.21228368E-05
   82.4400024       1.22266993E-05
   82.5699997       1.23249865E-05
   82.6999969       1.24176613E-05
   82.8300018       1.25046927E-05
   82.9599991       1.25860442E-05
   83.0899963       1.26616733E-05
   83.2200012       1.27315470E-05
   83.3499985       1.27956282E-05
   83.4800034       1.28538913E-05
   83.6100006       1.29063110E-05
   83.7399979       1.29528707E-05
   83.8700027       1.29935634E-05
   84.0000000       1.30283825E-05
   84.1299973       1.30573235E-05
   84.2600021       1.30803874E-05
   84.3899994       1.30975704E-05
   84.5199966       1.31088691E-05
   84.6500015       1.31142788E-05
   84.7799988       1.31137940E-05
   84.9100037       1.31074157E-05
   85.0400009       1.30951485E-05
   85.1699982       1.30770022E-05
   85.3000031       1.30529961E-05
   85.4300003       1.30231574E-05
   85.5599976       1.29875216E-05
   85.6900024       1.29461232E-05
   85.8199997       1.28990005E-05
   85.9499969       1.28461925E-05
   86.0800018       1.27877365E-05
   86.2099991       1.27236681E-05
   86.3399963       1.26540208E-05
   86.4700012       1.25788329E-05
   86.5999985       1.24981425E-05
   86.7300034       1.24119970E-05
   86.8600006       1.23204463E-05