  -24.4200001         0.00000000    
  -24.2900009        -8.29735214E-09
  -24.1599998        -2.48789078E-08
  -24.0300007        -4.92174053E-08
  -23.8999996        -8.03248739E-08
  -23.7700005        -1.16844319E-07
  -23.6399994        -1.57172011E-07
  -23.5100002        -1.99600350E-07
  -23.3799992        -2.42469241E-07
  -23.2500000        -2.84313302E-07
  -23.1200008        -3.23992367E-07
  -22.9899998        -3.60794246E-07
  -22.8600006        -3.94500972E-07
  -22.7299995        -4.25412395E-07
  -22.6000004        -4.54325857E-07
  -22.4699993        -4.82473013E-07
  -22.3400002        -5.11419842E-07
  -22.2099991        -5.42938324E-07
  -22.0799999        -5.78861034E-07
  -21.9500008        -6.20931473E-07
  -21.8199997        -6.70662928E-07
  -21.6900005        -7.29217788E-07
  -21.5599995        -7.97318421E-07
  -21.4300003        -8.75196008E-07
  -21.2999992        -9.62582590E-07
  -21.1700001        -1.05874562E-06
  -21.0400009        -1.16256399E-06
  -20.9099998        -1.27263627E-06
  -20.7800007        -1.38741427E-06
  -20.6499996        -1.50534981E-06
  -20.5200005        -1.62504227E-06
  -20.3899994        -1.74537524E-06
  -20.2600002        -1.86563000E-06
  -20.1299992        -1.98556768E-06
  -20.0000000        -2.10547182E-06
  -19.8700008        -2.22614813E-06
  -19.7399998        -2.34888194E-06
  -19.6100006        -2.47535604E-06
  -19.4799995        -2.60753563E-06
  -19.3500004        -2.74753029E-06
  -19.2199993        -2.89744435E-06
  -19.0900002        -3.05922890E-06
  -18.9599991        -3.23454765E-06
  -18.8299999        -3.42466751E-06
  -18.7000008        -3.63038453E-06
  -18.5699997        -3.85199155E-06
  -18.4400005        -4.08928918E-06
  -18.3099995        -4.34163940E-06
  -18.1800003        -4.60805904E-06
  -18.0499992        -4.88734122E-06
  -17.9200001        -5.17819944E-06
  -17.7900009        -5.47941545E-06
  -17.6599998        -5.78998379E-06
  -17.5300007        -6.10923917E-06
  -17.3999996        -6.43695512E-06
  -17.2700005        -6.77340495E-06
  -17.1399994        -7.11938401E-06
  -17.0100002        -7.47618606E-06
  -16.8799992        -7.84554140E-06
  -16.7500000        -8.22951642E-06
  -16.6200008        -8.63039168E-06
  -16.4899998        -9.05051365E-06
  -16.3600006        -9.49215064E-06
  -16.2299995        -9.95735354E-06
  -16.1000004        -1.04478313E-05
  -15.9700003        -1.09648590E-05
  -15.8400002        -1.15092307E-05
  -15.7100000        -1.20812383E-05
  -15.5799999        -1.26807063E-05
  -15.4499998        -1.33070644E-05
  -15.3199997        -1.39594531E-05
  -15.1899996        -1.46368557E-05
  -15.0600004        -1.53382462E-05
  -14.9300003        -1.60627351E-05
  -14.8000002        -1.68097140E-05
  -14.6700001        -1.75789628E-05
  -14.5400000        -1.83707361E-05
  -14.4099998        -1.91858089E-05
  -14.2799997        -2.00254653E-05
  -14.1499996        -2.08914662E-05
  -14.0200005        -2.17859579E-05
  -13.8900003        -2.27113615E-05
  -13.7600002        -2.36702272E-05
  -13.6300001        -2.46650961E-05
  -13.5000000        -2.56983458E-05
  -13.3699999        -2.67720643E-05
  -13.2399998        -2.78879379E-05
  -13.1099997        -2.90471799E-05
  -12.9799995        -3.02505014E-05
  -12.8500004        -3.14981116E-05
  -12.7200003        -3.27897797E-05
  -12.5900002        -3.41249142E-05
  -12.4600000        -3.55026896E-05
  -12.3299999        -3.69221634E-05
  -12.1999998        -3.83824554E-05
  -12.0699997        -3.98828561E-05
  -11.9399996        -4.14229726E-05
  -11.8100004        -4.30028304E-05
  -11.6800003        -4.46229242E-05
  -11.5500002        -4.62842363E-05
  -11.4200001        -4.79882365E-05
  -11.2900000        -4.97367910E-05
  -11.1599998        -5.15320899E-05
  -11.0299997        -5.33764978E-05
  -10.8999996        -5.52724159E-05
  -10.7700005        -5.72221397E-05
  -10.6400003        -5.92276992E-05
  -10.5100002        -6.12907606E-05
  -10.3800001        -6.34125026E-05
  -10.2500000        -6.55936019E-05
  -10.1199999        -6.78341821E-05
  -9.98999977        -7.01338722E-05
  -9.85999966        -7.24918573E-05
  -9.72999954        -7.49070095E-05
  -9.60000038        -7.73779902E-05
  -9.47000027        -7.99034024E-05
  -9.34000015        -8.24819508E-05
  -9.21000004        -8.51125515E-05
  -9.07999992        -8.77944476E-05
  -8.94999981        -9.05272973E-05
  -8.81999969        -9.33112096E-05
  -8.68999958        -9.61467595E-05
  -8.56000042        -9.90349290E-05
  -8.43000031        -1.01977028E-04
  -8.30000019        -1.04974577E-04
  -8.17000008        -1.08029199E-04
  -8.03999996        -1.11142443E-04
  -7.90999985        -1.14315648E-04
  -7.78000021        -1.17549796E-04
  -7.65000010        -1.20845441E-04
  -7.51999998        -1.24202590E-04
  -7.38999987        -1.27620660E-04
  -7.26000023        -1.31098568E-04
  -7.13000011        -1.34634683E-04
  -7.00000000        -1.38226969E-04
  -6.86999989        -1.41873068E-04
  -6.73999977        -1.45570491E-04
  -6.61000013        -1.49316707E-04
  -6.48000002        -1.53109329E-04
  -6.34999990        -1.56946204E-04
  -6.21999979        -1.60825570E-04
  -6.09000015        -1.64746045E-04
  -5.96000004        -1.68706698E-04
  -5.82999992        -1.72707005E-04
  -5.69999981        -1.76746820E-04
  -5.57000017        -1.80826246E-04
  -5.44000006        -1.84945515E-04
  -5.30999994        -1.89104874E-04
  -5.17999983        -1.93304426E-04
  -5.05000019        -1.97543995E-04
  -4.92000008        -2.01822986E-04
  -4.78999996        -2.06140321E-04
  -4.65999985        -2.10494385E-04
  -4.53000021        -2.14882995E-04
  -4.40000010        -2.19303445E-04
  -4.26999998        -2.23752577E-04
  -4.13999987        -2.28226854E-04
  -4.01000023        -2.32722508E-04
  -3.88000011        -2.37235741E-04
  -3.75000000        -2.41762769E-04
  -3.61999989        -2.46300013E-04
  -3.49000001        -2.50844256E-04
  -3.35999990        -2.55392632E-04
  -3.23000002        -2.59942753E-04
  -3.09999990        -2.64492701E-04
  -2.97000003        -2.69040931E-04
  -2.83999991        -2.73586280E-04
  -2.71000004        -2.78127816E-04
  -2.57999992        -2.82664667E-04
  -2.45000005        -2.87195900E-04
  -2.31999993        -2.91720469E-04
  -2.19000006        -2.96236947E-04
  -2.05999994        -3.00743559E-04
  -1.92999995        -3.05237947E-04
  -1.79999995        -3.09717318E-04
  -1.66999996        -3.14178324E-04
  -1.53999996        -3.18617240E-04
  -1.40999997        -3.23029875E-04
  -1.27999997        -3.27411864E-04
  -1.14999998        -3.31758725E-04
  -1.01999998        -3.36066034E-04
 -0.889999986        -3.40329454E-04
 -0.759999990        -3.44545057E-04
 -0.629999995        -3.48709349E-04
 -0.500000000        -3.52819246E-04
 -0.370000005        -3.56872217E-04
 -0.239999995        -3.60866194E-04
 -0.109999999        -3.64799576E-04
   1.99999996E-02    -3.68671142E-04
  0.150000006        -3.72479815E-04
  0.280000001        -3.76224692E-04
  0.409999996        -3.79904784E-04
  0.540000021        -3.83518927E-04
  0.670000017        -3.87065607E-04
  0.800000012        -3.90542991E-04
  0.930000007        -3.93948809E-04
   1.05999994        -3.97280266E-04
   1.19000006        -4.00534220E-04
   1.32000005        -4.03707119E-04
   1.45000005        -4.06795269E-04
   1.58000004        -4.09794797E-04
   1.71000004        -4.12701833E-04
   1.84000003        -4.15512768E-04
   1.97000003        -4.18224285E-04
   2.09999990        -4.20833501E-04
   2.23000002        -4.23338002E-04
   2.35999990        -4.25736012E-04
   2.49000001        -4.28026309E-04
   2.61999989        -4.30208136E-04
   2.75000000        -4.32281260E-04
   2.88000011        -4.34245769E-04
   3.00999999        -4.36101982E-04
   3.14000010        -4.37850307E-04
   3.26999998        -4.39491007E-04
   3.40000010        -4.41024342E-04
   3.52999997        -4.42450080E-04
   3.66000009        -4.43767785E-04
   3.78999996        -4.44976467E-04
   3.92000008        -4.46074846E-04
   4.05000019        -4.47061262E-04
   4.17999983        -4.47933795E-04
   4.30999994        -4.48690378E-04
   4.44000006        -4.49328916E-04
   4.57000017        -4.49847517E-04
   4.69999981        -4.50244494E-04
   4.82999992        -4.50518593E-04
   4.96000004        -4.50669060E-04
   5.09000015        -4.50695719E-04
   5.21999979        -4.50598920E-04
   5.34999990        -4.50379623E-04
   5.48000002        -4.50039312E-04
   5.61000013        -4.49579762E-04
   5.73999977        -4.49003215E-04
   5.86999989        -4.48311941E-04
   6.00000000        -4.47508181E-04
   6.13000011        -4.46594175E-04
   6.26000023        -4.45571786E-04
   6.38999987        -4.44442616E-04
   6.51999998        -4.43207857E-04
   6.65000010        -4.41868237E-04
   6.78000021        -4.40424163E-04
   6.90999985        -4.38875722E-04
   7.03999996        -4.37222741E-04
   7.17000008        -4.35464986E-04
   7.30000019        -4.33602196E-04
   7.42999983        -4.31634398E-04
   7.55999994        -4.29561827E-04
   7.69000006        -4.27385181E-04
   7.82000017        -4.25105653E-04
   7.94999981        -4.22725017E-04
   8.07999992        -4.20245517E-04
   8.21000004        -4.17670002E-04
   8.34000015        -4.15001705E-04
   8.47000027        -4.12244088E-04
   8.60000038        -4.09400964E-04
   8.72999954        -4.06476058E-04
   8.85999966        -4.03473008E-04
   8.98999977        -4.00395307E-04
   9.11999989        -3.97245982E-04
   9.25000000        -3.94027680E-04
   9.38000011        -3.90742644E-04
   9.51000023        -3.87392647E-04
   9.64000034        -3.83979001E-04
   9.77000046        -3.80502810E-04
   9.89999962        -3.76964890E-04
   10.0299997        -3.73365998E-04
   10.1599998        -3.69706919E-04
   10.2900000        -3.65988642E-04
   10.4200001        -3.62212479E-04
   10.5500002        -3.58380144E-04
   10.6800003        -3.54493735E-04
   10.8100004        -3.50555987E-04
   10.9399996        -3.46569926E-04
   11.0699997        -3.42539104E-04
   11.1999998        -3.38467333E-04
   11.3299999        -3.34358600E-04
   11.4600000        -3.30217008E-04
   11.5900002        -3.26046516E-04
   11.7200003        -3.21850792E-04
   11.8500004        -3.17633298E-04
   11.9799995        -3.13396915E-04
   12.1099997        -3.09144147E-04
   12.2399998        -3.04876885E-04
   12.3699999        -3.00596585E-04
   12.5000000        -2.96304293E-04
   12.6300001        -2.92000681E-04
   12.7600002        -2.87686300E-04
   12.8900003        -2.83361558E-04
   13.0200005        -2.79026979E-04
   13.1499996        -2.74683291E-04
   13.2799997        -2.70331511E-04
   13.4099998        -2.65973038E-04
   13.5400000        -2.61609704E-04
   13.6700001        -2.57243810E-04
   13.8000002        -2.52878002E-04
   13.9300003        -2.48515280E-04
   14.0600004        -2.44158844E-04
   14.1899996        -2.39811998E-04
   14.3199997        -2.35477972E-04
   14.4499998        -2.31159793E-04
   14.5799999        -2.26860211E-04
   14.7100000        -2.22581570E-04
   14.8400002        -2.18325658E-04
   14.9700003        -2.14093816E-04
   15.1000004        -2.09886843E-04
   15.2299995        -2.05705001E-04
   15.3599997        -2.01548217E-04
   15.4899998        -1.97416128E-04
   15.6199999        -1.93308209E-04
   15.7500000        -1.89223938E-04
   15.8800001        -1.85162906E-04
   16.0100002        -1.81124909E-04
   16.1399994        -1.77110167E-04
   16.2700005        -1.73119261E-04
   16.3999996        -1.69153180E-04
   16.5300007        -1.65213351E-04
   16.6599998        -1.61301563E-04
   16.7900009        -1.57419840E-04
   16.9200001        -1.53570363E-04
   17.0499992        -1.49755375E-04
   17.1800003        -1.45976926E-04
   17.3099995        -1.42236851E-04
   17.4400005        -1.38536605E-04
   17.5699997        -1.34877235E-04
   17.7000008        -1.31259221E-04
   17.8299999        -1.27682579E-04
   17.9599991        -1.24146798E-04
   18.0900002        -1.20650926E-04
   18.2199993        -1.17193733E-04
   18.3500004        -1.13773734E-04
   18.4799995        -1.10389388E-04
   18.6100006        -1.07039203E-04
   18.7399998        -1.03721897E-04
   18.8700008        -1.00436482E-04
   19.0000000        -9.71823829E-05
   19.1299992        -9.39594320E-05
   19.2600002        -9.07679350E-05
   19.3899994        -8.76085905E-05
   19.5200005        -8.44824390E-05
   19.6499996        -8.13907682E-05
   19.7800007        -7.83349606E-05
   19.9099998        -7.53163986E-05
   20.0400009        -7.23362973E-05
   20.1700001        -6.93955808E-05
   20.2999992        -6.64948020E-05
   20.4300003        -6.36340701E-05
   20.5599995        -6.08129922E-05
   20.6900005        -5.80307169E-05
   20.8199997        -5.52859601E-05
   20.9500008        -5.25770811E-05
   21.0799999        -4.99022135E-05
   21.2099991        -4.72593601E-05
   21.3400002        -4.46465783E-05
   21.4699993        -4.20620454E-05
   21.6000004        -3.95042443E-05
   21.7299995        -3.69720146E-05
   21.8600006        -3.44646287E-05
   21.9899998        -3.19818319E-05
   22.1200008        -2.95238078E-05
   22.2500000        -2.70911460E-05
   22.3799992        -2.46847467E-05
   22.5100002        -2.23057104E-05
   22.6399994        -1.99552123E-05
   22.7700005        -1.76343601E-05
   22.8999996        -1.53440833E-05
   23.0300007        -1.30849912E-05
   23.1599998        -1.08573113E-05
   23.2900009        -8.66082428E-06
   23.4200001        -6.49485492E-06
   23.5499992        -4.35829361E-06
   23.6800003        -2.24966402E-06
   23.8099995        -1.67214679E-07
   23.9400005         1.89095465E-06
   24.0699997         3.92676566E-06
   24.2000008         5.94202947E-06
   24.3299999         7.93830077E-06
   24.4599991         9.91679735E-06
   24.5900002         1.18783037E-05
   24.7199993         1.38231426E-05
   24.8500004         1.57511477E-05
   24.9799995         1.76617159E-05
   25.1100006         1.95538687E-05
   25.2399998         2.14263455E-05
   25.3700008         2.32777275E-05
   25.5000000         2.51065721E-05
   25.6299992         2.69115408E-05
   25.7600002         2.86915183E-05
   25.8899994         3.04457044E-05
   26.0200005         3.21737098E-05
   26.1499996         3.38755526E-05
   26.2800007         3.55517041E-05
   26.4099998         3.72029936E-05
   26.5400009         3.88305743E-05
   26.6700001         4.04358070E-05
   26.7999992         4.20201104E-05
   26.9300003         4.35848633E-05
   27.0599995         4.51312553E-05
   27.1900005         4.66601596E-05
   27.3199997         4.81720599E-05
   27.4500008         4.96669854E-05
   27.5799999         5.11444741E-05
   27.7099991         5.26035947E-05
   27.8400002         5.40430228E-05
   27.9699993         5.54610851E-05
   28.1000004         5.68558971E-05
   28.2299995         5.82254906E-05
   28.3600006         5.95679376E-05
   28.4899998         6.08814807E-05
   28.6200008         6.21646468E-05
   28.7500000         6.34163225E-05
   28.8799992         6.46358239E-05
   29.0100002         6.58228892E-05
   29.1399994         6.69776709E-05
   29.2700005         6.81006859E-05
   29.3999996         6.91927053E-05
   29.5300007         7.02546604E-05
   29.6599998         7.12874971E-05
   29.7900009         7.22920668E-05
   29.9200001         7.32689878E-05
   30.0499992         7.42185584E-05
   30.1800003         7.51406478E-05
   30.3099995         7.60347029E-05
   30.4400005         7.68996833E-05
   30.5699997         7.77341411E-05
   30.7000008         7.85362790E-05
   30.8299999         7.93040235E-05
   30.9599991         8.00351845E-05
   31.0900002         8.07275646E-05
   31.2199993         8.13790903E-05
   31.3500004         8.19879424E-05
   31.4799995         8.25526513E-05
   31.6100006         8.30721619E-05
   31.7399998         8.35458704E-05
   31.8700008         8.39736240E-05
   32.0000000         8.43556772E-05
   32.1300011         8.46926123E-05
   32.2599983         8.49852513E-05
   32.3899994         8.52345183E-05
   32.5200005         8.54413447E-05
   32.6500015         8.56064944E-05
   32.7799988         8.57304985E-05
   32.9099998         8.58135463E-05
   33.0400009         8.58554267E-05
   33.1699982         8.58555140E-05
   33.2999992         8.58127678E-05
   33.4300003         8.57257837E-05
   33.5600014         8.55929029E-05
   33.6899986         8.54122845E-05
   33.8199997         8.51820296E-05
   33.9500008         8.49003482E-05
   34.0800018         8.45656614E-05
   34.2099991         8.41766814E-05
   34.3400002         8.37325788E-05
   34.4700012         8.32329461E-05
   34.5999985         8.26778705E-05
   34.7299995         8.20679124E-05
   34.8600006         8.14040177E-05
   34.9900017         8.06874377E-05
   35.1199989         7.99196423E-05
   35.2500000         7.91021885E-05
   35.3800011         7.82365532E-05
   35.5099983         7.73240754E-05
   35.6399994         7.63658172E-05
   35.7700005         7.53624845E-05
   35.9000015         7.43144119E-05
   36.0299988         7.32215412E-05
   36.1599998         7.20834651E-05
   36.2900009         7.08994630E-05
   36.4199982         6.96686329E-05
   36.5499992         6.83899852E-05
   36.6800003         6.70625595E-05
   36.8100014         6.56855846E-05
   36.9399986         6.42585364E-05
   37.0699997         6.27812988E-05
   37.2000008         6.12541626E-05
   37.3300018         5.96779209E-05
   37.4599991         5.80538472E-05
   37.5900002         5.63836402E-05
   37.7200012         5.46693664E-05
   37.8499985         5.29133722E-05
   37.9799995         5.11181424E-05
   38.1100006         4.92861946E-05
   38.2400017         4.74199442E-05
   38.3699989         4.55215886E-05
   38.5000000         4.35930233E-05
   38.6300011         4.16357907E-05
   38.7599983         3.96510222E-05
   38.8899994         3.76394964E-05
   39.0200005         3.56016535E-05
   39.1500015         3.35376753E-05
   39.2799988         3.14476056E-05
   39.4099998         2.93314515E-05
   39.5400009         2.71893277E-05
   39.6699982         2.50215489E-05
   39.7999992         2.28287481E-05
   39.9300003         2.06119657E-05
   40.0600014         1.83726697E-05
   40.1899986         1.61127919E-05
   40.3199997         1.38346968E-05
   40.4500008         1.15411176E-05
   40.5800018         9.23509106E-06
   40.7099991         6.91982677E-06
   40.8400002         4.59860075E-06
   40.9700012         2.27462738E-06
   41.0999985        -4.90672960E-08
   41.2299995        -2.36973960E-06
   41.3600006        -4.68500366E-06
   41.4900017        -6.99287784E-06
   41.6199989        -9.29180169E-06
   41.7500000        -1.15805988E-05
   41.8800011        -1.38584210E-05
   42.0099983        -1.61246626E-05
   42.1399994        -1.83788452E-05
   42.2700005        -2.06205004E-05
   42.4000015        -2.28490444E-05
   42.5299988        -2.50636822E-05
   42.6599998        -2.72632969E-05
   42.7900009        -2.94463953E-05
   42.9199982        -3.16110818E-05
   43.0499992        -3.37550591E-05
   43.1800003        -3.58756806E-05
   43.3100014        -3.79699995E-05
   43.4399986        -4.00349018E-05
   43.5699997        -4.20671859E-05
   43.7000008        -4.40637159E-05
   43.8300018        -4.60215269E-05
   43.9599991        -4.79379487E-05
   44.0900002        -4.98106710E-05
   44.2200012        -5.16378241E-05
   44.3499985        -5.34179999E-05
   44.4799995        -5.51502344E-05
   44.6100006        -5.68339747E-05
   44.7400017        -5.84690024E-05
   44.8699989        -6.00553394E-05
   45.0000000        -6.15931276E-05
   45.1300011        -6.30825161E-05
   45.2599983        -6.45235414E-05
   45.3899994        -6.59160214E-05
   45.5200005        -6.72594906E-05
   45.6500015        -6.85531195E-05
   45.7799988        -6.97957294E-05
   45.9099998        -7.09858068E-05
   46.0400009        -7.21215329E-05
   46.1699982        -7.32009066E-05
   46.2999992        -7.42218108E-05
   46.4300003        -7.51821572E-05
   46.5600014        -7.60800103E-05
   46.6899986        -7.69136823E-05
   46.8199997        -7.76818488E-05
   46.9500008        -7.83836149E-05
   47.0800018        -7.90185586E-05
   47.2099991        -7.95867381E-05
   47.3400002        -8.00886555E-05
   47.4700012        -8.05252203E-05
   47.5999985        -8.08976329E-05
   47.7299995        -8.12072976E-05
   47.8600006        -8.14556988E-05
   47.9900017        -8.16442844E-05
   48.1199989        -8.17743567E-05
   48.2500000        -8.18469780E-05
   48.3800011        -8.18629123E-05
   48.5099983        -8.18225744E-05
   48.6399994        -8.17260589E-05
   48.7700005        -8.15731401E-05
   48.9000015        -8.13633451E-05
   49.0299988        -8.10960628E-05
   49.1599998        -8.07706310E-05
   49.2900009        -8.03864750E-05
   49.4199982        -7.99432019E-05
   49.5499992        -7.94407097E-05
   49.6800003        -7.88792968E-05
   49.8100014        -7.82596981E-05
   49.9399986        -7.75831068E-05
   50.0699997        -7.68511673E-05
   50.2000008        -7.60659386E-05
   50.3300018        -7.52298147E-05
   50.4599991        -7.43454075E-05
   50.5900002        -7.34154601E-05
   50.7200012        -7.24427009E-05
   50.8499985        -7.14297494E-05
   50.9799995        -7.03789992E-05
   51.1100006        -6.92925387E-05
   51.2400017        -6.81721140E-05
   51.3699989        -6.70190857E-05
   51.5000000        -6.58344725E-05
   51.6300011        -6.46189801E-05
   51.7599983        -6.33730888E-05
   51.8899994        -6.20971332E-05
   52.0200005        -6.07914371E-05
   52.1500015        -5.94563935E-05
   52.2799988        -5.80926026E-05
   52.4099998        -5.67009520E-05
   52.5400009        -5.52826823E-05
   52.6699982        -5.38394343E-05
   52.7999992        -5.23732488E-05
   52.9300003        -5.08865487E-05
   53.0600014        -4.93820698E-05
   53.1899986        -4.78627771E-05
   53.3199997        -4.63317665E-05
   53.4500008        -4.47921411E-05
   53.5800018        -4.32468878E-05
   53.7099991        -4.16987787E-05
   53.8400002        -4.01502693E-05
   53.9700012        -3.86034335E-05
   54.0999985        -3.70599373E-05
   54.2299995        -3.55210323E-05
   54.3600006        -3.39875842E-05
   54.4900017        -3.24601460E-05
   54.6199989        -3.09390271E-05
   54.7500000        -2.94244182E-05
   54.8800011        -2.79164906E-05
   55.0099983        -2.64155169E-05
   55.1399994        -2.49219556E-05
   55.2700005        -2.34365452E-05
   55.4000015        -2.19603480E-05
   55.5299988        -2.04947810E-05
   55.6599998        -1.90415922E-05
   55.7900009        -1.76028425E-05
   55.9199982        -1.61808093E-05
   56.0499992        -1.47779183E-05
   56.1800003        -1.33966150E-05
   56.3100014        -1.20392660E-05
   56.4399986        -1.07080377E-05
   56.5699997        -9.40480550E-06
   56.7000008        -8.13106726E-06
   56.8300018        -6.88790124E-06
   56.9599991        -5.67594134E-06
   57.0900002        -4.49539220E-06
   57.2200012        -3.34607944E-06
   57.3499985        -2.22752328E-06
   57.4799995        -1.13903172E-06
   57.6100006        -7.98155853E-08
   57.7400017         9.50900414E-07
   57.8699989         1.95376879E-06
   58.0000000         2.92922869E-06
   58.1300011         3.87743466E-06
   58.2599983         4.79822120E-06
   58.3899994         5.69108533E-06
   58.5200005         6.55522126E-06
   58.6500015         7.38956896E-06
   58.7799988         8.19289653E-06
   58.9099998         8.96390065E-06
   59.0400009         9.70130714E-06
   59.1699982         1.04039909E-05
   59.2999992         1.10710680E-05
   59.4300003         1.17019863E-05
   59.5600014         1.22965830E-05
   59.6899986         1.28551183E-05
   59.8199997         1.33782723E-05
   59.9500008         1.38671203E-05
   60.0800018         1.43230645E-05
   60.2099991         1.47477522E-05
   60.3400002         1.51429704E-05
   60.4700012         1.55105372E-05
   60.5999985         1.58521889E-05
   60.7299995         1.61694752E-05
   60.8600006         1.64636804E-05
   60.9900017         1.67357648E-05
   61.1199989         1.69863324E-05
   61.2500000         1.72156360E-05
   61.3800011         1.74236247E-05
   61.5099983         1.76099984E-05
   61.6399994         1.77743023E-05
   61.7700005         1.79160270E-05
   61.9000015         1.80347197E-05
   62.0299988         1.81300893E-05
   62.1599998         1.82020995E-05
   62.2900009         1.82510412E-05
   62.4199982         1.82775766E-05
   62.5499992         1.82827498E-05
   62.6800003         1.82679814E-05
   62.8100014         1.82350104E-05
   62.9399986         1.81858250E-05
   63.0699997         1.81225751E-05
   63.2000008         1.80474563E-05
   63.3300018         1.79626077E-05
   63.4599991         1.78700120E-05
   63.5900002         1.77713937E-05
   63.7200012         1.76681642E-05
   63.8499985         1.75613695E-05
   63.9799995         1.74516790E-05
   64.1100006         1.73394073E-05
   64.2399979         1.72245673E-05
   64.3700027         1.71069314E-05
   64.5000000         1.69861378E-05
   64.6299973         1.68617844E-05
   64.7600021         1.67335438E-05
   64.8899994         1.66012596E-05
   65.0199966         1.64650191E-05
   65.1500015         1.63252298E-05
   65.2799988         1.61826356E-05
   65.4100037         1.60383261E-05
   65.5400009         1.58936964E-05
   65.6699982         1.57503928E-05
   65.8000031         1.56102324E-05
   65.9300003         1.54750942E-05
   66.0599976         1.53468209E-05
   66.1900024         1.52271068E-05
   66.3199997         1.51174117E-05
   66.4499969         1.50188753E-05
   66.5800018         1.49322677E-05
   66.7099991         1.48579647E-05
   66.8399963         1.47959527E-05
   66.9700012         1.47458668E-05
   67.0999985         1.47070505E-05
   67.2300034         1.46786388E-05
   67.3600006         1.46596558E-05
   67.4899979         1.46491220E-05
   67.6200027         1.46461507E-05
   67.7500000         1.46500415E-05
   67.8799973         1.46603534E-05
   68.0100021         1.46769517E-05
   68.1399994         1.47000274E-05
   68.2699966         1.47300825E-05
   68.4000015         1.47678938E-05
   68.5299988         1.48144436E-05
   68.6600037         1.48708286E-05
   68.7900009         1.49381640E-05
   68.9199982         1.50174756E-05
   69.0500031         1.51096037E-05
   69.1800003         1.52151151E-05
   69.3099976         1.53342371E-05
   69.4400024         1.54668196E-05
   69.5699997         1.56123315E-05
   69.6999969         1.57698778E-05
   69.8300018         1.59382544E-05
   69.9599991         1.61160169E-05
   70.0899963         1.63015829E-05
   70.2200012         1.64933135E-05
   70.3499985         1.66896443E-05
   70.4800034         1.68891565E-05
   70.6100006         1.70906678E-05
   70.7399979         1.72932905E-05
   70.8700027         1.74964644E-05
   71.0000000         1.76999602E-05
   71.1299973         1.79038525E-05
   71.2600021         1.81084743E-05
   71.3899994         1.83143329E-05
   71.5199966         1.85220251E-05
   71.6500015         1.87321366E-05
   71.7799988         1.89451421E-05
   71.9100037         1.91613144E-05
   72.0400009         1.93806482E-05
   72.1699982         1.96028050E-05
   72.3000031         1.98270973E-05
   72.4300003         2.00524846E-05
   72.5599976         2.02776137E-05
   72.6900024         2.05008728E-05
   72.8199997         2.07204794E-05
   72.9499969         2.09345781E-05
   73.0800018         2.11413426E-05
   73.2099991         2.13390722E-05
   73.3399963         2.15262844E-05
   73.4700012         2.17017787E-05
   73.5999985         2.18646946E-05
   73.7300034         2.20145103E-05
   73.8600006         2.21510491E-05
   73.9899979         2.22744293E-05
   74.1200027         2.23850020E-05
   74.2500000         2.24832784E-05
   74.3799973         2.25698259E-05
   74.5100021         2.26451684E-05
   74.6399994         2.27097044E-05
   74.7699966         2.27636210E-05
   74.9000015         2.28068311E-05
   75.0299988         2.28389363E-05
   75.1600037         2.28592162E-05
   75.2900009         2.28666522E-05
   75.4199982         2.28599656E-05
   75.5500031         2.28376903E-05
   75.6800003         2.27982509E-05
   75.8099976         2.27400724E-05
   75.9400024         2.26616721E-05
   76.0699997         2.25617532E-05
   76.1999969         2.24392879E-05
   76.3300018         2.22935741E-05
   76.4599991         2.21242681E-05
   76.5899963         2.19313897E-05
   76.7200012         2.17152992E-05
   76.8499985         2.14766424E-05
   76.9800034         2.12162813E-05
   77.1100006         2.09352074E-05
   77.2399979         2.06344375E-05
   77.3700027         2.03149248E-05
   77.5000000         1.99774713E-05
   77.6299973         1.96226501E-05
   77.7600021         1.92507650E-05
   77.8899994         1.88618160E-05
   78.0199966         1.84555138E-05
   78.1500015         1.80313054E-05
   78.2799988         1.75884234E-05
   78.4100037         1.71259726E-05
   78.5400009         1.66430054E-05
   78.6699982         1.61386306E-05
   78.8000031         1.56120914E-05
   78.9300003         1.50628566E-05
   79.0599976         1.44906880E-05
   79.1900024         1.38956830E-05
   79.3199997         1.32782907E-05
   79.4499969         1.26393097E-05
   79.5800018         1.19798497E-05
   79.7099991         1.13012684E-05
   79.8399963         1.06050948E-05
   79.9700012         9.89293767E-06
   80.0999985         9.16638692E-06
   80.2300034         8.42692225E-06
   80.3600006         7.67583333E-06
   80.4899979         6.91415380E-06
   80.6200027         6.14262490E-06
   80.7500000         5.36168591E-06