  -24.4200001         9.92100740E-18
  -24.2870007        -8.68472583E-09
  -24.1539993        -2.60267576E-08
  -24.0209999        -5.14368459E-08
  -23.8880005        -8.38259311E-08
  -23.7549992        -1.21710571E-07
  -23.6219997        -1.63352652E-07
  -23.4890003        -2.06921328E-07
  -23.3560009        -2.50662822E-07
  -23.2229996        -2.93063323E-07
  -23.0900002        -3.32990339E-07
  -22.9570007        -3.69799864E-07
  -22.8239994        -4.03399895E-07
  -22.6910000        -4.34264621E-07
  -22.5580006        -4.63397384E-07
  -22.4249992        -4.92246897E-07
  -22.2919998        -5.22583548E-07
  -22.1590004        -5.56347175E-07
  -22.0259991        -5.95481083E-07
  -21.8929996        -6.41765780E-07
  -21.7600002        -6.96669474E-07
  -21.6270008        -7.61226886E-07
  -21.4939995        -8.35958303E-07
  -21.3610001        -9.20835760E-07
  -21.2280006        -1.01529861E-06
  -21.0949993        -1.11831787E-06
  -20.9619999        -1.22850258E-06
  -20.8290005        -1.34423885E-06
  -20.6959991        -1.46385048E-06
  -20.5629997        -1.58576540E-06
  -20.4300003        -1.70867418E-06
  -20.2970009        -1.83166799E-06
  -20.1639996        -1.95434109E-06
  -20.0310001        -2.07685184E-06
  -19.8980007        -2.19993558E-06
  -19.7649994        -2.32486650E-06
  -19.6320000        -2.45337560E-06
  -19.4990005        -2.58752698E-06
  -19.3659992        -2.72956686E-06
  -19.2329998        -2.88175670E-06
  -19.1000004        -3.04620744E-06
  -18.9669991        -3.22472533E-06
  -18.8339996        -3.41868804E-06
  -18.7010002        -3.62895980E-06
  -18.5680008        -3.85585417E-06
  -18.4349995        -4.09914537E-06
  -18.3020000        -4.35813035E-06
  -18.1690006        -4.63173501E-06
  -18.0359993        -4.91865285E-06
  -17.9029999        -5.21750644E-06
  -17.7700005        -5.52701431E-06
  -17.6369991        -5.84615054E-06
  -17.5039997        -6.17428395E-06
  -17.3710003        -6.51127948E-06
  -17.2380009        -6.85755958E-06
  -17.1049995        -7.21411561E-06
  -16.9720001        -7.58247143E-06
  -16.8390007        -7.96460245E-06
  -16.7059994        -8.36281015E-06
  -16.5730000        -8.77957791E-06
  -16.4400005        -9.21740502E-06
  -16.3069992        -9.67864617E-06
  -16.1739998        -1.01653559E-05
  -16.0410004        -1.06791704E-05
  -15.9080000        -1.12212183E-05
  -15.7749996        -1.17920845E-05
  -15.6420002        -1.23918207E-05
  -15.5089998        -1.30199987E-05
  -15.3760004        -1.36758208E-05
  -15.2430000        -1.43582492E-05
  -15.1099997        -1.50661690E-05
  -14.9770002        -1.57985578E-05
  -14.8439999        -1.65546408E-05
  -14.7110004        -1.73340395E-05
  -14.5780001        -1.81368632E-05
  -14.4449997        -1.89637849E-05
  -14.3120003        -1.98160433E-05
  -14.1789999        -2.06954101E-05
  -14.0459995        -2.16041080E-05
  -13.9130001        -2.25446820E-05
  -13.7799997        -2.35198531E-05
  -13.6470003        -2.45323517E-05
  -13.5139999        -2.55847499E-05
  -13.3809996        -2.66793195E-05
  -13.2480001        -2.78178977E-05
  -13.1149998        -2.90018070E-05
  -12.9820004        -3.02318222E-05
  -12.8490000        -3.15081707E-05
  -12.7159996        -3.28305941E-05
  -12.5830002        -3.41984451E-05
  -12.4499998        -3.56108176E-05
  -12.3170004        -3.70667185E-05
  -12.1840000        -3.85652093E-05
  -12.0509996        -4.01055731E-05
  -11.9180002        -4.16874645E-05
  -11.7849998        -4.33109890E-05
  -11.6520004        -4.49767867E-05
  -11.5190001        -4.66860402E-05
  -11.3859997        -4.84404372E-05
  -11.2530003        -5.02420844E-05
  -11.1199999        -5.20934009E-05
  -10.9870005        -5.39969478E-05
  -10.8540001        -5.59552791E-05
  -10.7209997        -5.79707630E-05
  -10.5880003        -6.00454296E-05
  -10.4549999        -6.21808576E-05
  -10.3219995        -6.43780804E-05
  -10.1890001        -6.66375417E-05
  -10.0559998        -6.89591106E-05
  -9.92300034        -7.13421468E-05
  -9.78999996        -7.37855735E-05
  -9.65699959        -7.62880445E-05
  -9.52400017        -7.88480611E-05
  -9.39099979        -8.14641899E-05
  -9.25800037        -8.41351721E-05
  -9.12500000        -8.68600546E-05
  -8.99199963        -8.96383281E-05
  -8.85900021        -9.24699707E-05
  -8.72599983        -9.53554409E-05
  -8.59300041        -9.82957063E-05
  -8.46000004        -1.01292084E-04
  -8.32699966        -1.04346182E-04
  -8.19400024        -1.07459717E-04
  -8.06099987        -1.10634384E-04
  -7.92799997        -1.13871647E-04
  -7.79500008        -1.17172633E-04
  -7.66200018        -1.20537959E-04
  -7.52899981        -1.23967693E-04
  -7.39599991        -1.27461273E-04
  -7.26300001        -1.31017514E-04
  -7.13000011        -1.34634669E-04
  -6.99700022        -1.38310555E-04
  -6.86399984        -1.42042656E-04
  -6.73099995        -1.45828279E-04
  -6.59800005        -1.49664731E-04
  -6.46500015        -1.53549481E-04
  -6.33199978        -1.57480303E-04
  -6.19899988        -1.61455318E-04
  -6.06599998        -1.65473190E-04
  -5.93300009        -1.69533014E-04
  -5.80000019        -1.73634311E-04
  -5.66699982        -1.77777009E-04
  -5.53399992        -1.81961281E-04
  -5.40100002        -1.86187404E-04
  -5.26800013        -1.90455597E-04
  -5.13500023        -1.94765904E-04
  -5.00199986        -1.99117960E-04
  -4.86899996        -2.03510979E-04
  -4.73600006        -2.07943551E-04
  -4.60300016        -2.12413666E-04
  -4.46999979        -2.16918750E-04
  -4.33699989        -2.21455630E-04
  -4.20400000        -2.26020726E-04
  -4.07100010        -2.30610080E-04
  -3.93799996        -2.35219617E-04
  -3.80500007        -2.39845278E-04
  -3.67199993        -2.44483119E-04
  -3.53900003        -2.49129545E-04
  -3.40599990        -2.53781327E-04
  -3.27300000        -2.58435786E-04
  -3.14000010        -2.63090711E-04
  -3.00699997        -2.67744326E-04
  -2.87400007        -2.72395322E-04
  -2.74099994        -2.77042622E-04
  -2.60800004        -2.81685294E-04
  -2.47499990        -2.86322407E-04
  -2.34200001        -2.90952827E-04
  -2.20900011        -2.95575097E-04
  -2.07599998        -3.00187356E-04
  -1.94299996        -3.04787158E-04
  -1.80999994        -3.09371564E-04
  -1.67700005        -3.13936995E-04
  -1.54400003        -3.18479462E-04
  -1.41100001        -3.22994485E-04
  -1.27800000        -3.27477406E-04
  -1.14499998        -3.31923366E-04
  -1.01199996        -3.36327706E-04
 -0.879000008        -3.40685772E-04
 -0.745999992        -3.44993459E-04
 -0.612999976        -3.49247013E-04
 -0.479999989        -3.53443262E-04
 -0.347000003        -3.57579585E-04
 -0.214000002        -3.61653918E-04
  -8.10000002E-02    -3.65664571E-04
   5.20000011E-02    -3.69610323E-04
  0.185000002        -3.73490126E-04
  0.317999989        -3.77302902E-04
  0.451000005        -3.81047634E-04
  0.583999991        -3.84722924E-04
  0.717000008        -3.88327055E-04
  0.850000024        -3.91857844E-04
  0.982999980        -3.95312585E-04
   1.11600006        -3.98688193E-04
   1.24899995        -4.01981029E-04
   1.38199997        -4.05187224E-04
   1.51499999        -4.08302672E-04
   1.64800000        -4.11323243E-04
   1.78100002        -4.14244918E-04
   1.91400003        -4.17064031E-04
   2.04699993        -4.19777207E-04
   2.18000007        -4.22381767E-04
   2.31299996        -4.24875529E-04
   2.44600010        -4.27256949E-04
   2.57900000        -4.29525098E-04
   2.71199989        -4.31679597E-04
   2.84500003        -4.33720386E-04
   2.97799993        -4.35647846E-04
   3.11100006        -4.37462324E-04
   3.24399996        -4.39164229E-04
   3.37700009        -4.40753734E-04
   3.50999999        -4.42230725E-04
   3.64299989        -4.43594676E-04
   3.77600002        -4.44844685E-04
   3.90899992        -4.45979356E-04
   4.04199982        -4.46996914E-04
   4.17500019        -4.47895320E-04
   4.30800009        -4.48672305E-04
   4.44099998        -4.49325744E-04
   4.57399988        -4.49853513E-04
   4.70699978        -4.50253836E-04
   4.84000015        -4.50525491E-04
   4.97300005        -4.50667692E-04
   5.10599995        -4.50680294E-04
   5.23899984        -4.50563850E-04
   5.37200022        -4.50319436E-04
   5.50500011        -4.49948653E-04
   5.63800001        -4.49453626E-04
   5.77099991        -4.48836712E-04
   5.90399981        -4.48100356E-04
   6.03700018        -4.47247003E-04
   6.17000008        -4.46278835E-04
   6.30299997        -4.45197860E-04
   6.43599987        -4.44005564E-04
   6.56899977        -4.42703051E-04
   6.70200014        -4.41290933E-04
   6.83500004        -4.39769530E-04
   6.96799994        -4.38138726E-04
   7.10099983        -4.36398259E-04
   7.23400021        -4.34547925E-04
   7.36700010        -4.32587520E-04
   7.50000000        -4.30517190E-04
   7.63299990        -4.28337516E-04
   7.76599979        -4.26049461E-04
   7.89900017        -4.23654797E-04
   8.03199959        -4.21155652E-04
   8.16499996        -4.18554933E-04
   8.29800034        -4.15855960E-04
   8.43099976        -4.13062400E-04
   8.56400013        -4.10178211E-04
   8.69699955        -4.07207437E-04
   8.82999992        -4.04154009E-04
   8.96300030        -4.01021651E-04
   9.09599972        -3.97813768E-04
   9.22900009        -3.94533185E-04
   9.36200047        -3.91182431E-04
   9.49499989        -3.87763343E-04
   9.62800026        -3.84277460E-04
   9.76099968        -3.80725949E-04
   9.89400005        -3.77109653E-04
   10.0270004        -3.73429386E-04
   10.1599998        -3.69686022E-04
   10.2930002        -3.65880667E-04
   10.4259996        -3.62014718E-04
   10.5590000        -3.58090008E-04
   10.6920004        -3.54108925E-04
   10.8249998        -3.50074377E-04
   10.9580002        -3.45989771E-04
   11.0909996        -3.41858889E-04
   11.2240000        -3.37685924E-04
   11.3570004        -3.33475182E-04
   11.4899998        -3.29230999E-04
   11.6230001        -3.24957538E-04
   11.7559996        -3.20658757E-04
   11.8889999        -3.16338090E-04
   12.0220003        -3.11998505E-04
   12.1549997        -3.07642476E-04
   12.2880001        -3.03271809E-04
   12.4209995        -2.98887840E-04
   12.5539999        -2.94491590E-04
   12.6870003        -2.90083641E-04
   12.8199997        -2.85664486E-04
   12.9530001        -2.81234621E-04
   13.0860004        -2.76794744E-04
   13.2189999        -2.72345787E-04
   13.3520002        -2.67889031E-04
   13.4849997        -2.63426336E-04
   13.6180000        -2.58959917E-04
   13.7510004        -2.54492508E-04
   13.8839998        -2.50027224E-04
   14.0170002        -2.45567411E-04
   14.1499996        -2.41116562E-04
   14.2830000        -2.36678228E-04
   14.4160004        -2.32255712E-04
   14.5489998        -2.27852041E-04
   14.6820002        -2.23469775E-04
   14.8149996        -2.19110982E-04
   14.9480000        -2.14777159E-04
   15.0810003        -2.10469196E-04
   15.2139997        -2.06187484E-04
   15.3470001        -2.01931951E-04
   15.4799995        -1.97702204E-04
   15.6129999        -1.93497719E-04
   15.7460003        -1.89317914E-04
   15.8789997        -1.85162353E-04
   16.0119991        -1.81030904E-04
   16.1450005        -1.76923786E-04
   16.2779999        -1.72841625E-04
   16.4109993        -1.68785613E-04
   16.5440006        -1.64757279E-04
   16.6770000        -1.60758631E-04
   16.8099995        -1.56791866E-04
   16.9430008        -1.52859342E-04
   17.0760002        -1.48963401E-04
   17.2089996        -1.45106242E-04
   17.3419991        -1.41289725E-04
   17.4750004        -1.37515279E-04
   17.6079998        -1.33783833E-04
   17.7409992        -1.30095737E-04
   17.8740005        -1.26450788E-04
   18.0070000        -1.22848272E-04
   18.1399994        -1.19287026E-04
   18.2730007        -1.15765586E-04
   18.4060001        -1.12282309E-04
   18.5389996        -1.08835578E-04
   18.6720009        -1.05423882E-04
   18.8050003        -1.02046019E-04
   18.9379997        -9.87011517E-05
   19.0709991        -9.53889394E-05
   19.2040005        -9.21094907E-05
   19.3369999        -8.88634095E-05
   19.4699993        -8.56517072E-05
   19.6030006        -8.24756789E-05
   19.7360001        -7.93367944E-05
   19.8689995        -7.62365453E-05
   20.0020008        -7.31762921E-05
   20.1350002        -7.01571189E-05
   20.2679996        -6.71796952E-05
   20.4009991        -6.42442465E-05
   20.5340004        -6.13504453E-05
   20.6669998        -5.84974296E-05
   20.7999992        -5.56838968E-05
   20.9330006        -5.29081117E-05
   21.0660000        -5.01680952E-05
   21.1989994        -4.74617227E-05
   21.3320007        -4.47868879E-05
   21.4650002        -4.21416626E-05
   21.5979996        -3.95244133E-05
   21.7310009        -3.69339214E-05
   21.8640003        -3.43694446E-05
   21.9969997        -3.18307466E-05
   22.1299992        -2.93180838E-05
   22.2630005        -2.68321328E-05
   22.3959999        -2.43738978E-05
   22.5289993        -2.19445901E-05
   22.6620007        -1.95454559E-05
   22.7950001        -1.71776537E-05
   22.9279995        -1.48421022E-05
   23.0610008        -1.25393444E-05
   23.1940002        -1.02694858E-05
   23.3269997        -8.03212788E-06
   23.4599991        -5.82637904E-06
   23.5930004        -3.65089909E-06
   23.7259998        -1.50397614E-06
   23.8589993         6.16349382E-07
   23.9920006         2.71214321E-06
   24.1250000         4.78542461E-06
   24.2579994         6.83801727E-06
   24.3910007         8.87141778E-06
   24.5240002         1.08866952E-05
   24.6569996         1.28844222E-05
   24.7900009         1.48646377E-05
   24.9230003         1.68268780E-05
   25.0559998         1.87702390E-05
   25.1889992         2.06934637E-05
   25.3220005         2.25950807E-05
   25.4549999         2.44735402E-05
   25.5879993         2.63273614E-05
   25.7210007         2.81552802E-05
   25.8540001         2.99563580E-05
   25.9869995         3.17300764E-05
   26.1200008         3.34763827E-05
   26.2530003         3.51956987E-05
   26.3859997         3.68888686E-05
   26.5189991         3.85570966E-05
   26.6520004         4.02018159E-05
   26.7849998         4.18245618E-05
   26.9179993         4.34268113E-05
   27.0510006         4.50098487E-05
   27.1840000         4.65746161E-05
   27.3169994         4.81216302E-05
   27.4500008         4.96508910E-05
   27.5830002         5.11618819E-05
   27.7159996         5.26535696E-05
   27.8490009         5.41244772E-05
   27.9820004         5.55727856E-05
   28.1149998         5.69964577E-05
   28.2479992         5.83933834E-05
   28.3810005         5.97615290E-05
   28.5139999         6.10990683E-05
   28.6469994         6.24045279E-05
   28.7800007         6.36768236E-05
   28.9130001         6.49153735E-05
   29.0459995         6.61200320E-05
   29.1790009         6.72911265E-05
   29.3120003         6.84293118E-05
   29.4449997         6.95355047E-05
   29.5779991         7.06107239E-05
   29.7110004         7.16559662E-05
   29.8439999         7.26720318E-05
   29.9769993         7.36594375E-05
   30.1100006         7.46182850E-05
   30.2430000         7.55481888E-05
   30.3759995         7.64482684E-05
   30.5090008         7.73171560E-05
   30.6420002         7.81530616E-05
   30.7749996         7.89538535E-05
   30.9080009         7.97172252E-05
   31.0410004         8.04408119E-05
   31.1739998         8.11223363E-05
   31.3069992         8.17597538E-05
   31.4400005         8.23513983E-05
   31.5730000         8.28960110E-05
   31.7059994         8.33928643E-05
   31.8390007         8.38416890E-05
   31.9720001         8.42426962E-05
   32.1049995         8.45964605E-05
   32.2379990         8.49038479E-05
   32.3709984         8.51658333E-05
   32.5040016         8.53834135E-05
   32.6370010         8.55574253E-05
   32.7700005         8.56884435E-05
   32.9029999         8.57766645E-05
   33.0359993         8.58218555E-05
   33.1689987         8.58233179E-05
   33.3019981         8.57799241E-05
   33.4350014         8.56901243E-05
   33.5680008         8.55521139E-05
   33.7010002         8.53638994E-05
   33.8339996         8.51234581E-05
   33.9669991         8.48288910E-05
   34.0999985         8.44785682E-05
   34.2330017         8.40712164E-05
   34.3660011         8.36060426E-05
   34.4990005         8.30827630E-05
   34.6320000         8.25016177E-05
   34.7649994         8.18633489E-05
   34.8979988         8.11690843E-05
   35.0309982         8.04202718E-05
   35.1640015         7.96185341E-05
   35.2970009         7.87655081E-05
   35.4300003         7.78627364E-05
   35.5629997         7.69115068E-05
   35.6959991         7.59127797E-05
   35.8289986         7.48671155E-05
   35.9620018         7.37746304E-05
   36.0950012         7.26350481E-05
   36.2280006         7.14477210E-05
   36.3610001         7.02117468E-05
   36.4939995         6.89260778E-05
   36.6269989         6.75896590E-05
   36.7599983         6.62015664E-05
   36.8930016         6.47611450E-05
   37.0260010         6.32681258E-05
   37.1590004         6.17227124E-05
   37.2919998         6.01256106E-05
   37.4249992         5.84780755E-05
   37.5579987         5.67818388E-05
   37.6910019         5.50390469E-05
   37.8240013         5.32521735E-05
   37.9570007         5.14238636E-05
   38.0900002         4.95568129E-05
   38.2229996         4.76536115E-05
   38.3559990         4.57166279E-05
   38.4889984         4.37478957E-05
   38.6220016         4.17490555E-05
   38.7550011         3.97213189E-05
   38.8880005         3.76654898E-05
   39.0209999         3.55820084E-05
   39.1539993         3.34710530E-05
   39.2869987         3.13326454E-05
   39.4199982         2.91668148E-05
   39.5530014         2.69736884E-05
   39.6860008         2.47536591E-05
   39.8190002         2.25074891E-05
   39.9519997         2.02363826E-05
   40.0849991         1.79420367E-05
   40.2179985         1.56266469E-05
   40.3510017         1.32928681E-05
   40.4840012         1.09437415E-05
   40.6170006         8.58259045E-06
   40.7500000         6.21289882E-06
   40.8829994         3.83815859E-06
   41.0159988         1.46174011E-06
   41.1489983        -9.13237272E-07
   41.2820015        -3.28400233E-06
   41.4150009        -5.64821130E-06
   41.5480003        -8.00397447E-06
   41.6809998        -1.03498451E-05
   41.8139992        -1.26847744E-05
   41.9469986        -1.50080159E-05
   42.0800018        -1.73190201E-05
   42.2130013        -1.96172987E-05
   42.3460007        -2.19022859E-05
   42.4790001        -2.41732214E-05
   42.6119995        -2.64290138E-05
   42.7449989        -2.86681898E-05
   42.8779984        -3.08888266E-05
   43.0110016        -3.30885632E-05
   43.1440010        -3.52646384E-05
   43.2770004        -3.74139454E-05
   43.4099998        -3.95331663E-05
   43.5429993        -4.16188814E-05
   43.6759987        -4.36677146E-05
   43.8089981        -4.56764610E-05
   43.9420013        -4.76422247E-05
   44.0750008        -4.95625172E-05
   44.2080002        -5.14353123E-05
   44.3409996        -5.32591002E-05
   44.4739990        -5.50328477E-05
   44.6069984        -5.67559800E-05
   44.7400017        -5.84282789E-05
   44.8730011        -6.00497879E-05
   45.0060005        -6.16206526E-05
   45.1389999        -6.31410294E-05
   45.2719994        -6.46109256E-05
   45.4049988        -6.60300720E-05
   45.5379982        -6.73979084E-05
   45.6710014        -6.87134379E-05
   45.8040009        -6.99753145E-05
   45.9370003        -7.11818066E-05
   46.0699997        -7.23308767E-05
   46.2029991        -7.34203350E-05
   46.3359985        -7.44478966E-05
   46.4690018        -7.54113717E-05
   46.6020012        -7.63087519E-05
   46.7350006        -7.71383857E-05
   46.8680000        -7.78990361E-05
   47.0009995        -7.85899756E-05
   47.1339989        -7.92110004E-05
   47.2669983        -7.97624016E-05
   47.4000015        -8.02449576E-05
   47.5330009        -8.06598182E-05
   47.6660004        -8.10084093E-05
   47.7989998        -8.12922808E-05
   47.9319992        -8.15130261E-05
   48.0649986        -8.16720931E-05
   48.1980019        -8.17707041E-05
   48.3310013        -8.18097760E-05
   48.4640007        -8.17898544E-05
   48.5970001        -8.17111140E-05
   48.7299995        -8.15733729E-05
   48.8629990        -8.13761799E-05
   48.9959984        -8.11188802E-05
   49.1290016        -8.08007680E-05
   49.2620010        -8.04211886E-05
   49.3950005        -7.99796908E-05
   49.5279999        -7.94761218E-05
   49.6609993        -7.89107580E-05
   49.7939987        -7.82843636E-05
   49.9269981        -7.75981825E-05
   50.0600014        -7.68539830E-05
   50.1930008        -7.60539697E-05
   50.3260002        -7.52007109E-05
   50.4589996        -7.42970151E-05
   50.5919991        -7.33458146E-05
   50.7249985        -7.23500270E-05
   50.8580017        -7.13124318E-05
   50.9910011        -7.02355246E-05
   51.1240005        -6.91214882E-05
   51.2570000        -6.79720979E-05
   51.3899994        -6.67887143E-05
   51.5229988        -6.55723488E-05
   51.6559982        -6.43236635E-05
   51.7890015        -6.30431168E-05
   51.9220009        -6.17310361E-05
   52.0550003        -6.03877852E-05
   52.1879997        -5.90138479E-05
   52.3209991        -5.76099737E-05
   52.4539986        -5.61772613E-05
   52.5870018        -5.47172167E-05
   52.7200012        -5.32317972E-05
   52.8530006        -5.17233966E-05
   52.9860001        -5.01947834E-05
   53.1189995        -4.86490353E-05
   53.2519989        -4.70894229E-05
   53.3849983        -4.55192858E-05
   53.5180016        -4.39418836E-05
   53.6510010        -4.23602942E-05
   53.7840004        -4.07772714E-05
   53.9169998        -3.91951835E-05
   54.0499992        -3.76159514E-05
   54.1829987        -3.60410377E-05
   54.3160019        -3.44714754E-05
   54.4490013        -3.29079230E-05
   54.5820007        -3.13507662E-05
   54.7150002        -2.98002269E-05
   54.8479996        -2.82564815E-05
   54.9809990        -2.67198029E-05
   55.1139984        -2.51906549E-05
   55.2470016        -2.36697979E-05
   55.3800011        -2.21583487E-05
   55.5130005        -2.06578061E-05
   55.6459999        -1.91700437E-05
   55.7789993        -1.76972626E-05
   55.9119987        -1.62419237E-05
   56.0449982        -1.48066256E-05
   56.1780014        -1.33939975E-05
   56.3110008        -1.20065642E-05
   56.4440002        -1.06466250E-05
   56.5769997        -9.31614159E-06
   56.7099991        -8.01665828E-06
   56.8429985        -6.74924740E-06
   56.9760017        -5.51449511E-06
   57.1090012        -4.31252829E-06
   57.2420006        -3.14307181E-06
   57.3750000        -2.00554223E-06
   57.5079994        -8.99159033E-07
   57.6409988         1.76925084E-07
   57.7739983         1.22350230E-06
   57.9070015         2.24119299E-06
   58.0400009         3.23035010E-06
   58.1730003         4.19099206E-06
   58.3059998         5.12277666E-06
   58.4389992         6.02500450E-06
   58.5719986         6.89666467E-06
   58.7050018         7.73650845E-06
   58.8380013         8.54315476E-06
   58.9710007         9.31520208E-06
   59.1040001         1.00513607E-05
   59.2369995         1.07505612E-05
   59.3699989         1.14120621E-05
   59.5029984         1.20355289E-05
   59.6360016         1.26210844E-05
   59.7690010         1.31693168E-05
   59.9020004         1.36812569E-05
   60.0349998         1.41583214E-05
   60.1679993         1.46022185E-05
   60.3009987         1.50148371E-05
   60.4339981         1.53981255E-05
   60.5670013         1.57539635E-05
   60.7000008         1.60840409E-05
   60.8330002         1.63897730E-05
   60.9659996         1.66722130E-05
   61.0989990         1.69320356E-05
   61.2319984         1.71695265E-05
   61.3650017         1.73846329E-05
   61.4980011         1.75770310E-05
   61.6310005         1.77462261E-05
   61.7639999         1.78916671E-05
   61.8969994         1.80128791E-05
   62.0299988         1.81095656E-05
   62.1629982         1.81817213E-05
   62.2960014         1.82297081E-05
   62.4290009         1.82542972E-05
   62.5620003         1.82566855E-05
   62.6949997         1.82384647E-05
   62.8279991         1.82015665E-05
   62.9609985         1.81481755E-05
   63.0940018         1.80806182E-05
   63.2270012         1.80012430E-05
   63.3600006         1.79122981E-05
   63.4930000         1.78158261E-05
   63.6259995         1.77135571E-05
   63.7589989         1.76068534E-05
   63.8919983         1.74966699E-05
   64.0250015         1.73835542E-05
   64.1579971         1.72676828E-05
   64.2910004         1.71489319E-05
   64.4240036         1.70269705E-05
   64.5569992         1.69013783E-05
   64.6900024         1.67717499E-05
   64.8229980         1.66378322E-05
   64.9560013         1.64996054E-05
   65.0889969         1.63573750E-05
   65.2220001         1.62118158E-05
   65.3550034         1.60639738E-05
   65.4879990         1.59152569E-05
   65.6210022         1.57673676E-05
   65.7539978         1.56222122E-05
   65.8870010         1.54818044E-05
   66.0199966         1.53481451E-05
   66.1529999         1.52230905E-05
   66.2860031         1.51082559E-05
   66.4189987         1.50049236E-05
   66.5520020         1.49139696E-05
   66.6849976         1.48358413E-05
   66.8180008         1.47705623E-05
   66.9509964         1.47177625E-05
   67.0839996         1.46767497E-05
   67.2170029         1.46466009E-05
   67.3499985         1.46262755E-05
   67.4830017         1.46147249E-05
   67.6159973         1.46110151E-05
   67.7490005         1.46144212E-05
   67.8820038         1.46245093E-05
   68.0149994         1.46411849E-05
   68.1480026         1.46647126E-05
   68.2809982         1.46956954E-05
   68.4140015         1.47350229E-05
   68.5469971         1.47837900E-05
   68.6800003         1.48431936E-05
   68.8130035         1.49144198E-05
   68.9459991         1.49985226E-05
   69.0790024         1.50963224E-05
   69.2119980         1.52083103E-05
   69.3450012         1.53345882E-05
   69.4779968         1.54748377E-05
   69.6110001         1.56283295E-05
   69.7440033         1.57939539E-05
   69.8769989         1.59702940E-05
   70.0100021         1.61557182E-05
   70.1429977         1.63484929E-05
   70.2760010         1.65468919E-05
   70.4089966         1.67493163E-05
   70.5419998         1.69543837E-05
   70.6750031         1.71610154E-05
   70.8079987         1.73684766E-05
   70.9410019         1.75764035E-05
   71.0739975         1.77847742E-05
   71.2070007         1.79938688E-05
   71.3399963         1.82041949E-05
   71.4729996         1.84163782E-05
   71.6060028         1.86310626E-05
   71.7389984         1.88487957E-05
   71.8720016         1.90699193E-05
   72.0049973         1.92944826E-05
   72.1380005         1.95221837E-05
   72.2710037         1.97523295E-05
   72.4039993         1.99838396E-05
   72.5370026         2.02152860E-05
   72.6699982         2.04449552E-05
   72.8030014         2.06709410E-05
   72.9359970         2.08912534E-05
   73.0690002         2.11039369E-05
   73.2020035         2.13071798E-05
   73.3349991         2.14994034E-05
   73.4680023         2.16793615E-05
   73.6009979         2.18461610E-05
   73.7340012         2.19993017E-05
   73.8669968         2.21386435E-05
   74.0000000         2.22643666E-05
   74.1330032         2.23768875E-05
   74.2659988         2.24767700E-05
   74.3990021         2.25646236E-05
   74.5319977         2.26409866E-05
   74.6650009         2.27062155E-05
   74.7979965         2.27604287E-05
   74.9309998         2.28034187E-05
   75.0640030         2.28346271E-05
   75.1969986         2.28531553E-05
   75.3300018         2.28577810E-05
   75.4629974         2.28470271E-05
   75.5960007         2.28192566E-05
   75.7289963         2.27727614E-05
   75.8619995         2.27058881E-05
   75.9950027         2.26171360E-05
   76.1279984         2.25052572E-05
   76.2610016         2.23693478E-05
   76.3939972         2.22088784E-05
   76.5270004         2.20237216E-05
   76.6600037         2.18141358E-05
   76.7929993         2.15807195E-05
   76.9260025         2.13243293E-05
   77.0589981         2.10459948E-05
   77.1920013         2.07468038E-05
   77.3249969         2.04278022E-05
   77.4580002         2.00898830E-05
   77.5910034         1.97337085E-05
   77.7239990         1.93596461E-05
   77.8570023         1.89677448E-05
   77.9899979         1.85577210E-05
   78.1230011         1.81290015E-05
   78.2559967         1.76807735E-05
   78.3889999         1.72120781E-05
   78.5220032         1.67218914E-05
   78.6549988         1.62092529E-05
   78.7880020         1.56733477E-05
   78.9209976         1.51136110E-05
   79.0540009         1.45298063E-05
   79.1869965         1.39220656E-05
   79.3199997         1.32909108E-05
   79.4530029         1.26372397E-05
   79.5859985         1.19622864E-05
   79.7190018         1.12675425E-05
   79.8519974         1.05546715E-05
   79.9850006         9.82539677E-06
   80.1179962         9.08139918E-06
   80.2509995         8.32421210E-06
   80.3840027         7.55513520E-06
   80.5169983         6.77517346E-06
   80.6500015         5.98500492E-06
   80.7829971         5.18497563E-06
   80.9160004         4.37513290E-06
   81.0490036         3.55528050E-06
   81.1819992         2.72506077E-06
   81.3150024         1.88405420E-06
   81.4479980         1.03188074E-06
   81.5810013         1.68299692E-07
   81.7139969        -7.06698927E-07
   81.8470001        -1.59282501E-06
   81.9800034        -2.48943979E-06
   82.1129990        -3.39554390E-06
   82.2460022        -4.30978889E-06
   82.3789978        -5.23052495E-06
   82.5120010        -6.15586396E-06
   82.6449966        -7.08377183E-06
   82.7779999        -8.01216902E-06
   82.9110031        -8.93903507E-06
   83.0439987        -9.86250325E-06
   83.1770020        -1.07809537E-05