  -24.4200001       0.00000000    
  -24.2900009       8.12734949E-12
  -24.1599998       2.01614662E-11
  -24.0300007       2.76828335E-11
  -23.8999996       1.93714333E-11
  -23.7700005      -1.71999168E-11
  -23.6399994      -9.36222974E-11
  -23.5100002      -2.18917509E-10
  -23.3799992      -3.98311134E-10
  -23.2500000      -6.32698005E-10
  -23.1200008      -9.18827903E-10
  -22.9899998      -1.25010002E-09
  -22.8600006      -1.61773994E-09
  -22.7299995      -2.01209338E-09
  -22.6000004      -2.42378295E-09
  -22.4699993      -2.84457391E-09
  -22.3400002      -3.26787264E-09
  -22.2099991      -3.68893205E-09
  -22.0799999      -4.10489731E-09
  -21.9500008      -4.51486670E-09
  -21.8199997      -4.92010255E-09
  -21.6900005      -5.32444222E-09
  -21.5599995      -5.73486147E-09
  -21.4300003      -6.16200468E-09
  -21.2999992      -6.62048416E-09
  -21.1700001      -7.12871007E-09
  -21.0400009      -7.70808484E-09
  -20.9099998      -8.38156833E-09
  -20.7800007      -9.17169185E-09
  -20.6499996      -1.00983106E-08
  -20.5200005      -1.11764482E-08
  -20.3899994      -1.24146071E-08
  -20.2600002      -1.38139029E-08
  -20.1299992      -1.53681530E-08
  -20.0000000      -1.70649876E-08
  -19.8700008      -1.88878087E-08
  -19.7399998      -2.08182751E-08
  -19.6100006      -2.28389450E-08
  -19.4799995      -2.49356287E-08
  -19.3500004      -2.70992402E-08
  -19.2199993      -2.93267917E-08
  -19.0900002      -3.16216138E-08
  -18.9599991      -3.39928903E-08
  -18.8299999      -3.64546828E-08
  -18.7000008      -3.90247017E-08
  -18.5699997      -4.17231369E-08
  -18.4400005      -4.45715997E-08
  -18.3099995      -4.75923372E-08
  -18.1800003      -5.08076639E-08
  -18.0499992      -5.42394147E-08
  -17.9200001      -5.79084194E-08
  -17.7900009      -6.18338092E-08
  -17.6599998      -6.60322570E-08
  -17.5300007      -7.05169327E-08
  -17.3999996      -7.52967537E-08
  -17.2700005      -8.03758624E-08
  -17.1399994      -8.57536335E-08
  -17.0100002      -9.14254059E-08
  -16.8799992      -9.73839107E-08
  -16.7500000      -1.03621346E-07
  -16.6200008      -1.10131872E-07
  -16.4899998      -1.16913931E-07
  -16.3600006      -1.23972413E-07
  -16.2299995      -1.31319922E-07
  -16.1000004      -1.38977043E-07
  -15.9700003      -1.46971800E-07
  -15.8400002      -1.55337901E-07
  -15.7100000      -1.64112734E-07
  -15.5799999      -1.73334840E-07
  -15.4499998      -1.83041792E-07
  -15.3199997      -1.93268335E-07
  -15.1899996      -2.04045392E-07
  -15.0600004      -2.15399737E-07
  -14.9300003      -2.27354235E-07
  -14.8000002      -2.39928511E-07
  -14.6700001      -2.53139888E-07
  -14.5400000      -2.67003912E-07
  -14.4099998      -2.81535023E-07
  -14.2799997      -2.96747061E-07
  -14.1499996      -3.12653071E-07
  -14.0200005      -3.29265902E-07
  -13.8900003      -3.46598455E-07
  -13.7600002      -3.64664459E-07
  -13.6300001      -3.83479630E-07
  -13.5000000      -4.03062984E-07
  -13.3699999      -4.23438024E-07
  -13.2399998      -4.44633855E-07
  -13.1099997      -4.66685947E-07
  -12.9799995      -4.89635681E-07
  -12.8500004      -5.13529528E-07
  -12.7200003      -5.38417623E-07
  -12.5900002      -5.64351126E-07
  -12.4600000      -5.91379887E-07
  -12.3299999      -6.19550917E-07
  -12.1999998      -6.48905825E-07
  -12.0699997      -6.79480706E-07
  -11.9399996      -7.11306200E-07
  -11.8100004      -7.44407828E-07
  -11.6800003      -7.78808101E-07
  -11.5500002      -8.14527937E-07
  -11.4200001      -8.51588936E-07
  -11.2900000      -8.90014235E-07
  -11.1599998      -9.29830207E-07
  -11.0299997      -9.71066811E-07
  -10.8999996      -1.01375724E-06
  -10.7700005      -1.05793811E-06
  -10.6400003      -1.10364931E-06
  -10.5100002      -1.15093360E-06
  -10.3800001      -1.19983645E-06
  -10.2500000      -1.25040651E-06
  -10.1199999      -1.30269552E-06
  -9.98999977      -1.35675896E-06
  -9.85999966      -1.41265446E-06
  -9.72999954      -1.47044261E-06
  -9.60000038      -1.53018448E-06
  -9.47000027      -1.59194042E-06
  -9.34000015      -1.65576841E-06
  -9.21000004      -1.72172224E-06
  -9.07999992      -1.78985022E-06
  -8.94999981      -1.86019543E-06
  -8.81999969      -1.93279607E-06
  -8.68999958      -2.00768659E-06
  -8.56000042      -2.08489973E-06
  -8.43000031      -2.16446892E-06
  -8.30000019      -2.24642940E-06
  -8.17000008      -2.33082187E-06
  -8.03999996      -2.41769089E-06
  -7.90999985      -2.50708604E-06
  -7.78000021      -2.59906051E-06
  -7.65000010      -2.69367001E-06
  -7.51999998      -2.79097071E-06
  -7.38999987      -2.89101786E-06
  -7.26000023      -2.99386443E-06
  -7.13000011      -3.09955931E-06
  -7.00000000      -3.20814956E-06
  -6.86999989      -3.31967703E-06
  -6.73999977      -3.43418083E-06
  -6.61000013      -3.55169755E-06
  -6.48000002      -3.67226198E-06
  -6.34999990      -3.79590597E-06
  -6.21999979      -3.92265974E-06
  -6.09000015      -4.05255105E-06
  -5.96000004      -4.18560512E-06
  -5.82999992      -4.32184470E-06
  -5.69999981      -4.46129161E-06
  -5.57000017      -4.60396677E-06
  -5.44000006      -4.74989065E-06
  -5.30999994      -4.89908689E-06
  -5.17999983      -5.05158005E-06
  -5.05000019      -5.20739923E-06
  -4.92000008      -5.36657581E-06
  -4.78999996      -5.52914253E-06
  -4.65999985      -5.69513259E-06
  -4.53000021      -5.86457782E-06
  -4.40000010      -6.03750368E-06
  -4.26999998      -6.21393019E-06
  -4.13999987      -6.39386826E-06
  -4.01000023      -6.57731971E-06
  -3.88000011      -6.76427771E-06
  -3.75000000      -6.95472772E-06
  -3.61999989      -7.14864927E-06
  -3.49000001      -7.34601963E-06
  -3.35999990      -7.54681469E-06
  -3.23000002      -7.75101125E-06
  -3.09999990      -7.95858796E-06
  -2.97000003      -8.16952524E-06
  -2.83999991      -8.38380856E-06
  -2.71000004      -8.60142427E-06
  -2.57999992      -8.82236236E-06
  -2.45000005      -9.04661192E-06
  -2.31999993      -9.27416386E-06
  -2.19000006      -9.50501271E-06
  -2.05999994      -9.73914666E-06
  -1.92999995      -9.97655934E-06
  -1.79999995      -1.02172380E-05
  -1.66999996      -1.04611681E-05
  -1.53999996      -1.07083288E-05
  -1.40999997      -1.09586899E-05
  -1.27999997      -1.12122143E-05
  -1.14999998      -1.14688537E-05
  -1.01999998      -1.17285445E-05
 -0.889999986      -1.19912120E-05
 -0.759999990      -1.22567717E-05
 -0.629999995      -1.25251272E-05
 -0.500000000      -1.27961775E-05
 -0.370000005      -1.30698154E-05
 -0.239999995      -1.33459371E-05
 -0.109999999      -1.36244380E-05
   1.99999996E-02  -1.39052145E-05
  0.150000006      -1.41881701E-05
  0.280000001      -1.44732130E-05
  0.409999996      -1.47602523E-05
  0.540000021      -1.50491996E-05
  0.670000017      -1.53399651E-05
  0.800000012      -1.56324568E-05
  0.930000007      -1.59265801E-05
   1.05999994      -1.62222332E-05
   1.19000006      -1.65193087E-05
   1.32000005      -1.68176939E-05
   1.45000005      -1.71172687E-05
   1.58000004      -1.74179077E-05
   1.71000004      -1.77194706E-05
   1.84000003      -1.80218194E-05
   1.97000003      -1.83247957E-05
   2.09999990      -1.86282377E-05
   2.23000002      -1.89319726E-05
   2.35999990      -1.92358257E-05
   2.49000001      -1.95396115E-05
   2.61999989      -1.98431408E-05
   2.75000000      -2.01462317E-05
   2.88000011      -2.04487005E-05
   3.00999999      -2.07503672E-05
   3.14000010      -2.10510607E-05
   3.26999998      -2.13506137E-05
   3.40000010      -2.16488661E-05
   3.52999997      -2.19456579E-05
   3.66000009      -2.22408325E-05
   3.78999996      -2.25342264E-05
   3.92000008      -2.28256740E-05
   4.05000019      -2.31150043E-05
   4.17999983      -2.34020335E-05
   4.30999994      -2.36865781E-05
   4.44000006      -2.39684377E-05
   4.57000017      -2.42474089E-05
   4.69999981      -2.45232804E-05
   4.82999992      -2.47958415E-05
   4.96000004      -2.50648718E-05
   5.09000015      -2.53301514E-05
   5.21999979      -2.55914565E-05
   5.34999990      -2.58485670E-05
   5.48000002      -2.61012628E-05
   5.61000013      -2.63493221E-05
   5.73999977      -2.65925319E-05
   5.86999989      -2.68306831E-05
   6.00000000      -2.70635701E-05
   6.13000011      -2.72909983E-05
   6.26000023      -2.75127823E-05
   6.38999987      -2.77287381E-05
   6.51999998      -2.79386913E-05
   6.65000010      -2.81424691E-05
   6.78000021      -2.83399040E-05
   6.90999985      -2.85308215E-05
   7.03999996      -2.87150488E-05
   7.17000008      -2.88924020E-05
   7.30000019      -2.90626958E-05
   7.42999983      -2.92257373E-05
   7.55999994      -2.93813300E-05
   7.69000006      -2.95292739E-05
   7.82000017      -2.96693688E-05
   7.94999981      -2.98014238E-05
   8.07999992      -2.99252479E-05
   8.21000004      -3.00406664E-05
   8.34000015      -3.01474993E-05
   8.47000027      -3.02455792E-05
   8.60000038      -3.03347570E-05
   8.72999954      -3.04148780E-05
   8.85999966      -3.04858058E-05
   8.98999977      -3.05474096E-05
   9.11999989      -3.05995636E-05
   9.25000000      -3.06421571E-05
   9.38000011      -3.06750917E-05
   9.51000023      -3.06982693E-05
   9.64000034      -3.07115988E-05
   9.77000046      -3.07150003E-05
   9.89999962      -3.07083974E-05
   10.0299997      -3.06917063E-05
   10.1599998      -3.06648581E-05
   10.2900000      -3.06277798E-05
   10.4200001      -3.05803951E-05
   10.5500002      -3.05226349E-05
   10.6800003      -3.04544319E-05
   10.8100004      -3.03757242E-05
   10.9399996      -3.02864646E-05
   11.0699997      -3.01866130E-05
   11.1999998      -3.00761421E-05
   11.3299999      -2.99550447E-05
   11.4600000      -2.98233317E-05
   11.5900002      -2.96810194E-05
   11.7200003      -2.95281425E-05
   11.8500004      -2.93647518E-05
   11.9799995      -2.91908964E-05
   12.1099997      -2.90066473E-05
   12.2399998      -2.88120755E-05
   12.3699999      -2.86072573E-05
   12.5000000      -2.83922818E-05
   12.6300001      -2.81672383E-05
   12.7600002      -2.79322248E-05
   12.8900003      -2.76873434E-05
   13.0200005      -2.74327067E-05
   13.1499996      -2.71684239E-05
   13.2799997      -2.68946205E-05
   13.4099998      -2.66114221E-05
   13.5400000      -2.63189577E-05
   13.6700001      -2.60173674E-05
   13.8000002      -2.57067986E-05
   13.9300003      -2.53874077E-05
   14.0600004      -2.50593675E-05
   14.1899996      -2.47228618E-05
   14.3199997      -2.43780905E-05
   14.4499998      -2.40252702E-05
   14.5799999      -2.36646338E-05
   14.7100000      -2.32964230E-05
   14.8400002      -2.29208908E-05
   14.9700003      -2.25382973E-05
   15.1000004      -2.21489026E-05
   15.2299995      -2.17529741E-05
   15.3599997      -2.13507774E-05
   15.4899998      -2.09425743E-05
   15.6199999      -2.05286287E-05
   15.7500000      -2.01091989E-05
   15.8800001      -1.96845485E-05
   16.0100002      -1.92549451E-05
   16.1399994      -1.88206559E-05
   16.2700005      -1.83819539E-05
   16.3999996      -1.79391154E-05
   16.5300007      -1.74924244E-05
   16.6599998      -1.70421736E-05
   16.7900009      -1.65886613E-05
   16.9200001      -1.61321932E-05
   17.0499992      -1.56730821E-05
   17.1800003      -1.52116545E-05
   17.3099995      -1.47482415E-05
   17.4400005      -1.42831859E-05
   17.5699997      -1.38168371E-05
   17.7000008      -1.33495441E-05
   17.8299999      -1.28816637E-05
   17.9599991      -1.24135504E-05
   18.0900002      -1.19455553E-05
   18.2199993      -1.14780159E-05
   18.3500004      -1.10112642E-05
   18.4799995      -1.05456165E-05
   18.6100006      -1.00813786E-05
   18.7399998      -9.61883961E-06
   18.8700008      -9.15828423E-06
   19.0000000      -8.69998530E-06
   19.1299992      -8.24421568E-06
   19.2600002      -7.79124639E-06
   19.3899994      -7.34134528E-06
   19.5200005      -6.89478975E-06
   19.6499996      -6.45185537E-06
   19.7800007      -6.01282318E-06
   19.9099998      -5.57797557E-06
   20.0400009      -5.14759813E-06
   20.1700001      -4.72197644E-06
   20.2999992      -4.30139426E-06
   20.4300003      -3.88613444E-06
   20.5599995      -3.47647187E-06
   20.6900005      -3.07267828E-06
   20.8199997      -2.67501082E-06
   20.9500008      -2.28371982E-06
   21.0799999      -1.89903631E-06
   21.2099991      -1.52117400E-06
   21.3400002      -1.15033072E-06
   21.4699993      -7.86679720E-07
   21.6000004      -4.30376133E-07
   21.7299995      -8.15541767E-08
   21.8600006       2.59666649E-07
   21.9899998       5.93180005E-07
   22.1200008       9.18890066E-07
   22.2500000       1.23670770E-06
   22.3799992       1.54654265E-06
   22.5100002       1.84830333E-06
   22.6399994       2.14189868E-06
   22.7700005       2.42723490E-06
   22.8999996       2.70421924E-06
   23.0300007       2.97275824E-06
   23.1599998       3.23276618E-06
   23.2900009       3.48416438E-06
   23.4200001       3.72688669E-06
   23.5499992       3.96088080E-06
   23.6800003       4.18611080E-06
   23.8099995       4.40255917E-06
   23.9400005       4.61022410E-06
   24.0699997       4.80912468E-06
   24.2000008       4.99929774E-06
   24.3299999       5.18079560E-06
   24.4599991       5.35368918E-06
   24.5900002       5.51806124E-06
   24.7199993       5.67401048E-06
   24.8500004       5.82164284E-06
   24.9799995       5.96107202E-06
   25.1100006       6.09241533E-06
   25.2399998       6.21578920E-06
   25.3700008       6.33130821E-06
   25.5000000       6.43908106E-06
   25.6299992       6.53921097E-06
   25.7600002       6.63179571E-06
   25.8899994       6.71693124E-06
   26.0200005       6.79471259E-06
   26.1499996       6.86523890E-06
   26.2800007       6.92861795E-06
   26.4099998       6.98497024E-06
   26.5400009       7.03443038E-06
   26.6700001       7.07715117E-06
   26.7999992       7.11330131E-06
   26.9300003       7.14306725E-06
   27.0599995       7.16664681E-06
   27.1900005       7.18425281E-06
   27.3199997       7.19610307E-06
   27.4500008       7.20242360E-06
   27.5799999       7.20343724E-06
   27.7099991       7.19936997E-06
   27.8400002       7.19044010E-06
   27.9699993       7.17686316E-06
   28.1000004       7.15884562E-06
   28.2299995       7.13658346E-06
   28.3600006       7.11026541E-06
   28.4899998       7.08006883E-06
   28.6200008       7.04615832E-06
   28.7500000       7.00869396E-06
   28.8799992       6.96782536E-06
   29.0100002       6.92369849E-06
   29.1399994       6.87646343E-06
   29.2700005       6.82626478E-06
   29.3999996       6.77326443E-06
   29.5300007       6.71762245E-06
   29.6599998       6.65951666E-06
   29.7900009       6.59913712E-06
   29.9200001       6.53668167E-06
   30.0499992       6.47235356E-06
   30.1800003       6.40636017E-06
   30.3099995       6.33890568E-06
   30.4400005       6.27019381E-06
   30.5699997       6.20041010E-06
   30.7000008       6.12973008E-06
   30.8299999       6.05831110E-06
   30.9599991       5.98629595E-06
   31.0900002       5.91380740E-06
   31.2199993       5.84095051E-06
   31.3500004       5.76782395E-06
   31.4799995       5.69450458E-06
   31.6100006       5.62106379E-06
   31.7399998       5.54756616E-06
   31.8700008       5.47406489E-06
   32.0000000       5.40061637E-06
   32.1300011       5.32727381E-06
   32.2599983       5.25409405E-06
   32.3899994       5.18113529E-06
   32.5200005       5.10846212E-06
   32.6500015       5.03614410E-06
   32.7799988       4.96425901E-06
   32.9099998       4.89288595E-06
   33.0400009       4.82210908E-06
   33.1699982       4.75200477E-06
   33.2999992       4.68264898E-06
   33.4300003       4.61410218E-06
   33.5600014       4.54641395E-06
   33.6899986       4.47961702E-06
   33.8199997       4.41372276E-06
   33.9500008       4.34872663E-06
   34.0800018       4.28460407E-06
   34.2099991       4.22131598E-06
   34.3400002       4.15881777E-06
   34.4700012       4.09705672E-06
   34.5999985       4.03597960E-06
   34.7299995       3.97553458E-06
   34.8600006       3.91567210E-06
   34.9900017       3.85635622E-06
   35.1199989       3.79755033E-06
   35.2500000       3.73923285E-06
   35.3800011       3.68138149E-06
   35.5099983       3.62398328E-06
   35.6399994       3.56702685E-06
   35.7700005       3.51050653E-06
   35.9000015       3.45440981E-06
   36.0299988       3.39873009E-06
   36.1599998       3.34344759E-06
   36.2900009       3.28853866E-06
   36.4199982       3.23396876E-06
   36.5499992       3.17968738E-06
   36.6800003       3.12563770E-06
   36.8100014       3.07174196E-06
   36.9399986       3.01791306E-06
   37.0699997       2.96405324E-06
   37.2000008       2.91006450E-06
   37.3300018       2.85583974E-06
   37.4599991       2.80128143E-06
   37.5900002       2.74630179E-06
   37.7200012       2.69082102E-06
   37.8499985       2.63478182E-06
   37.9799995       2.57813986E-06
   38.1100006       2.52087193E-06
   38.2400017       2.46296372E-06
   38.3699989       2.40441386E-06
   38.5000000       2.34522918E-06
   38.6300011       2.28541603E-06
   38.7599983       2.22498193E-06
   38.8899994       2.16392255E-06
   39.0200005       2.10223811E-06
   39.1500015       2.03990999E-06
   39.2799988       1.97691338E-06
   39.4099998       1.91321374E-06
   39.5400009       1.84876365E-06
   39.6699982       1.78351172E-06
   39.7999992       1.71739987E-06
   39.9300003       1.65036545E-06
   40.0600014       1.58233934E-06
   40.1899986       1.51326071E-06
   40.3199997       1.44307421E-06
   40.4500008       1.37173413E-06
   40.5800018       1.29920943E-06
   40.7099991       1.22548147E-06
   40.8400002       1.15055639E-06
   40.9700012       1.07445203E-06
   41.0999985       9.97205234E-07
   41.2299995       9.18868068E-07
   41.3600006       8.39497261E-07
   41.4900017       7.59155682E-07
   41.6199989       6.77903301E-07
   41.7500000       5.95796678E-07
   41.8800011       5.12880206E-07
   42.0099983       4.29185889E-07
   42.1399994       3.44733735E-07
   42.2700005       2.59532868E-07
   42.4000015       1.73582279E-07
   42.5299988       8.68774066E-08
   42.6599998      -5.90836935E-10
   42.7900009      -8.88302694E-08
   42.9199982      -1.77843205E-07
   43.0499992      -2.67622568E-07
   43.1800003      -3.58152278E-07
   43.3100014      -4.49403728E-07
   43.4399986      -5.41335282E-07
   43.5699997      -6.33889044E-07
   43.7000008      -7.26995552E-07
   43.8300018      -8.20570790E-07
   43.9599991      -9.14519887E-07
   44.0900002      -1.00873956E-06
   44.2200012      -1.10312146E-06
   44.3499985      -1.19755794E-06
   44.4799995      -1.29194416E-06
   44.6100006      -1.38618498E-06
   44.7400017      -1.48019751E-06
   44.8699989      -1.57391548E-06
   45.0000000      -1.66728751E-06
   45.1300011      -1.76028084E-06
   45.2599983      -1.85287365E-06
   45.3899994      -1.94505765E-06
   45.5200005      -2.03682771E-06
   45.6500015      -2.12817849E-06
   45.7799988      -2.21910204E-06
   45.9099998      -2.30957562E-06
   46.0400009      -2.39956626E-06
   46.1699982      -2.48902734E-06
   46.2999992      -2.57789497E-06
   46.4300003      -2.66608936E-06
   46.5600014      -2.75352386E-06
   46.6899986      -2.84010002E-06
   46.8199997      -2.92571212E-06
   46.9500008      -3.01025784E-06
   47.0800018      -3.09363236E-06
   47.2099991      -3.17573790E-06
   47.3400002      -3.25648534E-06
   47.4700012      -3.33579737E-06
   47.5999985      -3.41360737E-06
   47.7299995      -3.48987146E-06
   47.8600006      -3.56455826E-06
   47.9900017      -3.63765275E-06
   48.1199989      -3.70915427E-06
   48.2500000      -3.77907713E-06
   48.3800011      -3.84744271E-06
   48.5099983      -3.91427739E-06
   48.6399994      -3.97960594E-06
   48.7700005      -4.04344610E-06
   48.9000015      -4.10580196E-06
   49.0299988      -4.16667126E-06
   49.1599998      -4.22602898E-06
   49.2900009      -4.28384146E-06
   49.4199982      -4.34006006E-06
   49.5499992      -4.39462747E-06
   49.6800003      -4.44748639E-06
   49.8100014      -4.49857271E-06
   49.9399986      -4.54784004E-06
   50.0699997      -4.59524290E-06
   50.2000008      -4.64075129E-06
   50.3300018      -4.68434882E-06
   50.4599991      -4.72603915E-06
   50.5900002      -4.76583455E-06
   50.7200012      -4.80376639E-06
   50.8499985      -4.83987378E-06
   50.9799995      -4.87421175E-06
   51.1100006      -4.90683487E-06
   51.2400017      -4.93780817E-06
   51.3699989      -4.96719531E-06
   51.5000000      -4.99505632E-06
   51.6300011      -5.02144712E-06
   51.7599983      -5.04641139E-06
   51.8899994      -5.06998595E-06
   52.0200005      -5.09218853E-06
   52.1500015      -5.11302960E-06
   52.2799988      -5.13250325E-06
   52.4099998      -5.15059673E-06
   52.5400009      -5.16729187E-06
   52.6699982      -5.18257229E-06
   52.7999992      -5.19641935E-06
   52.9300003      -5.20883168E-06
   53.0600014      -5.21981883E-06
   53.1899986      -5.22940127E-06
   53.3199997      -5.23762355E-06
   53.4500008      -5.24453890E-06
   53.5800018      -5.25021915E-06
   53.7099991      -5.25474115E-06
   53.8400002      -5.25818768E-06
   53.9700012      -5.26064332E-06
   54.0999985      -5.26218855E-06
   54.2299995      -5.26289614E-06
   54.3600006      -5.26283202E-06
   54.4900017      -5.26204894E-06
   54.6199989      -5.26058830E-06
   54.7500000      -5.25848054E-06
   54.8800011      -5.25574296E-06
   55.0099983      -5.25238511E-06
   55.1399994      -5.24840470E-06
   55.2700005      -5.24379266E-06
   55.4000015      -5.23854123E-06
   55.5299988      -5.23263634E-06
   55.6599998      -5.22607343E-06
   55.7900009      -5.21884886E-06
   55.9199982      -5.21097445E-06
   56.0499992      -5.20247477E-06
   56.1800003      -5.19338664E-06
   56.3100014      -5.18376328E-06
   56.4399986      -5.17366789E-06
   56.5699997      -5.16317277E-06
   56.7000008      -5.15235433E-06
   56.8300018      -5.14128442E-06
   56.9599991      -5.13003215E-06
   57.0900002      -5.11864846E-06
   57.2200012      -5.10717700E-06
   57.3499985      -5.09563961E-06
   57.4799995      -5.08404128E-06
   57.6100006      -5.07237019E-06
   57.7400017      -5.06060269E-06
   57.8699989      -5.04870195E-06
   58.0000000      -5.03662659E-06
   58.1300011      -5.02432795E-06
   58.2599983      -5.01176100E-06
   58.3899994      -4.99888438E-06
   58.5200005      -4.98565805E-06
   58.6500015      -4.97205383E-06
   58.7799988      -4.95804852E-06
   58.9099998      -4.94363303E-06
   59.0400009      -4.92880326E-06
   59.1699982      -4.91356695E-06
   59.2999992      -4.89793592E-06
   59.4300003      -4.88193109E-06
   59.5600014      -4.86556837E-06
   59.6899986      -4.84886687E-06
   59.8199997      -4.83183430E-06
   59.9500008      -4.81446887E-06
   60.0800018      -4.79675100E-06
   60.2099991      -4.77864432E-06
   60.3400002      -4.76009245E-06
   60.4700012      -4.74102308E-06
   60.5999985      -4.72134479E-06
   60.7299995      -4.70095756E-06
   60.8600006      -4.67975178E-06
   60.9900017      -4.65761832E-06
   61.1199989      -4.63445031E-06
   61.2500000      -4.61015043E-06
   61.3800011      -4.58463273E-06
   61.5099983      -4.55782265E-06
   61.6399994      -4.52966196E-06
   61.7700005      -4.50010430E-06
   61.9000015      -4.46911145E-06
   62.0299988      -4.43665522E-06
   62.1599998      -4.40271333E-06
   62.2900009      -4.36726577E-06
   62.4199982      -4.33028845E-06
   62.5499992      -4.29175498E-06
   62.6800003      -4.25162943E-06
   62.8100014      -4.20986407E-06
   62.9399986      -4.16640069E-06
   63.0699997      -4.12116424E-06
   63.2000008      -4.07406424E-06
   63.3300018      -4.02499472E-06
   63.4599991      -3.97383565E-06
   63.5900002      -3.92045695E-06
   63.7200012      -3.86472493E-06
   63.8499985      -3.80650090E-06
   63.9799995      -3.74565275E-06
   64.1100006      -3.68205906E-06
   64.2399979      -3.61561342E-06
   64.3700027      -3.54622784E-06
   64.5000000      -3.47383138E-06
   64.6299973      -3.39837584E-06
   64.7600021      -3.31982551E-06
   64.8899994      -3.23816244E-06
   65.0199966      -3.15336956E-06
   65.1500015      -3.06543552E-06
   65.2799988      -2.97434690E-06
   65.4100037      -2.88008255E-06
   65.5400009      -2.78261086E-06
   65.6699982      -2.68188637E-06
   65.8000031      -2.57785177E-06
   65.9300003      -2.47043636E-06
   66.0599976      -2.35955576E-06
   66.1900024      -2.24511723E-06
   66.3199997      -2.12701980E-06
   66.4499969      -2.00515728E-06
   66.5800018      -1.87942408E-06
   66.7099991      -1.74971944E-06
   66.8399963      -1.61595483E-06
   66.9700012      -1.47805144E-06
   67.0999985      -1.33594870E-06
   67.2300034      -1.18961020E-06
   67.3600006      -1.03902005E-06
   67.4899979      -8.84188808E-07
   67.6200027      -7.25148709E-07
   67.7500000      -5.61948468E-07
   67.8799973      -3.94654904E-07
   68.0100021      -2.23340479E-07
   68.1399994      -4.80813931E-08
   68.2699966       1.31051635E-07
   68.4000015       3.13998640E-07
   68.5299988       5.00708779E-07
   68.6600037       6.91150944E-07
   68.7900009       8.85300551E-07
   68.9199982       1.08314987E-06
   69.0500031       1.28470003E-06
   69.1800003       1.48995662E-06
   69.3099976       1.69892121E-06
   69.4400024       1.91159211E-06
   69.5699997       2.12795408E-06
   69.6999969       2.34798244E-06
   69.8300018       2.57163015E-06
   69.9599991       2.79882966E-06
   70.0899963       3.02949798E-06
   70.2200012       3.26352188E-06
   70.3499985       3.50077130E-06
   70.4800034       3.74109572E-06
   70.6100006       3.98432485E-06
   70.7399979       4.23027768E-06
   70.8700027       4.47876391E-06
   71.0000000       4.72958982E-06
   71.1299973       4.98256304E-06
   71.2600021       5.23750214E-06
   71.3899994       5.49423339E-06
   71.5199966       5.75260310E-06
   71.6500015       6.01246893E-06
   71.7799988       6.27370446E-06
   71.9100037       6.53619281E-06
   72.0400009       6.79982395E-06
   72.1699982       7.06448600E-06
   72.3000031       7.33006345E-06
   72.4300003       7.59642580E-06
   72.5599976       7.86342571E-06
   72.6900024       8.13089900E-06
   72.8199997       8.39865879E-06
   72.9499969       8.66649134E-06
   73.0800018       8.93417018E-06
   73.2099991       9.20144885E-06
   73.3399963       9.46806722E-06
   73.4700012       9.73376063E-06
   73.5999985       9.99825170E-06
   73.7300034       1.02612703E-05
   73.8600006       1.05225481E-05
   73.9899979       1.07818241E-05
   74.1200027       1.10388510E-05
   74.2500000       1.12933940E-05
   74.3799973       1.15452349E-05
   74.5100021       1.17941718E-05
   74.6399994       1.20400200E-05
   74.7699966       1.22825995E-05
   74.9000015       1.25217503E-05
   75.0299988       1.27573085E-05
   75.1600037       1.29891068E-05
   75.2900009       1.32169780E-05
   75.4199982       1.34407392E-05
   75.5500031       1.36601884E-05
   75.6800003       1.38751084E-05
   75.8099976       1.40852635E-05
   75.9400024       1.42904028E-05
   76.0699997       1.44902615E-05
   76.1999969       1.46845696E-05
   76.3300018       1.48730551E-05
   76.4599991       1.50554542E-05
   76.5899963       1.52315142E-05
   76.7200012       1.54009977E-05
   76.8499985       1.55636862E-05
   76.9800034       1.57193826E-05
   77.1100006       1.58679140E-05
   77.2399979       1.60091240E-05
   77.3700027       1.61428779E-05
   77.5000000       1.62690503E-05
   77.6299973       1.63875320E-05
   77.7600021       1.64982248E-05
   77.8899994       1.66010286E-05
   78.0199966       1.66958434E-05
   78.1500015       1.67825710E-05
   78.2799988       1.68610986E-05
   78.4100037       1.69313043E-05
   78.5400009       1.69930590E-05
   78.6699982       1.70462190E-05
   78.8000031       1.70906296E-05
   78.9300003       1.71261345E-05
   79.0599976       1.71525771E-05
   79.1900024       1.71698030E-05
   79.3199997       1.71776737E-05
   79.4499969       1.71760712E-05
   79.5800018       1.71649026E-05
   79.7099991       1.71441006E-05
   79.8399963       1.71136380E-05
   79.9700012       1.70735093E-05
   80.0999985       1.70237417E-05
   80.2300034       1.69643827E-05
   80.3600006       1.68955030E-05
   80.4899979       1.68171828E-05
   80.6200027       1.67295075E-05
   80.7500000       1.66325663E-05
   80.8799973       1.65264373E-05
   81.0100021       1.64111989E-05
   81.1399994       1.62869128E-05
   81.2699966       1.61536318E-05
   81.4000015       1.60113996E-05
   81.5299988       1.58602506E-05
   81.6600037       1.57002141E-05
   81.7900009       1.55313137E-05
   81.9199982       1.53535839E-05
   82.0500031       1.51670538E-05
   82.1800003       1.49717789E-05
   82.3099976       1.47678275E-05
   82.4400024       1.45552922E-05
   82.5699997       1.43342932E-05
   82.6999969       1.41049786E-05
   82.8300018       1.38675268E-05
   82.9599991       1.36221452E-05
   83.0899963       1.33690610E-05
   83.2200012       1.31085208E-05
   83.3499985       1.28407773E-05
   83.4800034       1.25660890E-05
   83.6100006       1.22847059E-05
   83.7399979       1.19968690E-05
   83.8700027       1.17027994E-05
   84.0000000       1.14027016E-05
   84.1299973       1.10967658E-05
   84.2600021       1.07851592E-05
   84.3899994       1.04680466E-05
   84.5199966       1.01455753E-05
   84.6500015       9.81790072E-06
   84.7799988       9.48517754E-06
   84.9100037       9.14757038E-06
   85.0400009       8.80526204E-06
   85.1699982       8.45845079E-06
   85.3000031       8.10735673E-06
   85.4300003       7.75222361E-06
   85.5599976       7.39331699E-06
   85.6900024       7.03092701E-06
   85.8199997       6.66535880E-06
   85.9499969       6.29693614E-06
   86.0800018       5.92599054E-06
   86.2099991       5.55285487E-06
   86.3399963       5.17786066E-06
   86.4700012       4.80132667E-06
   86.5999985       4.42355440E-06
   86.7300034       4.04482489E-06
   86.8600006       3.66539439E-06