  -24.4200001         0.00000000    
  -24.2900009        -8.29563618E-09
  -24.1599998        -2.37814906E-08
  -24.0300007        -4.40331682E-08
  -23.8999996        -6.59284183E-08
  -23.7700005        -8.64354064E-08
  -23.6399994        -1.03370596E-07
  -23.5100002        -1.15936814E-07
  -23.3799992        -1.24907714E-07
  -23.2500000        -1.32413888E-07
  -23.1200008        -1.41386465E-07
  -22.9899998        -1.54799579E-07
  -22.8600006        -1.74904017E-07
  -22.7299995        -2.02645793E-07
  -22.6000004        -2.37416970E-07
  -22.4699993        -2.77201963E-07
  -22.3400002        -3.19082858E-07
  -22.2099991        -3.59977520E-07
  -22.0799999        -3.97424259E-07
  -21.9500008        -4.30216687E-07
  -21.8199997        -4.58728380E-07
  -21.6900005        -4.84845827E-07
  -21.5599995        -5.11525855E-07
  -21.4300003        -5.42087776E-07
  -21.2999992        -5.79417986E-07
  -21.1700001        -6.25285281E-07
  -21.0400009        -6.79938637E-07
  -20.9099998        -7.42087934E-07
  -20.7800007        -8.09271341E-07
  -20.6499996        -8.78517994E-07
  -20.5200005        -9.47137778E-07
  -20.3899994        -1.01344051E-06
  -20.2600002        -1.07720371E-06
  -20.1299992        -1.13977012E-06
  -20.0000000        -1.20375284E-06
  -19.8700008        -1.27241879E-06
  -19.7399998        -1.34890911E-06
  -19.6100006        -1.43548982E-06
  -19.4799995        -1.53302449E-06
  -19.3500004        -1.64079859E-06
  -19.2199993        -1.75674370E-06
  -19.0900002        -1.87800299E-06
  -18.9599991        -2.00169825E-06
  -18.8299999        -2.12570399E-06
  -18.7000008        -2.24923519E-06
  -18.5699997        -2.37310155E-06
  -18.4400005        -2.49956292E-06
  -18.3099995        -2.63182301E-06
  -18.1800003        -2.77328922E-06
  -18.0499992        -2.92678351E-06
  -17.9200001        -3.09390452E-06
  -17.7900009        -3.27469866E-06
  -17.6599998        -3.46772435E-06
  -17.5300007        -3.67049392E-06
  -17.3999996        -3.88017816E-06
  -17.2700005        -4.09440054E-06
  -17.1399994        -4.31191847E-06
  -17.0100002        -4.53302027E-06
  -16.8799992        -4.75954130E-06
  -16.7500000        -4.99449106E-06
  -16.6200008        -5.24138886E-06
  -16.4899998        -5.50347340E-06
  -16.3600006        -5.78298477E-06
  -16.2299995        -6.08070059E-06
  -16.1000004        -6.39584141E-06
  -15.9700003        -6.72637134E-06
  -15.8400002        -7.06961646E-06
  -15.7100000        -7.42304428E-06
  -15.5799999        -7.78501544E-06
  -15.4499998        -8.15530893E-06
  -15.3199997        -8.53529400E-06
  -15.1899996        -8.92771277E-06
  -15.0600004        -9.33610409E-06
  -14.9300003        -9.76404499E-06
  -14.8000002        -1.02143731E-05
  -14.6700001        -1.06885964E-05
  -14.5400000        -1.11866375E-05
  -14.4099998        -1.17069840E-05
  -14.2799997        -1.22471783E-05
  -14.1499996        -1.28045704E-05
  -14.0200005        -1.33770991E-05
  -13.8900003        -1.39639351E-05
  -13.7600002        -1.45658096E-05
  -13.6300001        -1.51849563E-05
  -13.5000000        -1.58246730E-05
  -13.3699999        -1.64886151E-05
  -13.2399998        -1.71800075E-05
  -13.1099997        -1.79009603E-05
  -12.9799995        -1.86520665E-05
  -12.8500004        -1.94323893E-05
  -12.7200003        -2.02398332E-05
  -12.5900002        -2.10718026E-05
  -12.4600000        -2.19260000E-05
  -12.3299999        -2.28011340E-05
  -12.1999998        -2.36973883E-05
  -12.0699997        -2.46165164E-05
  -11.9399996        -2.55615341E-05
  -11.8100004        -2.65361086E-05
  -11.6800003        -2.75437596E-05
  -11.5500002        -2.85871211E-05
  -11.4200001        -2.96674043E-05
  -11.2900000        -3.07842238E-05
  -11.1599998        -3.19358369E-05
  -11.0299997        -3.31196752E-05
  -10.8999996        -3.43331485E-05
  -10.7700005        -3.55743759E-05
  -10.6400003        -3.68428045E-05
  -10.5100002        -3.81394348E-05
  -10.3800001        -3.94666895E-05
  -10.2500000        -4.08278902E-05
  -10.1199999        -4.22265402E-05
  -9.98999977        -4.36655173E-05
  -9.85999966        -4.51464475E-05
  -9.72999954        -4.66693855E-05
  -9.60000038        -4.82328687E-05
  -9.47000027        -4.98343616E-05
  -9.34000015        -5.14709536E-05
  -9.21000004        -5.31401747E-05
  -9.07999992        -5.48406351E-05
  -8.94999981        -5.65724549E-05
  -8.81999969        -5.83372748E-05
  -8.68999958        -6.01378670E-05
  -8.56000042        -6.19774946E-05
  -8.43000031        -6.38591009E-05
  -8.30000019        -6.57845812E-05
  -8.17000008        -6.77543503E-05
  -8.03999996        -6.97671931E-05
  -7.90999985        -7.18206211E-05
  -7.78000021        -7.39114257E-05
  -7.65000010        -7.60365292E-05
  -7.51999998        -7.81936687E-05
  -7.38999987        -8.03819421E-05
  -7.26000023        -8.26020114E-05
  -7.13000011        -8.48558411E-05
  -7.00000000        -8.71461380E-05
  -6.86999989        -8.94755867E-05
  -6.73999977        -9.18460646E-05
  -6.61000013        -9.42580737E-05
  -6.48000002        -9.67105007E-05
  -6.34999990        -9.92007117E-05
  -6.21999979        -1.01725142E-04
  -6.09000015        -1.04279956E-04
  -5.96000004        -1.06861902E-04
  -5.82999992        -1.09468914E-04
  -5.69999981        -1.12100461E-04
  -5.57000017        -1.14757459E-04
  -5.44000006        -1.17441858E-04
  -5.30999994        -1.20155928E-04
  -5.17999983        -1.22901460E-04
  -5.05000019        -1.25679100E-04
  -4.92000008        -1.28487911E-04
  -4.78999996        -1.31325447E-04
  -4.65999985        -1.34188027E-04
  -4.53000021        -1.37071460E-04
  -4.40000010        -1.39971788E-04
  -4.26999998        -1.42886056E-04
  -4.13999987        -1.45812708E-04
  -4.01000023        -1.48751744E-04
  -3.88000011        -1.51704342E-04
  -3.75000000        -1.54672336E-04
  -3.61999989        -1.57657341E-04
  -3.49000001        -1.60660071E-04
  -3.35999990        -1.63679768E-04
  -3.23000002        -1.66714075E-04
  -3.09999990        -1.69759238E-04
  -2.97000003        -1.72810629E-04
  -2.83999991        -1.75863606E-04
  -2.71000004        -1.78914197E-04
  -2.57999992        -1.81959709E-04
  -2.45000005        -1.84999037E-04
  -2.31999993        -1.88032442E-04
  -2.19000006        -1.91061074E-04
  -2.05999994        -1.94086286E-04
  -1.92999995        -1.97108806E-04
  -1.79999995        -2.00128081E-04
  -1.66999996        -2.03142001E-04
  -1.53999996        -2.06146942E-04
  -1.40999997        -2.09138205E-04
  -1.27999997        -2.12110739E-04
  -1.14999998        -2.15059947E-04
  -1.01999998        -2.17982291E-04
 -0.889999986        -2.20875809E-04
 -0.759999990        -2.23739989E-04
 -0.629999995        -2.26575547E-04
 -0.500000000        -2.29383673E-04
 -0.370000005        -2.32165272E-04
 -0.239999995        -2.34920197E-04
 -0.109999999        -2.37646833E-04
   1.99999996E-02    -2.40342080E-04
  0.150000006        -2.43001501E-04
  0.280000001        -2.45620060E-04
  0.409999996        -2.48192868E-04
  0.540000021        -2.50715966E-04
  0.670000017        -2.53186765E-04
  0.800000012        -2.55604333E-04
  0.930000007        -2.57969135E-04
   1.05999994        -2.60282366E-04
   1.19000006        -2.62545364E-04
   1.32000005        -2.64758652E-04
   1.45000005        -2.66921532E-04
   1.58000004        -2.69031705E-04
   1.71000004        -2.71085446E-04
   1.84000003        -2.73078214E-04
   1.97000003        -2.75005208E-04
   2.09999990        -2.76862324E-04
   2.23000002        -2.78646650E-04
   2.35999990        -2.80356995E-04
   2.49000001        -2.81993533E-04
   2.61999989        -2.83557631E-04
   2.75000000        -2.85050919E-04
   2.88000011        -2.86474708E-04
   3.00999999        -2.87829200E-04
   3.14000010        -2.89113115E-04
   3.26999998        -2.90323660E-04
   3.40000010        -2.91457021E-04
   3.52999997        -2.92508805E-04
   3.66000009        -2.93475052E-04
   3.78999996        -2.94352853E-04
   3.92000008        -2.95140839E-04
   4.05000019        -2.95839243E-04
   4.17999983        -2.96449667E-04
   4.30999994        -2.96974351E-04
   4.44000006        -2.97415594E-04
   4.57000017        -2.97774735E-04
   4.69999981        -2.98051833E-04
   4.82999992        -2.98245519E-04
   4.96000004        -2.98352999E-04
   5.09000015        -2.98370782E-04
   5.21999979        -2.98295519E-04
   5.34999990        -2.98124505E-04
   5.48000002        -2.97856575E-04
   5.61000013        -2.97492079E-04
   5.73999977        -2.97032995E-04
   5.86999989        -2.96482147E-04
   6.00000000        -2.95842619E-04
   6.13000011        -2.95117003E-04
   6.26000023        -2.94306665E-04
   6.38999987        -2.93411460E-04
   6.51999998        -2.92429875E-04
   6.65000010        -2.91359349E-04
   6.78000021        -2.90197087E-04
   6.90999985        -2.88940792E-04
   7.03999996        -2.87589326E-04
   7.17000008        -2.86143186E-04
   7.30000019        -2.84604350E-04
   7.42999983        -2.82976136E-04
   7.55999994        -2.81262328E-04
   7.69000006        -2.79466447E-04
   7.82000017        -2.77591113E-04
   7.94999981        -2.75637547E-04
   8.07999992        -2.73605401E-04
   8.21000004        -2.71493191E-04
   8.34000015        -2.69298820E-04
   8.47000027        -2.67020368E-04
   8.60000038        -2.64656876E-04
   8.72999954        -2.62208807E-04
   8.85999966        -2.59678345E-04
   8.98999977        -2.57069012E-04
   9.11999989        -2.54385115E-04
   9.25000000        -2.51631165E-04
   9.38000011        -2.48810888E-04
   9.51000023        -2.45926756E-04
   9.64000034        -2.42979790E-04
   9.77000046        -2.39969537E-04
   9.89999962        -2.36894703E-04
   10.0299997        -2.33753890E-04
   10.1599998        -2.30546299E-04
   10.2900000        -2.27272394E-04
   10.4200001        -2.23934258E-04
   10.5500002        -2.20535439E-04
   10.6800003        -2.17080582E-04
   10.8100004        -2.13574720E-04
   10.9399996        -2.10022423E-04
   11.0699997        -2.06427198E-04
   11.1999998        -2.02791067E-04
   11.3299999        -1.99114467E-04
   11.4600000        -1.95396846E-04
   11.5900002        -1.91637067E-04
   11.7200003        -1.87834361E-04
   11.8500004        -1.83988988E-04
   11.9799995        -1.80102696E-04
   12.1099997        -1.76178844E-04
   12.2399998        -1.72222033E-04
   12.3699999        -1.68237573E-04
   12.5000000        -1.64230616E-04
   12.6300001        -1.60205454E-04
   12.7600002        -1.56165042E-04
   12.8900003        -1.52110733E-04
   13.0200005        -1.48042556E-04
   13.1499996        -1.43959754E-04
   13.2799997        -1.39861557E-04
   13.4099998        -1.35747920E-04
   13.5400000        -1.31620123E-04
   13.6700001        -1.27481006E-04
   13.8000002        -1.23334830E-04
   13.9300003        -1.19186763E-04
   14.0600004        -1.15042152E-04
   14.1899996        -1.10905741E-04
   14.3199997        -1.06781052E-04
   14.4499998        -1.02670041E-04
   14.5799999        -9.85731676E-05
   14.7100000        -9.44898784E-05
   14.8400002        -9.04192639E-05
   14.9700003        -8.63608657E-05
   15.1000004        -8.23153241E-05
   15.2299995        -7.82847856E-05
   15.3599997        -7.42729098E-05
   15.4899998        -7.02844845E-05
   15.6199999        -6.63247847E-05
   15.7500000        -6.23987580E-05
   15.8800001        -5.85103298E-05
   16.0100002        -5.46619194E-05
   16.1399994        -5.08543853E-05
   16.2700005        -4.70872983E-05
   16.3999996        -4.33595596E-05
   16.5300007        -3.96701689E-05
   16.6599998        -3.60190170E-05
   16.7900009        -3.24073408E-05
   16.9200001        -2.88379324E-05
   17.0499992        -2.53148810E-05
   17.1800003        -2.18430305E-05
   17.3099995        -1.84272030E-05
   17.4400005        -1.50714359E-05
   17.5699997        -1.17784166E-05
   17.7000008        -8.54922564E-06
   17.8299999        -5.38346922E-06
   17.9599991        -2.27980581E-06
   18.0900002         7.63326682E-07
   18.2199993         3.74694014E-06
   18.3500004         6.67086852E-06
   18.4799995         9.53344170E-06
   18.6100006         1.23315558E-05
   18.7399998         1.50611368E-05
   18.8700008         1.77178099E-05
   19.0000000         2.02977189E-05
   19.1299992         2.27981709E-05
   19.2600002         2.52180434E-05
   19.3899994         2.75577877E-05
   19.5200005         2.98190644E-05
   19.6499996         3.20040635E-05
   19.7800007         3.41147497E-05
   19.9099998         3.61521343E-05
   20.0400009         3.81158061E-05
   20.1700001         4.00038698E-05
   20.2999992         4.18132222E-05
   20.4300003         4.35401889E-05
   20.5599995         4.51812957E-05
   20.6900005         4.67340069E-05
   20.8199997         4.81972420E-05
   20.9500008         4.95715540E-05
   21.0799999         5.08589110E-05
   21.2099991         5.20621106E-05
   21.3400002         5.31840378E-05
   21.4699993         5.42269008E-05
   21.6000004         5.51916419E-05
   21.7299995         5.60777007E-05
   21.8600006         5.68831674E-05
   21.9899998         5.76052771E-05
   22.1200008         5.82411485E-05
   22.2500000         5.87885806E-05
   22.3799992         5.92466349E-05
   22.5100002         5.96160098E-05
   22.6399994         5.98989391E-05
   22.7700005         6.00987441E-05
   22.8999996         6.02191503E-05
   23.0300007         6.02634827E-05
   23.1599998         6.02340078E-05
   23.2900009         6.01315332E-05
   23.4200001         5.99554041E-05
   23.5499992         5.97038706E-05
   23.6800003         5.93747536E-05
   23.8099995         5.89662232E-05
   23.9400005         5.84775116E-05
   24.0699997         5.79093539E-05
   24.2000008         5.72640929E-05
   24.3299999         5.65453593E-05
   24.4599991         5.57574640E-05
   24.5900002         5.49046163E-05
   24.7199993         5.39901885E-05
   24.8500004         5.30161997E-05
   24.9799995         5.19831483E-05
   25.1100006         5.08902376E-05
   25.2399998         4.97359397E-05
   25.3700008         4.85187411E-05
   25.5000000         4.72379324E-05
   25.6299992         4.58941649E-05
   25.7600002         4.44897014E-05
   25.8899994         4.30282525E-05
   26.0200005         4.15144823E-05
   26.1499996         3.99532582E-05
   26.2800007         3.83488987E-05
   26.4099998         3.67045031E-05
   26.5400009         3.50216615E-05
   26.6700001         3.33005155E-05
   26.7999992         3.15401849E-05
   26.9300003         2.97394818E-05
   27.0599995         2.78976877E-05
   27.1900005         2.60152265E-05
   27.3199997         2.40940444E-05
   27.4500008         2.21376304E-05
   27.5799999         2.01506209E-05
   27.7099991         1.81381511E-05
   27.8400002         1.61050666E-05
   27.9699993         1.40551983E-05
   28.1000004         1.19909155E-05
   28.2299995         9.91303205E-06
   28.3600006         7.82110510E-06
   28.4899998         5.71405826E-06
   28.6200008         3.59095452E-06
   28.7500000         1.45173090E-06
   28.8799992        -7.02275827E-07
   29.0100002        -2.86817112E-06
   29.1399994        -5.04173067E-06
   29.2700005        -7.21796414E-06
   29.3999996        -9.39187976E-06
   29.5300007        -1.15592302E-05
   29.6599998        -1.37171119E-05
   29.7900009        -1.58641851E-05
   29.9200001        -1.80005445E-05
   30.0499992        -2.01272051E-05
   30.1800003        -2.22453727E-05
   30.3099995        -2.43556733E-05
   30.4400005        -2.64575174E-05
   30.5699997        -2.85487949E-05
   30.7000008        -3.06259535E-05
   30.8299999        -3.26844420E-05
   30.9599991        -3.47193927E-05
   31.0900002        -3.67264365E-05
   31.2199993        -3.87023611E-05
   31.3500004        -4.06455110E-05
   31.4799995        -4.25557846E-05
   31.6100006        -4.44342731E-05
   31.7399998        -4.62826065E-05
   31.8700008        -4.81021598E-05
   32.0000000        -4.98933332E-05
   32.1300011        -5.16551336E-05
   32.2599983        -5.33850616E-05
   32.3899994        -5.50794030E-05
   32.5200005        -5.67338720E-05
   32.6500015        -5.83443762E-05
   32.7799988        -5.99077430E-05
   32.9099998        -6.14222517E-05
   33.0400009        -6.28877824E-05
   33.1699982        -6.43056192E-05
   33.2999992        -6.56778357E-05
   33.4300003        -6.70065638E-05
   33.5600014        -6.82932659E-05
   33.6899986        -6.95380804E-05
   33.8199997        -7.07396539E-05
   33.9500008        -7.18952506E-05
   34.0800018        -7.30012762E-05
   34.2099991        -7.40540127E-05
   34.3400002        -7.50503896E-05
   34.4700012        -7.59886316E-05
   34.5999985        -7.68685350E-05
   34.7299995        -7.76914385E-05
   34.8600006        -7.84597505E-05
   34.9900017        -7.91762504E-05
   35.1199989        -7.98433321E-05
   35.2500000        -8.04623123E-05
   35.3800011        -8.10330312E-05
   35.5099983        -8.15538951E-05
   35.6399994        -8.20222049E-05
   35.7700005        -8.24348244E-05
   35.9000015        -8.27890035E-05
   36.0299988        -8.30830177E-05
   36.1599998        -8.33166996E-05
   36.2900009        -8.34914463E-05
   36.4199982        -8.36099716E-05
   36.5499992        -8.36756444E-05
   36.6800003        -8.36917825E-05
   36.8100014        -8.36608087E-05
   36.9399986        -8.35838364E-05
   37.0699997        -8.34604361E-05
   37.2000008        -8.32888763E-05
   37.3300018        -8.30666831E-05
   37.4599991        -8.27914191E-05
   37.5900002        -8.24614253E-05
   37.7200012        -8.20763744E-05
   37.8499985        -8.16375541E-05
   37.9799995        -8.11476712E-05
   38.1100006        -8.06104144E-05
   38.2400017        -8.00296402E-05
   38.3699989        -7.94086300E-05
   38.5000000        -7.87494937E-05
   38.6300011        -7.80527917E-05
   38.7599983        -7.73176653E-05
   38.8899994        -7.65422374E-05
   39.0200005        -7.57243470E-05
   39.1500015        -7.48622915E-05
   39.2799988        -7.39555398E-05
   39.4099998        -7.30050815E-05
   39.5400009        -7.20134776E-05
   39.6699982        -7.09844244E-05
   39.7999992        -6.99221418E-05
   39.9300003        -6.88305663E-05
   40.0600014        -6.77126372E-05
   40.1899986        -6.65698535E-05
   40.3199997        -6.54022006E-05
   40.4500008        -6.42084051E-05
   40.5800018        -6.29866045E-05
   40.7099991        -6.17350888E-05
   40.8400002        -6.04530360E-05
   40.9700012        -5.91410499E-05
   41.0999985        -5.78012987E-05
   41.2299995        -5.64372785E-05
   41.3600006        -5.50532750E-05
   41.4900017        -5.36535881E-05
   41.6199989        -5.22417722E-05
   41.7500000        -5.08200683E-05
   41.8800011        -4.93891494E-05
   42.0099983        -4.79482951E-05
   42.1399994        -4.64958684E-05
   42.2700005        -4.50300686E-05
   42.4000015        -4.35496913E-05
   42.5299988        -4.20547512E-05
   42.6599998        -4.05468054E-05
   42.7900009        -3.90288587E-05
   42.9199982        -3.75049385E-05
   43.0499992        -3.59793848E-05
   43.1800003        -3.44560758E-05
   43.3100014        -3.29377399E-05
   43.4399986        -3.14255813E-05
   43.5699997        -2.99192689E-05
   43.7000008        -2.84173148E-05
   43.8300018        -2.69177272E-05
   43.9599991        -2.54188071E-05
   44.0900002        -2.39198434E-05
   44.2200012        -2.24215728E-05
   44.3499985        -2.09262616E-05
   44.4799995        -1.94374079E-05
   44.6100006        -1.79591170E-05
   44.7400017        -1.64953362E-05
   44.8699989        -1.50491069E-05
   45.0000000        -1.36220624E-05
   45.1300011        -1.22142455E-05
   45.2599983        -1.08243557E-05
   45.3899994        -9.45029569E-06
   45.5200005        -8.08994628E-06
   45.6500015        -6.74190460E-06
   45.7799988        -5.40607152E-06
   45.9099998        -4.08388496E-06
   46.0400009        -2.77816480E-06
   46.1699982        -1.49260291E-06
   46.2999992        -2.31034207E-07
   46.4300003         1.00334353E-06
   46.5600014         2.20858647E-06
   46.6899986         3.38433074E-06
   46.8199997         4.53169832E-06
   46.9500008         5.65287428E-06
   47.0800018         6.75040110E-06
   47.2099991         7.82639654E-06
   47.3400002         8.88188424E-06
   47.4700012         9.91640354E-06
   47.5999985         1.09280099E-05
   47.7299995         1.19136639E-05
   47.8600006         1.28698684E-05
   47.9900017         1.37934594E-05
   48.1199989         1.46823195E-05
   48.2500000         1.55358121E-05
   48.3800011         1.63548757E-05
   48.5099983         1.71417196E-05
   48.6399994         1.78992177E-05
   48.7700005         1.86301240E-05
   48.9000015         1.93363358E-05
   49.0299988         2.00183804E-05
   49.1599998         2.06752593E-05
   49.2900009         2.13046624E-05
   49.4199982         2.19035319E-05
   49.5499992         2.24688174E-05
   49.6800003         2.29982415E-05
   49.8100014         2.34908639E-05
   49.9399986         2.39473156E-05
   50.0699997         2.43696559E-05
   50.2000008         2.47608623E-05
   50.3300018         2.51241036E-05
   50.4599991         2.54619627E-05
   50.5900002         2.57758111E-05
   50.7200012         2.60655033E-05
   50.8499985         2.63294460E-05
   50.9799995         2.65650579E-05
   51.1100006         2.67694431E-05
   51.2400017         2.69401971E-05
   51.3699989         2.70760756E-05
   51.5000000         2.71773588E-05
   51.6300011         2.72458783E-05
   51.7599983         2.72846228E-05
   51.8899994         2.72970883E-05
   52.0200005         2.72864872E-05
   52.1500015         2.72550515E-05
   52.2799988         2.72035704E-05
   52.4099998         2.71313074E-05
   52.5400009         2.70363180E-05
   52.6699982         2.69160319E-05
   52.7999992         2.67680480E-05
   52.9300003         2.65908675E-05
   53.0600014         2.63843904E-05
   53.1899986         2.61500754E-05
   53.3199997         2.58907203E-05
   53.4500008         2.56098901E-05
   53.5800018         2.53111630E-05
   53.7099991         2.49973782E-05
   53.8400002         2.46700602E-05
   53.9700012         2.43291779E-05
   54.0999985         2.39733126E-05
   54.2299995         2.36001470E-05
   54.3600006         2.32072034E-05
   54.4900017         2.27926230E-05
   54.6199989         2.23557709E-05
   54.7500000         2.18975711E-05
   54.8800011         2.14204192E-05
   55.0099983         2.09277405E-05
   55.1399994         2.04232965E-05
   55.2700005         1.99104070E-05
   55.4000015         1.93912674E-05
   55.5299988         1.88665799E-05
   55.6599998         1.83355314E-05
   55.7900009         1.77961792E-05
   55.9199982         1.72460987E-05
   56.0499992         1.66831724E-05
   56.1800003         1.61062799E-05
   56.3100014         1.55157650E-05
   56.4399986         1.49135058E-05
   56.5699997         1.43026155E-05
   56.7000008         1.36868239E-05
   56.8300018         1.30697072E-05
   56.9599991         1.24539520E-05
   57.0900002         1.18408425E-05
   57.2200012         1.12300977E-05
   57.3499985         1.06201032E-05
   57.4799995         1.00084735E-05
   57.6100006         9.39280380E-06
   57.7400017         8.77143339E-06
   57.8699989         8.14400937E-06
   58.0000000         7.51171910E-06
   58.1300011         6.87714100E-06
   58.2599983         6.24373661E-06
   58.3899994         5.61512479E-06
   58.5200005         4.99430462E-06
   58.6500015         4.38303277E-06
   58.7799988         3.78151731E-06
   58.9099998         3.18849311E-06
   59.0400009         2.60166121E-06
   59.1699982         2.01839021E-06
   59.2999992         1.43649413E-06
   59.4300003         8.54896939E-07
   59.5600014         2.74015633E-07
   59.6899986        -3.04233453E-07
   59.8199997        -8.76811157E-07
   59.9500008        -1.44021192E-06
   60.0800018        -1.99124202E-06
   60.2099991        -2.52772224E-06
   60.3400002        -3.04893456E-06
   60.4700012        -3.55571206E-06
   60.5999985        -4.05013679E-06
   60.7299995        -4.53491839E-06
   60.8600006        -5.01263412E-06
   60.9900017        -5.48499520E-06
   61.1199989        -5.95233405E-06
   61.2500000        -6.41344604E-06
   61.3800011        -6.86581689E-06
   61.5099983        -7.30618922E-06
   61.6399994        -7.73131615E-06
   61.7700005        -8.13872248E-06
   61.9000015        -8.52726771E-06
   62.0299988        -8.89738658E-06
   62.1599998        -9.25093354E-06
   62.2900009        -9.59068257E-06
   62.4199982        -9.91958223E-06
   62.5499992        -1.02399945E-05
   62.6800003        -1.05530698E-05
   62.8100014        -1.08584327E-05
   62.9399986        -1.11542604E-05
   63.0699997        -1.14377244E-05
   63.2000008        -1.17056898E-05
   63.3300018        -1.19554943E-05
   63.4599991        -1.21856101E-05
   63.5900002        -1.23960344E-05
   63.7200012        -1.25882807E-05
   63.8499985        -1.27650128E-05
   63.9799995        -1.29293803E-05
   64.1100006        -1.30842436E-05
   64.2399979        -1.32314708E-05
   64.3700027        -1.33714884E-05
   64.5000000        -1.35031978E-05
   64.6299973        -1.36242861E-05
   64.7600021        -1.37318293E-05
   64.8899994        -1.38230680E-05
   65.0199966        -1.38961295E-05
   65.1500015        -1.39505446E-05
   65.2799988        -1.39874073E-05
   65.4100037        -1.40091379E-05
   65.5400009        -1.40189277E-05
   65.6699982        -1.40199800E-05
   65.8000031        -1.40147677E-05
   65.9300003        -1.40044531E-05
   66.0599976        -1.39886588E-05
   66.1900024        -1.39656195E-05
   66.3199997        -1.39326839E-05
   66.4499969        -1.38870500E-05
   66.5800018        -1.38265314E-05
   66.7099991        -1.37501775E-05
   66.8399963        -1.36585868E-05
   66.9700012        -1.35538312E-05
   67.0999985        -1.34390129E-05
   67.2300034        -1.33175718E-05
   67.3600006        -1.31924990E-05
   67.4899979        -1.30656790E-05
   67.6200027        -1.29375012E-05
   67.7500000        -1.28068541E-05
   67.8799973        -1.26715022E-05
   68.0100021        -1.25287415E-05
   68.1399994        -1.23761683E-05
   68.2699966        -1.22123911E-05
   68.4000015        -1.20374671E-05
   68.5299988        -1.18529879E-05
   68.6600037        -1.16617721E-05
   68.7900009        -1.14672503E-05
   68.9199982        -1.12726912E-05
   69.0500031        -1.10804795E-05
   69.1800003        -1.08915901E-05
   69.3099976        -1.07054493E-05
   69.4400024        -1.05201525E-05
   69.5699997        -1.03330322E-05
   69.6999969        -1.01414171E-05
   69.8300018        -9.94338370E-06
   69.9599991        -9.73832448E-06
   70.0899963        -9.52717983E-06
   70.2200012        -9.31229079E-06
   70.3499985        -9.09689425E-06
   70.4800034        -8.88438535E-06
   70.6100006        -8.67755534E-06
   70.7399979        -8.47797310E-06
   70.8700027        -8.28566954E-06
   71.0000000        -8.09921767E-06
   71.1299973        -7.91616549E-06
   71.2600021        -7.73373540E-06
   71.3899994        -7.54959365E-06
   71.5199966        -7.36251877E-06
   71.6500015        -7.17277499E-06
   71.7799988        -6.98211306E-06
   71.9100037        -6.79340246E-06
   72.0400009        -6.60996648E-06
   72.1699982        -6.43480917E-06
   72.3000031        -6.26991414E-06
   72.4300003        -6.11580072E-06
   72.5599976        -5.97144208E-06
   72.6900024        -5.83456585E-06
   72.8199997        -5.70227803E-06
   72.9499969        -5.57181875E-06
   73.0800018        -5.44130944E-06
   73.2099991        -5.31025398E-06
   73.3399963        -5.17970648E-06
   73.4700012        -5.05203434E-06
   73.5999985        -4.93035986E-06
   73.7300034        -4.81780853E-06
   73.8600006        -4.71674866E-06
   73.9899979        -4.62822436E-06
   74.1200027        -4.55171858E-06
   74.2500000        -4.48529909E-06
   74.3799973        -4.42613191E-06
   74.5100021        -4.37120343E-06
   74.6399994        -4.31808621E-06
   74.7699966        -4.26555653E-06
   74.9000015        -4.21390359E-06
   75.0299988        -4.16484772E-06
   75.1600037        -4.12111012E-06
   75.2900009        -4.08570077E-06
   75.4199982        -4.06115441E-06
   75.5500031        -4.04886669E-06
   75.6800003        -4.04872389E-06
   75.8099976        -4.05909486E-06
   75.9400024        -4.07720745E-06
   76.0699997        -4.09981521E-06
   76.1999969        -4.12396685E-06
   76.3300018        -4.14770921E-06
   76.4599991        -4.17052934E-06
   76.5899963        -4.19343587E-06
   76.7200012        -4.21865980E-06
   76.8499985        -4.24903601E-06
   76.9800034        -4.28723752E-06
   77.1100006        -4.33505102E-06
   77.2399979        -4.39286032E-06
   77.3700027        -4.45949399E-06
   77.5000000        -4.53245048E-06
   77.6299973        -4.60845922E-06
   77.7600021        -4.68423332E-06
   77.8899994        -4.75722072E-06
   78.0199966        -4.82616952E-06
   78.1500015        -4.89136482E-06
   78.2799988        -4.95447648E-06
   78.4100037        -5.01805653E-06
   78.5400009        -5.08481253E-06
   78.6699982        -5.15683860E-06
   78.8000031        -5.23500285E-06
   78.9300003        -5.31863907E-06
   79.0599976        -5.40562360E-06
   79.1900024        -5.49282049E-06
   79.3199997        -5.57677413E-06
   79.4499969        -5.65449091E-06
   79.5800018        -5.72409999E-06
   79.7099991        -5.78523350E-06
   79.8399963        -5.83902602E-06
   79.9700012        -5.88774310E-06
   80.0999985        -5.93411778E-06
   80.2300034        -5.98057977E-06
   80.3600006        -6.02855380E-06
   80.4899979        -6.07801576E-06
   80.6200027        -6.12740860E-06
   80.7500000        -6.17395290E-06