  -24.4200001       0.00000000    
  -24.2900009      -6.24105123E-09
  -24.1599998      -1.87131981E-08
  -24.0300007      -3.70201576E-08
  -23.8999996      -6.04202555E-08
  -23.7700005      -8.78961615E-08
  -23.6399994      -1.18247463E-07
  -23.5100002      -1.50198048E-07
  -23.3799992      -1.82509368E-07
  -23.2500000      -2.14089766E-07
  -23.1200008      -2.44090955E-07
  -22.9899998      -2.71983424E-07
  -22.8600006      -2.97604885E-07
  -22.7299995      -3.21177538E-07
  -22.6000004      -3.43293095E-07
  -22.4699993      -3.64866821E-07
  -22.3400002      -3.87064745E-07
  -22.2099991      -4.11210095E-07
  -22.0799999      -4.38676750E-07
  -21.9500008      -4.70778929E-07
  -21.8199997      -5.08666176E-07
  -21.6900005      -5.53232553E-07
  -21.5599995      -6.05048285E-07
  -21.4300003      -6.64318577E-07
  -21.2999992      -7.30874660E-07
  -21.1700001      -8.04197100E-07
  -21.0400009      -8.83469284E-07
  -20.9099998      -9.67657911E-07
  -20.7800007      -1.05561207E-06
  -20.6499996      -1.14617364E-06
  -20.5200005      -1.23828966E-06
  -20.3899994      -1.33111587E-06
  -20.2600002      -1.42410443E-06
  -20.1299992      -1.51706649E-06
  -20.0000000      -1.61020580E-06
  -19.8700008      -1.70411954E-06
  -19.7399998      -1.79976701E-06
  -19.6100006      -1.89840853E-06
  -19.4799995      -2.00152112E-06
  -19.3500004      -2.11069505E-06
  -19.2199993      -2.22752374E-06
  -19.0900002      -2.35349353E-06
  -18.9599991      -2.48988431E-06
  -18.8299999      -2.63768788E-06
  -18.7000008      -2.79755091E-06
  -18.5699997      -2.96974918E-06
  -18.4400005      -3.15419175E-06
  -18.3099995      -3.35045888E-06
  -18.1800003      -3.55786528E-06
  -18.0499992      -3.77554989E-06
  -17.9200001      -4.00257977E-06
  -17.7900009      -4.23805932E-06
  -17.6599998      -4.48124092E-06
  -17.5300007      -4.73162072E-06
  -17.3999996      -4.98901727E-06
  -17.2700005      -5.25362248E-06
  -17.1399994      -5.52602069E-06
  -17.0100002      -5.80717870E-06
  -16.8799992      -6.09840208E-06
  -16.7500000      -6.40126018E-06
  -16.6200008      -6.71749694E-06
  -16.4899998      -7.04892091E-06
  -16.3600006      -7.39729421E-06
  -16.2299995      -7.76422712E-06
  -16.1000004      -8.15108069E-06
  -15.9700003      -8.55890175E-06
  -15.8400002      -8.98837516E-06
  -15.7100000      -9.43981195E-06
  -15.5799999      -9.91317575E-06
  -15.4499998      -1.04081237E-05
  -15.3199997      -1.09240946E-05
  -15.1899996      -1.14603963E-05
  -15.0600004      -1.20163177E-05
  -14.9300003      -1.25912393E-05
  -14.8000002      -1.31847328E-05
  -14.6700001      -1.37966554E-05
  -14.5400000      -1.44272090E-05
  -14.4099998      -1.50769793E-05
  -14.2799997      -1.57469422E-05
  -14.1499996      -1.64384328E-05
  -14.0200005      -1.71530937E-05
  -13.8900003      -1.78927894E-05
  -13.7600002      -1.86595134E-05
  -13.6300001      -1.94552631E-05
  -13.5000000      -2.02819410E-05
  -13.3699999      -2.11412535E-05
  -13.2399998      -2.20346137E-05
  -13.1099997      -2.29630914E-05
  -12.9799995      -2.39273777E-05
  -12.8500004      -2.49277891E-05
  -12.7200003      -2.59642929E-05
  -12.5900002      -2.70365799E-05
  -12.4600000      -2.81441517E-05
  -12.3299999      -2.92864097E-05
  -12.1999998      -3.04627774E-05
  -12.0699997      -3.16728037E-05
  -11.9399996      -3.29162649E-05
  -11.8100004      -3.41932318E-05
  -11.6800003      -3.55041266E-05
  -11.5500002      -3.68497531E-05
  -11.4200001      -3.82312610E-05
  -11.2900000      -3.96501346E-05
  -11.1599998      -4.11080946E-05
  -11.0299997      -4.26070364E-05
  -10.8999996      -4.41488883E-05
  -10.7700005      -4.57355309E-05
  -10.6400003      -4.73686850E-05
  -10.5100002      -4.90497987E-05
  -10.3800001      -5.07799887E-05
  -10.2500000      -5.25599899E-05
  -10.1199999      -5.43901406E-05
  -9.98999977      -5.62703826E-05
  -9.85999966      -5.82003267E-05
  -9.72999954      -6.01793181E-05
  -9.60000038      -6.22065199E-05
  -9.47000027      -6.42810264E-05
  -9.34000015      -6.64019899E-05
  -9.21000004      -6.85686900E-05
  -9.07999992      -7.07806539E-05
  -8.94999981      -7.30377142E-05
  -8.81999969      -7.53400382E-05
  -8.68999958      -7.76881352E-05
  -8.56000042      -8.00828566E-05
  -8.43000031      -8.25253155E-05
  -8.30000019      -8.50167926E-05
  -8.17000008      -8.75586702E-05
  -8.03999996      -9.01523163E-05
  -7.90999985      -9.27989313E-05
  -7.78000021      -9.54995194E-05
  -7.65000010      -9.82547208E-05
  -7.51999998      -1.01064819E-04
  -7.38999987      -1.03929669E-04
  -7.26000023      -1.06848689E-04
  -7.13000011      -1.09820925E-04
  -7.00000000      -1.12845082E-04
  -6.86999989      -1.15919596E-04
  -6.73999977      -1.19042787E-04
  -6.61000013      -1.22212892E-04
  -6.48000002      -1.25428225E-04
  -6.34999990      -1.28687287E-04
  -6.21999979      -1.31988782E-04
  -6.09000015      -1.35331735E-04
  -5.96000004      -1.38715492E-04
  -5.82999992      -1.42139746E-04
  -5.69999981      -1.45604456E-04
  -5.57000017      -1.49109779E-04
  -5.44000006      -1.52656008E-04
  -5.30999994      -1.56243521E-04
  -5.17999983      -1.59872521E-04
  -5.05000019      -1.63543096E-04
  -4.92000008      -1.67255013E-04
  -4.78999996      -1.71007647E-04
  -4.65999985      -1.74800007E-04
  -4.53000021      -1.78630668E-04
  -4.40000010      -1.82497766E-04
  -4.26999998      -1.86399106E-04
  -4.13999987      -1.90332139E-04
  -4.01000023      -1.94294174E-04
  -3.88000011      -1.98282360E-04
  -3.75000000      -2.02293915E-04
  -3.61999989      -2.06326135E-04
  -3.49000001      -2.10376558E-04
  -3.35999990      -2.14442975E-04
  -3.23000002      -2.18523506E-04
  -3.09999990      -2.22616625E-04
  -2.97000003      -2.26721095E-04
  -2.83999991      -2.30835969E-04
  -2.71000004      -2.34960462E-04
  -2.57999992      -2.39093919E-04
  -2.45000005      -2.43235656E-04
  -2.31999993      -2.47384887E-04
  -2.19000006      -2.51540623E-04
  -2.05999994      -2.55701540E-04
  -1.92999995      -2.59865948E-04
  -1.79999995      -2.64031783E-04
  -1.66999996      -2.68196542E-04
  -1.53999996      -2.72357371E-04
  -1.40999997      -2.76511098E-04
  -1.27999997      -2.80654320E-04
  -1.14999998      -2.84783484E-04
  -1.01999998      -2.88895098E-04
 -0.889999986      -2.92985671E-04
 -0.759999990      -2.97051942E-04
 -0.629999995      -3.01090942E-04
 -0.500000000      -3.05100082E-04
 -0.370000005      -3.09077062E-04
 -0.239999995      -3.13019991E-04
 -0.109999999      -3.16927297E-04
   1.99999996E-02  -3.20797757E-04
  0.150000006      -3.24630208E-04
  0.280000001      -3.28423688E-04
  0.409999996      -3.32177209E-04
  0.540000021      -3.35889577E-04
  0.670000017      -3.39559483E-04
  0.800000012      -3.43185297E-04
  0.930000007      -3.46765068E-04
   1.05999994      -3.50296439E-04
   1.19000006      -3.53776762E-04
   1.32000005      -3.57203011E-04
   1.45000005      -3.60572070E-04
   1.58000004      -3.63880565E-04
   1.71000004      -3.67125118E-04
   1.84000003      -3.70302441E-04
   1.97000003      -3.73409450E-04
   2.09999990      -3.76443350E-04
   2.23000002      -3.79401667E-04
   2.35999990      -3.82282364E-04
   2.49000001      -3.85083782E-04
   2.61999989      -3.87804757E-04
   2.75000000      -3.90444358E-04
   2.88000011      -3.93002119E-04
   3.00999999      -3.95477517E-04
   3.14000010      -3.97870375E-04
   3.26999998      -4.00180317E-04
   3.40000010      -4.02406906E-04
   3.52999997      -4.04549501E-04
   3.66000009      -4.06607141E-04
   3.78999996      -4.08578635E-04
   3.92000008      -4.10462468E-04
   4.05000019      -4.12256748E-04
   4.17999983      -4.13959468E-04
   4.30999994      -4.15568356E-04
   4.44000006      -4.17081203E-04
   4.57000017      -4.18495765E-04
   4.69999981      -4.19809978E-04
   4.82999992      -4.21022036E-04
   4.96000004      -4.22130484E-04
   5.09000015      -4.23134275E-04
   5.21999979      -4.24032798E-04
   5.34999990      -4.24825790E-04
   5.48000002      -4.25513485E-04
   5.61000013      -4.26096492E-04
   5.73999977      -4.26575571E-04
   5.86999989      -4.26951767E-04
   6.00000000      -4.27226041E-04
   6.13000011      -4.27399355E-04
   6.26000023      -4.27472580E-04
   6.38999987      -4.27446270E-04
   6.51999998      -4.27320716E-04
   6.65000010      -4.27095918E-04
   6.78000021      -4.26771527E-04
   6.90999985      -4.26346960E-04
   7.03999996      -4.25821490E-04
   7.17000008      -4.25194157E-04
   7.30000019      -4.24464059E-04
   7.42999983      -4.23630438E-04
   7.55999994      -4.22692654E-04
   7.69000006      -4.21650388E-04
   7.82000017      -4.20503638E-04
   7.94999981      -4.19252989E-04
   8.07999992      -4.17899195E-04
   8.21000004      -4.16443625E-04
   8.34000015      -4.14887880E-04
   8.47000027      -4.13233967E-04
   8.60000038      -4.11484012E-04
   8.72999954      -4.09640255E-04
   8.85999966      -4.07704967E-04
   8.98999977      -4.05680243E-04
   9.11999989      -4.03568032E-04
   9.25000000      -4.01369965E-04
   9.38000011      -3.99087352E-04
   9.51000023      -3.96721240E-04
   9.64000034      -3.94272211E-04
   9.77000046      -3.91740759E-04
   9.89999962      -3.89127148E-04
   10.0299997      -3.86431493E-04
   10.1599998      -3.83653969E-04
   10.2900000      -3.80794838E-04
   10.4200001      -3.77854594E-04
   10.5500002      -3.74834053E-04
   10.6800003      -3.71734379E-04
   10.8100004      -3.68557114E-04
   10.9399996      -3.65304237E-04
   11.0699997      -3.61977989E-04
   11.1999998      -3.58581019E-04
   11.3299999      -3.55116121E-04
   11.4600000      -3.51586263E-04
   11.5900002      -3.47994384E-04
   11.7200003      -3.44343309E-04
   11.8500004      -3.40635772E-04
   11.9799995      -3.36874160E-04
   12.1099997      -3.33060481E-04
   12.2399998      -3.29196453E-04
   12.3699999      -3.25283501E-04
   12.5000000      -3.21322528E-04
   12.6300001      -3.17314378E-04
   12.7600002      -3.13259603E-04
   12.8900003      -3.09158728E-04
   13.0200005      -3.05012276E-04
   13.1499996      -3.00820917E-04
   13.2799997      -2.96585524E-04
   13.4099998      -2.92307319E-04
   13.5400000      -2.87987816E-04
   13.6700001      -2.83628935E-04
   13.8000002      -2.79232918E-04
   13.9300003      -2.74802354E-04
   14.0600004      -2.70340010E-04
   14.1899996      -2.65848910E-04
   14.3199997      -2.61332054E-04
   14.4499998      -2.56792351E-04
   14.5799999      -2.52232625E-04
   14.7100000      -2.47655436E-04
   14.8400002      -2.43062939E-04
   14.9700003      -2.38457025E-04
   15.1000004      -2.33839135E-04
   15.2299995      -2.29210375E-04
   15.3599997      -2.24571530E-04
   15.4899998      -2.19923168E-04
   15.6199999      -2.15265667E-04
   15.7500000      -2.10599392E-04
   15.8800001      -2.05924764E-04
   16.0100002      -2.01242336E-04
   16.1399994      -1.96552937E-04
   16.2700005      -1.91857675E-04
   16.3999996      -1.87158017E-04
   16.5300007      -1.82455784E-04
   16.6599998      -1.77753114E-04
   16.7900009      -1.73052424E-04
   16.9200001      -1.68356317E-04
   17.0499992      -1.63667457E-04
   17.1800003      -1.58988551E-04
   17.3099995      -1.54322188E-04
   17.4400005      -1.49670683E-04
   17.5699997      -1.45036116E-04
   17.7000008      -1.40420190E-04
   17.8299999      -1.35824201E-04
   17.9599991      -1.31249064E-04
   18.0900002      -1.26695377E-04
   18.2199993      -1.22163416E-04
   18.3500004      -1.17653268E-04
   18.4799995      -1.13164890E-04
   18.6100006      -1.08698267E-04
   18.7399998      -1.04253464E-04
   18.8700008      -9.98307514E-05
   19.0000000      -9.54306888E-05
   19.1299992      -9.10541348E-05
   19.2600002      -8.67022973E-05
   19.3899994      -8.23767405E-05
   19.5200005      -7.80793271E-05
   19.6499996      -7.38121234E-05
   19.7800007      -6.95773924E-05
   19.9099998      -6.53774041E-05
   20.0400009      -6.12143922E-05
   20.1700001      -5.70904303E-05
   20.2999992      -5.30073339E-05
   20.4300003      -4.89665981E-05
   20.5599995      -4.49693434E-05
   20.6900005      -4.10163193E-05
   20.8199997      -3.71078931E-05
   20.9500008      -3.32441123E-05
   21.0799999      -2.94247729E-05
   21.2099991      -2.56495059E-05
   21.3400002      -2.19178764E-05
   21.4699993      -1.82295062E-05
   21.6000004      -1.45841541E-05
   21.7299995      -1.09818138E-05
   21.8600006      -7.42278371E-06
   21.9899998      -3.90769037E-06
   22.1200008      -4.37510067E-07
   22.2500000       2.98646069E-06
   22.3799992       6.36265486E-06
   22.5100002       9.68931818E-06
   22.6399994       1.29645878E-05
   22.7700005       1.61866083E-05
   22.8999996       1.93536325E-05
   23.0300007       2.24641171E-05
   23.1599998       2.55168034E-05
   23.2900009       2.85107781E-05
   23.4200001       3.14454992E-05
   23.5499992       3.43208048E-05
   23.6800003       3.71368878E-05
   23.8099995       3.98942175E-05
   23.9400005       4.25934959E-05
   24.0699997       4.52355234E-05
   24.2000008       4.78211296E-05
   24.3299999       5.03510419E-05
   24.4599991       5.28258061E-05
   24.5900002       5.52457059E-05
   24.7199993       5.76106868E-05
   24.8500004       5.99203668E-05
   24.9799995       6.21740328E-05
   25.1100006       6.43706298E-05
   25.2399998       6.65089101E-05
   25.3700008       6.85874184E-05
   25.5000000       7.06046703E-05
   25.6299992       7.25592108E-05
   25.7600002       7.44497447E-05
   25.8899994       7.62751952E-05
   26.0200005       7.80348273E-05
   26.1499996       7.97282337E-05
   26.2800007       8.13554070E-05
   26.4099998       8.29166747E-05
   26.5400009       8.44127062E-05
   26.6700001       8.58444182E-05
   26.7999992       8.72129021E-05
   26.9300003       8.85192931E-05
   27.0599995       8.97646969E-05
   27.1900005       9.09500959E-05
   27.3199997       9.20762468E-05
   27.4500008       9.31436007E-05
   27.5799999       9.41522958E-05
   27.7099991       9.51021066E-05
   27.8400002       9.59925019E-05
   27.9699993       9.68226595E-05
   28.1000004       9.75915682E-05
   28.2299995       9.82980710E-05
   28.3600006       9.89410473E-05
   28.4899998       9.95194277E-05
   28.6200008       1.00032354E-04
   28.7500000       1.00479243E-04
   28.8799992       1.00859863E-04
   29.0100002       1.01174337E-04
   29.1399994       1.01423175E-04
   29.2700005       1.01607249E-04
   29.3999996       1.01727725E-04
   29.5300007       1.01785990E-04
   29.6599998       1.01783568E-04
   29.7900009       1.01722006E-04
   29.9200001       1.01602767E-04
   30.0499992       1.01427155E-04
   30.1800003       1.01196209E-04
   30.3099995       1.00910685E-04
   30.4400005       1.00570993E-04
   30.5699997       1.00177218E-04
   30.7000008       9.97291427E-05
   30.8299999       9.92263231E-05
   30.9599991       9.86681407E-05
   31.0900002       9.80539335E-05
   31.2199993       9.73830756E-05
   31.3500004       9.66550651E-05
   31.4799995       9.58696546E-05
   31.6100006       9.50268950E-05
   31.7399998       9.41271937E-05
   31.8700008       9.31713294E-05
   32.0000000       9.21604660E-05
   32.1300011       9.10960953E-05
   32.2599983       8.99799925E-05
   32.3899994       8.88141003E-05
   32.5200005       8.76004488E-05
   32.6500015       8.63410605E-05
   32.7799988       8.50378419E-05
   32.9099998       8.36924883E-05
   33.0400009       8.23064183E-05
   33.1699982       8.08807381E-05
   33.2999992       7.94162261E-05
   33.4300003       7.79133188E-05
   33.5600014       7.63722201E-05
   33.6899986       7.47928934E-05
   33.8199997       7.31752152E-05
   33.9500008       7.15190254E-05
   34.0800018       6.98242511E-05
   34.2099991       6.80910234E-05
   34.3400002       6.63197206E-05
   34.4700012       6.45110413E-05
   34.5999985       6.26660694E-05
   34.7299995       6.07862348E-05
   34.8600006       5.88733419E-05
   34.9900017       5.69294716E-05
   35.1199989       5.49569522E-05
   35.2500000       5.29582321E-05
   35.3800011       5.09357960E-05
   35.5099983       4.88920668E-05
   35.6399994       4.68292965E-05
   35.7700005       4.47494931E-05
   35.9000015       4.26543629E-05
   36.0299988       4.05452665E-05
   36.1599998       3.84232299E-05
   36.2900009       3.62889696E-05
   36.4199982       3.41429259E-05
   36.5499992       3.19853862E-05
   36.6800003       2.98165287E-05
   36.8100014       2.76365517E-05
   36.9399986       2.54457755E-05
   37.0699997       2.32447128E-05
   37.2000008       2.10341714E-05
   37.3300018       1.88152771E-05
   37.4599991       1.65895199E-05
   37.5900002       1.43587367E-05
   37.7200012       1.21250714E-05
   37.8499985       9.89092314E-06
   37.9799995       7.65885488E-06
   38.1100006       5.43149645E-06
   38.2400017       3.21145603E-06
   38.3699989       1.00119678E-06
   38.5000000      -1.19702122E-06
   38.6300011      -3.38124823E-06
   38.7599983      -5.54985763E-06
   38.8899994      -7.70158931E-06
   39.0200005      -9.83553491E-06
   39.1500015      -1.19510896E-05
   39.2799988      -1.40478996E-05
   39.4099998      -1.61257758E-05
   39.5400009      -1.81845917E-05
   39.6699982      -2.02241863E-05
   39.7999992      -2.22442795E-05
   39.9300003      -2.42443621E-05
   40.0600014      -2.62236626E-05
   40.1899986      -2.81810771E-05
   40.3199997      -3.01151758E-05
   40.4500008      -3.20242325E-05
   40.5800018      -3.39062426E-05
   40.7099991      -3.57590288E-05
   40.8400002      -3.75803138E-05
   40.9700012      -3.93678129E-05
   41.0999985      -4.11193396E-05
   41.2299995      -4.28329186E-05
   41.3600006      -4.45068617E-05
   41.4900017      -4.61397904E-05
   41.6199989      -4.77307331E-05
   41.7500000      -4.92790787E-05
   41.8800011      -5.07845580E-05
   42.0099983      -5.22472328E-05
   42.1399994      -5.36673615E-05
   42.2700005      -5.50453587E-05
   42.4000015      -5.63816684E-05
   42.5299988      -5.76766906E-05
   42.6599998      -5.89306692E-05
   42.7900009      -6.01436150E-05
   42.9199982      -6.13152733E-05
   43.0499992      -6.24450622E-05
   43.1800003      -6.35321267E-05
   43.3100014      -6.45753171E-05
   43.4399986      -6.55732656E-05
   43.5699997      -6.65244806E-05
   43.7000008      -6.74274270E-05
   43.8300018      -6.82806203E-05
   43.9599991      -6.90827292E-05
   44.0900002      -6.98326839E-05
   44.2200012      -7.05297352E-05
   44.3499985      -7.11734901E-05
   44.4799995      -7.17639559E-05
   44.6100006      -7.23014964E-05
   44.7400017      -7.27868464E-05
   44.8699989      -7.32210101E-05
   45.0000000      -7.36051807E-05
   45.1300011      -7.39406678E-05
   45.2599983      -7.42287666E-05
   45.3899994      -7.44706849E-05
   45.5200005      -7.46674559E-05
   45.6500015      -7.48198436E-05
   45.7799988      -7.49283354E-05
   45.9099998      -7.49931132E-05
   46.0400009      -7.50140753E-05
   46.1699982      -7.49908577E-05
   46.2999992      -7.49229221E-05
   46.4300003      -7.48096136E-05
   46.5600014      -7.46502992E-05
   46.6899986      -7.44444114E-05
   46.8199997      -7.41915792E-05
   46.9500008      -7.38917079E-05
   47.0800018      -7.35450085E-05
   47.2099991      -7.31520777E-05
   47.3400002      -7.27138759E-05
   47.4700012      -7.22317127E-05
   47.5999985      -7.17071962E-05
   47.7299995      -7.11421744E-05
   47.8600006      -7.05386192E-05
   47.9900017      -6.98985605E-05
   48.1199989      -6.92239555E-05
   48.2500000      -6.85166160E-05
   48.3800011      -6.77781209E-05
   48.5099983      -6.70097506E-05
   48.6399994      -6.62124876E-05
   48.7700005      -6.53869720E-05
   48.9000015      -6.45335604E-05
   49.0299988      -6.36523619E-05
   49.1599998      -6.27433255E-05
   49.2900009      -6.18063132E-05
   49.4199982      -6.08412156E-05
   49.5499992      -5.98480256E-05
   49.6800003      -5.88269468E-05
   49.8100014      -5.77784485E-05
   49.9399986      -5.67033312E-05
   50.0699997      -5.56027298E-05
   50.2000008      -5.44781215E-05
   50.3300018      -5.33312850E-05
   50.4599991      -5.21642432E-05
   50.5900002      -5.09791898E-05
   50.7200012      -4.97783913E-05
   50.8499985      -4.85640812E-05
   50.9799995      -4.73383770E-05
   51.1100006      -4.61031777E-05
   51.2400017      -4.48600986E-05
   51.3699989      -4.36104347E-05
   51.5000000      -4.23551355E-05
   51.6300011      -4.10948014E-05
   51.7599983      -3.98297525E-05
   51.8899994      -3.85600615E-05
   52.0200005      -3.72856448E-05
   52.1500015      -3.60063750E-05
   52.2799988      -3.47221503E-05
   52.4099998      -3.34330070E-05
   52.5400009      -3.21391963E-05
   52.6699982      -3.08412382E-05
   52.7999992      -2.95399659E-05
   52.9300003      -2.82365436E-05
   53.0600014      -2.69324282E-05
   53.1899986      -2.56293424E-05
   53.3199997      -2.43291906E-05
   53.4500008      -2.30339901E-05
   53.5800018      -2.17457582E-05
   53.7099991      -2.04664248E-05
   53.8400002      -1.91977397E-05
   53.9700012      -1.79411909E-05
   54.0999985      -1.66979535E-05
   54.2299995      -1.54688460E-05
   54.3600006      -1.42543331E-05
   54.4900017      -1.30545377E-05
   54.6199989      -1.18693024E-05
   54.7500000      -1.06982516E-05
   54.8800011      -9.54088136E-06
   55.0099983      -8.39665790E-06
   55.1399994      -7.26510825E-06
   55.2700005      -6.14591863E-06
   55.4000015      -5.03900173E-06
   55.5299988      -3.94455128E-06
   55.6599998      -2.86307386E-06
   55.7900009      -1.79537790E-06
   55.9199982      -7.42553311E-07
   56.0499992       2.94087755E-07
   56.1800003       1.31308946E-06
   56.3100014       2.31294052E-06
   56.4399986       3.29217141E-06
   56.5699997       4.24944528E-06
   56.7000008       5.18364732E-06
   56.8300018       6.09395784E-06
   56.9599991       6.97988526E-06
   57.0900002       7.84129770E-06
   57.2200012       8.67840936E-06
   57.3499985       9.49174319E-06
   57.4799995       1.02820813E-05
   57.6100006       1.10503743E-05
   57.7400017       1.17976570E-05
   57.8699989       1.25249462E-05
   58.0000000       1.32331552E-05
   58.1300011       1.39230042E-05
   58.2599983       1.45949543E-05
   58.3899994       1.52491657E-05
   58.5200005       1.58854909E-05
   58.6500015       1.65034780E-05
   58.7799988       1.71024130E-05
   58.9099998       1.76813846E-05
   59.0400009       1.82393724E-05
   59.1699982       1.87753285E-05
   59.2999992       1.92882817E-05
   59.4300003       1.97774261E-05
   59.5600014       2.02422034E-05
   59.6899986       2.06823606E-05
   59.8199997       2.10979815E-05
   59.9500008       2.14894990E-05
   60.0800018       2.18576624E-05
   60.2099991       2.22034996E-05
   60.3400002       2.25282438E-05
   60.4700012       2.28332483E-05
   60.5999985       2.31198901E-05
   60.7299995       2.33894698E-05
   60.8600006       2.36431297E-05
   60.9900017       2.38817684E-05
   61.1199989       2.41060006E-05
   61.2500000       2.43161139E-05
   61.3800011       2.45120773E-05
   61.5099983       2.46935542E-05
   61.6399994       2.48599645E-05
   61.7700005       2.50105477E-05
   61.9000015       2.51444635E-05
   62.0299988       2.52608661E-05
   62.1599998       2.53590097E-05
   62.2900009       2.54383394E-05
   62.4199982       2.54985553E-05
   62.5499992       2.55396626E-05
   62.6800003       2.55619980E-05
   62.8100014       2.55662253E-05
   62.9399986       2.55532996E-05
   63.0699997       2.55244086E-05
   63.2000008       2.54809056E-05
   63.3300018       2.54242150E-05
   63.4599991       2.53557282E-05
   63.5900002       2.52767204E-05
   63.7200012       2.51882630E-05
   63.8499985       2.50911617E-05
   63.9799995       2.49859058E-05
   64.1100006       2.48726610E-05
   64.2399979       2.47512762E-05
   64.3700027       2.46213185E-05
   64.5000000       2.44821404E-05
   64.6299973       2.43329578E-05
   64.7600021       2.41729304E-05
   64.8899994       2.40012741E-05
   65.0199966       2.38173307E-05
   65.1500015       2.36206615E-05
   65.2799988       2.34110958E-05
   65.4100037       2.31887789E-05
   65.5400009       2.29541747E-05
   65.6699982       2.27080527E-05
   65.8000031       2.24514461E-05
   65.9300003       2.21855807E-05
   66.0599976       2.19118010E-05
   66.1900024       2.16314766E-05
   66.3199997       2.13458989E-05
   66.4499969       2.10562011E-05
   66.5800018       2.07632747E-05
   66.7099991       2.04677217E-05
   66.8399963       2.01698113E-05
   66.9700012       1.98694870E-05
   67.0999985       1.95663815E-05
   67.2300034       1.92598654E-05
   67.3600006       1.89491202E-05
   67.4899979       1.86332290E-05
   67.6200027       1.83112570E-05
   67.7500000       1.79823601E-05
   67.8799973       1.76458561E-05
   68.0100021       1.73013086E-05
   68.1399994       1.69485756E-05
   68.2699966       1.65878264E-05
   68.4000015       1.62195483E-05
   68.5299988       1.58445182E-05
   68.6600037       1.54637473E-05
   68.7900009       1.50784099E-05
   68.9199982       1.46897582E-05
   69.0500031       1.42990320E-05
   69.1800003       1.39073609E-05
   69.3099976       1.35156897E-05
   69.4400024       1.31247052E-05
   69.5699997       1.27347939E-05
   69.6999969       1.23460213E-05
   69.8300018       1.19581373E-05
   69.9599991       1.15706125E-05
   70.0899963       1.11826921E-05
   70.2200012       1.07934775E-05
   70.3499985       1.04020073E-05
   70.4800034       1.00073639E-05
   70.6100006       9.60875059E-06
   70.7399979       9.20558705E-06
   70.8700027       8.79755953E-06
   71.0000000       8.38466804E-06
   71.1299973       7.96723907E-06
   71.2600021       7.54591429E-06
   71.3899994       7.12159908E-06
   71.5199966       6.69541578E-06
   71.6500015       6.26861447E-06
   71.7799988       5.84248255E-06
   71.9100037       5.41825557E-06
   72.0400009       4.99702446E-06
   72.1699982       4.57966644E-06
   72.3000031       4.16678222E-06
   72.4300003       3.75866421E-06
   72.5599976       3.35528307E-06
   72.6900024       2.95631457E-06
   72.8199997       2.56117937E-06
   72.9499969       2.16910917E-06
   73.0800018       1.77922527E-06
   73.2099991       1.39063252E-06
   73.3399963       1.00250190E-06
   73.4700012       6.14171995E-07
   73.5999985       2.25206406E-07
   73.7300034      -1.64543579E-07
   73.8600006      -5.54914493E-07
   73.9899979      -9.45427530E-07
   74.1200027      -1.33531375E-06
   74.2500000      -1.72355840E-06
   74.3799973      -2.10897724E-06
   74.5100021      -2.49030086E-06
   74.6399994      -2.86626641E-06
   74.7699966      -3.23570680E-06
   74.9000015      -3.59763953E-06
   75.0299988      -3.95132884E-06
   75.1600037      -4.29633701E-06
   75.2900009      -4.63254401E-06
   75.4199982      -4.96014445E-06
   75.5500031      -5.27961856E-06
   75.6800003      -5.59167393E-06
   75.8099976      -5.89717001E-06
   75.9400024      -6.19703997E-06
   76.0699997      -6.49219601E-06
   76.1999969      -6.78343167E-06
   76.3300018      -7.07135860E-06
   76.4599991      -7.35632648E-06
   76.5899963      -7.63839398E-06
   76.7200012      -7.91730599E-06
   76.8499985      -8.19249999E-06
   76.9800034      -8.46314651E-06
   77.1100006      -8.72820146E-06
   77.2399979      -8.98648977E-06
   77.3700027      -9.23678454E-06
   77.5000000      -9.47790340E-06
   77.6299973      -9.70880046E-06
   77.7600021      -9.92863352E-06
   77.8899994      -1.01368350E-05
   78.0199966      -1.03331486E-05
   78.1500015      -1.05176350E-05
   78.2799988      -1.06906618E-05
   78.4100037      -1.08528611E-05
   78.5400009      -1.10050669E-05
   78.6699982      -1.11482368E-05
   78.8000031      -1.12833586E-05
   78.9300003      -1.14113600E-05
   79.0599976      -1.15330313E-05
   79.1900024      -1.16489382E-05
   79.3199997      -1.17593800E-05
   79.4499969      -1.18643529E-05
   79.5800018      -1.19635488E-05
   79.7099991      -1.20563727E-05
   79.8399963      -1.21419935E-05
   79.9700012      -1.22194060E-05
   80.0999985      -1.22875181E-05
   80.2300034      -1.23452328E-05
   80.3600006      -1.23915452E-05
   80.4899979      -1.24256194E-05
   80.6200027      -1.24468652E-05
   80.7500000      -1.24549797E-05
   80.8799973      -1.24499775E-05
   81.0100021      -1.24321932E-05
   81.1399994      -1.24022536E-05
   81.2699966      -1.23610253E-05
   81.4000015      -1.23095460E-05
   81.5299988      -1.22489464E-05
   81.6600037      -1.21803487E-05
   81.7900009      -1.21047879E-05
   81.9199982      -1.20231216E-05
   82.0500031      -1.19359720E-05
   82.1800003      -1.18436747E-05
   82.3099976      -1.17462641E-05
   82.4400024      -1.16434740E-05
   82.5699997      -1.15347748E-05
   82.6999969      -1.14194299E-05
   82.8300018      -1.12965627E-05
   82.9599991      -1.11652507E-05
   83.0899963      -1.10246083E-05
   83.2200012      -1.08738768E-05
   83.3499985      -1.07124997E-05
   83.4800034      -1.05401850E-05
   83.6100006      -1.03569355E-05
   83.7399979      -1.01630694E-05
   83.8700027      -9.95920618E-06
   84.0000000      -9.74622253E-06
   84.1299973      -9.52520168E-06
   84.2600021      -9.29735234E-06
   84.3899994      -9.06392233E-06
   84.5199966      -8.82611221E-06
   84.6500015      -8.58498970E-06
   84.7799988      -8.34141247E-06
   84.9100037      -8.09597168E-06
   85.0400009      -7.84896383E-06
   85.1699982      -7.60037574E-06
   85.3000031      -7.34990272E-06
   85.4300003      -7.09699316E-06
   85.5599976      -6.84091356E-06
   85.6900024      -6.58081717E-06
   85.8199997      -6.31584680E-06
   85.9499969      -6.04521119E-06
   86.0800018      -5.76827688E-06
   86.2099991      -5.48463413E-06
   86.3399963      -5.19415289E-06
   86.4700012      -4.89700324E-06
   86.5999985      -4.59366402E-06
   86.7300034      -4.28489102E-06
   86.8600006      -3.97167560E-06