  -24.4200001        -3.11570172E-18
  -24.2870007        -9.40249745E-09
  -24.1539993        -2.68804907E-08
  -24.0209999        -4.95601640E-08
  -23.8880005        -7.37902255E-08
  -23.7549992        -9.61053743E-08
  -23.6219997        -1.14131424E-07
  -23.4890003        -1.27195335E-07
  -23.3560009        -1.36481773E-07
  -23.2229996        -1.44697196E-07
  -23.0900002        -1.55332188E-07
  -22.9570007        -1.71718696E-07
  -22.8239994        -1.96131793E-07
  -22.6910000        -2.29174134E-07
  -22.5580006        -2.69606005E-07
  -22.4249992        -3.14666380E-07
  -22.2919998        -3.60801124E-07
  -22.1590004        -4.04606538E-07
  -22.0259991        -4.43740419E-07
  -21.8929996        -4.77560775E-07
  -21.7600002        -5.07323534E-07
  -21.6270008        -5.35886841E-07
  -21.4939995        -5.66999347E-07
  -21.3610001        -6.04357638E-07
  -21.2280006        -6.50680818E-07
  -21.0949993        -7.07044251E-07
  -20.9619999        -7.72646388E-07
  -20.8290005        -8.45070531E-07
  -20.6959991        -9.20971274E-07
  -20.5629997        -9.97005714E-07
  -20.4300003        -1.07076391E-06
  -20.2970009        -1.14145416E-06
  -20.1639996        -1.21016217E-06
  -20.0310001        -1.27961630E-06
  -19.8980007        -1.35352150E-06
  -19.7649994        -1.43563443E-06
  -19.6320000        -1.52882683E-06
  -19.4990005        -1.63438108E-06
  -19.3659992        -1.75170555E-06
  -19.2329998        -1.87854471E-06
  -19.1000004        -2.01162857E-06
  -18.9669991        -2.14759189E-06
  -18.8339996        -2.28392150E-06
  -18.7010002        -2.41968087E-06
  -18.5680008        -2.55582495E-06
  -18.4349995        -2.69501879E-06
  -18.3020000        -2.84100906E-06
  -18.1690006        -2.99771591E-06
  -18.0359993        -3.16828164E-06
  -17.9029999        -3.35432878E-06
  -17.7700005        -3.55561883E-06
  -17.6369991        -3.77020842E-06
  -17.5039997        -3.99505325E-06
  -17.3710003        -4.22690709E-06
  -17.2380009        -4.46327567E-06
  -17.1049995        -4.70317354E-06
  -16.9720001        -4.94748974E-06
  -16.8390007        -5.19886134E-06
  -16.7059994        -5.46108777E-06
  -16.5730000        -5.73824582E-06
  -16.4400005        -6.03373201E-06
  -16.3069992        -6.34948901E-06
  -16.1739998        -6.68561233E-06
  -16.0410004        -7.04045124E-06
  -15.9080000        -7.41116992E-06
  -15.7749996        -7.79461880E-06
  -15.6420002        -8.18829994E-06
  -15.5089998        -8.59115698E-06
  -15.3760004        -9.00399209E-06
  -15.2430000        -9.42939641E-06
  -15.1099997        -9.87121803E-06
  -14.9770002        -1.03336888E-05
  -14.8439999        -1.08204658E-05
  -14.7110004        -1.13338147E-05
  -14.5780001        -1.18741655E-05
  -14.4449997        -1.24401467E-05
  -14.3120003        -1.30290910E-05
  -14.1789999        -1.36378949E-05
  -14.0459995        -1.42639728E-05
  -13.9130001        -1.49060934E-05
  -13.7799997        -1.55648468E-05
  -13.6470003        -1.62426404E-05
  -13.5139999        -1.69432187E-05
  -13.3809996        -1.76708236E-05
  -13.2480001        -1.84292330E-05
  -13.1149998        -1.92209263E-05
  -12.9820004        -2.00465802E-05
  -12.8490000        -2.09050595E-05
  -12.7159996        -2.17938668E-05
  -12.5830002        -2.27099754E-05
  -12.4499998        -2.36507803E-05
  -12.3170004        -2.46149557E-05
  -12.1840000        -2.56029725E-05
  -12.0509996        -2.66171319E-05
  -11.9180002        -2.76611390E-05
  -11.7849998        -2.87392832E-05
  -11.6520004        -2.98554751E-05
  -11.5190001        -3.10123869E-05
  -11.3859997        -3.22109008E-05
  -11.2530003        -3.34500401E-05
  -11.1199999        -3.47273708E-05
  -10.9870005        -3.60398008E-05
  -10.8540001        -3.73845432E-05
  -10.7209997        -3.87599684E-05
  -10.5880003        -4.01661928E-05
  -10.4549999        -4.16051626E-05
  -10.3219995        -4.30802756E-05
  -10.1890001        -4.45955993E-05
  -10.0559998        -4.61549353E-05
  -9.92300034        -4.77609101E-05
  -9.78999996        -4.94143860E-05
  -9.65699959        -5.11143444E-05
  -9.52400017        -5.28582386E-05
  -9.39099979        -5.46427545E-05
  -9.25800037        -5.64647489E-05
  -9.12500000        -5.83221372E-05
  -8.99199963        -6.02145374E-05
  -8.85900021        -6.21433937E-05
  -8.72599983        -6.41116567E-05
  -8.59300041        -6.61230661E-05
  -8.46000004        -6.81811580E-05
  -8.32699966        -7.02883990E-05
  -8.19400024        -7.24455022E-05
  -8.06099987        -7.46512815E-05
  -7.92799997        -7.69029430E-05
  -7.79500008        -7.91967686E-05
  -7.66200018        -8.15291060E-05
  -7.52899981        -8.38972774E-05
  -7.39599991        -8.63001842E-05
  -7.26300001        -8.87386050E-05
  -7.13000011        -9.12148171E-05
  -6.99700022        -9.37320074E-05
  -6.86399984        -9.62932536E-05
  -6.73099995        -9.89006148E-05
  -6.59800005        -1.01554477E-04
  -6.46500015        -1.04253297E-04
  -6.33199978        -1.06993823E-04
  -6.19899988        -1.09771834E-04
  -6.06599998        -1.12583039E-04
  -5.93300009        -1.15424016E-04
  -5.80000019        -1.18292890E-04
  -5.66699982        -1.21189638E-04
  -5.53399992        -1.24115846E-04
  -5.40100002        -1.27074047E-04
  -5.26800013        -1.30066823E-04
  -5.13500023        -1.33095833E-04
  -5.00199986        -1.36161150E-04
  -4.86899996        -1.39260868E-04
  -4.73600006        -1.42391393E-04
  -4.60300016        -1.45548038E-04
  -4.46999979        -1.48725943E-04
  -4.33699989        -1.51920991E-04
  -4.20400000        -1.55130561E-04
  -4.07100010        -1.58353898E-04
  -3.93799996        -1.61591845E-04
  -3.80500007        -1.64846322E-04
  -3.67199993        -1.68119383E-04
  -3.53900003        -1.71412277E-04
  -3.40599990        -1.74724701E-04
  -3.27300000        -1.78054441E-04
  -3.14000010        -1.81397525E-04
  -3.00699997        -1.84748773E-04
  -2.87400007        -1.88102742E-04
  -2.74099994        -1.91454659E-04
  -2.60800004        -1.94801207E-04
  -2.47499990        -1.98140842E-04
  -2.34200001        -2.01473784E-04
  -2.20900011        -2.04801385E-04
  -2.07599998        -2.08125261E-04
  -1.94299996        -2.11446357E-04
  -1.80999994        -2.14764121E-04
  -1.67700005        -2.18076137E-04
  -1.54400003        -2.21378185E-04
  -1.41100001        -2.24664793E-04
  -1.27800000        -2.27930126E-04
  -1.14499998        -2.31168888E-04
  -1.01199996        -2.34377265E-04
 -0.879000008        -2.37553191E-04
 -0.745999992        -2.40696390E-04
 -0.612999976        -2.43807866E-04
 -0.479999989        -2.46889016E-04
 -0.347000003        -2.49940669E-04
 -0.214000002        -2.52962316E-04
  -8.10000002E-02    -2.55951600E-04
   5.20000011E-02    -2.58904329E-04
  0.185000002        -2.61815090E-04
  0.317999989        -2.64677976E-04
  0.451000005        -2.67487630E-04
  0.583999991        -2.70240125E-04
  0.717000008        -2.72933248E-04
  0.850000024        -2.75566679E-04
  0.982999980        -2.78141495E-04
   1.11600006        -2.80659355E-04
   1.24899995        -2.83121393E-04
   1.38199997        -2.85527582E-04
   1.51499999        -2.87876057E-04
   1.64800000        -2.90163181E-04
   1.78100002        -2.92383949E-04
   1.91400003        -2.94532831E-04
   2.04699993        -2.96604616E-04
   2.18000007        -2.98595522E-04
   2.31299996        -3.00503511E-04
   2.44600010        -3.02328379E-04
   2.57900000        -3.04071495E-04
   2.71199989        -3.05734808E-04
   2.84500003        -3.07320006E-04
   2.97799993        -3.08827643E-04
   3.11100006        -3.10256524E-04
   3.24399996        -3.11603653E-04
   3.37700009        -3.12864635E-04
   3.50999999        -3.14034463E-04
   3.64299989        -3.15108453E-04
   3.77600002        -3.16083198E-04
   3.90899992        -3.16957099E-04
   4.04199982        -3.17730417E-04
   4.17500019        -3.18405073E-04
   4.30800009        -3.18983744E-04
   4.44099998        -3.19468993E-04
   4.57399988        -3.19862243E-04
   4.70699978        -3.20163381E-04
   4.84000015        -3.20370425E-04
   4.97300005        -3.20480030E-04
   5.10599995        -3.20488034E-04
   5.23899984        -3.20390594E-04
   5.37200022        -3.20185005E-04
   5.50500011        -3.19870276E-04
   5.63800001        -3.19447485E-04
   5.77099991        -3.18919221E-04
   5.90399981        -3.18289036E-04
   6.03700018        -3.17560363E-04
   6.17000008        -3.16735794E-04
   6.30299997        -3.15816142E-04
   6.43599987        -3.14800534E-04
   6.56899977        -3.13686614E-04
   6.70200014        -3.12471064E-04
   6.83500004        -3.11150914E-04
   6.96799994        -3.09724011E-04
   7.10099983        -3.08190152E-04
   7.23400021        -3.06550879E-04
   7.36700010        -3.04809597E-04
   7.50000000        -3.02970497E-04
   7.63299990        -3.01038031E-04
   7.76599979        -2.99015606E-04
   7.89900017        -2.96905171E-04
   8.03199959        -2.94706813E-04
   8.16499996        -2.92419078E-04
   8.29800034        -2.90039607E-04
   8.43099976        -2.87566043E-04
   8.56400013        -2.84996931E-04
   8.69699955        -2.82332592E-04
   8.82999992        -2.79575179E-04
   8.96300030        -2.76728621E-04
   9.09599972        -2.73797981E-04
   9.22900009        -2.70788412E-04
   9.36200047        -2.67704338E-04
   9.49499989        -2.64548638E-04
   9.62800026        -2.61322391E-04
   9.76099968        -2.58025044E-04
   9.89400005        -2.54655024E-04
   10.0270004        -2.51210673E-04
   10.1599998        -2.47691147E-04
   10.2930002        -2.44097217E-04
   10.4259996        -2.40431516E-04
   10.5590000        -2.36698441E-04
   10.6920004        -2.32903563E-04
   10.8249998        -2.29052675E-04
   10.9580002        -2.25150885E-04
   11.0909996        -2.21201801E-04
   11.2240000        -2.17207184E-04
   11.3570004        -2.13167106E-04
   11.4899998        -2.09080506E-04
   11.6230001        -2.04946075E-04
   11.7559996        -2.00763228E-04
   11.8889999        -1.96532885E-04
   12.0220003        -1.92257823E-04
   12.1549997        -1.87942642E-04
   12.2880001        -1.83593089E-04
   12.4209995        -1.79215349E-04
   12.5539999        -1.74814952E-04
   12.6870003        -1.70396001E-04
   12.8199997        -1.65960824E-04
   12.9530001        -1.61509932E-04
   13.0860004        -1.57042668E-04
   13.2189999        -1.52557972E-04
   13.3520002        -1.48055333E-04
   13.4849997        -1.43535697E-04
   13.6180000        -1.39001801E-04
   13.7510004        -1.34458169E-04
   13.8839998        -1.29910637E-04
   14.0170002        -1.25365434E-04
   14.1499996        -1.20828256E-04
   14.2830000        -1.16303454E-04
   14.4160004        -1.11793546E-04
   14.5489998        -1.07299238E-04
   14.6820002        -1.02819882E-04
   14.8149996        -9.83543287E-05
   14.9480000        -9.39019228E-05
   15.0810003        -8.94632612E-05
   15.2139997        -8.50407596E-05
   15.3470001        -8.06386161E-05
   15.4799995        -7.62623604E-05
   15.6129999        -7.19180534E-05
   15.7460003        -6.76112977E-05
   15.8789997        -6.33463933E-05
   16.0119991        -5.91258213E-05
   16.1450005        -5.49502038E-05
   16.2779999        -5.08187222E-05
   16.4109993        -4.67299433E-05
   16.5440006        -4.26827901E-05
   16.6770000        -3.86773863E-05
   16.8099995        -3.47155874E-05
   16.9430008        -3.08010713E-05
   17.0760002        -2.69389075E-05
   17.2089996        -2.31347713E-05
   17.3419991        -1.93939813E-05
   17.4750004        -1.57206232E-05
   17.6079998        -1.21169724E-05
   17.7409992        -8.58339263E-06
   17.8740005        -5.11874487E-06
   18.0070000        -1.72112357E-06
   18.1399994         1.61117748E-06
   18.2730007         4.87876105E-06
   18.4060001         8.08056029E-06
   18.5389996         1.12136950E-05
   18.6720009         1.42738609E-05
   18.8050003         1.72560631E-05
   18.9379997         2.01555631E-05
   19.0709991         2.29687867E-05
   19.2040005         2.56939275E-05
   19.3369999         2.83311001E-05
   19.4699993         3.08820236E-05
   19.6030006         3.33492790E-05
   19.7360001         3.57353383E-05
   19.8689995         3.80417077E-05
   20.0020008         4.02682599E-05
   20.1350002         4.24130558E-05
   20.2679996         4.44726575E-05
   20.4009991         4.64428413E-05
   20.5340004         4.83195363E-05
   20.6669998         5.00997448E-05
   20.7999992         5.17822118E-05
   20.9330006         5.33676139E-05
   21.0660000         5.48583012E-05
   21.1989994         5.62575951E-05
   21.3320007         5.75688282E-05
   21.4650002         5.87944705E-05
   21.5979996         5.99354025E-05
   21.7310009         6.09906856E-05
   21.8640003         6.19578423E-05
   21.9969997         6.28335038E-05
   22.1299992         6.36143523E-05
   22.2630005         6.42980667E-05
   22.3959999         6.48839850E-05
   22.5289993         6.53733950E-05
   22.6620007         6.57693163E-05
   22.7950001         6.60758233E-05
   22.9279995         6.62971215E-05
   23.0610008         6.64366453E-05
   23.1940002         6.64962936E-05
   23.3269997         6.64761756E-05
   23.4599991         6.63747633E-05
   23.5930004         6.61895829E-05
   23.7259998         6.59180732E-05
   23.8589993         6.55585391E-05
   23.9920006         6.51108858E-05
   24.1250000         6.45769323E-05
   24.2579994         6.39602367E-05
   24.3910007         6.32654992E-05
   24.5240002         6.24976310E-05
   24.6569996         6.16608231E-05
   24.7900009         6.07578113E-05
   24.9230003         5.97895050E-05
   25.0559998         5.87551367E-05
   25.1889992         5.76528582E-05
   25.3220005         5.64806323E-05
   25.4549999         5.52371894E-05
   25.5879993         5.39227658E-05
   25.7210007         5.25395226E-05
   25.8540001         5.10914033E-05
   25.9869995         4.95835739E-05
   26.1200008         4.80215313E-05
   26.2530003         4.64101468E-05
   26.3859997         4.47528837E-05
   26.5189991         4.30513937E-05
   26.6520004         4.13055677E-05
   26.7849998         3.95141105E-05
   26.9179993         3.76754033E-05
   27.0510006         3.57884383E-05
   27.1840000         3.38536447E-05
   27.3169994         3.18732964E-05
   27.4500008         2.98514606E-05
   27.5830002         2.77934778E-05
   27.7159996         2.57050851E-05
   27.8490009         2.35914686E-05
   27.9820004         2.14564479E-05
   28.1149998         1.93020132E-05
   28.2479992         1.71283536E-05
   28.3810005         1.49343587E-05
   28.5139999         1.27184594E-05
   28.6469994         1.04795963E-05
   28.7800007         8.21803133E-06
   28.9130001         5.93584764E-06
   29.0459995         3.63693403E-06
   29.1790009         1.32652178E-06
   29.3120003        -9.89659497E-07
   29.4449997        -3.30633588E-06
   29.5779991        -5.61954039E-06
   29.7110004        -7.92710489E-06
   29.8439999        -1.02286958E-05
   29.9769993        -1.25253700E-05
   30.1100006        -1.48187528E-05
   30.2430000        -1.71100892E-05
   30.3759995        -1.93994019E-05
   30.5090008        -2.16849494E-05
   30.6420002        -2.39631809E-05
   30.7749996        -2.62291451E-05
   30.9080009        -2.84773214E-05
   31.0410004        -3.07025512E-05
   31.1739998        -3.29009345E-05
   31.3069992        -3.50703449E-05
   31.4400005        -3.72105569E-05
   31.5730000        -3.93228365E-05
   31.7059994        -4.14091664E-05
   31.8390007        -4.34712820E-05
   31.9720001        -4.55098088E-05
   32.1049995        -4.75236811E-05
   32.2379990        -4.95100103E-05
   32.3709984        -5.14644998E-05
   32.5040016        -5.33821512E-05
   32.6370010        -5.52582678E-05
   32.7700005        -5.70893244E-05
   32.9029999        -5.88735311E-05
   33.0359993        -6.06110334E-05
   33.1689987        -6.23035157E-05
   33.3019981        -6.39534774E-05
   33.4350014        -6.55632684E-05
   33.5680008        -6.71341913E-05
   33.7010002        -6.86659114E-05
   33.8339996        -7.01562167E-05
   33.9669991        -7.16014110E-05
   34.0999985        -7.29970197E-05
   34.2330017        -7.43387136E-05
   34.3660011        -7.56232548E-05
   34.4990005        -7.68491227E-05
   34.6320000        -7.80167102E-05
   34.7649994        -7.91280254E-05
   34.8979988        -8.01860151E-05
   35.0309982        -8.11936115E-05
   35.1640015        -8.21528083E-05
   35.2970009        -8.30640056E-05
   35.4300003        -8.39258137E-05
   35.5629997        -8.47352712E-05
   35.6959991        -8.54885657E-05
   35.8289986        -8.61819644E-05
   35.9620018        -8.68127318E-05
   36.0950012        -8.73797908E-05
   36.2280006        -8.78840074E-05
   36.3610001        -8.83279208E-05
   36.4939995        -8.87151036E-05
   36.6269989        -8.90491865E-05
   36.7599983        -8.93329852E-05
   36.8930016        -8.95677367E-05
   37.0260010        -8.97528589E-05
   37.1590004        -8.98861326E-05
   37.2919998        -8.99643564E-05
   37.4249992        -8.99842707E-05
   37.5579987        -8.99434744E-05
   37.6910019        -8.98411599E-05
   37.8240013        -8.96784331E-05
   37.9570007        -8.94581099E-05
   38.0900002        -8.91841119E-05
   38.2229996        -8.88605573E-05
   38.3559990        -8.84907931E-05
   38.4889984        -8.80766893E-05
   38.6220016        -8.76182676E-05
   38.7550011        -8.71138836E-05
   38.8880005        -8.65608235E-05
   39.0209999        -8.59561769E-05
   39.1539993        -8.52978192E-05
   39.2869987        -8.45851318E-05
   39.4199982        -8.38194101E-05
   39.5530014        -8.30037097E-05
   39.6860008        -8.21422509E-05
   39.8190002        -8.12395665E-05
   39.9519997        -8.02995055E-05
   40.0849991        -7.93245054E-05
   40.2179985        -7.83151772E-05
   40.3510017        -7.72704079E-05
   40.4840012        -7.61879055E-05
   40.6170006        -7.50651016E-05
   40.7500000        -7.39000970E-05
   40.8829994        -7.26924336E-05
   41.0159988        -7.14435155E-05
   41.1489983        -7.01565441E-05
   41.2820015        -6.88359651E-05
   41.4150009        -6.74866169E-05
   41.5480003        -6.61127706E-05
   41.6809998        -6.47173147E-05
   41.8139992        -6.33013260E-05
   41.9469986        -6.18640988E-05
   42.0800018        -6.04036613E-05
   42.2130013        -5.89176234E-05
   42.3460007        -5.74041260E-05
   42.4790001        -5.58626598E-05
   42.6119995        -5.42945272E-05
   42.7449989        -5.27028424E-05
   42.8779984        -5.10920181E-05
   43.0110016        -4.94669621E-05
   43.1440010        -4.78320908E-05
   43.2770004        -4.61905147E-05
   43.4099998        -4.45435362E-05
   43.5429993        -4.28906314E-05
   43.6759987        -4.12299196E-05
   43.8089981        -3.95589741E-05
   43.9420013        -3.78758014E-05
   44.0750008        -3.61796592E-05
   44.2080002        -3.44716027E-05
   44.3409996        -3.27545058E-05
   44.4739990        -3.10326432E-05
   44.6069984        -2.93108678E-05
   44.7400017        -2.75936582E-05
   44.8730011        -2.58842556E-05
   45.0060005        -2.41841208E-05
   45.1389999        -2.24928626E-05
   45.2719994        -2.08086585E-05
   45.4049988        -1.91290255E-05
   45.5379982        -1.74517936E-05
   45.6710014        -1.57759678E-05
   45.8040009        -1.41022992E-05
   45.9370003        -1.24333637E-05
   46.0699997        -1.07731948E-05
   46.2029991        -9.12650012E-06
   46.3359985        -7.49770652E-06
   46.4690018        -5.89007186E-06
   46.6020012        -4.30510681E-06
   46.7350006        -2.74244644E-06
   46.8680000        -1.20020957E-06
   47.0009995         3.24255097E-07
   47.1339989         1.83341672E-06
   47.2669983         3.32865625E-06
   47.4000015         4.80968947E-06
   47.5330009         6.27438476E-06
   47.6660004         7.71912437E-06
   47.7989998         9.13950134E-06
   47.9319992         1.05313020E-05
   48.0649986         1.18913822E-05
   48.1980019         1.32183168E-05
   48.3310013         1.45125596E-05
   48.4640007         1.57761533E-05
   48.5970001         1.70120238E-05
   48.7299995         1.82230215E-05
   48.8629990         1.94110107E-05
   48.9959984         2.05762353E-05
   49.1290016         2.17170964E-05
   49.2620010         2.28304252E-05
   49.3950005         2.39121819E-05
   49.5279999         2.49583918E-05
   49.6609993         2.59660465E-05
   49.7939987         2.69337997E-05
   49.9269981         2.78621901E-05
   50.0600014         2.87534076E-05
   50.1930008         2.96105973E-05
   50.3260002         3.04369405E-05
   50.4589996         3.12347365E-05
   50.5919991         3.20047002E-05
   50.7249985         3.27457092E-05
   50.8580017         3.34550168E-05
   50.9910011         3.41289015E-05
   51.1240005         3.47636233E-05
   51.2570000         3.53563300E-05
   51.3899994         3.59057667E-05
   51.5229988         3.64125881E-05
   51.6559982         3.68791480E-05
   51.7890015         3.73088733E-05
   51.9220009         3.77053439E-05
   52.0550003         3.80713500E-05
   52.1879997         3.84081868E-05
   52.3209991         3.87153050E-05
   52.4539986         3.89905035E-05
   52.5870018         3.92305228E-05
   52.7200012         3.94319613E-05
   52.8530006         3.95922034E-05
   52.9860001         3.97101685E-05
   53.1189995         3.97866606E-05
   53.2519989         3.98242228E-05
   53.3849983         3.98265365E-05
   53.5180016         3.97975418E-05
   53.6510010         3.97404874E-05
   53.7840004         3.96571631E-05
   53.9169998         3.95475217E-05
   54.0499992         3.94097988E-05
   54.1829987         3.92410693E-05
   54.3160019         3.90381392E-05
   54.4490013         3.87984765E-05
   54.5820007         3.85210187E-05
   54.7150002         3.82065518E-05
   54.8479996         3.78576406E-05
   54.9809990         3.74780793E-05
   55.1139984         3.70720409E-05
   55.2470016         3.66430941E-05
   55.3800011         3.61934435E-05
   55.5130005         3.57234749E-05
   55.6459999         3.52318202E-05
   55.7789993         3.47158857E-05
   55.9119987         3.41726809E-05
   56.0449982         3.35998047E-05
   56.1780014         3.29962313E-05
   56.3110008         3.23627755E-05
   56.4440002         3.17020604E-05
   56.5769997         3.10180112E-05
   56.7099991         3.03150227E-05
   56.8429985         2.95969949E-05
   56.9760017         2.88665015E-05
   57.1090012         2.81243156E-05
   57.2420006         2.73694131E-05
   57.3750000         2.65994349E-05
   57.5079994         2.58115215E-05
   57.6409988         2.50032663E-05
   57.7739983         2.41735524E-05
   57.9070015         2.33230585E-05
   58.0400009         2.24542782E-05
   58.1730003         2.15710770E-05
   58.3059998         2.06778841E-05
   58.4389992         1.97787303E-05
   58.5719986         1.88763970E-05
   58.7050018         1.79718991E-05
   58.8380013         1.70644234E-05
   58.9710007         1.61517473E-05
   59.1040001         1.52310386E-05
   59.2369995         1.42998042E-05
   59.3699989         1.33567573E-05
   59.5029984         1.24023582E-05
   59.6360016         1.14389068E-05
   59.7690010         1.04701412E-05
   59.9020004         9.50046251E-06
   60.0349998         8.53398251E-06
   60.1679993         7.57364887E-06
   60.3009987         6.62067396E-06
   60.4339981         5.67441384E-06
   60.5670013         4.73274667E-06
   60.7000008         3.79282028E-06
   60.8330002         2.85200963E-06
   60.9659996         1.90880087E-06
   61.0989990         9.63382718E-07
   61.2319984         1.77909190E-08
   61.3650017        -9.24439973E-07
   61.4980011        -1.85901911E-06
   61.6310005        -2.78184461E-06
   61.7639999        -3.68990459E-06
   61.8969994        -4.58189061E-06
   62.0299988        -5.45837202E-06
   62.1629982        -6.32147021E-06
   62.2960014        -7.17414105E-06
   62.4290009        -8.01923397E-06
   62.5620003        -8.85857662E-06
   62.6949997        -9.69235134E-06
   62.8279991        -1.05188819E-05
   62.9609985        -1.13349388E-05
   63.0940018        -1.21364419E-05
   63.2270012        -1.29193959E-05
   63.3600006        -1.36808103E-05
   63.4930000        -1.44193509E-05
   63.6259995        -1.51355771E-05
   63.7589989        -1.58316634E-05
   63.8919983        -1.65107231E-05
   64.0250015        -1.71758766E-05
   64.1579971        -1.78293340E-05
   64.2910004        -1.84717101E-05
   64.4240036        -1.91017807E-05
   64.5569992        -1.97167083E-05
   64.6900024        -2.03127092E-05
   64.8229980        -2.08859819E-05
   64.9560013        -2.14336087E-05
   65.0889969        -2.19542762E-05
   65.2220001        -2.24485429E-05
   65.3550034        -2.29186244E-05
   65.4879990        -2.33677656E-05
   65.6210022        -2.37993208E-05
   65.7539978        -2.42158167E-05
   65.8870010        -2.46182572E-05
   66.0199966        -2.50057910E-05
   66.1529999        -2.53759208E-05
   66.2860031        -2.57251031E-05
   66.4189987        -2.60496727E-05
   66.5520020        -2.63467682E-05
   66.6849976        -2.66150801E-05
   66.8180008        -2.68551776E-05
   66.9509964        -2.70693708E-05
   67.0839996        -2.72610941E-05
   67.2170029        -2.74340200E-05
   67.3499985        -2.75911189E-05
   67.4830017        -2.77338895E-05
   67.6159973        -2.78620046E-05
   67.7490005        -2.79734340E-05
   67.8820038        -2.80650183E-05
   68.0149994        -2.81333469E-05
   68.1480026        -2.81757111E-05
   68.2809982        -2.81908669E-05
   68.4140015        -2.81794164E-05
   68.5469971        -2.81437133E-05
   68.6800003        -2.80873010E-05
   68.8130035        -2.80140466E-05
   68.9459991        -2.79271771E-05
   69.0790024        -2.78285188E-05
   69.2119980        -2.77180552E-05
   69.3450012        -2.75940256E-05
   69.4779968        -2.74534523E-05
   69.6110001        -2.72929956E-05
   69.7440033        -2.71099125E-05
   69.8769989        -2.69028606E-05
   70.0100021        -2.66723200E-05
   70.1429977        -2.64205755E-05
   70.2760010        -2.61511868E-05
   70.4089966        -2.58681612E-05
   70.5419998        -2.55749928E-05
   70.6750031        -2.52738391E-05
   70.8079987        -2.49650693E-05
   70.9410019        -2.46472773E-05
   71.0739975        -2.43177510E-05
   71.2070007        -2.39733126E-05
   71.3399963        -2.36112628E-05
   71.4729996        -2.32302045E-05
   71.6060028        -2.28305362E-05
   71.7389984        -2.24144642E-05
   71.8720016        -2.19855392E-05
   72.0049973        -2.15478431E-05
   72.1380005        -2.11050356E-05
   72.2710037        -2.06594959E-05
   72.4039993        -2.02118354E-05
   72.5370026        -1.97608297E-05
   72.6699982        -1.93038723E-05
   72.8030014        -1.88377653E-05
   72.9359970        -1.83596767E-05
   73.0690002        -1.78679984E-05
   73.2020035        -1.73628887E-05
   73.3349991        -1.68463448E-05
   73.4680023        -1.63217828E-05
   73.6009979        -1.57932755E-05
   73.7340012        -1.52645789E-05
   73.8669968        -1.47382761E-05
   74.0000000        -1.42152130E-05
   74.1330032        -1.36943981E-05
   74.2659988        -1.31733823E-05
   74.3990021        -1.26490240E-05
   74.5319977        -1.21184376E-05
   74.6650009        -1.15798739E-05
   74.7979965        -1.10332894E-05
   74.9309998        -1.04804740E-05
   75.0640030        -9.92469722E-06
   75.1969986        -9.36994638E-06
   75.3300018        -8.81998767E-06
   75.4629974        -8.27747863E-06
   75.5960007        -7.74335786E-06
   75.7289963        -7.21669994E-06
   75.8619995        -6.69503879E-06
   75.9950027        -6.17510977E-06
   76.1279984        -5.65378105E-06
   76.2610016        -5.12895713E-06
   76.3939972        -4.60020419E-06
   76.5270004        -4.06893196E-06
   76.6600037        -3.53809378E-06
   76.7929993        -3.01147179E-06
   76.9260025        -2.49274922E-06
   77.0589981        -1.98459929E-06
   77.1920013        -1.48804418E-06
   77.3249969        -1.00223838E-06
   77.4580002        -5.24749112E-07
   77.5910034        -5.22453405E-08
   77.7239990         4.18575581E-07
   77.8570023         8.90076592E-07
   77.9899979         1.36300798E-06
   78.1230011         1.83627549E-06
   78.2559967         2.30718661E-06
   78.3889999         2.77212621E-06
   78.5220032         3.22747292E-06
   78.6549988         3.67052689E-06
   78.7880020         4.10019629E-06
   78.9209976         4.51726100E-06
   79.0540009         4.92414847E-06
   79.1869965         5.32427975E-06
   79.3199997         5.72115641E-06
   79.4530029         6.11742780E-06
   79.5859985         6.51418213E-06
   79.7190018         6.91065043E-06
   79.8519974         7.30441070E-06
   79.9850006         7.69200869E-06
   80.1179962         8.06987282E-06
   80.2509995         8.43524322E-06
   80.3840027         8.78690116E-06
   80.5169983         9.12549058E-06
   80.6500015         9.45334068E-06
   80.7829971         9.77386844E-06
   80.9160004         1.00906764E-05
   81.0490036         1.04066166E-05
   81.1819992         1.07230535E-05
   81.3150024         1.10395158E-05
   81.4479980         1.13538372E-05
   81.5810013         1.16627461E-05
   81.7139969         1.19627475E-05
   81.8470001         1.22510673E-05
   81.9800034         1.25264005E-05
   82.1129990         1.27892927E-05
   82.2460022         1.30420176E-05
   82.3789978         1.32880123E-05
   82.5120010         1.35310011E-05
   82.6449966         1.37740535E-05
   82.7779999         1.40187958E-05
   82.9110031         1.42650260E-05
   83.0439987         1.45107833E-05
   83.1770020         1.47529017E-05