  -24.4200001         3.66148934E-18
  -24.2870007        -1.03153955E-17
  -24.1539993        -1.87588465E-12
  -24.0209999        -9.02274783E-12
  -23.8880005        -2.55070375E-11
  -23.7549992        -5.49888086E-11
  -23.6219997        -9.96901589E-11
  -23.4890003        -1.59676092E-10
  -23.3560009        -2.32647471E-10
  -23.2229996        -3.14299697E-10
  -23.0900002        -3.99188349E-10
  -22.9570007        -4.81896023E-10
  -22.8239994        -5.58227076E-10
  -22.6910000        -6.26176666E-10
  -22.5580006        -6.86458945E-10
  -22.4249992        -7.42505613E-10
  -22.2919998        -7.99965927E-10
  -22.1590004        -8.65884864E-10
  -22.0259991        -9.47761314E-10
  -21.8929996        -1.05273168E-09
  -21.7600002        -1.18705190E-09
  -21.6270008        -1.35596134E-09
  -21.4939995        -1.56387359E-09
  -21.3610001        -1.81476290E-09
  -21.2280006        -2.11254547E-09
  -21.0949993        -2.46124832E-09
  -20.9619999        -2.86486568E-09
  -20.8290005        -3.32685035E-09
  -20.6959991        -3.84936527E-09
  -20.5629997        -4.43249570E-09
  -20.4300003        -5.07366238E-09
  -20.2970009        -5.76746961E-09
  -20.1639996        -6.50617782E-09
  -20.0310001        -7.28074667E-09
  -19.8980007        -8.08240408E-09
  -19.7649994        -8.90441587E-09
  -19.6320000        -9.74377912E-09
  -19.4990005        -1.06024807E-08
  -19.3659992        -1.14880212E-08
  -19.2329998        -1.24131834E-08
  -19.1000004        -1.33949989E-08
  -18.9669991        -1.44531613E-08
  -18.8339996        -1.56080908E-08
  -18.7010002        -1.68790741E-08
  -18.5680008        -1.82827709E-08
  -18.4349995        -1.98322176E-08
  -18.3020000        -2.15364313E-08
  -18.1690006        -2.34006112E-08
  -18.0359993        -2.54266599E-08
  -17.9029999        -2.76139129E-08
  -17.7700005        -2.99598604E-08
  -17.6369991        -3.24607363E-08
  -17.5039997        -3.51119738E-08
  -17.3710003        -3.79086238E-08
  -17.2380009        -4.08458511E-08
  -17.1049995        -4.39195453E-08
  -16.9720001        -4.71273118E-08
  -16.8390007        -5.04696267E-08
  -16.7059994        -5.39511902E-08
  -16.5730000        -5.75821240E-08
  -16.4400005        -6.13786924E-08
  -16.3069992        -6.53635652E-08
  -16.1739998        -6.95649902E-08
  -16.0410004        -7.40154107E-08
  -15.9080000        -7.87491672E-08
  -15.7749996        -8.37999536E-08
  -15.6420002        -8.91980250E-08
  -15.5089998        -9.49679801E-08
  -15.3760004        -1.01127299E-07
  -15.2430000        -1.07685729E-07
  -15.1099997        -1.14645850E-07
  -14.9770002        -1.22004423E-07
  -14.8439999        -1.29754483E-07
  -14.7110004        -1.37887781E-07
  -14.5780001        -1.46397042E-07
  -14.4449997        -1.55277959E-07
  -14.3120003        -1.64530832E-07
  -14.1789999        -1.74161343E-07
  -14.0459995        -1.84181147E-07
  -13.9130001        -1.94607921E-07
  -13.7799997        -2.05465213E-07
  -13.6470003        -2.16782240E-07
  -13.5139999        -2.28593407E-07
  -13.3809996        -2.40937652E-07
  -13.2480001        -2.53857621E-07
  -13.1149998        -2.67398320E-07
  -12.9820004        -2.81605537E-07
  -12.8490000        -2.96523467E-07
  -12.7159996        -3.12192526E-07
  -12.5830002        -3.28647189E-07
  -12.4499998        -3.45914231E-07
  -12.3170004        -3.64011669E-07
  -12.1840000        -3.82949082E-07
  -12.0509996        -4.02728745E-07
  -11.9180002        -4.23347643E-07
  -11.7849998        -4.44801088E-07
  -11.6520004        -4.67086039E-07
  -11.5190001        -4.90204400E-07
  -11.3859997        -5.14165322E-07
  -11.2530003        -5.38988331E-07
  -11.1199999        -5.64702873E-07
  -10.9870005        -5.91348680E-07
  -10.8540001        -6.18974525E-07
  -10.7209997        -6.47635886E-07
  -10.5880003        -6.77392791E-07
  -10.4549999        -7.08307425E-07
  -10.3219995        -7.40441806E-07
  -10.1890001        -7.73855902E-07
  -10.0559998        -8.08605819E-07
  -9.92300034        -8.44742942E-07
  -9.78999996        -8.82312065E-07
  -9.65699959        -9.21351329E-07
  -9.52400017        -9.61891487E-07
  -9.39099979        -1.00395562E-06
  -9.25800037        -1.04756043E-06
  -9.12500000        -1.09271605E-06
  -8.99199963        -1.13942986E-06
  -8.85900021        -1.18770720E-06
  -8.72599983        -1.23755592E-06
  -8.59300041        -1.28898876E-06
  -8.46000004        -1.34202674E-06
  -8.32699966        -1.39670090E-06
  -8.19400024        -1.45305376E-06
  -8.06099987        -1.51113875E-06
  -7.92799997        -1.57101863E-06
  -7.79500008        -1.63276172E-06
  -7.66200018        -1.69643943E-06
  -7.52899981        -1.76212245E-06
  -7.39599991        -1.82987606E-06
  -7.26300001        -1.89975697E-06
  -7.13000011        -1.97181157E-06
  -6.99700022        -2.04607613E-06
  -6.86399984        -2.12257555E-06
  -6.73099995        -2.20132551E-06
  -6.59800005        -2.28233375E-06
  -6.46500015        -2.36560345E-06
  -6.33199978        -2.45113529E-06
  -6.19899988        -2.53892858E-06
  -6.06599998        -2.62898629E-06
  -5.93300009        -2.72131456E-06
  -5.80000019        -2.81592634E-06
  -5.66699982        -2.91284164E-06
  -5.53399992        -3.01208911E-06
  -5.40100002        -3.11370741E-06
  -5.26800013        -3.21774246E-06
  -5.13500023        -3.32424884E-06
  -5.00199986        -3.43328543E-06
  -4.86899996        -3.54491272E-06
  -4.73600006        -3.65918959E-06
  -4.60300016        -3.77616698E-06
  -4.46999979        -3.89588513E-06
  -4.33699989        -4.01837224E-06
  -4.20400000        -4.14363740E-06
  -4.07100010        -4.27167424E-06
  -3.93799996        -4.40246004E-06
  -3.80500007        -4.53595749E-06
  -3.67199993        -4.67212158E-06
  -3.53900003        -4.81090456E-06
  -3.40599990        -4.95225686E-06
  -3.27300000        -5.09613528E-06
  -3.14000010        -5.24250527E-06
  -3.00699997        -5.39134498E-06
  -2.87400007        -5.54264352E-06
  -2.74099994        -5.69640542E-06
  -2.60800004        -5.85264434E-06
  -2.47499990        -6.01138345E-06
  -2.34200001        -6.17265096E-06
  -2.20900011        -6.33647778E-06
  -2.07599998        -6.50289348E-06
  -1.94299996        -6.67192126E-06
  -1.80999994        -6.84357565E-06
  -1.67700005        -7.01785575E-06
  -1.54400003        -7.19474428E-06
  -1.41100001        -7.37420487E-06
  -1.27800000        -7.55617930E-06
  -1.14499998        -7.74058844E-06
  -1.01199996        -7.92733317E-06
 -0.879000008        -8.11630071E-06
 -0.745999992        -8.30736190E-06
 -0.612999976        -8.50038396E-06
 -0.479999989        -8.69523592E-06
 -0.347000003        -8.89178955E-06
 -0.214000002        -9.08992934E-06
  -8.10000002E-02    -9.28955433E-06
   5.20000011E-02    -9.49057812E-06
  0.185000002        -9.69292887E-06
  0.317999989        -9.89655018E-06
  0.451000005        -1.01013929E-05
  0.583999991        -1.03074135E-05
  0.717000008        -1.05145682E-05
  0.850000024        -1.07228043E-05
  0.982999980        -1.09320608E-05
   1.11600006        -1.11422605E-05
   1.24899995        -1.13533079E-05
   1.38199997        -1.15650919E-05
   1.51499999        -1.17774762E-05
   1.64800000        -1.19903125E-05
   1.78100002        -1.22034371E-05
   1.91400003        -1.24166645E-05
   2.04699993        -1.26298028E-05
   2.18000007        -1.28426609E-05
   2.31299996        -1.30550416E-05
   2.44600010        -1.32667501E-05
   2.57900000        -1.34776055E-05
   2.71199989        -1.36874378E-05
   2.84500003        -1.38960959E-05
   2.97799993        -1.41034452E-05
   3.11100006        -1.43093648E-05
   3.24399996        -1.45137519E-05
   3.37700009        -1.47165119E-05
   3.50999999        -1.49175539E-05
   3.64299989        -1.51167833E-05
   3.77600002        -1.53140991E-05
   3.90899992        -1.55093803E-05
   4.04199982        -1.57024951E-05
   4.17500019        -1.58932799E-05
   4.30800009        -1.60815616E-05
   4.44099998        -1.62671386E-05
   4.57399988        -1.64497997E-05
   4.70699978        -1.66293175E-05
   4.84000015        -1.68054612E-05
   4.97300005        -1.69779960E-05
   5.10599995        -1.71466909E-05
   5.23899984        -1.73113240E-05
   5.37200022        -1.74716897E-05
   5.50500011        -1.76275953E-05
   5.63800001        -1.77788661E-05
   5.77099991        -1.79253457E-05
   5.90399981        -1.80669012E-05
   6.03700018        -1.82034091E-05
   6.17000008        -1.83347711E-05
   6.30299997        -1.84608889E-05
   6.43599987        -1.85816771E-05
   6.56899977        -1.86970428E-05
   6.70200014        -1.88068861E-05
   6.83500004        -1.89111033E-05
   6.96799994        -1.90095616E-05
   7.10099983        -1.91021227E-05
   7.23400021        -1.91886211E-05
   7.36700010        -1.92688767E-05
   7.50000000        -1.93427040E-05
   7.63299990        -1.94099102E-05
   7.76599979        -1.94702970E-05
   7.89900017        -1.95236844E-05
   8.03199959        -1.95698995E-05
   8.16499996        -1.96087931E-05
   8.29800034        -1.96402307E-05
   8.43099976        -1.96641140E-05
   8.56400013        -1.96803539E-05
   8.69699955        -1.96888959E-05
   8.82999992        -1.96896981E-05
   8.96300030        -1.96827386E-05
   9.09599972        -1.96680048E-05
   9.22900009        -1.96454876E-05
   9.36200047        -1.96151850E-05
   9.49499989        -1.95770881E-05
   9.62800026        -1.95311877E-05
   9.76099968        -1.94774511E-05
   9.89400005        -1.94158511E-05
   10.0270004        -1.93463366E-05
   10.1599998        -1.92688422E-05
   10.2930002        -1.91833024E-05
   10.4259996        -1.90896517E-05
   10.5590000        -1.89878156E-05
   10.6920004        -1.88777376E-05
   10.8249998        -1.87593705E-05
   10.9580002        -1.86326979E-05
   11.0909996        -1.84977234E-05
   11.2240000        -1.83544871E-05
   11.3570004        -1.82030544E-05
   11.4899998        -1.80435200E-05
   11.6230001        -1.78760001E-05
   11.7559996        -1.77006368E-05
   11.8889999        -1.75175755E-05
   12.0220003        -1.73269727E-05
   12.1549997        -1.71289757E-05
   12.2880001        -1.69237301E-05
   12.4209995        -1.67113703E-05
   12.5539999        -1.64920129E-05
   12.6870003        -1.62657598E-05
   12.8199997        -1.60326999E-05
   12.9530001        -1.57929098E-05
   13.0860004        -1.55464604E-05
   13.2189999        -1.52934153E-05
   13.3520002        -1.50338428E-05
   13.4849997        -1.47678211E-05
   13.6180000        -1.44954383E-05
   13.7510004        -1.42168064E-05
   13.8839998        -1.39320646E-05
   14.0170002        -1.36413773E-05
   14.1499996        -1.33449375E-05
   14.2830000        -1.30429698E-05
   14.4160004        -1.27357289E-05
   14.5489998        -1.24234830E-05
   14.6820002        -1.21065177E-05
   14.8149996        -1.17851205E-05
   14.9480000        -1.14595769E-05
   15.0810003        -1.11301588E-05
   15.2139997        -1.07971209E-05
   15.3470001        -1.04606970E-05
   15.4799995        -1.01210908E-05
   15.6129999        -9.77849140E-06
   15.7460003        -9.43306168E-06
   15.8789997        -9.08495076E-06
   16.0119991        -8.73430599E-06
   16.1450005        -8.38126653E-06
   16.2779999        -8.02598424E-06
   16.4109993        -7.66862377E-06
   16.5440006        -7.30937109E-06
   16.6770000        -6.94842720E-06
   16.8099995        -6.58602721E-06
   16.9430008        -6.22243488E-06
   17.0760002        -5.85793077E-06
   17.2089996        -5.49282277E-06
   17.3419991        -5.12743645E-06
   17.4750004        -4.76210926E-06
   17.6079998        -4.39718269E-06
   17.7409992        -4.03298691E-06
   17.8740005        -3.66985023E-06
   18.0070000        -3.30806711E-06
   18.1399994        -2.94791471E-06
   18.2730007        -2.58963860E-06
   18.4060001        -2.23345523E-06
   18.5389996        -1.87954993E-06
   18.6720009        -1.52808479E-06
   18.8050003        -1.17920763E-06
   18.9379997        -8.33054287E-07
   19.0709991        -4.89764318E-07
   19.2040005        -1.49488883E-07
   19.3369999         1.87605281E-07
   19.4699993         5.21334073E-07
   19.6030006         8.51483492E-07
   19.7360001         1.17781588E-06
   19.8689995         1.50007384E-06
   20.0020008         1.81798248E-06
   20.1350002         2.13125440E-06
   20.2679996         2.43959767E-06
   20.4009991         2.74272656E-06
   20.5340004         3.04036803E-06
   20.6669998         3.33226058E-06
   20.7999992         3.61817638E-06
   20.9330006         3.89791148E-06
   21.0660000         4.17129786E-06
   21.1989994         4.43820090E-06
   21.3320007         4.69851284E-06
   21.4650002         4.95216045E-06
   21.5979996         5.19908963E-06
   21.7310009         5.43925489E-06
   21.8640003         5.67261986E-06
   21.9969997         5.89914362E-06
   22.1299992         6.11876976E-06
   22.2630005         6.33142554E-06
   22.3959999         6.53700818E-06
   22.5289993         6.73539535E-06
   22.6620007         6.92643471E-06
   22.7950001         7.10995801E-06
   22.9279995         7.28578880E-06
   23.0610008         7.45374246E-06
   23.1940002         7.61364208E-06
   23.3269997         7.76532943E-06
   23.4599991         7.90866579E-06
   23.5930004         8.04354841E-06
   23.7259998         8.16990723E-06
   23.8589993         8.28770590E-06
   23.9920006         8.39694167E-06
   24.1250000         8.49764638E-06
   24.2579994         8.58987642E-06
   24.3910007         8.67370636E-06
   24.5240002         8.74922443E-06
   24.6569996         8.81652068E-06
   24.7900009         8.87568149E-06
   24.9230003         8.92678145E-06
   25.0559998         8.96987603E-06
   25.1889992         9.00499708E-06
   25.3220005         9.03215459E-06
   25.4549999         9.05133493E-06
   25.5879993         9.06250079E-06
   25.7210007         9.06560490E-06
   25.8540001         9.06059358E-06
   25.9869995         9.04741864E-06
   26.1200008         9.02604552E-06
   26.2530003         8.99646420E-06
   26.3859997         8.95870107E-06
   26.5189991         8.91281616E-06
   26.6520004         8.85891041E-06
   26.7849998         8.79712570E-06
   26.9179993         8.72763394E-06
   27.0510006         8.65063976E-06
   27.1840000         8.56636416E-06
   27.3169994         8.47503725E-06
   27.4500008         8.37689186E-06
   27.5830002         8.27214899E-06
   27.7159996         8.16101601E-06
   27.8490009         8.04367482E-06
   27.9820004         7.92028732E-06
   28.1149998         7.79098445E-06
   28.2479992         7.65587629E-06
   28.3810005         7.51505331E-06
   28.5139999         7.36859329E-06
   28.6469994         7.21656488E-06
   28.7800007         7.05904313E-06
   28.9130001         6.89610897E-06
   29.0459995         6.72787110E-06
   29.1790009         6.55446138E-06
   29.3120003         6.37605081E-06
   29.4449997         6.19284401E-06
   29.5779991         6.00508884E-06
   29.7110004         5.81306404E-06
   29.8439999         5.61708066E-06
   29.9769993         5.41746385E-06
   30.1100006         5.21455559E-06
   30.2430000         5.00869101E-06
   30.3759995         4.80019435E-06
   30.5090008         4.58936574E-06
   30.6420002         4.37647623E-06
   30.7749996         4.16176908E-06
   30.9080009         3.94544531E-06
   31.0410004         3.72767818E-06
   31.1739998         3.50862069E-06
   31.3069992         3.28840224E-06
   31.4400005         3.06714787E-06
   31.5730000         2.84497833E-06
   31.7059994         2.62202798E-06
   31.8390007         2.39844917E-06
   31.9720001         2.17441698E-06
   32.1049995         1.95014172E-06
   32.2379990         1.72586397E-06
   32.3709984         1.50185372E-06
   32.5040016         1.27842111E-06
   32.6370010         1.05588867E-06
   32.7700005         8.34607476E-07
   32.9029999         6.14932560E-07
   33.0359993         3.97213256E-07
   33.1689987         1.81787001E-07
   33.3019981        -3.10340305E-08
   33.4350014        -2.40966102E-07
   33.5680008        -4.47767206E-07
   33.7010002        -6.51241578E-07
   33.8339996        -8.51222126E-07
   33.9669991        -1.04758226E-06
   34.0999985        -1.24022188E-06
   34.2330017        -1.42905856E-06
   34.3660011        -1.61401977E-06
   34.4990005        -1.79501467E-06
   34.6320000        -1.97195368E-06
   34.7649994        -2.14471743E-06
   34.8979988        -2.31316130E-06
   35.0309982        -2.47711023E-06
   35.1640015        -2.63636457E-06
   35.2970009        -2.79070036E-06
   35.4300003        -2.93987614E-06
   35.5629997        -3.08364201E-06
   35.6959991        -3.22174719E-06
   35.8289986        -3.35395680E-06
   35.9620018        -3.48005369E-06
   36.0950012        -3.59985279E-06
   36.2280006        -3.71320334E-06
   36.3610001        -3.81999371E-06
   36.4939995        -3.92015954E-06
   36.6269989        -4.01368243E-06
   36.7599983        -4.10057646E-06
   36.8930016        -4.18088666E-06
   37.0260010        -4.25468579E-06
   37.1590004        -4.32205752E-06
   37.2919998        -4.38308052E-06
   37.4249992        -4.43782892E-06
   37.5579987        -4.48634637E-06
   37.6910019        -4.52865652E-06
   37.8240013        -4.56474754E-06
   37.9570007        -4.59458033E-06
   38.0900002        -4.61809259E-06
   38.2229996        -4.63520018E-06
   38.3559990        -4.64581808E-06
   38.4889984        -4.64986033E-06
   38.6220016        -4.64725645E-06
   38.7550011        -4.63796823E-06
   38.8880005        -4.62198977E-06
   39.0209999        -4.59935927E-06
   39.1539993        -4.57015994E-06
   39.2869987        -4.53452003E-06
   39.4199982        -4.49261461E-06
   39.5530014        -4.44465240E-06
   39.6860008        -4.39087489E-06
   39.8190002        -4.33154537E-06
   39.9519997        -4.26693259E-06
   40.0849991        -4.19730577E-06
   40.2179985        -4.12292411E-06
   40.3510017        -4.04402181E-06
   40.4840012        -3.96080577E-06
   40.6170006        -3.87345153E-06
   40.7500000        -3.78210007E-06
   40.8829994        -3.68686210E-06
   41.0159988        -3.58782609E-06
   41.1489983        -3.48506319E-06
   41.2820015        -3.37864549E-06
   41.4150009        -3.26865120E-06
   41.5480003        -3.15518241E-06
   41.6809998        -3.03837146E-06
   41.8139992        -2.91839206E-06
   41.9469986        -2.79545907E-06
   42.0800018        -2.66983352E-06
   42.2130013        -2.54181464E-06
   42.3460007        -2.41173507E-06
   42.4790001        -2.27994951E-06
   42.6119995        -2.14682495E-06
   42.7449989        -2.01272564E-06
   42.8779984        -1.87800515E-06
   43.0110016        -1.74299214E-06
   43.1440010        -1.60798641E-06
   43.2770004        -1.47324909E-06
   43.4099998        -1.33900289E-06
   43.5429993        -1.20543143E-06
   43.6759987        -1.07268272E-06
   43.8089981        -9.40877271E-07
   43.9420013        -8.10114500E-07
   44.0750008        -6.80485414E-07
   44.2080002        -5.52083407E-07
   44.3409996        -4.25012729E-07
   44.4739990        -2.99403013E-07
   44.6069984        -1.75414854E-07
   44.7400017        -5.32468221E-08
   44.8730011         6.68678695E-08
   45.0060005         1.84659825E-07
   45.1389999         2.99832180E-07
   45.2719994         4.12069681E-07
   45.4049988         5.21053209E-07
   45.5379982         6.26472513E-07
   45.6710014         7.28036810E-07
   45.8040009         8.25492066E-07
   45.9370003         9.18626426E-07
   46.0699997         1.00727618E-06
   46.2029991         1.09133111E-06
   46.3359985         1.17072636E-06
   46.4690018         1.24544351E-06
   46.6020012         1.31549700E-06
   46.7350006         1.38092560E-06
   46.8680000         1.44177795E-06
   47.0009995         1.49810467E-06
   47.1339989         1.54994768E-06
   47.2669983         1.59732099E-06
   47.4000015         1.64021719E-06
   47.5330009         1.67859332E-06
   47.6660004         1.71237605E-06
   47.7989998         1.74145487E-06
   47.9319992         1.76570222E-06
   48.0649986         1.78496987E-06
   48.1980019         1.79910671E-06
   48.3310013         1.80796712E-06
   48.4640007         1.81142684E-06
   48.5970001         1.80939730E-06
   48.7299995         1.80183486E-06
   48.8629990         1.78874200E-06
   48.9959984         1.77017955E-06
   49.1290016         1.74625916E-06
   49.2620010         1.71714430E-06
   49.3950005         1.68303745E-06
   49.5279999         1.64416497E-06
   49.6609993         1.60076286E-06
   49.7939987         1.55307737E-06
   49.9269981         1.50132962E-06
   50.0600014         1.44573073E-06
   50.1930008         1.38644907E-06
   50.3260002         1.32361981E-06
   50.4589996         1.25734709E-06
   50.5919991         1.18769935E-06
   50.7249985         1.11472195E-06
   50.8580017         1.03844104E-06
   50.9910011         9.58881856E-07
   51.1240005         8.76068270E-07
   51.2570000         7.90048091E-07
   51.3899994         7.00892542E-07
   51.5229988         6.08711161E-07
   51.6559982         5.13655607E-07
   51.7890015         4.15925740E-07
   51.9220009         3.15761895E-07
   52.0550003         2.13446867E-07
   52.1879997         1.09300274E-07
   52.3209991         3.65765129E-09
   52.4539986        -1.03131029E-07
   52.5870018        -2.10726981E-07
   52.7200012        -3.18804581E-07
   52.8530006        -4.27070290E-07
   52.9860001        -5.35273728E-07
   53.1189995        -6.43203236E-07
   53.2519989        -7.50698746E-07
   53.3849983        -8.57634575E-07
   53.5180016        -9.63924322E-07
   53.6510010        -1.06950097E-06
   53.7840004        -1.17431227E-06
   53.9169998        -1.27830015E-06
   54.0499992        -1.38139410E-06
   54.1829987        -1.48349682E-06
   54.3160019        -1.58448086E-06
   54.4490013        -1.68417694E-06
   54.5820007        -1.78238122E-06
   54.7150002        -1.87884871E-06
   54.8479996        -1.97330132E-06
   54.9809990        -2.06544109E-06
   55.1139984        -2.15495811E-06
   55.2470016        -2.24154041E-06
   55.3800011        -2.32489060E-06
   55.5130005        -2.40473355E-06
   55.6459999        -2.48082938E-06
   55.7789993        -2.55298664E-06
   55.9119987        -2.62105959E-06
   56.0449982        -2.68495660E-06
   56.1780014        -2.74463150E-06
   56.3110008        -2.80008339E-06
   56.4440002        -2.85133888E-06
   56.5769997        -2.89844525E-06
   56.7099991        -2.94145229E-06
   56.8429985        -2.98040368E-06
   56.9760017        -3.01531895E-06
   57.1090012        -3.04618584E-06
   57.2420006        -3.07295591E-06
   57.3750000        -3.09554298E-06
   57.5079994        -3.11382473E-06
   57.6409988        -3.12764973E-06
   57.7739983        -3.13684905E-06
   57.9070015        -3.14124691E-06
   58.0400009        -3.14067393E-06
   58.1730003        -3.13497935E-06
   58.3059998        -3.12404313E-06
   58.4389992        -3.10778591E-06
   58.5719986        -3.08617768E-06
   58.7050018        -3.05923413E-06
   58.8380013        -3.02702460E-06
   58.9710007        -2.98966279E-06
   59.1040001        -2.94730216E-06
   59.2369995        -2.90012918E-06
   59.3699989        -2.84834118E-06
   59.5029984        -2.79214623E-06
   59.6360016        -2.73173987E-06
   59.7690010        -2.66729785E-06
   59.9020004        -2.59896569E-06
   60.0349998        -2.52684890E-06
   60.1679993        -2.45101410E-06
   60.3009987        -2.37148743E-06
   60.4339981        -2.28826252E-06
   60.5670013        -2.20130778E-06
   60.7000008        -2.11058273E-06
   60.8330002        -2.01605076E-06
   60.9659996        -1.91769027E-06
   61.0989990        -1.81551070E-06
   61.2319984        -1.70956412E-06
   61.3650017        -1.59994977E-06
   61.4980011        -1.48681715E-06
   61.6310005        -1.37036386E-06
   61.7639999        -1.25083284E-06
   61.8969994        -1.12850091E-06
   62.0299988        -1.00366958E-06
   62.1629982        -8.76648869E-07
   62.2960014        -7.47747322E-07
   62.4290009        -6.17258252E-07
   62.5620003        -4.85447515E-07
   62.6949997        -3.52545925E-07
   62.8279991        -2.18741860E-07
   62.9609985        -8.41808827E-08
   63.0940018         5.10367073E-08
   63.2270012         1.86846506E-07
   63.3600006         3.23214380E-07
   63.4930000         4.60124937E-07
   63.6259995         5.97564735E-07
   63.7589989         7.35513765E-07
   63.8919983         8.73927263E-07
   64.0250015         1.01272542E-06
   64.1579971         1.15178511E-06
   64.2910004         1.29093837E-06
   64.4240036         1.42996760E-06
   64.5569992         1.56861609E-06
   64.6900024         1.70659246E-06
   64.8229980         1.84358271E-06
   64.9560013         1.97927147E-06
   65.0889969         2.11335191E-06
   65.2220001         2.24553901E-06
   65.3550034         2.37558879E-06
   65.4879990         2.50329822E-06
   65.6210022         2.62851700E-06
   65.7539978         2.75114917E-06
   65.8870010         2.87114767E-06
   66.0199966         2.98850887E-06
   66.1529999         3.10326277E-06
   66.2860031         3.21546213E-06
   66.4189987         3.32516947E-06
   66.5520020         3.43244051E-06
   66.6849976         3.53731707E-06
   66.8180008         3.63980780E-06
   66.9509964         3.73988632E-06
   67.0839996         3.83748147E-06
   67.2170029         3.93248183E-06
   67.3499985         4.02472915E-06
   67.4830017         4.11403698E-06
   67.6159973         4.20019251E-06
   67.7490005         4.28297517E-06
   67.8820038         4.36217078E-06
   68.0149994         4.43758745E-06
   68.1480026         4.50907010E-06
   68.2809982         4.57651140E-06
   68.4140015         4.63985361E-06
   68.5469971         4.69910037E-06
   68.6800003         4.75430943E-06
   68.8130035         4.80558219E-06
   68.9459991         4.85306327E-06
   69.0790024         4.89691729E-06
   69.2119980         4.93731750E-06
   69.3450012         4.97443489E-06
   69.4779968         5.00842179E-06
   69.6110001         5.03939691E-06
   69.7440033         5.06744436E-06
   69.8769989         5.09260872E-06
   70.0100021         5.11488997E-06
   70.1429977         5.13425084E-06
   70.2760010         5.15062356E-06
   70.4089966         5.16391719E-06
   70.5419998         5.17403350E-06
   70.6750031         5.18087973E-06
   70.8079987         5.18438492E-06
   70.9410019         5.18450815E-06
   71.0739975         5.18125216E-06
   71.2070007         5.17467242E-06
   71.3399963         5.16487671E-06
   71.4729996         5.15202782E-06
   71.6060028         5.13633631E-06
   71.7389984         5.11805001E-06
   71.8720016         5.09743768E-06
   72.0049973         5.07477853E-06
   72.1380005         5.05034222E-06
   72.2710037         5.02437115E-06
   72.4039993         4.99707357E-06
   72.5370026         4.96861321E-06
   72.6699982         4.93910238E-06
   72.8030014         4.90859929E-06
   72.9359970         4.87712305E-06
   73.0690002         4.84465363E-06
   73.2020035         4.81114739E-06
   73.3349991         4.77655067E-06
   73.4680023         4.74081207E-06
   73.6009979         4.70390296E-06
   73.7340012         4.66582242E-06
   73.8669968         4.62661137E-06
   74.0000000         4.58635759E-06
   74.1330032         4.54519977E-06
   74.2659988         4.50332027E-06
   74.3990021         4.46094509E-06
   74.5319977         4.41833754E-06
   74.6650009         4.37577592E-06
   74.7979965         4.33354444E-06
   74.9309998         4.29191732E-06
   75.0640030         4.25114149E-06
   75.1969986         4.21142386E-06
   75.3300018         4.17292222E-06
   75.4629974         4.13573662E-06
   75.5960007         4.09991026E-06
   75.7289963         4.06543541E-06
   75.8619995         4.03225658E-06
   75.9950027         4.00028966E-06
   76.1279984         3.96943324E-06
   76.2610016         3.93958726E-06
   76.3939972         3.91066624E-06
   76.5270004         3.88261833E-06
   76.6600037         3.85543080E-06
   76.7929993         3.82913777E-06
   76.9260025         3.80382312E-06
   77.0589981         3.77961442E-06
   77.1920013         3.75667969E-06
   77.3249969         3.73521289E-06
   77.4580002         3.71542205E-06
   77.5910034         3.69751297E-06
   77.7239990         3.68167616E-06
   77.8570023         3.66807149E-06
   77.9899979         3.65681535E-06
   78.1230011         3.64797302E-06
   78.2559967         3.64155153E-06
   78.3889999         3.63749973E-06
   78.5220032         3.63571235E-06
   78.6549988         3.63603817E-06
   78.7880020         3.63829167E-06
   78.9209976         3.64226889E-06
   79.0540009         3.64776315E-06
   79.1869965         3.65458277E-06
   79.3199997         3.66256700E-06
   79.4530029         3.67159805E-06
   79.5859985         3.68160772E-06
   79.7190018         3.69258009E-06
   79.8519974         3.70455246E-06
   79.9850006         3.71760166E-06
   80.1179962         3.73183684E-06
   80.2509995         3.74738079E-06
   80.3840027         3.76435401E-06
   80.5169983         3.78285972E-06
   80.6500015         3.80296387E-06
   80.7829971         3.82468670E-06
   80.9160004         3.84799068E-06
   81.0490036         3.87278033E-06
   81.1819992         3.89890010E-06
   81.3150024         3.92614038E-06
   81.4479980         3.95424559E-06
   81.5810013         3.98292877E-06
   81.7139969         4.01188618E-06
   81.8470001         4.04081266E-06
   81.9800034         4.06941854E-06
   82.1129990         4.09744689E-06
   82.2460022         4.12468216E-06
   82.3789978         4.15096156E-06
   82.5120010         4.17617912E-06
   82.6449966         4.20028255E-06
   82.7779999         4.22326957E-06
   82.9110031         4.24517521E-06
   83.0439987         4.26605993E-06
   83.1770020         4.28598833E-06