  -24.4200001       0.00000000    
  -24.2900009      -7.59433583E-09
  -24.1599998      -2.27705321E-08
  -24.0300007      -4.50458586E-08
  -23.8999996      -7.35175405E-08
  -23.7700005      -1.06948001E-07
  -23.6399994      -1.43877898E-07
  -23.5100002      -1.82756892E-07
  -23.3799992      -2.22081241E-07
  -23.2500000      -2.60526349E-07
  -23.1200008      -2.97063508E-07
  -22.9899998      -3.31050785E-07
  -22.8600006      -3.62291360E-07
  -22.7299995      -3.91053931E-07
  -22.6000004      -4.18054697E-07
  -22.4699993      -4.44401650E-07
  -22.3400002      -4.71506866E-07
  -22.2099991      -5.00973442E-07
  -22.0799999      -5.34467233E-07
  -21.9500008      -5.73583179E-07
  -21.8199997      -6.19718151E-07
  -21.6900005      -6.73960869E-07
  -21.5599995      -7.37008179E-07
  -21.4300003      -8.09114511E-07
  -21.2999992      -8.90080400E-07
  -21.1700001      -9.79279434E-07
  -21.0400009      -1.07572373E-06
  -20.9099998      -1.17816035E-06
  -20.7800007      -1.28519241E-06
  -20.6499996      -1.39541339E-06
  -20.5200005      -1.50754397E-06
  -20.3899994      -1.62055858E-06
  -20.2600002      -1.73379169E-06
  -20.1299992      -1.84701480E-06
  -20.0000000      -1.96047608E-06
  -19.8700008      -2.07490166E-06
  -19.7399998      -2.19145682E-06
  -19.6100006      -2.31167155E-06
  -19.4799995      -2.43733780E-06
  -19.3500004      -2.57038369E-06
  -19.2199993      -2.71274052E-06
  -19.0900002      -2.86620912E-06
  -18.9599991      -3.03234060E-06
  -18.8299999      -3.21233711E-06
  -18.7000008      -3.40698375E-06
  -18.5699997      -3.61661682E-06
  -18.4400005      -3.84112946E-06
  -18.3099995      -4.08001688E-06
  -18.1800003      -4.33245214E-06
  -18.0499992      -4.59739431E-06
  -17.9200001      -4.87371426E-06
  -17.7900009      -5.16032742E-06
  -17.6599998      -5.45632656E-06
  -17.5300007      -5.76110006E-06
  -17.3999996      -6.07442598E-06
  -17.2700005      -6.39653672E-06
  -17.1399994      -6.72814167E-06
  -17.0100002      -7.07041499E-06
  -16.8799992      -7.42494194E-06
  -16.7500000      -7.79363108E-06
  -16.6200008      -8.17860109E-06
  -16.4899998      -8.58204930E-06
  -16.3600006      -9.00611667E-06
  -16.2299995      -9.45275679E-06
  -16.1000004      -9.92362129E-06
  -15.9700003      -1.04199771E-05
  -15.8400002      -1.09426537E-05
  -15.7100000      -1.14920276E-05
  -15.5799999      -1.20680506E-05
  -15.4499998      -1.26703098E-05
  -15.3199997      -1.32981259E-05
  -15.1899996      -1.39506619E-05
  -15.0600004      -1.46270595E-05
  -14.9300003      -1.53265719E-05
  -14.8000002      -1.60486870E-05
  -14.6700001      -1.67932321E-05
  -14.5400000      -1.75604564E-05
  -14.4099998      -1.83510747E-05
  -14.2799997      -1.91662675E-05
  -14.1499996      -2.00076593E-05
  -14.0200005      -2.08772417E-05
  -13.8900003      -2.17772758E-05
  -13.7600002      -2.27101827E-05
  -13.6300001      -2.36783890E-05
  -13.5000000      -2.46842028E-05
  -13.3699999      -2.57296924E-05
  -13.2399998      -2.68165732E-05
  -13.1099997      -2.79461437E-05
  -12.9799995      -2.91192409E-05
  -12.8500004      -3.03362358E-05
  -12.7200003      -3.15970938E-05
  -12.5900002      -3.29014292E-05
  -12.4600000      -3.42486310E-05
  -12.3299999      -3.56379751E-05
  -12.1999998      -3.70687594E-05
  -12.0699997      -3.85404455E-05
  -11.9399996      -4.00527497E-05
  -11.8100004      -4.16057810E-05
  -11.6800003      -4.32000488E-05
  -11.5500002      -4.48365281E-05
  -11.4200001      -4.65166231E-05
  -11.2900000      -4.82421310E-05
  -11.1599998      -5.00151400E-05
  -11.0299997      -5.18379384E-05
  -10.8999996      -5.37128690E-05
  -10.7700005      -5.56422056E-05
  -10.6400003      -5.76280218E-05
  -10.5100002      -5.96720711E-05
  -10.3800001      -6.17757032E-05
  -10.2500000      -6.39398058E-05
  -10.1199999      -6.61647719E-05
  -9.98999977      -6.84505358E-05
  -9.85999966      -7.07966174E-05
  -9.72999954      -7.32022090E-05
  -9.60000038      -7.56662848E-05
  -9.47000027      -7.81877461E-05
  -9.34000015      -8.07655524E-05
  -9.21000004      -8.33988306E-05
  -9.07999992      -8.60869914E-05
  -8.94999981      -8.88298528E-05
  -8.81999969      -9.16275894E-05
  -8.68999958      -9.44808417E-05
  -8.56000042      -9.73906281E-05
  -8.43000031      -1.00358309E-04
  -8.30000019      -1.03385428E-04
  -8.17000008      -1.06473650E-04
  -8.03999996      -1.09624634E-04
  -7.90999985      -1.12839822E-04
  -7.78000021      -1.16120413E-04
  -7.65000010      -1.19467164E-04
  -7.51999998      -1.22880418E-04
  -7.38999987      -1.26359941E-04
  -7.26000023      -1.29905049E-04
  -7.13000011      -1.33514550E-04
  -7.00000000      -1.37186871E-04
  -6.86999989      -1.40920092E-04
  -6.73999977      -1.44712147E-04
  -6.61000013      -1.48560910E-04
  -6.48000002      -1.52464316E-04
  -6.34999990      -1.56420501E-04
  -6.21999979      -1.60427910E-04
  -6.09000015      -1.64485333E-04
  -5.96000004      -1.68591956E-04
  -5.82999992      -1.72747401E-04
  -5.69999981      -1.76951580E-04
  -5.57000017      -1.81204712E-04
  -5.44000006      -1.85507102E-04
  -5.30999994      -1.89859202E-04
  -5.17999983      -1.94261229E-04
  -5.05000019      -1.98713256E-04
  -4.92000008      -2.03214993E-04
  -4.78999996      -2.07765639E-04
  -4.65999985      -2.12363986E-04
  -4.53000021      -2.17008244E-04
  -4.40000010      -2.21696129E-04
  -4.26999998      -2.26424934E-04
  -4.13999987      -2.31191560E-04
  -4.01000023      -2.35992688E-04
  -3.88000011      -2.40824884E-04
  -3.75000000      -2.45684700E-04
  -3.61999989      -2.50568846E-04
  -3.49000001      -2.55474326E-04
  -3.35999990      -2.60398432E-04
  -3.23000002      -2.65338866E-04
  -3.09999990      -2.70293764E-04
  -2.97000003      -2.75261555E-04
  -2.83999991      -2.80241133E-04
  -2.71000004      -2.85231450E-04
  -2.57999992      -2.90231721E-04
  -2.45000005      -2.95241101E-04
  -2.31999993      -3.00258573E-04
  -2.19000006      -3.05282883E-04
  -2.05999994      -3.10312433E-04
  -1.92999995      -3.15345154E-04
  -1.79999995      -3.20378458E-04
  -1.66999996      -3.25409288E-04
  -1.53999996      -3.30434123E-04
  -1.40999997      -3.35449149E-04
  -1.27999997      -3.40450119E-04
  -1.14999998      -3.45432723E-04
  -1.01999998      -3.50392656E-04
 -0.889999986      -3.55325697E-04
 -0.759999990      -3.60227859E-04
 -0.629999995      -3.65095475E-04
 -0.500000000      -3.69925401E-04
 -0.370000005      -3.74714844E-04
 -0.239999995      -3.79461475E-04
 -0.109999999      -3.84163373E-04
   1.99999996E-02  -3.88818997E-04
  0.150000006      -3.93426948E-04
  0.280000001      -3.97986005E-04
  0.409999996      -4.02494916E-04
  0.540000021      -4.06952284E-04
  0.670000017      -4.11356421E-04
  0.800000012      -4.15705406E-04
  0.930000007      -4.19996737E-04
   1.05999994      -4.24227590E-04
   1.19000006      -4.28394706E-04
   1.32000005      -4.32494446E-04
   1.45000005      -4.36522940E-04
   1.58000004      -4.40476084E-04
   1.71000004      -4.44349775E-04
   1.84000003      -4.48139996E-04
   1.97000003      -4.51842992E-04
   2.09999990      -4.55455360E-04
   2.23000002      -4.58974071E-04
   2.35999990      -4.62396623E-04
   2.49000001      -4.65721037E-04
   2.61999989      -4.68945887E-04
   2.75000000      -4.72070038E-04
   2.88000011      -4.75092849E-04
   3.00999999      -4.78013768E-04
   3.14000010      -4.80832445E-04
   3.26999998      -4.83548502E-04
   3.40000010      -4.86161327E-04
   3.52999997      -4.88670077E-04
   3.66000009      -4.91073646E-04
   3.78999996      -4.93370520E-04
   3.92000008      -4.95558779E-04
   4.05000019      -4.97636211E-04
   4.17999983      -4.99600195E-04
   4.30999994      -5.01448114E-04
   4.44000006      -5.03177056E-04
   4.57000017      -5.04784519E-04
   4.69999981      -5.06267766E-04
   4.82999992      -5.07624703E-04
   4.96000004      -5.08853467E-04
   5.09000015      -5.09952893E-04
   5.21999979      -5.10922051E-04
   5.34999990      -5.11760707E-04
   5.48000002      -5.12469094E-04
   5.61000013      -5.13047969E-04
   5.73999977      -5.13498322E-04
   5.86999989      -5.13821258E-04
   6.00000000      -5.14018000E-04
   6.13000011      -5.14089770E-04
   6.26000023      -5.14037558E-04
   6.38999987      -5.13862062E-04
   6.51999998      -5.13563573E-04
   6.65000010      -5.13142149E-04
   6.78000021      -5.12597384E-04
   6.90999985      -5.11928520E-04
   7.03999996      -5.11134742E-04
   7.17000008      -5.10214886E-04
   7.30000019      -5.09167847E-04
   7.42999983      -5.07992750E-04
   7.55999994      -5.06688841E-04
   7.69000006      -5.05255768E-04
   7.82000017      -5.03693649E-04
   7.94999981      -5.02003124E-04
   8.07999992      -5.00185182E-04
   8.21000004      -4.98241570E-04
   8.34000015      -4.96174267E-04
   8.47000027      -4.93985717E-04
   8.60000038      -4.91678540E-04
   8.72999954      -4.89255530E-04
   8.85999966      -4.86719422E-04
   8.98999977      -4.84072865E-04
   9.11999989      -4.81318246E-04
   9.25000000      -4.78457572E-04
   9.38000011      -4.75492416E-04
   9.51000023      -4.72424115E-04
   9.64000034      -4.69253457E-04
   9.77000046      -4.65980993E-04
   9.89999962      -4.62607073E-04
   10.0299997      -4.59131930E-04
   10.1599998      -4.55555710E-04
   10.2900000      -4.51878848E-04
   10.4200001      -4.48101928E-04
   10.5500002      -4.44225996E-04
   10.6800003      -4.40252508E-04
   10.8100004      -4.36183356E-04
   10.9399996      -4.32021014E-04
   11.0699997      -4.27768246E-04
   11.1999998      -4.23428311E-04
   11.3299999      -4.19004587E-04
   11.4600000      -4.14500770E-04
   11.5900002      -4.09920467E-04
   11.7200003      -4.05267172E-04
   11.8500004      -4.00544173E-04
   11.9799995      -3.95754440E-04
   12.1099997      -3.90900474E-04
   12.2399998      -3.85984429E-04
   12.3699999      -3.81007994E-04
   12.5000000      -3.75972450E-04
   12.6300001      -3.70878755E-04
   12.7600002      -3.65727697E-04
   12.8900003      -3.60520004E-04
   13.0200005      -3.55256401E-04
   13.1499996      -3.49937705E-04
   13.2799997      -3.44565138E-04
   13.4099998      -3.39140184E-04
   13.5400000      -3.33664851E-04
   13.6700001      -3.28141556E-04
   13.8000002      -3.22573091E-04
   13.9300003      -3.16962745E-04
   14.0600004      -3.11313983E-04
   14.1899996      -3.05630587E-04
   14.3199997      -2.99916224E-04
   14.4499998      -2.94174679E-04
   14.5799999      -2.88409356E-04
   14.7100000      -2.82623485E-04
   14.8400002      -2.76819832E-04
   14.9700003      -2.71000754E-04
   15.1000004      -2.65168084E-04
   15.2299995      -2.59323308E-04
   15.3599997      -2.53467471E-04
   15.4899998      -2.47601332E-04
   15.6199999      -2.41725516E-04
   15.7500000      -2.35840562E-04
   15.8800001      -2.29947109E-04
   16.0100002      -2.24045958E-04
   16.1399994      -2.18138215E-04
   16.2700005      -2.12225379E-04
   16.3999996      -2.06309356E-04
   16.5300007      -2.00392489E-04
   16.6599998      -1.94477529E-04
   16.7900009      -1.88567501E-04
   16.9200001      -1.82665739E-04
   17.0499992      -1.76775604E-04
   17.1800003      -1.70900516E-04
   17.3099995      -1.65043733E-04
   17.4400005      -1.59208226E-04
   17.5699997      -1.53396613E-04
   17.7000008      -1.47611077E-04
   17.8299999      -1.41853321E-04
   17.9599991      -1.36124596E-04
   18.0900002      -1.30425702E-04
   18.2199993      -1.24757120E-04
   18.3500004      -1.19119075E-04
   18.4799995      -1.13511633E-04
   18.6100006      -1.07934924E-04
   18.7399998      -1.02389153E-04
   18.8700008      -9.68747991E-05
   19.0000000      -9.13926560E-05
   19.1299992      -8.59439315E-05
   19.2600002      -8.05302334E-05
   19.3899994      -7.51535990E-05
   19.5200005      -6.98164149E-05
   19.6499996      -6.45213586E-05
   19.7800007      -5.92712859E-05
   19.9099998      -5.40690926E-05
   20.0400009      -4.89176164E-05
   20.1700001      -4.38194984E-05
   20.2999992      -3.87770669E-05
   20.4300003      -3.37922538E-05
   20.5599995      -2.88665378E-05
   20.6900005      -2.40009340E-05
   20.8199997      -1.91960044E-05
   20.9500008      -1.44519090E-05
   21.0799999      -9.76850424E-06
   21.2099991      -5.14544672E-06
   21.3400002      -5.82317057E-07
   21.4699993       3.92124412E-06
   21.6000004       8.36541403E-06
   21.7299995       1.27500907E-05
   21.8600006       1.70748026E-05
   21.9899998       2.13386702E-05
   22.1200008       2.55404066E-05
   22.2500000       2.96783255E-05
   22.3799992       3.37504280E-05
   22.5100002       3.77544857E-05
   22.6399994       4.16881485E-05
   22.7700005       4.55490881E-05
   22.8999996       4.93351108E-05
   23.0300007       5.30442740E-05
   23.1599998       5.66749950E-05
   23.2900009       6.02261061E-05
   23.4200001       6.36969053E-05
   23.5499992       6.70871523E-05
   23.6800003       7.03970290E-05
   23.8099995       7.36270813E-05
   23.9400005       7.67781166E-05
   24.0699997       7.98510882E-05
   24.2000008       8.28469638E-05
   24.3299999       8.57666018E-05
   24.4599991       8.86106427E-05
   24.5900002       9.13793992E-05
   24.7199993       9.40727987E-05
   24.8500004       9.66903535E-05
   24.9799995       9.92311761E-05
   25.1100006       1.01693986E-04
   25.2399998       1.04077248E-04
   25.3700008       1.06379222E-04
   25.5000000       1.08598106E-04
   25.6299992       1.10732166E-04
   25.7600002       1.12779861E-04
   25.8899994       1.14739945E-04
   26.0200005       1.16611576E-04
   26.1499996       1.18394346E-04
   26.2800007       1.20088305E-04
   26.4099998       1.21693956E-04
   26.5400009       1.23212216E-04
   26.6700001       1.24644270E-04
   26.7999992       1.25991573E-04
   26.9300003       1.27255596E-04
   27.0599995       1.28437809E-04
   27.1900005       1.29539505E-04
   27.3199997       1.30561733E-04
   27.4500008       1.31505178E-04
   27.5799999       1.32370129E-04
   27.7099991       1.33156471E-04
   27.8400002       1.33863679E-04
   27.9699993       1.34490940E-04
   28.1000004       1.35037160E-04
   28.2299995       1.35501134E-04
   28.3600006       1.35881637E-04
   28.4899998       1.36177594E-04
   28.6200008       1.36388146E-04
   28.7500000       1.36512783E-04
   28.8799992       1.36551462E-04
   29.0100002       1.36504532E-04
   29.1399994       1.36372881E-04
   29.2700005       1.36157789E-04
   29.3999996       1.35860915E-04
   29.5300007       1.35484195E-04
   29.6599998       1.35029710E-04
   29.7900009       1.34499598E-04
   29.9200001       1.33895868E-04
   30.0499992       1.33220368E-04
   30.1800003       1.32474568E-04
   30.3099995       1.31659646E-04
   30.4400005       1.30776345E-04
   30.5699997       1.29825014E-04
   30.7000008       1.28805637E-04
   30.8299999       1.27717925E-04
   30.9599991       1.26561426E-04
   31.0900002       1.25335573E-04
   31.2199993       1.24039900E-04
   31.3500004       1.22674086E-04
   31.4799995       1.21238103E-04
   31.6100006       1.19732329E-04
   31.7399998       1.18157550E-04
   31.8700008       1.16515032E-04
   32.0000000       1.14806498E-04
   32.1300011       1.13034075E-04
   32.2599983       1.11200221E-04
   32.3899994       1.09307621E-04
   32.5200005       1.07359061E-04
   32.6500015       1.05357307E-04
   32.7799988       1.03304956E-04
   32.9099998       1.01204387E-04
   33.0400009       9.90576009E-05
   33.1699982       9.68662280E-05
   33.2999992       9.46315049E-05
   33.4300003       9.23542393E-05
   33.5600014       9.00349478E-05
   33.6899986       8.76738704E-05
   33.8199997       8.52711310E-05
   33.9500008       8.28268239E-05
   34.0800018       8.03411458E-05
   34.2099991       7.78145259E-05
   34.3400002       7.52477063E-05
   34.4700012       7.26418366E-05
   34.5999985       6.99984885E-05
   34.7299995       6.73196773E-05
   34.8600006       6.46078624E-05
   34.9900017       6.18658232E-05
   35.1199989       5.90966301E-05
   35.2500000       5.63035064E-05
   35.3800011       5.34896972E-05
   35.5099983       5.06583565E-05
   35.6399994       4.78124348E-05
   35.7700005       4.49545660E-05
   35.9000015       4.20870019E-05
   36.0299988       3.92115689E-05
   36.1599998       3.63296822E-05
   36.2900009       3.34423567E-05
   36.4199982       3.05502799E-05
   36.5499992       2.76539304E-05
   36.6800003       2.47536664E-05
   36.8100014       2.18498644E-05
   36.9399986       1.89430357E-05
   37.0699997       1.60339405E-05
   37.2000008       1.31236775E-05
   37.3300018       1.02137392E-05
   37.4599991       7.30605234E-06
   37.5900002       4.40295253E-06
   37.7200012       1.50714402E-06
   37.8499985      -1.37837287E-06
   37.9799995      -4.25041208E-06
   38.1100006      -7.10571840E-06
   38.2400017      -9.94107904E-06
   38.3699989      -1.27534704E-05
   38.5000000      -1.55401267E-05
   38.6300011      -1.82986769E-05
   38.7599983      -2.10271464E-05
   38.8899994      -2.37240220E-05
   39.0200005      -2.63882284E-05
   39.1500015      -2.90190674E-05
   39.2799988      -3.16161531E-05
   39.4099998      -3.41793093E-05
   39.5400009      -3.67084431E-05
   39.6699982      -3.92034199E-05
   39.7999992      -4.16639705E-05
   39.9300003      -4.40895565E-05
   40.0600014      -4.64793084E-05
   40.1899986      -4.88319747E-05
   40.3199997      -5.11459039E-05
   40.4500008      -5.34190913E-05
   40.5800018      -5.56492123E-05
   40.7099991      -5.78337313E-05
   40.8400002      -5.99700106E-05
   40.9700012      -6.20554129E-05
   41.0999985      -6.40874496E-05
   41.2299995      -6.60638834E-05
   41.3600006      -6.79828518E-05
   41.4900017      -6.98428703E-05
   41.6199989      -7.16429713E-05
   41.7500000      -7.33826237E-05
   41.8800011      -7.50617255E-05
   42.0099983      -7.66805606E-05
   42.1399994      -7.82396892E-05
   42.2700005      -7.97398388E-05
   42.4000015      -8.11817736E-05
   42.5299988      -8.25662137E-05
   42.6599998      -8.38936830E-05
   42.7900009      -8.51644363E-05
   42.9199982      -8.63783862E-05
   43.0499992      -8.75350670E-05
   43.1800003      -8.86336638E-05
   43.3100014      -8.96730198E-05
   43.4399986      -9.06517016E-05
   43.5699997      -9.15681521E-05
   43.7000008      -9.24207270E-05
   43.8300018      -9.32078765E-05
   43.9599991      -9.39282399E-05
   44.0900002      -9.45807697E-05
   44.2200012      -9.51648180E-05
   44.3499985      -9.56801814E-05
   44.4799995      -9.61271217E-05
   44.6100006      -9.65063737E-05
   44.7400017      -9.68190870E-05
   44.8699989      -9.70667243E-05
   45.0000000      -9.72510243E-05
   45.1300011      -9.73737988E-05
   45.2599983      -9.74368813E-05
   45.3899994      -9.74419527E-05
   45.5200005      -9.73905044E-05
   45.6500015      -9.72836715E-05
   45.7799988      -9.71222544E-05
   45.9099998      -9.69066896E-05
   46.0400009      -9.66370571E-05
   46.1699982      -9.63131097E-05
   46.2999992      -9.59343888E-05
   46.4300003      -9.55003197E-05
   46.5600014      -9.50102985E-05
   46.6899986      -9.44638741E-05
   46.8199997      -9.38607773E-05
   46.9500008      -9.32010953E-05
   47.0800018      -9.24853084E-05
   47.2099991      -9.17143261E-05
   47.3400002      -9.08895236E-05
   47.4700012      -9.00127052E-05
   47.5999985      -8.90860174E-05
   47.7299995      -8.81118976E-05
   47.8600006      -8.70929362E-05
   47.9900017      -8.60317668E-05
   48.1199989      -8.49309436E-05
   48.2500000      -8.37928092E-05
   48.3800011      -8.26194373E-05
   48.5099983      -8.14125160E-05
   48.6399994      -8.01733477E-05
   48.7700005      -7.89028345E-05
   48.9000015      -7.76015149E-05
   49.0299988      -7.62696363E-05
   49.1599998      -7.49072278E-05
   49.2900009      -7.35142385E-05
   49.4199982      -7.20906319E-05
   49.5499992      -7.06365172E-05
   49.6800003      -6.91522291E-05
   49.8100014      -6.76384589E-05
   49.9399986      -6.60962614E-05
   50.0699997      -6.45271139E-05
   50.2000008      -6.29329152E-05
   50.3300018      -6.13159064E-05
   50.4599991      -5.96786231E-05
   50.5900002      -5.80238084E-05
   50.7200012      -5.63542781E-05
   50.8499985      -5.46728006E-05
   50.9799995      -5.29819881E-05
   51.1100006      -5.12841798E-05
   51.2400017      -4.95813656E-05
   51.3699989      -4.78751208E-05
   51.5000000      -4.61666059E-05
   51.6300011      -4.44565449E-05
   51.7599983      -4.27453087E-05
   51.8899994      -4.10329631E-05
   52.0200005      -3.93194023E-05
   52.1500015      -3.76044409E-05
   52.2799988      -3.58879552E-05
   52.4099998      -3.41699706E-05
   52.5400009      -3.24507855E-05
   52.6699982      -3.07310293E-05
   52.7999992      -2.90117114E-05
   52.9300003      -2.72942361E-05
   53.0600014      -2.55803698E-05
   53.1899986      -2.38721877E-05
   53.3199997      -2.21719856E-05
   53.4500008      -2.04821881E-05
   53.5800018      -1.88052127E-05
   53.7099991      -1.71433621E-05
   53.8400002      -1.54987138E-05
   53.9700012      -1.38730202E-05
   54.0999985      -1.22676465E-05
   54.2299995      -1.06835205E-05
   54.3600006      -9.12113228E-06
   54.4900017      -7.58055967E-06
   54.6199989      -6.06153662E-06
   54.7500000      -4.56352973E-06
   54.8800011      -3.08585572E-06
   55.0099983      -1.62779497E-06
   55.1399994      -1.88710047E-07
   55.2700005       1.23183827E-06
   55.4000015       2.63400580E-06
   55.5299988       4.01760326E-06
   55.6599998       5.38205359E-06
   55.7900009       6.72641227E-06
   55.9199982       8.04938918E-06
   56.0499992       9.34942818E-06
   56.1800003       1.06248008E-05
   56.3100014       1.18737198E-05
   56.4399986       1.30944536E-05
   56.5699997       1.42854387E-05
   56.7000008       1.54453919E-05
   56.8300018       1.65733909E-05
   56.9599991       1.76689173E-05
   57.0900002       1.87318929E-05
   57.2200012       1.97626596E-05
   57.3499985       2.07619305E-05
   57.4799995       2.17307334E-05
   57.6100006       2.26702941E-05
   57.7400017       2.35819389E-05
   57.8699989       2.44669609E-05
   58.0000000       2.53265225E-05
   58.1300011       2.61615442E-05
   58.2599983       2.69726243E-05
   58.3899994       2.77599884E-05
   58.5200005       2.85234819E-05
   58.6500015       2.92625737E-05
   58.7799988       2.99764179E-05
   58.9099998       3.06639195E-05
   59.0400009       3.13238561E-05
   59.1699982       3.19549763E-05
   59.2999992       3.25561305E-05
   59.4300003       3.31263691E-05
   59.5600014       3.36650592E-05
   59.6899986       3.41719388E-05
   59.8199997       3.46471606E-05
   59.9500008       3.50913106E-05
   60.0800018       3.55053526E-05
   60.2099991       3.58905927E-05
   60.3400002       3.62485771E-05
   60.4700012       3.65809938E-05
   60.5999985       3.68895489E-05
   60.7299995       3.71758506E-05
   60.8600006       3.74413030E-05
   60.9900017       3.76870084E-05
   61.1199989       3.79137200E-05
   61.2500000       3.81217833E-05
   61.3800011       3.83111619E-05
   61.5099983       3.84814375E-05
   61.6399994       3.86318934E-05
   61.7700005       3.87616092E-05
   61.9000015       3.88695589E-05
   62.0299988       3.89547131E-05
   62.1599998       3.90161731E-05
   62.2900009       3.90532769E-05
   62.4199982       3.90656787E-05
   62.5499992       3.90534078E-05
   62.6800003       3.90169043E-05
   62.8100014       3.89570014E-05
   62.9399986       3.88748995E-05
   63.0699997       3.87720684E-05
   63.2000008       3.86501852E-05
   63.3300018       3.85109961E-05
   63.4599991       3.83562037E-05
   63.5900002       3.81873579E-05
   63.7200012       3.80057572E-05
   63.8499985       3.78123550E-05
   63.9799995       3.76077260E-05
   64.1100006       3.73920375E-05
   64.2399979       3.71650749E-05
   64.3700027       3.69262743E-05
   64.5000000       3.66748209E-05
   64.6299973       3.64097286E-05
   64.7600021       3.61299644E-05
   64.8899994       3.58345496E-05
   65.0199966       3.55226839E-05
   65.1500015       3.51938288E-05
   65.2799988       3.48477806E-05
   65.4100037       3.44847358E-05
   65.5400009       3.41052655E-05
   65.6699982       3.37103302E-05
   65.8000031       3.33012031E-05
   65.9300003       3.28794013E-05
   66.0599976       3.24465800E-05
   66.1900024       3.20044201E-05
   66.3199997       3.15545149E-05
   66.4499969       3.10982396E-05
   66.5800018       3.06366928E-05
   66.7099991       3.01705968E-05
   66.8399963       2.97002771E-05
   66.9700012       2.92256518E-05
   67.0999985       2.87462608E-05
   67.2300034       2.82613310E-05
   67.3600006       2.77698655E-05
   67.4899979       2.72707475E-05
   67.6200027       2.67628529E-05
   67.7500000       2.62451722E-05
   67.8799973       2.57169086E-05
   68.0100021       2.51775709E-05
   68.1399994       2.46270301E-05
   68.2699966       2.40655445E-05
   68.4000015       2.34937634E-05
   68.5299988       2.29126872E-05
   68.6600037       2.23236038E-05
   68.7900009       2.17279958E-05
   68.9199982       2.11274346E-05
   69.0500031       2.05234774E-05
   69.1800003       1.99175411E-05
   69.3099976       1.93108153E-05
   69.4400024       1.87041678E-05
   69.5699997       1.80981006E-05
   69.6999969       1.74927227E-05
   69.8300018       1.68877559E-05
   69.9599991       1.62825836E-05
   70.0899963       1.56763144E-05
   70.2200012       1.50678879E-05
   70.3499985       1.44561773E-05
   70.4800034       1.38401138E-05
   70.6100006       1.32187843E-05
   70.7399979       1.25915494E-05
   70.8700027       1.19581036E-05
   71.0000000       1.13185333E-05
   71.1299973       1.06733241E-05
   71.2600021       1.00233483E-05
   71.3899994       9.36980177E-06
   71.5199966       8.71413886E-06
   71.6500015       8.05796572E-06
   71.7799988       7.40292398E-06
   71.9100037       6.75058754E-06
   72.0400009       6.10234383E-06
   72.1699982       5.45931380E-06
   72.3000031       4.82227688E-06
   72.4300003       4.19163007E-06
   72.5599976       3.56737951E-06
   72.6900024       2.94917118E-06
   72.8199997       2.33634137E-06
   72.9499969       1.72799855E-06
   73.0800018       1.12312193E-06
   73.2099991       5.20673836E-07
   73.3399963      -8.02952371E-08
   73.4700012      -6.80525318E-07
   73.5999985      -1.28047782E-06
   73.7300034      -1.88025490E-06
   73.8600006      -2.47957564E-06
   73.9899979      -3.07777191E-06
   74.1200027      -3.67382040E-06
   74.2500000      -4.26640099E-06
   74.3799973      -4.85399096E-06
   74.5100021      -5.43496844E-06
   74.6399994      -6.00772955E-06
   74.7699966      -6.57079681E-06
   74.9000015      -7.12292467E-06
   75.0299988      -7.66318135E-06
   75.1600037      -8.19100296E-06
   75.2900009      -8.70621534E-06
   75.4199982      -9.20903585E-06
   75.5500031      -9.70002475E-06
   75.6800003      -1.01800179E-05
   75.8099976      -1.06500320E-05
   75.9400024      -1.11111658E-05
   76.0699997      -1.15644862E-05
   76.1999969      -1.20109116E-05
   76.3300018      -1.24511307E-05
   76.4599991      -1.28855099E-05
   76.5899963      -1.33140602E-05
   76.7200012      -1.37364059E-05
   76.8499985      -1.41517985E-05
   76.9800034      -1.45591684E-05
   77.1100006      -1.49571906E-05
   77.2399979      -1.53443780E-05
   77.3700027      -1.57191953E-05
   77.5000000      -1.60801701E-05
   77.6299973      -1.64260000E-05
   77.7600021      -1.67556427E-05
   77.8899994      -1.70684016E-05
   78.0199966      -1.73639692E-05
   78.1500015      -1.76424201E-05
   78.2799988      -1.79042181E-05
   78.4100037      -1.81501437E-05
   78.5400009      -1.83812226E-05
   78.6699982      -1.85986264E-05
   78.8000031      -1.88035592E-05
   78.9300003      -1.89971415E-05
   79.0599976      -1.91803174E-05
   79.1900024      -1.93537544E-05
   79.3199997      -1.95177890E-05
   79.4499969      -1.96723850E-05
   79.5800018      -1.98171310E-05
   79.7099991      -1.99512779E-05
   79.8399963      -2.00737832E-05
   79.9700012      -2.01834118E-05
   80.0999985      -2.02788196E-05
   80.2300034      -2.03586696E-05
   80.3600006      -2.04217467E-05
   80.4899979      -2.04670487E-05
   80.6200027      -2.04938806E-05
   80.7500000      -2.05019041E-05
   80.8799973      -2.04911812E-05
   81.0100021      -2.04621538E-05
   81.1399994      -2.04156331E-05
   81.2699966      -2.03527179E-05
   81.4000015      -2.02747142E-05
   81.5299988      -2.01830389E-05
   81.6600037      -2.00790928E-05
   81.7900009      -1.99641581E-05
   81.9199982      -1.98393009E-05
   82.0500031      -1.97052868E-05
   82.1800003      -1.95625271E-05
   82.3099976      -1.94110635E-05
   82.4400024      -1.92505686E-05
   82.5699997      -1.90803948E-05
   82.6999969      -1.88996491E-05
   82.8300018      -1.87072728E-05
   82.9599991      -1.85021618E-05
   83.0899963      -1.82832628E-05
   83.2200012      -1.80496936E-05
   83.3499985      -1.78008249E-05
   83.4800034      -1.75363584E-05
   83.6100006      -1.72563596E-05
   83.7399979      -1.69612849E-05
   83.8700027      -1.66519567E-05
   84.0000000      -1.63295117E-05
   84.1299973      -1.59953379E-05
   84.2600021      -1.56509668E-05
   84.3899994      -1.52979792E-05
   84.5199966      -1.49378902E-05
   84.6500015      -1.45720460E-05
   84.7799988      -1.42015306E-05
   84.9100037      -1.38271007E-05
   85.0400009      -1.34491484E-05
   85.1699982      -1.30676817E-05
   85.3000031      -1.26823570E-05
   85.4300003      -1.22925276E-05
   85.5599976      -1.18973294E-05
   85.6900024      -1.14957675E-05
   85.8199997      -1.10868423E-05
   85.9499969      -1.06696416E-05
   86.0800018      -1.02434597E-05
   86.2099991      -9.80787081E-06
   86.3399963      -9.36280139E-06
   86.4700012      -8.90854790E-06
   86.5999985      -8.44578881E-06
   86.7300034      -7.97553821E-06
   86.8600006      -7.49909714E-06