  -24.4200001         0.00000000    
  -24.2900009        -8.98310759E-09
  -24.1599998        -2.69344511E-08
  -24.0300007        -5.32824522E-08
  -23.8999996        -8.69576269E-08
  -23.7700005        -1.26492907E-07
  -23.6399994        -1.70156824E-07
  -23.5100002        -2.16108418E-07
  -23.3799992        -2.62560462E-07
  -23.2500000        -3.07937484E-07
  -23.1200008        -3.51015075E-07
  -22.9899998        -3.91029062E-07
  -22.8600006        -4.27745306E-07
  -22.7299995        -4.61484632E-07
  -22.6000004        -4.93100572E-07
  -22.4699993        -5.23912547E-07
  -22.3400002        -5.55599797E-07
  -22.2099991        -5.90065554E-07
  -22.0799999        -6.29282397E-07
  -21.9500008        -6.75132981E-07
  -21.8199997        -7.29258147E-07
  -21.6900005        -7.92927267E-07
  -21.5599995        -8.66940013E-07
  -21.4300003        -9.51569234E-07
  -21.2999992        -1.04654953E-06
  -21.1700001        -1.15111220E-06
  -21.0400009        -1.26406496E-06
  -20.9099998        -1.38390737E-06
  -20.7800007        -1.50897552E-06
  -20.6499996        -1.63760035E-06
  -20.5200005        -1.76826893E-06
  -20.3899994        -1.89977288E-06
  -20.2600002        -2.03133277E-06
  -20.1299992        -2.16268722E-06
  -20.0000000        -2.29413899E-06
  -19.8700008        -2.42655551E-06
  -19.7399998        -2.56132193E-06
  -19.6100006        -2.70025180E-06
  -19.4799995        -2.84546377E-06
  -19.3500004        -2.99923295E-06
  -19.2199993        -3.16383080E-06
  -19.0900002        -3.34136735E-06
  -18.9599991        -3.53364726E-06
  -18.8299999        -3.74205433E-06
  -18.7000008        -3.96747055E-06
  -18.5699997        -4.21024288E-06
  -18.4400005        -4.47018920E-06
  -18.3099995        -4.74665740E-06
  -18.1800003        -5.03862111E-06
  -18.0499992        -5.34480751E-06
  -17.9200001        -5.66385143E-06
  -17.7900009        -5.99445048E-06
  -17.6599998        -6.33552645E-06
  -17.5300007        -6.68635903E-06
  -17.3999996        -7.04669628E-06
  -17.2700005        -7.41682561E-06
  -17.1399994        -7.79759830E-06
  -17.0100002        -8.19040815E-06
  -16.8799992        -8.59712600E-06
  -16.7500000        -9.01999374E-06
  -16.6200008        -9.46148884E-06
  -16.4899998        -9.92416790E-06
  -16.3600006        -1.04105084E-05
  -16.2299995        -1.09227531E-05
  -16.1000004        -1.14627837E-05
  -15.9700003        -1.20320137E-05
  -15.8400002        -1.26313407E-05
  -15.7100000        -1.32611203E-05
  -15.5799999        -1.39212079E-05
  -15.4499998        -1.46110342E-05
  -15.3199997        -1.53297151E-05
  -15.1899996        -1.60761956E-05
  -15.0600004        -1.68494098E-05
  -14.9300003        -1.76484264E-05
  -14.8000002        -1.84726177E-05
  -14.6700001        -1.93217602E-05
  -14.5400000        -2.01961393E-05
  -14.4099998        -2.10965954E-05
  -14.2799997        -2.20245165E-05
  -14.1499996        -2.29818106E-05
  -14.0200005        -2.39708061E-05
  -13.8900003        -2.49941331E-05
  -13.7600002        -2.60545803E-05
  -13.6300001        -2.71549325E-05
  -13.5000000        -2.82978126E-05
  -13.3699999        -2.94855363E-05
  -13.2399998        -3.07199953E-05
  -13.1099997        -3.20025756E-05
  -12.9799995        -3.33341086E-05
  -12.8500004        -3.47148962E-05
  -12.7200003        -3.61447565E-05
  -12.5900002        -3.76231037E-05
  -12.4600000        -3.91491085E-05
  -12.3299999        -4.07218031E-05
  -12.1999998        -4.23402817E-05
  -12.0699997        -4.40038275E-05
  -11.9399996        -4.57120586E-05
  -11.8100004        -4.74650296E-05
  -11.6800003        -4.92633153E-05
  -11.5500002        -5.11080070E-05
  -11.4200001        -5.30007164E-05
  -11.2900000        -5.49434953E-05
  -11.1599998        -5.69387412E-05
  -11.0299997        -5.89890478E-05
  -10.8999996        -6.10970601E-05
  -10.7700005        -6.32653173E-05
  -10.6400003        -6.54960968E-05
  -10.5100002        -6.77912612E-05
  -10.3800001        -7.01522149E-05
  -10.2500000        -7.25797654E-05
  -10.1199999        -7.50741747E-05
  -9.98999977        -7.76351299E-05
  -9.85999966        -8.02618597E-05
  -9.72999954        -8.29532219E-05
  -9.60000038        -8.57078558E-05
  -9.47000027        -8.85243280E-05
  -9.34000015        -9.14012708E-05
  -9.21000004        -9.43375780E-05
  -9.07999992        -9.73324713E-05
  -8.94999981        -1.00385616E-04
  -8.81999969        -1.03497187E-04
  -8.68999958        -1.06667831E-04
  -8.56000042        -1.09898669E-04
  -8.43000031        -1.13191163E-04
  -8.30000019        -1.16547031E-04
  -8.17000008        -1.19968085E-04
  -8.03999996        -1.23456062E-04
  -7.90999985        -1.27012507E-04
  -7.78000021        -1.30638567E-04
  -7.65000010        -1.34334943E-04
  -7.51999998        -1.38101736E-04
  -7.38999987        -1.41938435E-04
  -7.26000023        -1.45843980E-04
  -7.13000011        -1.49816726E-04
  -7.00000000        -1.53854577E-04
  -6.86999989        -1.57955074E-04
  -6.73999977        -1.62115597E-04
  -6.61000013        -1.66333484E-04
  -6.48000002        -1.70606203E-04
  -6.34999990        -1.74931454E-04
  -6.21999979        -1.79307361E-04
  -6.09000015        -1.83732409E-04
  -5.96000004        -1.88205624E-04
  -5.82999992        -1.92726453E-04
  -5.69999981        -1.97294721E-04
  -5.57000017        -2.01910603E-04
  -5.44000006        -2.06574361E-04
  -5.30999994        -2.11286315E-04
  -5.17999983        -2.16046639E-04
  -5.05000019        -2.20855189E-04
  -4.92000008        -2.25711410E-04
  -4.78999996        -2.30614183E-04
  -4.65999985        -2.35561849E-04
  -4.53000021        -2.40552108E-04
  -4.40000010        -2.45582080E-04
  -4.26999998        -2.50648445E-04
  -4.13999987        -2.55747378E-04
  -4.01000023        -2.60874862E-04
  -3.88000011        -2.66026793E-04
  -3.75000000        -2.71199126E-04
  -3.61999989        -2.76387931E-04
  -3.49000001        -2.81589717E-04
  -3.35999990        -2.86801311E-04
  -3.23000002        -2.92020122E-04
  -3.09999990        -2.97243969E-04
  -2.97000003        -3.02471133E-04
  -2.83999991        -3.07700306E-04
  -2.71000004        -3.12930351E-04
  -2.57999992        -3.18160339E-04
  -2.45000005        -3.23389249E-04
  -2.31999993        -3.28615861E-04
  -2.19000006        -3.33838630E-04
  -2.05999994        -3.39055638E-04
  -1.92999995        -3.44264350E-04
  -1.79999995        -3.49461683E-04
  -1.66999996        -3.54644057E-04
  -1.53999996        -3.59807309E-04
  -1.40999997        -3.64946900E-04
  -1.27999997        -3.70058056E-04
  -1.14999998        -3.75135831E-04
  -1.01999998        -3.80175275E-04
 -0.889999986        -3.85171617E-04
 -0.759999990        -3.90120462E-04
 -0.629999995        -3.95017792E-04
 -0.500000000        -3.99860204E-04
 -0.370000005        -4.04644699E-04
 -0.239999995        -4.09368920E-04
 -0.109999999        -4.14030888E-04
   1.99999996E-02    -4.18629119E-04
  0.150000006        -4.23162302E-04
  0.280000001        -4.27629187E-04
  0.409999996        -4.32028610E-04
  0.540000021        -4.36359143E-04
  0.670000017        -4.40619013E-04
  0.800000012        -4.44806123E-04
  0.930000007        -4.48917795E-04
   1.05999994        -4.52950975E-04
   1.19000006        -4.56902024E-04
   1.32000005        -4.60767042E-04
   1.45000005        -4.64541779E-04
   1.58000004        -4.68221842E-04
   1.71000004        -4.71802865E-04
   1.84000003        -4.75280627E-04
   1.97000003        -4.78651258E-04
   2.09999990        -4.81911353E-04
   2.23000002        -4.85057972E-04
   2.35999990        -4.88088874E-04
   2.49000001        -4.91002400E-04
   2.61999989        -4.93797415E-04
   2.75000000        -4.96473280E-04
   2.88000011        -4.99029818E-04
   3.00999999        -5.01467031E-04
   3.14000010        -5.03785093E-04
   3.26999998        -5.05984004E-04
   3.40000010        -5.08063706E-04
   3.52999997        -5.10023674E-04
   3.66000009        -5.11863152E-04
   3.78999996        -5.13580744E-04
   3.92000008        -5.15174877E-04
   4.05000019        -5.16643457E-04
   4.17999983        -5.17984037E-04
   4.30999994        -5.19194116E-04
   4.44000006        -5.20271074E-04
   4.57000017        -5.21212467E-04
   4.69999981        -5.22016024E-04
   4.82999992        -5.22680115E-04
   4.96000004        -5.23203460E-04
   5.09000015        -5.23585302E-04
   5.21999979        -5.23825700E-04
   5.34999990        -5.23925235E-04
   5.48000002        -5.23884955E-04
   5.61000013        -5.23706607E-04
   5.73999977        -5.23391995E-04
   5.86999989        -5.22943330E-04
   6.00000000        -5.22362767E-04
   6.13000011        -5.21652284E-04
   6.26000023        -5.20813745E-04
   6.38999987        -5.19848487E-04
   6.51999998        -5.18757501E-04
   6.65000010        -5.17541426E-04
   6.78000021        -5.16200438E-04
   6.90999985        -5.14734245E-04
   7.03999996        -5.13142440E-04
   7.17000008        -5.11424500E-04
   7.30000019        -5.09579841E-04
   7.42999983        -5.07608114E-04
   7.55999994        -5.05509262E-04
   7.69000006        -5.03283751E-04
   7.82000017        -5.00932452E-04
   7.94999981        -4.98456939E-04
   8.07999992        -4.95859305E-04
   8.21000004        -4.93142346E-04
   8.34000015        -4.90309088E-04
   8.47000027        -4.87363111E-04
   8.60000038        -4.84308199E-04
   8.72999954        -4.81148134E-04
   8.85999966        -4.77886701E-04
   8.98999977        -4.74527449E-04
   9.11999989        -4.71073523E-04
   9.25000000        -4.67527658E-04
   9.38000011        -4.63892182E-04
   9.51000023        -4.60168812E-04
   9.64000034        -4.56358917E-04
   9.77000046        -4.52463544E-04
   9.89999962        -4.48483392E-04
   10.0299997        -4.44419158E-04
   10.1599998        -4.40271513E-04
   10.2900000        -4.36041359E-04
   10.4200001        -4.31729917E-04
   10.5500002        -4.27338819E-04
   10.6800003        -4.22870246E-04
   10.8100004        -4.18326905E-04
   10.9399996        -4.13711998E-04
   11.0699997        -4.09029220E-04
   11.1999998        -4.04282589E-04
   11.3299999        -3.99476354E-04
   11.4600000        -3.94614966E-04
   11.5900002        -3.89702676E-04
   11.7200003        -3.84743616E-04
   11.8500004        -3.79741541E-04
   11.9799995        -3.74699739E-04
   12.1099997        -3.69621062E-04
   12.2399998        -3.64507781E-04
   12.3699999        -3.59361671E-04
   12.5000000        -3.54184041E-04
   12.6300001        -3.48975795E-04
   12.7600002        -3.43737745E-04
   12.8900003        -3.38470534E-04
   13.0200005        -3.33174830E-04
   13.1499996        -3.27851623E-04
   13.2799997        -3.22502165E-04
   13.4099998        -3.17128113E-04
   13.5400000        -3.11731652E-04
   13.6700001        -3.06315429E-04
   13.8000002        -3.00882530E-04
   13.9300003        -2.95436475E-04
   14.0600004        -2.89981021E-04
   14.1899996        -2.84520007E-04
   14.3199997        -2.79057334E-04
   14.4499998        -2.73596699E-04
   14.5799999        -2.68141477E-04
   14.7100000        -2.62694666E-04
   14.8400002        -2.57258711E-04
   14.9700003        -2.51835561E-04
   15.1000004        -2.46426556E-04
   15.2299995        -2.41032525E-04
   15.3599997        -2.35653919E-04
   15.4899998        -2.30290825E-04
   15.6199999        -2.24943185E-04
   15.7500000        -2.19610898E-04
   15.8800001        -2.14293977E-04
   16.0100002        -2.08992657E-04
   16.1399994        -2.03707590E-04
   16.2700005        -1.98439840E-04
   16.3999996        -1.93190921E-04
   16.5300007        -1.87962811E-04
   16.6599998        -1.82757911E-04
   16.7900009        -1.77578928E-04
   16.9200001        -1.72428787E-04
   17.0499992        -1.67310442E-04
   17.1800003        -1.62226774E-04
   17.3099995        -1.57180402E-04
   17.4400005        -1.52173598E-04
   17.5699997        -1.47208164E-04
   17.7000008        -1.42285353E-04
   17.8299999        -1.37405877E-04
   17.9599991        -1.32569883E-04
   18.0900002        -1.27777079E-04
   18.2199993        -1.23026766E-04
   18.3500004        -1.18318014E-04
   18.4799995        -1.13649789E-04
   18.6100006        -1.09021086E-04
   18.7399998        -1.04431121E-04
   18.8700008        -9.98794058E-05
   19.0000000        -9.53658600E-05
   19.1299992        -9.08908696E-05
   19.2600002        -8.64553003E-05
   19.3899994        -8.20604837E-05
   19.5200005        -7.77081077E-05
   19.6499996        -7.34001587E-05
   19.7800007        -6.91387540E-05
   19.9099998        -6.49260255E-05
   20.0400009        -6.07639704E-05
   20.1700001        -5.66542913E-05
   20.2999992        -5.25982978E-05
   20.4300003        -4.85968303E-05
   20.5599995        -4.46501908E-05
   20.6900005        -4.07581647E-05
   20.8199997        -3.69200425E-05
   20.9500008        -3.31347073E-05
   21.0799999        -2.94007514E-05
   21.2099991        -2.57165939E-05
   21.3400002        -2.20806578E-05
   21.4699993        -1.84914788E-05
   21.6000004        -1.49478728E-05
   21.7299995        -1.14490231E-05
   21.8600006        -7.99456848E-06
   21.9899998        -4.58463774E-06
   22.1200008        -1.21983385E-06
   22.2500000         2.09880272E-06
   22.3799992         5.36988773E-06
   22.5100002         8.59181182E-06
   22.6399994         1.17628661E-05
   22.7700005         1.48814033E-05
   22.8999996         1.79459603E-05
   23.0300007         2.09553982E-05
   23.1599998         2.39090004E-05
   23.2900009         2.68065305E-05
   23.4200001         2.96482594E-05
   23.5499992         3.24349494E-05
   23.6800003         3.51677954E-05
   23.8099995         3.78483273E-05
   23.9400005         4.04782877E-05
   24.0699997         4.30594991E-05
   24.2000008         4.55937115E-05
   24.3299999         4.80824456E-05
   24.4599991         5.05269054E-05
   24.5900002         5.29278514E-05
   24.7199993         5.52855818E-05
   24.8500004         5.75998565E-05
   24.9799995         5.98699808E-05
   25.1100006         6.20948485E-05
   25.2399998         6.42730447E-05
   25.3700008         6.64029503E-05
   25.5000000         6.84829356E-05
   25.6299992         7.05114653E-05
   25.7600002         7.24872225E-05
   25.8899994         7.44092758E-05
   26.0200005         7.62770942E-05
   26.1499996         7.80906703E-05
   26.2800007         7.98504407E-05
   26.4099998         8.15573148E-05
   26.5400009         8.32125734E-05
   26.6700001         8.48177660E-05
   26.7999992         8.63745590E-05
   26.9300003         8.78846331E-05
   27.0599995         8.93495016E-05
   27.1900005         9.07704016E-05
   27.3199997         9.21481915E-05
   27.4500008         9.34832497E-05
   27.5799999         9.47754670E-05
   27.7099991         9.60242251E-05
   27.8400002         9.72284906E-05
   27.9699993         9.83868158E-05
   28.1000004         9.94975344E-05
   28.2299995         1.00558864E-04
   28.3600006         1.01569029E-04
   28.4899998         1.02526436E-04
   28.6200008         1.03429782E-04
   28.7500000         1.04278166E-04
   28.8799992         1.05071151E-04
   29.0100002         1.05808773E-04
   29.1399994         1.06491556E-04
   29.2700005         1.07120461E-04
   29.3999996         1.07696738E-04
   29.5300007         1.08221888E-04
   29.6599998         1.08697452E-04
   29.7900009         1.09124929E-04
   29.9200001         1.09505600E-04
   30.0499992         1.09840425E-04
   30.1800003         1.10129949E-04
   30.3099995         1.10374240E-04
   30.4400005         1.10572888E-04
   30.5699997         1.10725035E-04
   30.7000008         1.10829409E-04
   30.8299999         1.10884452E-04
   30.9599991         1.10888432E-04
   31.0900002         1.10839588E-04
   31.2199993         1.10736277E-04
   31.3500004         1.10577086E-04
   31.4799995         1.10360976E-04
   31.6100006         1.10087334E-04
   31.7399998         1.09756045E-04
   31.8700008         1.09367509E-04
   32.0000000         1.08922563E-04
   32.1300011         1.08422457E-04
   32.2599983         1.07868735E-04
   32.3899994         1.07263098E-04
   32.5200005         1.06607273E-04
   32.6500015         1.05902880E-04
   32.7799988         1.05151274E-04
   32.9099998         1.04353494E-04
   33.0400009         1.03510130E-04
   33.1699982         1.02621329E-04
   33.2999992         1.01686775E-04
   33.4300003         1.00705744E-04
   33.5600014         9.96771851E-05
   33.6899986         9.85998340E-05
   33.8199997         9.74723225E-05
   33.9500008         9.62933482E-05
   34.0800018         9.50618050E-05
   34.2099991         9.37769000E-05
   34.3400002         9.24382330E-05
   34.4700012         9.10459275E-05
   34.5999985         8.96005804E-05
   34.7299995         8.81033120E-05
   34.8600006         8.65556576E-05
   34.9900017         8.49595381E-05
   35.1199989         8.33171143E-05
   35.2500000         8.16306638E-05
   35.3800011         7.99024201E-05
   35.5099983         7.81344934E-05
   35.6399994         7.63286807E-05
   35.7700005         7.44864374E-05
   35.9000015         7.26087819E-05
   36.0299988         7.06962892E-05
   36.1599998         6.87491192E-05
   36.2900009         6.67670611E-05
   36.4199982         6.47496345E-05
   36.5499992         6.26962137E-05
   36.6800003         6.06061658E-05
   36.8100014         5.84789777E-05
   36.9399986         5.63143913E-05
   37.0699997         5.41125228E-05
   37.2000008         5.18739253E-05
   37.3300018         4.95996683E-05
   37.4599991         4.72913198E-05
   37.5900002         4.49509207E-05
   37.7200012         4.25809121E-05
   37.8499985         4.01840553E-05
   37.9799995         3.77632787E-05
   38.1100006         3.53215619E-05
   38.2400017         3.28617934E-05
   38.3699989         3.03866400E-05
   38.5000000         2.78984462E-05
   38.6300011         2.53991602E-05
   38.7599983         2.28902827E-05
   38.8899994         2.03728832E-05
   39.0200005         1.78476330E-05
   39.1500015         1.53148630E-05
   39.2799988         1.27746926E-05
   39.4099998         1.02271324E-05
   39.5400009         7.67224719E-06
   39.6699982         5.11025382E-06
   39.7999992         2.54166116E-06
   39.9300003        -3.26258984E-08
   40.0600014        -2.61126002E-06
   40.1899986        -5.19241667E-06
   40.3199997        -7.77379682E-06
   40.4500008        -1.03526963E-05
   40.5800018        -1.29260698E-05
   40.7099991        -1.54906629E-05
   40.8400002        -1.80431325E-05
   40.9700012        -2.05801807E-05
   41.0999985        -2.30987062E-05
   41.2299995        -2.55958985E-05
   41.3600006        -2.80693475E-05
   41.4900017        -3.05170870E-05
   41.6199989        -3.29376307E-05
   41.7500000        -3.53299511E-05
   41.8800011        -3.76934004E-05
   42.0099983        -4.00276549E-05
   42.1399994        -4.23325873E-05
   42.2700005        -4.46081322E-05
   42.4000015        -4.68541512E-05
   42.5299988        -4.90703387E-05
   42.6599998        -5.12560728E-05
   42.7900009        -5.34103601E-05
   42.9199982        -5.55317747E-05
   43.0499992        -5.76184684E-05
   43.1800003        -5.96681857E-05
   43.3100014        -6.16783364E-05
   43.4399986        -6.36460827E-05
   43.5699997        -6.55684707E-05
   43.7000008        -6.74425828E-05
   43.8300018        -6.92656176E-05
   43.9599991        -7.10350869E-05
   44.0900002        -7.27488659E-05
   44.2200012        -7.44052886E-05
   44.3499985        -7.60031980E-05
   44.4799995        -7.75419394E-05
   44.6100006        -7.90213380E-05
   44.7400017        -8.04415758E-05
   44.8699989        -8.18031767E-05
   45.0000000        -8.31068101E-05
   45.1300011        -8.43531961E-05
   45.2599983        -8.55429607E-05
   45.3899994        -8.66765185E-05
   45.5200005        -8.77540006E-05
   45.6500015        -8.87751594E-05
   45.7799988        -8.97393475E-05
   45.9099998        -9.06455243E-05
   46.0400009        -9.14923148E-05
   46.1699982        -9.22780746E-05
   46.2999992        -9.30009919E-05
   46.4300003        -9.36592332E-05
   46.5600014        -9.42510742E-05
   46.6899986        -9.47749941E-05
   46.8199997        -9.52298215E-05
   46.9500008        -9.56148215E-05
   47.0800018        -9.59297686E-05
   47.2099991        -9.61749174E-05
   47.3400002        -9.63510465E-05
   47.4700012        -9.64593564E-05
   47.5999985        -9.65014406E-05
   47.7299995        -9.64791179E-05
   47.8600006        -9.63943312E-05
   47.9900017        -9.62490012E-05
   48.1199989        -9.60449397E-05
   48.2500000        -9.57836819E-05
   48.3800011        -9.54664429E-05
   48.5099983        -9.50940521E-05
   48.6399994        -9.46669534E-05
   48.7700005        -9.41851977E-05
   48.9000015        -9.36485376E-05
   49.0299988        -9.30565075E-05
   49.1599998        -9.24085398E-05
   49.2900009        -9.17040597E-05
   49.4199982        -9.09426672E-05
   49.5499992        -9.01242311E-05
   49.6800003        -8.92489697E-05
   49.8100014        -8.83175744E-05
   49.9399986        -8.73311874E-05
   50.0699997        -8.62914676E-05
   50.2000008        -8.52004887E-05
   50.3300018        -8.40607390E-05
   50.4599991        -8.28749617E-05
   50.5900002        -8.16460815E-05
   50.7200012        -8.03770381E-05
   50.8499985        -7.90706836E-05
   50.9799995        -7.77296518E-05
   51.1100006        -7.63562566E-05
   51.2400017        -7.49524188E-05
   51.3699989        -7.35196518E-05
   51.5000000        -7.20590324E-05
   51.6300011        -7.05712737E-05
   51.7599983        -6.90567758E-05
   51.8899994        -6.75157426E-05
   52.0200005        -6.59482612E-05
   52.1500015        -6.43545063E-05
   52.2799988        -6.27347690E-05
   52.4099998        -6.10896532E-05
   52.5400009        -5.94201010E-05
   52.6699982        -5.77274841E-05
   52.7999992        -5.60136032E-05
   52.9300003        -5.42806920E-05
   53.0600014        -5.25313480E-05
   53.1899986        -5.07684599E-05
   53.3199997        -4.89950871E-05
   53.4500008        -4.72143511E-05
   53.5800018        -4.54292967E-05
   53.7099991        -4.36427654E-05
   53.8400002        -4.18573072E-05
   53.9700012        -4.00750578E-05
   54.0999985        -3.82977341E-05
   54.2299995        -3.65265842E-05
   54.3600006        -3.47624227E-05
   54.4900017        -3.30056791E-05
   54.6199989        -3.12564916E-05
   54.7500000        -2.95148002E-05
   54.8800011        -2.77804866E-05
   55.0099983        -2.60534871E-05
   55.1399994        -2.43339146E-05
   55.2700005        -2.26221619E-05
   55.4000015        -2.09189675E-05
   55.5299988        -1.92254647E-05
   55.6599998        -1.75431760E-05
   55.7900009        -1.58739931E-05
   55.9199982        -1.42201070E-05
   56.0499992        -1.25839115E-05
   56.1800003        -1.09678895E-05
   56.3100014        -9.37449204E-06
   56.4399986        -7.80600658E-06
   56.5699997        -6.26445035E-06
   56.7000008        -4.75146589E-06
   56.8300018        -3.26826330E-06
   56.9599991        -1.81558039E-06
   57.0900002        -3.93684616E-07
   57.2200012         9.97581196E-07
   57.3499985         2.35873517E-06
   57.4799995         3.69056011E-06
   57.6100006         4.99398266E-06
   57.7400017         6.26995416E-06
   57.8699989         7.51932475E-06
   58.0000000         8.74274065E-06
   58.1300011         9.94054608E-06
   58.2599983         1.11127374E-05
   58.3899994         1.22589181E-05
   58.5200005         1.33783251E-05
   58.6500015         1.44698670E-05
   58.7799988         1.55322050E-05
   58.9099998         1.65638467E-05
   59.0400009         1.75632704E-05
   59.1699982         1.85290482E-05
   59.2999992         1.94599597E-05
   59.4300003         2.03551008E-05
   59.5600014         2.12139676E-05
   59.6899986         2.20364964E-05
   59.8199997         2.28230947E-05
   59.9500008         2.35746065E-05
   60.0800018         2.42922597E-05
   60.2099991         2.49775876E-05
   60.3400002         2.56323165E-05
   60.4700012         2.62582362E-05
   60.5999985         2.68570948E-05
   60.7299995         2.74304675E-05
   60.8600006         2.79796532E-05
   60.9900017         2.85056121E-05
   61.1199989         2.90089065E-05
   61.2500000         2.94897018E-05
   61.3800011         2.99477888E-05
   61.5099983         3.03826419E-05
   61.6399994         3.07935115E-05
   61.7700005         3.11795156E-05
   61.9000015         3.15397810E-05
   62.0299988         3.18735438E-05
   62.1599998         3.21802763E-05
   62.2900009         3.24597677E-05
   62.4199982         3.27121998E-05
   62.5499992         3.29381764E-05
   62.6800003         3.31387200E-05
   62.8100014         3.33152493E-05
   62.9399986         3.34694887E-05
   63.0699997         3.36034063E-05
   63.2000008         3.37190686E-05
   63.3300018         3.38185346E-05
   63.4599991         3.39037360E-05
   63.5900002         3.39763610E-05
   63.7200012         3.40377774E-05
   63.8499985         3.40889601E-05
   63.9799995         3.41304694E-05
   64.1100006         3.41624655E-05
   64.2399979         3.41847299E-05
   64.3700027         3.41967643E-05
   64.5000000         3.41978593E-05
   64.6299973         3.41872255E-05
   64.7600021         3.41641098E-05
   64.8899994         3.41279047E-05
   65.0199966         3.40782426E-05
   65.1500015         3.40150873E-05
   65.2799988         3.39387807E-05
   65.4100037         3.38500577E-05
   65.5400009         3.37500278E-05
   65.6699982         3.36401245E-05
   65.8000031         3.35220393E-05
   65.9300003         3.33975950E-05
   66.0599976         3.32686577E-05
   66.1900024         3.31370029E-05
   66.3199997         3.30041948E-05
   66.4499969         3.28715068E-05
   66.5800018         3.27398338E-05
   66.7099991         3.26096524E-05
   66.8399963         3.24810026E-05
   66.9700012         3.23535205E-05
   67.0999985         3.22264968E-05
   67.2300034         3.20989457E-05
   67.3600006         3.19697283E-05
   67.4899979         3.18376515E-05
   67.6200027         3.17015947E-05
   67.7500000         3.15606230E-05
   67.8799973         3.14140671E-05
   68.0100021         3.12616066E-05
   68.1399994         3.11032854E-05
   68.2699966         3.09395327E-05
   68.4000015         3.07711271E-05
   68.5299988         3.05991234E-05
   68.6600037         3.04247824E-05
   68.7900009         3.02494591E-05
   68.9199982         3.00744778E-05
   69.0500031         2.99010353E-05
   69.1800003         2.97300849E-05
   69.3099976         2.95622522E-05
   69.4400024         2.93977846E-05
   69.5699997         2.92365094E-05
   69.6999969         2.90778517E-05
   69.8300018         2.89208710E-05
   69.9599991         2.87643252E-05
   70.0899963         2.86067698E-05
   70.2200012         2.84466532E-05
   70.3499985         2.82824567E-05
   70.4800034         2.81127868E-05
   70.6100006         2.79364886E-05
   70.7399979         2.77527233E-05
   70.8700027         2.75610182E-05
   71.0000000         2.73612932E-05
   71.1299973         2.71538484E-05
   71.2600021         2.69393149E-05
   71.3899994         2.67185824E-05
   71.5199966         2.64926985E-05
   71.6500015         2.62627746E-05
   71.7799988         2.60298511E-05
   71.9100037         2.57948050E-05
   72.0400009         2.55582454E-05
   72.1699982         2.53204435E-05
   72.3000031         2.50812955E-05
   72.4300003         2.48403012E-05
   72.5599976         2.45965894E-05
   72.6900024         2.43489721E-05
   72.8199997         2.40960217E-05
   72.9499969         2.38361736E-05
   73.0800018         2.35678253E-05
   73.2099991         2.32894727E-05
   73.3399963         2.29997931E-05
   73.4700012         2.26977481E-05
   73.5999985         2.23826519E-05
   73.7300034         2.20541988E-05
   73.8600006         2.17124816E-05
   73.9899979         2.13579569E-05
   74.1200027         2.09913906E-05
   74.2500000         2.06137775E-05
   74.3799973         2.02262363E-05
   74.5100021         1.98298985E-05
   74.6399994         1.94257991E-05
   74.7699966         1.90147784E-05
   74.9000015         1.85973913E-05
   75.0299988         1.81738524E-05
   75.1600037         1.77440052E-05
   75.2900009         1.73073331E-05
   75.4199982         1.68629831E-05
   75.5500031         1.64098492E-05
   75.6800003         1.59466308E-05
   75.8099976         1.54719673E-05
   75.9400024         1.49845337E-05
   76.0699997         1.44831474E-05
   76.1999969         1.39668773E-05
   76.3300018         1.34351085E-05
   76.4599991         1.28876072E-05
   76.5899963         1.23245354E-05
   76.7200012         1.17464442E-05
   76.8499985         1.11542286E-05
   76.9800034         1.05490690E-05
   77.1100006         9.93233243E-06
   77.2399979         9.30547139E-06
   77.3700027         8.66991104E-06
   77.5000000         8.02695195E-06
   77.6299973         7.37766231E-06
   77.7600021         6.72281885E-06
   77.8899994         6.06285084E-06
   78.0199966         5.39783105E-06
   78.1500015         4.72748934E-06
   78.2799988         4.05125820E-06
   78.4100037         3.36835114E-06
   78.5400009         2.67784935E-06
   78.6699982         1.97881468E-06
   78.8000031         1.27039846E-06
   78.9300003         5.51935216E-07
   79.0599976        -1.76956021E-07
   79.1900024        -9.16316310E-07
   79.3199997        -1.66580776E-06
   79.4499969        -2.42470310E-06
   79.5800018        -3.19191167E-06
   79.7099991        -3.96603627E-06
   79.8399963        -4.74544959E-06
   79.9700012        -5.52839128E-06
   80.0999985        -6.31307739E-06
   80.2300034        -7.09780215E-06
   80.3600006        -7.88104262E-06
   80.4899979        -8.66154005E-06
   80.6200027        -9.43835948E-06
   80.7500000        -1.02109216E-05