  -24.4200001         0.00000000    
  -24.2900009        -8.98310848E-09
  -24.1599998        -2.57509267E-08
  -24.0300007        -4.76754565E-08
  -23.8999996        -7.13719146E-08
  -23.7700005        -9.35526998E-08
  -23.6399994        -1.11848578E-07
  -23.5100002        -1.25391949E-07
  -23.3799992        -1.35017203E-07
  -23.2500000        -1.43029681E-07
  -23.1200008        -1.52603533E-07
  -22.9899998        -1.66961613E-07
  -22.8600006        -1.88545400E-07
  -22.7299995        -2.18385040E-07
  -22.6000004        -2.55828752E-07
  -22.4699993        -2.98700456E-07
  -22.3400002        -3.43846295E-07
  -22.2099991        -3.87932943E-07
  -22.0799999        -4.28297085E-07
  -21.9500008        -4.63632603E-07
  -21.8199997        -4.94342260E-07
  -21.6900005        -5.22465314E-07
  -21.5599995        -5.51198866E-07
  -21.4300003        -5.84131499E-07
  -21.2999992        -6.24382437E-07
  -21.1700001        -6.73860029E-07
  -21.0400009        -7.32826663E-07
  -20.9099998        -7.99877625E-07
  -20.7800007        -8.72339342E-07
  -20.6499996        -9.46987029E-07
  -20.5200005        -1.02090064E-06
  -20.3899994        -1.09224447E-06
  -20.2600002        -1.16077399E-06
  -20.1299992        -1.22794313E-06
  -20.0000000        -1.29658463E-06
  -19.8700008        -1.37024256E-06
  -19.7399998        -1.45232821E-06
  -19.6100006        -1.54530676E-06
  -19.4799995        -1.65012511E-06
  -19.3500004        -1.76602020E-06
  -19.2199993        -1.89075979E-06
  -19.0900002        -2.02125375E-06
  -18.9599991        -2.15438445E-06
  -18.8299999        -2.28784393E-06
  -18.7000008        -2.42077317E-06
  -18.5699997        -2.55403711E-06
  -18.4400005        -2.69007046E-06
  -18.3099995        -2.83233112E-06
  -18.1800003        -2.98449891E-06
  -18.0499992        -3.14962267E-06
  -17.9200001        -3.32942886E-06
  -17.7900009        -3.52396478E-06
  -17.6599998        -3.73166722E-06
  -17.5300007        -3.94984090E-06
  -17.3999996        -4.17542060E-06
  -17.2700005        -4.40583017E-06
  -17.1399994        -4.63972219E-06
  -17.0100002        -4.87740817E-06
  -16.8799992        -5.12087627E-06
  -16.7500000        -5.37338792E-06
  -16.6200008        -5.63875983E-06
  -16.4899998        -5.92050492E-06
  -16.3600006        -6.22105608E-06
  -16.2299995        -6.54126097E-06
  -16.1000004        -6.88027740E-06
  -15.9700003        -7.23589847E-06
  -15.8400002        -7.60522016E-06
  -15.7100000        -7.98548808E-06
  -15.5799999        -8.37490734E-06
  -15.4499998        -8.77322145E-06
  -15.3199997        -9.18189471E-06
  -15.1899996        -9.60388024E-06
  -15.0600004        -1.00429988E-05
  -14.9300003        -1.05031177E-05
  -14.8000002        -1.09873099E-05
  -14.6700001        -1.14972117E-05
  -14.5400000        -1.20327441E-05
  -14.4099998        -1.25922734E-05
  -14.2799997        -1.31731422E-05
  -14.1499996        -1.37724819E-05
  -14.0200005        -1.43880552E-05
  -13.8900003        -1.50189580E-05
  -13.7600002        -1.56659771E-05
  -13.6300001        -1.63315235E-05
  -13.5000000        -1.70191634E-05
  -13.3699999        -1.77328566E-05
  -13.2399998        -1.84760956E-05
  -13.1099997        -1.92511652E-05
  -12.9799995        -2.00587128E-05
  -12.8500004        -2.08977235E-05
  -12.7200003        -2.17659199E-05
  -12.5900002        -2.26604825E-05
  -12.4600000        -2.35789103E-05
  -12.3299999        -2.45197825E-05
  -12.1999998        -2.54832812E-05
  -12.0699997        -2.64712871E-05
  -11.9399996        -2.74870526E-05
  -11.8100004        -2.85345413E-05
  -11.6800003        -2.96175695E-05
  -11.5500002        -3.07389928E-05
  -11.4200001        -3.19001301E-05
  -11.2900000        -3.31005867E-05
  -11.1599998        -3.43384672E-05
  -11.0299997        -3.56110104E-05
  -10.8999996        -3.69153931E-05
  -10.7700005        -3.82495891E-05
  -10.6400003        -3.96129726E-05
  -10.5100002        -4.10066241E-05
  -10.3800001        -4.24331520E-05
  -10.2500000        -4.38961470E-05
  -10.1199999        -4.53994035E-05
  -9.98999977        -4.69460356E-05
  -9.85999966        -4.85378223E-05
  -9.72999954        -5.01748218E-05
  -9.60000038        -5.18554625E-05
  -9.47000027        -5.35769941E-05
  -9.34000015        -5.53362806E-05
  -9.21000004        -5.71306264E-05
  -9.07999992        -5.89585252E-05
  -8.94999981        -6.08200862E-05
  -8.81999969        -6.27170666E-05
  -8.68999958        -6.46524713E-05
  -8.56000042        -6.66298147E-05
  -8.43000031        -6.86522690E-05
  -8.30000019        -7.07218860E-05
  -8.17000008        -7.28391024E-05
  -8.03999996        -7.50025865E-05
  -7.90999985        -7.72096246E-05
  -7.78000021        -7.94567168E-05
  -7.65000010        -8.17404798E-05
  -7.51999998        -8.40584180E-05
  -7.38999987        -8.64095346E-05
  -7.26000023        -8.87944916E-05
  -7.13000011        -9.12154064E-05
  -7.00000000        -9.36751894E-05
  -6.86999989        -9.61767655E-05
  -6.73999977        -9.87221865E-05
  -6.61000013        -1.01312056E-04
  -6.48000002        -1.03945189E-04
  -6.34999990        -1.06618812E-04
  -6.21999979        -1.09329114E-04
  -6.09000015        -1.12071997E-04
  -5.96000004        -1.14843991E-04
  -5.82999992        -1.17642921E-04
  -5.69999981        -1.20468234E-04
  -5.57000017        -1.23320991E-04
  -5.44000006        -1.26203318E-04
  -5.30999994        -1.29117718E-04
  -5.17999983        -1.32066169E-04
  -5.05000019        -1.35049384E-04
  -4.92000008        -1.38066403E-04
  -4.78999996        -1.41114535E-04
  -4.65999985        -1.44189806E-04
  -4.53000021        -1.47287632E-04
  -4.40000010        -1.50403692E-04
  -4.26999998        -1.53534755E-04
  -4.13999987        -1.56679060E-04
  -4.01000023        -1.59836534E-04
  -3.88000011        -1.63008459E-04
  -3.75000000        -1.66196740E-04
  -3.61999989        -1.69403153E-04
  -3.49000001        -1.72628439E-04
  -3.35999990        -1.75871799E-04
  -3.23000002        -1.79130730E-04
  -3.09999990        -1.82401156E-04
  -2.97000003        -1.85678145E-04
  -2.83999991        -1.88956648E-04
  -2.71000004        -1.92232430E-04
  -2.57999992        -1.95502609E-04
  -2.45000005        -1.98765963E-04
  -2.31999993        -2.02022842E-04
  -2.19000006        -2.05274526E-04
  -2.05999994        -2.08522528E-04
  -1.92999995        -2.11767663E-04
  -1.79999995        -2.15009408E-04
  -1.66999996        -2.18245492E-04
  -1.53999996        -2.21472059E-04
  -1.40999997        -2.24684030E-04
  -1.27999997        -2.27875964E-04
  -1.14999998        -2.31042854E-04
  -1.01999998        -2.34180916E-04
 -0.889999986        -2.37287968E-04
 -0.759999990        -2.40363472E-04
 -0.629999995        -2.43408198E-04
 -0.500000000        -2.46423442E-04
 -0.370000005        -2.49410165E-04
 -0.239999995        -2.52368278E-04
 -0.109999999        -2.55296036E-04
   1.99999996E-02    -2.58190121E-04
  0.150000006        -2.61045760E-04
  0.280000001        -2.63857510E-04
  0.409999996        -2.66620074E-04
  0.540000021        -2.69329175E-04
  0.670000017        -2.71981989E-04
  0.800000012        -2.74577556E-04
  0.930000007        -2.77116313E-04
   1.05999994        -2.79599597E-04
   1.19000006        -2.82028894E-04
   1.32000005        -2.84404814E-04
   1.45000005        -2.86726601E-04
   1.58000004        -2.88991811E-04
   1.71000004        -2.91196484E-04
   1.84000003        -2.93335615E-04
   1.97000003        -2.95404112E-04
   2.09999990        -2.97397550E-04
   2.23000002        -2.99312727E-04
   2.35999990        -3.01148335E-04
   2.49000001        -3.02904606E-04
   2.61999989        -3.04582965E-04
   2.75000000        -3.06185277E-04
   2.88000011        -3.07712966E-04
   3.00999999        -3.09166295E-04
   3.14000010        -3.10543895E-04
   3.26999998        -3.11842799E-04
   3.40000010        -3.13058874E-04
   3.52999997        -3.14187462E-04
   3.66000009        -3.15224228E-04
   3.78999996        -3.16166028E-04
   3.92000008        -3.17011349E-04
   4.05000019        -3.17760452E-04
   4.17999983        -3.18415056E-04
   4.30999994        -3.18977662E-04
   4.44000006        -3.19450628E-04
   4.57000017        -3.19835526E-04
   4.69999981        -3.20132443E-04
   4.82999992        -3.20339837E-04
   4.96000004        -3.20454739E-04
   5.09000015        -3.20473395E-04
   5.21999979        -3.20392108E-04
   5.34999990        -3.20207968E-04
   5.48000002        -3.19919665E-04
   5.61000013        -3.19527579E-04
   5.73999977        -3.19033745E-04
   5.86999989        -3.18441307E-04
   6.00000000        -3.17753584E-04
   6.13000011        -3.16973368E-04
   6.26000023        -3.16102174E-04
   6.38999987        -3.15139914E-04
   6.51999998        -3.14084929E-04
   6.65000010        -3.12934484E-04
   6.78000021        -3.11685581E-04
   6.90999985        -3.10335716E-04
   7.03999996        -3.08883697E-04
   7.17000008        -3.07329959E-04
   7.30000019        -3.05676716E-04
   7.42999983        -3.03927518E-04
   7.55999994        -3.02086468E-04
   7.69000006        -3.00157466E-04
   7.82000017        -2.98143306E-04
   7.94999981        -2.96045357E-04
   8.07999992        -2.93863297E-04
   8.21000004        -2.91595556E-04
   8.34000015        -2.89239833E-04
   8.47000027        -2.86794006E-04
   8.60000038        -2.84257112E-04
   8.72999954        -2.81629618E-04
   8.85999966        -2.78913765E-04
   8.98999977        -2.76113395E-04
   9.11999989        -2.73233163E-04
   9.25000000        -2.70277931E-04
   9.38000011        -2.67251744E-04
   9.51000023        -2.64157279E-04
   9.64000034        -2.60995643E-04
   9.77000046        -2.57766369E-04
   9.89999962        -2.54468061E-04
   10.0299997        -2.51099205E-04
   10.1599998        -2.47658900E-04
   10.2900000        -2.44147610E-04
   10.4200001        -2.40567577E-04
   10.5500002        -2.36922628E-04
   10.6800003        -2.33217710E-04
   10.8100004        -2.29458325E-04
   10.9399996        -2.25649390E-04
   11.0699997        -2.21794748E-04
   11.1999998        -2.17896566E-04
   11.3299999        -2.13955340E-04
   11.4600000        -2.09970458E-04
   11.5900002        -2.05940698E-04
   11.7200003        -2.01865143E-04
   11.8500004        -1.97744055E-04
   11.9799995        -1.93579253E-04
   12.1099997        -1.89374274E-04
   12.2399998        -1.85134049E-04
   12.3699999        -1.80864285E-04
   12.5000000        -1.76570480E-04
   12.6300001        -1.72257292E-04
   12.7600002        -1.67927865E-04
   12.8900003        -1.63583682E-04
   13.0200005        -1.59224728E-04
   13.1499996        -1.54850175E-04
   13.2799997        -1.50459135E-04
   13.4099998        -1.46051534E-04
   13.5400000        -1.41628683E-04
   13.6700001        -1.37193623E-04
   13.8000002        -1.32750924E-04
   13.9300003        -1.28306143E-04
   14.0600004        -1.23865044E-04
   14.1899996        -1.19432763E-04
   14.3199997        -1.15013114E-04
   14.4499998        -1.10608205E-04
   14.5799999        -1.06218533E-04
   14.7100000        -1.01843478E-04
   14.8400002        -9.74819923E-05
   14.9700003        -9.31335162E-05
   15.1000004        -8.87986607E-05
   15.2299995        -8.44796377E-05
   15.3599997        -8.01802889E-05
   15.4899998        -7.59057220E-05
   15.6199999        -7.16615323E-05
   15.7500000        -6.74530165E-05
   15.8800001        -6.32843512E-05
   16.0100002        -5.91581011E-05
   16.1399994        -5.50751356E-05
   16.2700005        -5.10349455E-05
   16.3999996        -4.70362611E-05
   16.5300007        -4.30779219E-05
   16.6599998        -3.91597096E-05
   16.7900009        -3.52828720E-05
   16.9200001        -3.14503231E-05
   17.0499992        -2.76664014E-05
   17.1800003        -2.39362762E-05
   17.3099995        -2.02651026E-05
   17.4400005        -1.66572008E-05
   17.5699997        -1.31154438E-05
   17.7000008        -9.64095307E-06
   17.8299999        -6.23325968E-06
   17.9599991        -2.89084915E-06
   18.0900002         3.88048846E-07
   18.2199993         3.60462627E-06
   18.3500004         6.75881483E-06
   18.4799995         9.84892358E-06
   18.6100006         1.28717029E-05
   18.7399998         1.58228395E-05
   18.8700008         1.86976813E-05
   19.0000000         2.14921165E-05
   19.1299992         2.42032820E-05
   19.2600002         2.68300009E-05
   19.3899994         2.93728044E-05
   19.5200005         3.18335333E-05
   19.6499996         3.42146268E-05
   19.7800007         3.65182786E-05
   19.9099998         3.87456712E-05
   20.0400009         4.08964552E-05
   20.1700001         4.29686625E-05
   20.2999992         4.49590079E-05
   20.4300003         4.68635772E-05
   20.5599995         4.86786375E-05
   20.6900005         5.04014643E-05
   20.8199997         5.20308968E-05
   20.9500008         5.35675317E-05
   21.0799999         5.50134901E-05
   21.2099991         5.63718168E-05
   21.3400002         5.76456514E-05
   21.4699993         5.88374205E-05
   21.6000004         5.99481646E-05
   21.7299995         6.09773124E-05
   21.8600006         6.19228085E-05
   21.9899998         6.27816553E-05
   22.1200008         6.35507022E-05
   22.2500000         6.42275118E-05
   22.3799992         6.48110072E-05
   22.5100002         6.53018724E-05
   22.6399994         6.57024284E-05
   22.7700005         6.60162259E-05
   22.8999996         6.62472448E-05
   23.0300007         6.63990359E-05
   23.1599998         6.64740437E-05
   23.2900009         6.64731051E-05
   23.4200001         6.63954925E-05
   23.5499992         6.62392486E-05
   23.6800003         6.60019650E-05
   23.8099995         6.56815537E-05
   23.9400005         6.52770759E-05
   24.0699997         6.47891866E-05
   24.2000008         6.42202867E-05
   24.3299999         6.35741744E-05
   24.4599991         6.28553826E-05
   24.5900002         6.20683568E-05
   24.7199993         6.12166332E-05
   24.8500004         6.03022927E-05
   24.9799995         5.93257646E-05
   25.1100006         5.82860666E-05
   25.2399998         5.71813907E-05
   25.3700008         5.60099470E-05
   25.5000000         5.47707677E-05
   25.6299992         5.34643623E-05
   25.7600002         5.20929607E-05
   25.8899994         5.06603865E-05
   26.0200005         4.91714891E-05
   26.1499996         4.76313726E-05
   26.2800007         4.60445372E-05
   26.4099998         4.44141988E-05
   26.5400009         4.27419254E-05
   26.6700001         4.10277098E-05
   26.7999992         3.92704169E-05
   26.9300003         3.74685660E-05
   27.0599995         3.56211458E-05
   27.1900005         3.37283673E-05
   27.3199997         3.17920785E-05
   27.4500008         2.98158047E-05
   27.5799999         2.78043080E-05
   27.7099991         2.57629126E-05
   27.8400002         2.36966534E-05
   27.9699993         2.16094741E-05
   28.1000004         1.95037464E-05
   28.2299995         1.73801636E-05
   28.3600006         1.52380426E-05
   28.4899998         1.30760063E-05
   28.6200008         1.08928043E-05
   28.7500000         8.68812640E-06
   28.8799992         6.46316857E-06
   29.0100002         4.22081894E-06
   29.1399994         1.96541760E-06
   29.2700005        -2.97844650E-07
   29.3999996        -2.56374688E-06
   29.5300007        -4.82785299E-06
   29.6599998        -7.08716470E-06
   29.7900009        -9.34036871E-06
   29.9200001        -1.15877074E-05
   30.0499992        -1.38304295E-05
   30.1800003        -1.60700110E-05
   30.3099995        -1.83073134E-05
   30.4400005        -2.05418910E-05
   30.5699997        -2.27716537E-05
   30.7000008        -2.49929308E-05
   30.8299999        -2.72009638E-05
   30.9599991        -2.93906141E-05
   31.0900002        -3.15572506E-05
   31.2199993        -3.36974845E-05
   31.3500004        -3.58095858E-05
   31.4799995        -3.78935074E-05
   31.6100006        -3.99504970E-05
   31.7399998        -4.19824028E-05
   31.8700008        -4.39908035E-05
   32.0000000        -4.59762450E-05
   32.1300011        -4.79377559E-05
   32.2599983        -4.98727240E-05
   32.3899994        -5.17772096E-05
   32.5200005        -5.36466177E-05
   32.6500015        -5.54765393E-05
   32.7799988        -5.72635254E-05
   32.9099998        -5.90056807E-05
   33.0400009        -6.07028378E-05
   33.1699982        -6.23563246E-05
   33.2999992        -6.39683567E-05
   33.4300003        -6.55412223E-05
   33.5600014        -6.70764566E-05
   33.6899986        -6.85741979E-05
   33.8199997        -7.00329474E-05
   33.9500008        -7.14496637E-05
   34.0800018        -7.28203813E-05
   34.2099991        -7.41409385E-05
   34.3400002        -7.54078501E-05
   34.4700012        -7.66189987E-05
   34.5999985        -7.77739624E-05
   34.7299995        -7.88739708E-05
   34.8600006        -7.99214395E-05
   34.9900017        -8.09191843E-05
   35.1199989        -8.18696280E-05
   35.2500000        -8.27740296E-05
   35.3800011        -8.36320760E-05
   35.5099983        -8.44418610E-05
   35.6399994        -8.52002850E-05
   35.7700005        -8.59037609E-05
   35.9000015        -8.65490583E-05
   36.0299988        -8.71340453E-05
   36.1599998        -8.76582708E-05
   36.2900009        -8.81229571E-05
   36.4199982        -8.85307600E-05
   36.5499992        -8.88850554E-05
   36.6800003        -8.91891686E-05
   36.8100014        -8.94454861E-05
   36.9399986        -8.96549536E-05
   37.0699997        -8.98168437E-05
   37.2000008        -8.99290026E-05
   37.3300018        -8.99884471E-05
   37.4599991        -8.99922015E-05
   37.5900002        -8.99380757E-05
   37.7200012        -8.98253493E-05
   37.8499985        -8.96550046E-05
   37.9799995        -8.94295954E-05
   38.1100006        -8.91527307E-05
   38.2400017        -8.88282302E-05
   38.3699989        -8.84593392E-05
   38.5000000        -8.80480075E-05
   38.6300011        -8.75945552E-05
   38.7599983        -8.70977237E-05
   38.8899994        -8.65551556E-05
   39.0200005        -8.59641441E-05
   39.1500015        -8.53224774E-05
   39.2799988        -8.46291805E-05
   39.4099998        -8.38849082E-05
   39.5400009        -8.30920253E-05
   39.6699982        -8.22541624E-05
   39.7999992        -8.13755105E-05
   39.9300003        -8.04599986E-05
   40.0600014        -7.95105079E-05
   40.1899986        -7.85283701E-05
   40.3199997        -7.75132576E-05
   40.4500008        -7.64635115E-05
   40.5800018        -7.53767963E-05
   40.7099991        -7.42509437E-05
   40.8400002        -7.30847169E-05
   40.9700012        -7.18784431E-05
   41.0999985        -7.06341161E-05
   41.2299995        -6.93552283E-05
   41.3600006        -6.80461453E-05
   41.4900017        -6.67112618E-05
   41.6199989        -6.53542374E-05
   41.7500000        -6.39772843E-05
   41.8800011        -6.25809625E-05
   42.0099983        -6.11643045E-05
   42.1399994        -5.97253384E-05
   42.2700005        -5.82618923E-05
   42.4000015        -5.67724237E-05
   42.5299988        -5.52567035E-05
   42.6599998        -5.37161723E-05
   42.7900009        -5.21538568E-05
   42.9199982        -5.05739263E-05
   43.0499992        -4.89809172E-05
   43.1800003        -4.73789005E-05
   43.3100014        -4.57707501E-05
   43.4399986        -4.41576994E-05
   43.5699997        -4.25393373E-05
   43.7000008        -4.09139866E-05
   43.8300018        -3.92794282E-05
   43.9599991        -3.76337412E-05
   44.0900002        -3.59760743E-05
   44.2200012        -3.43071406E-05
   44.3499985        -3.26293302E-05
   44.4799995        -3.09464012E-05
   44.6100006        -2.92627992E-05
   44.7400017        -2.75828424E-05
   44.8699989        -2.59099070E-05
   45.0000000        -2.42458591E-05
   45.1300011        -2.25908643E-05
   45.2599983        -2.09436294E-05
   45.3899994        -1.93019841E-05
   45.5200005        -1.76637222E-05
   45.6500015        -1.60274030E-05
   45.7799988        -1.43929929E-05
   45.9099998        -1.27621388E-05
   46.0400009        -1.11380041E-05
   46.1699982        -9.52473602E-06
   46.2999992        -7.92667743E-06
   46.4300003        -6.34752178E-06
   46.5600014        -4.78963648E-06
   46.6899986        -3.25369729E-06
   46.8199997        -1.73877311E-06
   46.9500008        -2.42774490E-07
   47.0800018         1.23678808E-06
   47.2099991         2.70196279E-06
   47.3400002         4.15362047E-06
   47.4700012         5.59102500E-06
   47.5999985         7.01181352E-06
   47.7299995         8.41241217E-06
   47.8600006         9.78871503E-06
   47.9900017         1.11369391E-05
   48.1199989         1.24544031E-05
   48.2500000         1.37400157E-05
   48.3800011         1.49943753E-05
   48.5099983         1.62194719E-05
   48.6399994         1.74180368E-05
   48.7700005         1.85926856E-05
   48.9000015         1.97451263E-05
   49.0299988         2.08755955E-05
   49.1599998         2.19826670E-05
   49.2900009         2.30634741E-05
   49.4199982         2.41143152E-05
   49.5499992         2.51314650E-05
   49.6800003         2.61120076E-05
   49.8100014         2.70544533E-05
   49.9399986         2.79590149E-05
   50.0699997         2.88274623E-05
   50.2000008         2.96625803E-05
   50.3300018         3.04673940E-05
   50.4599991         3.12443226E-05
   50.5900002         3.19944811E-05
   50.7200012         3.27173584E-05
   50.8499985         3.34108590E-05
   50.9799995         3.40717925E-05
   51.1100006         3.46966044E-05
   51.2400017         3.52822353E-05
   51.3699989         3.58268626E-05
   51.5000000         3.63303079E-05
   51.6300011         3.67940738E-05
   51.7599983         3.72209361E-05
   51.8899994         3.76142598E-05
   52.0200005         3.79771191E-05
   52.1500015         3.83115657E-05
   52.2799988         3.86181018E-05
   52.4099998         3.88955814E-05
   52.5400009         3.91415379E-05
   52.6699982         3.93528135E-05
   52.7999992         3.95264178E-05
   52.9300003         3.96603245E-05
   53.0600014         3.97540171E-05
   53.1899986         3.98086850E-05
   53.3199997         3.98269985E-05
   53.4500008         3.98124903E-05
   53.5800018         3.97687618E-05
   53.7099991         3.96986361E-05
   53.8400002         3.96035575E-05
   53.9700012         3.94832787E-05
   54.0999985         3.93360606E-05
   54.2299995         3.91591566E-05
   54.3600006         3.89496345E-05
   54.4900017         3.87051950E-05
   54.6199989         3.84248706E-05
   54.7500000         3.81093560E-05
   54.8800011         3.77609686E-05
   55.0099983         3.73831754E-05
   55.1399994         3.69798399E-05
   55.2700005         3.65543819E-05
   55.4000015         3.61090497E-05
   55.5299988         3.56444943E-05
   55.6599998         3.51597337E-05
   55.7900009         3.46525521E-05
   55.9199982         3.41202103E-05
   56.0499992         3.35602817E-05
   56.1800003         3.29714239E-05
   56.3100014         3.23538770E-05
   56.4399986         3.17095655E-05
   56.5699997         3.10418000E-05
   56.7000008         3.03545876E-05
   56.8300018         2.96518265E-05
   56.9599991         2.89364834E-05
   57.0900002         2.82100391E-05
   57.2200012         2.74722897E-05
   57.3499985         2.67215801E-05
   57.4799995         2.59554017E-05
   57.6100006         2.51712117E-05
   57.7400017         2.43672457E-05
   57.8699989         2.35431598E-05
   58.0000000         2.27002838E-05
   58.1300011         2.18414807E-05
   58.2599983         2.09706104E-05
   58.3899994         2.00917511E-05
   58.5200005         1.92083535E-05
   58.6500015         1.83225584E-05
   58.7799988         1.74348479E-05
   58.9099998         1.65441161E-05
   59.0400009         1.56481219E-05
   59.1699982         1.47442488E-05
   59.2999992         1.38303421E-05
   59.4300003         1.29054379E-05
   59.5600014         1.19701881E-05
   59.6899986         1.10268866E-05
   59.8199997         1.00790694E-05
   59.9500008         9.13081840E-06
   60.0800018         8.18591343E-06
   60.2099991         7.24706842E-06
   60.3400002         6.31543207E-06
   60.4700012         5.39047414E-06
   60.5999985         4.47029743E-06
   60.7299995         3.55230191E-06
   60.8600006         2.63400602E-06
   60.9900017         1.71384420E-06
   61.1199989         7.91738216E-07
   61.2500000        -1.30715833E-07
   61.3800011        -1.05047627E-06
   61.5099983        -1.96365727E-06
   61.6399994        -2.86634236E-06
   61.7700005        -3.75540981E-06
   61.9000015        -4.62915659E-06
   62.0299988        -5.48757453E-06
   62.1599998        -6.33219861E-06
   62.2900009        -7.16557952E-06
   62.4199982        -7.99048757E-06
   62.5499992        -8.80908192E-06
   62.6800003        -9.62222748E-06
   62.8100014        -1.04291412E-05
   62.9399986        -1.12274593E-05
   63.0699997        -1.20137029E-05
   63.2000008        -1.27840294E-05
   63.3300018        -1.35350792E-05
   63.4599991        -1.42646995E-05
   63.5900002        -1.49723792E-05
   63.7200012        -1.56592669E-05
   63.8499985        -1.63277800E-05
   63.9799995        -1.69809009E-05
   64.1100006        -1.76213362E-05
   64.2399979        -1.82507447E-05
   64.3700027        -1.88692375E-05
   64.5000000        -1.94752774E-05
   64.6299973        -2.00659852E-05
   64.7600021        -2.06377936E-05
   64.8899994        -2.11872775E-05
   65.0199966        -2.17119468E-05
   65.1500015        -2.22108138E-05
   65.2799988        -2.26845823E-05
   65.4100037        -2.31354206E-05
   65.5400009        -2.35663538E-05
   65.6699982        -2.39804667E-05
   65.8000031        -2.43800860E-05
   65.9300003        -2.47661392E-05
   66.0599976        -2.51378988E-05
   66.1900024        -2.54931219E-05
   66.3199997        -2.58285891E-05
   66.4499969        -2.61408932E-05
   66.5800018        -2.64272694E-05
   66.7099991        -2.66862808E-05
   66.8399963        -2.69181783E-05
   66.9700012        -2.71248282E-05
   67.0999985        -2.73092519E-05
   67.2300034        -2.74748872E-05
   67.3600006        -2.76247265E-05
   67.4899979        -2.77606032E-05
   67.6200027        -2.78827483E-05
   67.7500000        -2.79897667E-05
   67.8799973        -2.80790373E-05
   68.0100021        -2.81474004E-05
   68.1399994        -2.81919984E-05
   68.2699966        -2.82110486E-05
   68.4000015        -2.82043420E-05
   68.5299988        -2.81733410E-05
   68.6600037        -2.81208740E-05
   68.7900009        -2.80504773E-05
   68.9199982        -2.79655578E-05
   69.0500031        -2.78686093E-05
   69.1800003        -2.77606268E-05
   69.3099976        -2.76409392E-05
   69.4400024        -2.75074290E-05
   69.5699997        -2.73571277E-05
   69.6999969        -2.71870449E-05
   69.8300018        -2.69949796E-05
   69.9599991        -2.67801461E-05
   70.0899963        -2.65434501E-05
   70.2200012        -2.62873400E-05
   70.3499985        -2.60152774E-05
   70.4800034        -2.57309475E-05
   70.6100006        -2.54374281E-05
   70.7399979        -2.51365072E-05
   70.8700027        -2.48283286E-05
   71.0000000        -2.45114607E-05
   71.1299973        -2.41833441E-05
   71.2600021        -2.38410521E-05
   71.3899994        -2.34821146E-05
   71.5199966        -2.31052545E-05
   71.6500015        -2.27108121E-05
   71.7799988        -2.23007628E-05
   71.9100037        -2.18783298E-05
   72.0400009        -2.14472802E-05
   72.1699982        -2.10110811E-05
   72.3000031        -2.05721335E-05
   72.4300003        -2.01312778E-05
   72.5599976        -1.96876790E-05
   72.6900024        -1.92391399E-05
   72.8199997        -1.87827609E-05
   72.9499969        -1.83157645E-05
   73.0800018        -1.78362970E-05
   73.2099991        -1.73439930E-05
   73.3399963        -1.68401857E-05
   73.4700012        -1.63276527E-05
   73.5999985        -1.58100356E-05
   73.7300034        -1.52910343E-05
   73.8600006        -1.47735709E-05
   73.9899979        -1.42591680E-05
   74.1200027        -1.37476745E-05
   74.2500000        -1.32374053E-05
   74.3799973        -1.27256835E-05
   74.5100021        -1.22096135E-05
   74.6399994        -1.16869132E-05
   74.7699966        -1.11565987E-05
   74.9000015        -1.06193265E-05
   75.0299988        -1.00773314E-05
   75.1600037        -9.53396466E-06
   75.2900009        -8.99293809E-06
   75.4199982        -8.45748946E-06
   75.5500031        -7.92965056E-06
   75.6800003        -7.40982705E-06
   75.8099976        -6.89677245E-06
   75.9400024        -6.38797565E-06
   76.0699997        -5.88037210E-06
   76.1999969        -5.37117921E-06
   76.3300018        -4.85866440E-06
   76.4599991        -4.34264166E-06
   76.5899963        -3.82458029E-06
   76.7200012        -3.30729767E-06
   76.8499985        -2.79430697E-06
   76.9800034        -2.28898693E-06
   77.1100006        -1.79379310E-06
   77.2399979        -1.30968556E-06
   77.3700027        -8.35941364E-07
   77.5000000        -3.70380235E-07
   77.6299973         9.00393786E-08
   77.7600021         5.48414903E-07
   77.8899994         1.00707928E-06
   78.0199966         1.46697664E-06
   78.1500015         1.92738889E-06
   78.2799988         2.38608413E-06
   78.4100037         2.83984377E-06
   78.5400009         3.28524493E-06
   78.6699982         3.71949955E-06
   78.8000031         4.14112947E-06
   78.9300003         4.55032250E-06
   79.0599976         4.94886262E-06
   79.1900024         5.33967386E-06
   79.3199997         5.72607132E-06
   79.4499969         6.11091718E-06
   79.5800018         6.49588992E-06
   79.7099991         6.88105820E-06
   79.8399963         7.26485814E-06
   79.9700012         7.64448123E-06
   80.0999985         8.01657825E-06
   80.2300034         8.37809330E-06
   80.3600006         8.72703822E-06
   80.4899979         9.06298737E-06
   80.6200027         9.38718676E-06
   80.7500000         9.70224210E-06