  -24.4200001       0.00000000    
  -24.2900009      -1.17440878E-17
  -24.1599998      -1.24728461E-12
  -24.0300007      -5.98988697E-12
  -23.8999996      -1.68877291E-11
  -23.7700005      -3.62612509E-11
  -23.6399994      -6.53717983E-11
  -23.5100002      -1.03923314E-10
  -23.3799992      -1.49916579E-10
  -23.2500000      -1.99915209E-10
  -23.1200008      -2.49670645E-10
  -22.9899998      -2.94975211E-10
  -22.8600006      -3.32547767E-10
  -22.7299995      -3.60757618E-10
  -22.6000004      -3.80021625E-10
  -22.4699993      -3.92809646E-10
  -22.3400002      -4.03247741E-10
  -22.2099991      -4.16436441E-10
  -22.0799999      -4.37647696E-10
  -21.9500008      -4.71584882E-10
  -21.8199997      -5.21872157E-10
  -21.6900005      -5.90857308E-10
  -21.5599995      -6.79751533E-10
  -21.4300003      -7.89005583E-10
  -21.2999992      -9.18802978E-10
  -21.1700001      -1.06949627E-09
  -21.0400009      -1.24182542E-09
  -20.9099998      -1.43688539E-09
  -20.7800007      -1.65578973E-09
  -20.6499996      -1.89915261E-09
  -20.5200005      -2.16653517E-09
  -20.3899994      -2.45602716E-09
  -20.2600002      -2.76416867E-09
  -20.1299992      -3.08621284E-09
  -20.0000000      -3.41680240E-09
  -19.8700008      -3.75095333E-09
  -19.7399998      -4.08512513E-09
  -19.6100006      -4.41819648E-09
  -19.4799995      -4.75209916E-09
  -19.3500004      -5.09205611E-09
  -19.2199993      -5.44619994E-09
  -19.0900002      -5.82475579E-09
  -18.9599991      -6.23891738E-09
  -18.8299999      -6.69960709E-09
  -18.7000008      -7.21630489E-09
  -18.5699997      -7.79625609E-09
  -18.4400005      -8.44403569E-09
  -18.3099995      -9.16161724E-09
  -18.1800003      -9.94880534E-09
  -18.0499992      -1.08038254E-08
  -17.9200001      -1.17240546E-08
  -17.7900009      -1.27065647E-08
  -17.6599998      -1.37486440E-08
  -17.5300007      -1.48477959E-08
  -17.3999996      -1.60018292E-08
  -17.2700005      -1.72088193E-08
  -17.1399994      -1.84670803E-08
  -17.0100002      -1.97754400E-08
  -16.8799992      -2.11336229E-08
  -16.7500000      -2.25428547E-08
  -16.6200008      -2.40066793E-08
  -16.4899998      -2.55314667E-08
  -16.3600006      -2.71268270E-08
  -16.2299995      -2.88055393E-08
  -16.1000004      -3.05828678E-08
  -15.9700003      -3.24756222E-08
  -15.8400002      -3.45005944E-08
  -15.7100000      -3.66732422E-08
  -15.5799999      -3.90060144E-08
  -15.4499998      -4.15076045E-08
  -15.3199997      -4.41821975E-08
  -15.1899996      -4.70297756E-08
  -15.0600004      -5.00468147E-08
  -14.9300003      -5.32274740E-08
  -14.8000002      -5.65650460E-08
  -14.6700001      -6.00535017E-08
  -14.5400000      -6.36885673E-08
  -14.4099998      -6.74685481E-08
  -14.2799997      -7.13950286E-08
  -14.1499996      -7.54725775E-08
  -14.0200005      -7.97087765E-08
  -13.8900003      -8.41137933E-08
  -13.7600002      -8.86998990E-08
  -13.6300001      -9.34813684E-08
  -13.5000000      -9.84742883E-08
  -13.3699999      -1.03696266E-07
  -13.2399998      -1.09166287E-07
  -13.1099997      -1.14904417E-07
  -12.9799995      -1.20931020E-07
  -12.8500004      -1.27265878E-07
  -12.7200003      -1.33927330E-07
  -12.5900002      -1.40930851E-07
  -12.4600000      -1.48287782E-07
  -12.3299999      -1.56005669E-07
  -12.1999998      -1.64086956E-07
  -12.0699997      -1.72530505E-07
  -11.9399996      -1.81332638E-07
  -11.8100004      -1.90488237E-07
  -11.6800003      -1.99993409E-07
  -11.5500002      -2.09846604E-07
  -11.4200001      -2.20051007E-07
  -11.2900000      -2.30614560E-07
  -11.1599998      -2.41551163E-07
  -11.0299997      -2.52879971E-07
  -10.8999996      -2.64624447E-07
  -10.7700005      -2.76811363E-07
  -10.6400003      -2.89469426E-07
  -10.5100002      -3.02627853E-07
  -10.3800001      -3.16315322E-07
  -10.2500000      -3.30559004E-07
  -10.1199999      -3.45384279E-07
  -9.98999977      -3.60814909E-07
  -9.85999966      -3.76871242E-07
  -9.72999954      -3.93572407E-07
  -9.60000038      -4.10934035E-07
  -9.47000027      -4.28969201E-07
  -9.34000015      -4.47688109E-07
  -9.21000004      -4.67098459E-07
  -9.07999992      -4.87205341E-07
  -8.94999981      -5.08012420E-07
  -8.81999969      -5.29523902E-07
  -8.68999958      -5.51744336E-07
  -8.56000042      -5.74681678E-07
  -8.43000031      -5.98348038E-07
  -8.30000019      -6.22760638E-07
  -8.17000008      -6.47943523E-07
  -8.03999996      -6.73925342E-07
  -7.90999985      -7.00738326E-07
  -7.78000021      -7.28418172E-07
  -7.65000010      -7.57000635E-07
  -7.51999998      -7.86519877E-07
  -7.38999987      -8.17006537E-07
  -7.26000023      -8.48486650E-07
  -7.13000011      -8.80979769E-07
  -7.00000000      -9.14501754E-07
  -6.86999989      -9.49061871E-07
  -6.73999977      -9.84666258E-07
  -6.61000013      -1.02131878E-06
  -6.48000002      -1.05902245E-06
  -6.34999990      -1.09778102E-06
  -6.21999979      -1.13759927E-06
  -6.09000015      -1.17848504E-06
  -5.96000004      -1.22044787E-06
  -5.82999992      -1.26350244E-06
  -5.69999981      -1.30766648E-06
  -5.57000017      -1.35296204E-06
  -5.44000006      -1.39941562E-06
  -5.30999994      -1.44705825E-06
  -5.17999983      -1.49592393E-06
  -5.05000019      -1.54605073E-06
  -4.92000008      -1.59747594E-06
  -4.78999996      -1.65023744E-06
  -4.65999985      -1.70436965E-06
  -4.53000021      -1.75990328E-06
  -4.40000010      -1.81686130E-06
  -4.26999998      -1.87525802E-06
  -4.13999987      -1.93509936E-06
  -4.01000023      -1.99638339E-06
  -3.88000011      -2.05909942E-06
  -3.75000000      -2.12323357E-06
  -3.61999989      -2.18876812E-06
  -3.49000001      -2.25568783E-06
  -3.35999990      -2.32398020E-06
  -3.23000002      -2.39364044E-06
  -3.09999990      -2.46466698E-06
  -2.97000003      -2.53706958E-06
  -2.83999991      -2.61086620E-06
  -2.71000004      -2.68608210E-06
  -2.57999992      -2.76274773E-06
  -2.45000005      -2.84089720E-06
  -2.31999993      -2.92056711E-06
  -2.19000006      -3.00179545E-06
  -2.05999994      -3.08461790E-06
  -1.92999995      -3.16906653E-06
  -1.79999995      -3.25516817E-06
  -1.66999996      -3.34294259E-06
  -1.53999996      -3.43240004E-06
  -1.40999997      -3.52353982E-06
  -1.27999997      -3.61635375E-06
  -1.14999998      -3.71082092E-06
  -1.01999998      -3.80691040E-06
 -0.889999986      -3.90458354E-06
 -0.759999990      -4.00379531E-06
 -0.629999995      -4.10449820E-06
 -0.500000000      -4.20664583E-06
 -0.370000005      -4.31019316E-06
 -0.239999995      -4.41510520E-06
 -0.109999999      -4.52135328E-06
   1.99999996E-02  -4.62891603E-06
  0.150000006      -4.73778346E-06
  0.280000001      -4.84795464E-06
  0.409999996      -4.95943277E-06
  0.540000021      -5.07222285E-06
  0.670000017      -5.18633033E-06
  0.800000012      -5.30176021E-06
  0.930000007      -5.41850977E-06
   1.05999994      -5.53656810E-06
   1.19000006      -5.65591790E-06
   1.32000005      -5.77653100E-06
   1.45000005      -5.89837327E-06
   1.58000004      -6.02139789E-06
   1.71000004      -6.14555165E-06
   1.84000003      -6.27077725E-06
   1.97000003      -6.39701011E-06
   2.09999990      -6.52417884E-06
   2.23000002      -6.65221751E-06
   2.35999990      -6.78105744E-06
   2.49000001      -6.91063588E-06
   2.61999989      -7.04088961E-06
   2.75000000      -7.17177090E-06
   2.88000011      -7.30323654E-06
   3.00999999      -7.43525561E-06
   3.14000010      -7.56780173E-06
   3.26999998      -7.70085808E-06
   3.40000010      -7.83441010E-06
   3.52999997      -7.96844597E-06
   3.66000009      -8.10295296E-06
   3.78999996      -8.23790469E-06
   3.92000008      -8.37327298E-06
   4.05000019      -8.50901688E-06
   4.17999983      -8.64508365E-06
   4.30999994      -8.78140781E-06
   4.44000006      -8.91791387E-06
   4.57000017      -9.05451907E-06
   4.69999981      -9.19113336E-06
   4.82999992      -9.32766579E-06
   4.96000004      -9.46402088E-06
   5.09000015      -9.60010675E-06
   5.21999979      -9.73583337E-06
   5.34999990      -9.87112162E-06
   5.48000002      -1.00058924E-05
   5.61000013      -1.01400765E-05
   5.73999977      -1.02736140E-05
   5.86999989      -1.04064529E-05
   6.00000000      -1.05385470E-05
   6.13000011      -1.06698553E-05
   6.26000023      -1.08003460E-05
   6.38999987      -1.09299808E-05
   6.51999998      -1.10587298E-05
   6.65000010      -1.11865511E-05
   6.78000021      -1.13134065E-05
   6.90999985      -1.14392387E-05
   7.03999996      -1.15639914E-05
   7.17000008      -1.16875872E-05
   7.30000019      -1.18099460E-05
   7.42999983      -1.19309743E-05
   7.55999994      -1.20505729E-05
   7.69000006      -1.21686462E-05
   7.82000017      -1.22850897E-05
   7.94999981      -1.23998125E-05
   8.07999992      -1.25127244E-05
   8.21000004      -1.26237528E-05
   8.34000015      -1.27328249E-05
   8.47000027      -1.28398797E-05
   8.60000038      -1.29448727E-05
   8.72999954      -1.30477529E-05
   8.85999966      -1.31484894E-05
   8.98999977      -1.32470450E-05
   9.11999989      -1.33433878E-05
   9.25000000      -1.34374895E-05
   9.38000011      -1.35293185E-05
   9.51000023      -1.36188382E-05
   9.64000034      -1.37060060E-05
   9.77000046      -1.37907700E-05
   9.89999962      -1.38730784E-05
   10.0299997      -1.39528656E-05
   10.1599998      -1.40300635E-05
   10.2900000      -1.41045939E-05
   10.4200001      -1.41763758E-05
   10.5500002      -1.42453282E-05
   10.6800003      -1.43113730E-05
   10.8100004      -1.43744328E-05
   10.9399996      -1.44344422E-05
   11.0699997      -1.44913502E-05
   11.1999998      -1.45451113E-05
   11.3299999      -1.45957001E-05
   11.4600000      -1.46431021E-05
   11.5900002      -1.46873062E-05
   11.7200003      -1.47283163E-05
   11.8500004      -1.47661312E-05
   11.9799995      -1.48007584E-05
   12.1099997      -1.48321969E-05
   12.2399998      -1.48604367E-05
   12.3699999      -1.48854651E-05
   12.5000000      -1.49072566E-05
   12.6300001      -1.49257785E-05
   12.7600002      -1.49409889E-05
   12.8900003      -1.49528360E-05
   13.0200005      -1.49612642E-05
   13.1499996      -1.49662110E-05
   13.2799997      -1.49676171E-05
   13.4099998      -1.49654188E-05
   13.5400000      -1.49595562E-05
   13.6700001      -1.49499756E-05
   13.8000002      -1.49366333E-05
   13.9300003      -1.49194957E-05
   14.0600004      -1.48985437E-05
   14.1899996      -1.48737672E-05
   14.3199997      -1.48451727E-05
   14.4499998      -1.48127774E-05
   14.5799999      -1.47766050E-05
   14.7100000      -1.47366882E-05
   14.8400002      -1.46930524E-05
   14.9700003      -1.46457223E-05
   15.1000004      -1.45947124E-05
   15.2299995      -1.45400309E-05
   15.3599997      -1.44816668E-05
   15.4899998      -1.44195992E-05
   15.6199999      -1.43537955E-05
   15.7500000      -1.42842046E-05
   15.8800001      -1.42107756E-05
   16.0100002      -1.41334540E-05
   16.1399994      -1.40521806E-05
   16.2700005      -1.39669037E-05
   16.3999996      -1.38775713E-05
   16.5300007      -1.37841471E-05
   16.6599998      -1.36866038E-05
   16.7900009      -1.35849305E-05
   16.9200001      -1.34791208E-05
   17.0499992      -1.33691901E-05
   17.1800003      -1.32551640E-05
   17.3099995      -1.31370734E-05
   17.4400005      -1.30149656E-05
   17.5699997      -1.28888887E-05
   17.7000008      -1.27588846E-05
   17.8299999      -1.26249988E-05
   17.9599991      -1.24872686E-05
   18.0900002      -1.23457221E-05
   18.2199993      -1.22003685E-05
   18.3500004      -1.20512086E-05
   18.4799995      -1.18982252E-05
   18.6100006      -1.17413929E-05
   18.7399998      -1.15806697E-05
   18.8700008      -1.14160175E-05
   19.0000000      -1.12473890E-05
   19.1299992      -1.10747505E-05
   19.2600002      -1.08980730E-05
   19.3899994      -1.07173364E-05
   19.5200005      -1.05325444E-05
   19.6499996      -1.03437105E-05
   19.7800007      -1.01508631E-05
   19.9099998      -9.95404662E-06
   20.0400009      -9.75331841E-06
   20.1700001      -9.54874031E-06
   20.2999992      -9.34038417E-06
   20.4300003      -9.12832274E-06
   20.5599995      -8.91262425E-06
   20.6900005      -8.69335599E-06
   20.8199997      -8.47057527E-06
   20.9500008      -8.24433027E-06
   21.0799999      -8.01465831E-06
   21.2099991      -7.78158119E-06
   21.3400002      -7.54511439E-06
   21.4699993      -7.30526108E-06
   21.6000004      -7.06201718E-06
   21.7299995      -6.81537722E-06
   21.8600006      -6.56533484E-06
   21.9899998      -6.31189141E-06
   22.1200008      -6.05505875E-06
   22.2500000      -5.79486004E-06
   22.3799992      -5.53134032E-06
   22.5100002      -5.26456370E-06
   22.6399994      -4.99461021E-06
   22.7700005      -4.72157944E-06
   22.8999996      -4.44558054E-06
   23.0300007      -4.16673674E-06
   23.1599998      -3.88517446E-06
   23.2900009      -3.60101922E-06
   23.4200001      -3.31439378E-06
   23.5499992      -3.02541207E-06
   23.6800003      -2.73417982E-06
   23.8099995      -2.44078979E-06
   23.9400005      -2.14532656E-06
   24.0699997      -1.84786256E-06
   24.2000008      -1.54846362E-06
   24.3299999      -1.24719031E-06
   24.4599991      -9.44102112E-07
   24.5900002      -6.39259270E-07
   24.7199993      -3.32727723E-07
   24.8500004      -2.45823930E-08
   24.9799995       2.85089612E-07
   25.1100006       5.96185828E-07
   25.2399998       9.08586401E-07
   25.3700008       1.22215420E-06
   25.5000000       1.53673318E-06
   25.6299992       1.85215242E-06
   25.7600002       2.16822696E-06
   25.8899994       2.48476499E-06
   26.0200005       2.80156883E-06
   26.1499996       3.11844451E-06
   26.2800007       3.43520264E-06
   26.4099998       3.75166633E-06
   26.5400009       4.06767003E-06
   26.6700001       4.38306552E-06
   26.7999992       4.69771658E-06
   26.9300003       5.01150089E-06
   27.0599995       5.32430158E-06
   27.1900005       5.63601088E-06
   27.3199997       5.94651692E-06
   27.4500008       6.25570920E-06
   27.5799999       6.56346401E-06
   27.7099991       6.86964768E-06
   27.8400002       7.17411103E-06
   27.9699993       7.47669219E-06
   28.1000004       7.77721289E-06
   28.2299995       8.07547622E-06
   28.3600006       8.37127573E-06
   28.4899998       8.66439314E-06
   28.6200008       8.95460198E-06
   28.7500000       9.24167125E-06
   28.8799992       9.52537266E-06
   29.0100002       9.80547975E-06
   29.1399994       1.00817824E-05
   29.2700005       1.03540733E-05
   29.3999996       1.06221742E-05
   29.5300007       1.08859113E-05
   29.6599998       1.11451363E-05
   29.7900009       1.13997194E-05
   29.9200001       1.16495412E-05
   30.0499992       1.18944872E-05
   30.1800003       1.21344492E-05
   30.3099995       1.23693135E-05
   30.4400005       1.25989691E-05
   30.5699997       1.28232814E-05
   30.7000008       1.30421067E-05
   30.8299999       1.32552841E-05
   30.9599991       1.34626416E-05
   31.0900002       1.36639865E-05
   31.2199993       1.38591204E-05
   31.3500004       1.40478423E-05
   31.4799995       1.42299441E-05
   31.6100006       1.44052228E-05
   31.7399998       1.45734875E-05
   31.8700008       1.47345490E-05
   32.0000000       1.48882455E-05
   32.1300011       1.50344267E-05
   32.2599983       1.51729655E-05
   32.3899994       1.53037545E-05
   32.5200005       1.54267036E-05
   32.6500015       1.55417456E-05
   32.7799988       1.56488240E-05
   32.9099998       1.57478953E-05
   33.0400009       1.58389284E-05
   33.1699982       1.59218835E-05
   33.2999992       1.59967258E-05
   33.4300003       1.60634063E-05
   33.5600014       1.61218650E-05
   33.6899986       1.61720400E-05
   33.8199997       1.62138404E-05
   33.9500008       1.62471752E-05
   34.0800018       1.62719371E-05
   34.2099991       1.62880169E-05
   34.3400002       1.62953111E-05
   34.4700012       1.62937231E-05
   34.5999985       1.62831675E-05
   34.7299995       1.62635824E-05
   34.8600006       1.62349170E-05
   34.9900017       1.61971548E-05
   35.1199989       1.61502921E-05
   35.2500000       1.60943546E-05
   35.3800011       1.60293821E-05
   35.5099983       1.59554329E-05
   35.6399994       1.58725761E-05
   35.7700005       1.57808936E-05
   35.9000015       1.56804617E-05
   36.0299988       1.55713678E-05
   36.1599998       1.54536883E-05
   36.2900009       1.53274923E-05
   36.4199982       1.51928416E-05
   36.5499992       1.50497817E-05
   36.6800003       1.48983581E-05
   36.8100014       1.47385954E-05
   36.9399986       1.45705189E-05
   37.0699997       1.43941497E-05
   37.2000008       1.42095205E-05
   37.3300018       1.40166612E-05
   37.4599991       1.38156256E-05
   37.5900002       1.36064855E-05
   37.7200012       1.33893291E-05
   37.8499985       1.31642792E-05
   37.9799995       1.29314785E-05
   38.1100006       1.26910982E-05
   38.2400017       1.24433227E-05
   38.3699989       1.21883513E-05
   38.5000000       1.19263968E-05
   38.6300011       1.16576684E-05
   38.7599983       1.13823771E-05
   38.8899994       1.11007175E-05
   39.0200005       1.08128879E-05
   39.1500015       1.05190629E-05
   39.2799988       1.02194062E-05
   39.4099998       9.91407160E-06
   39.5400009       9.60319721E-06
   39.6699982       9.28691861E-06
   39.7999992       8.96536676E-06
   39.9300003       8.63867172E-06
   40.0600014       8.30696263E-06
   40.1899986       7.97038683E-06
   40.3199997       7.62910213E-06
   40.4500008       7.28328450E-06
   40.5800018       6.93313223E-06
   40.7099991       6.57886085E-06
   40.8400002       6.22071548E-06
   40.9700012       5.85895350E-06
   41.0999985       5.49385186E-06
   41.2299995       5.12569932E-06
   41.3600006       4.75478691E-06
   41.4900017       4.38140478E-06
   41.6199989       4.00583622E-06
   41.7500000       3.62835158E-06
   41.8800011       3.24920461E-06
   42.0099983       2.86862974E-06
   42.1399994       2.48684319E-06
   42.2700005       2.10404551E-06
   42.4000015       1.72042587E-06
   42.5299988       1.33616356E-06
   42.6599998       9.51434743E-07
   42.7900009       5.66417270E-07
   42.9199982       1.81296187E-07
   43.0499992      -2.03731389E-07
   43.1800003      -5.88455237E-07
   43.3100014      -9.72649104E-07
   43.4399986      -1.35606990E-06
   43.5699997      -1.73845831E-06
   43.7000008      -2.11954125E-06
   43.8300018      -2.49903451E-06
   43.9599991      -2.87664648E-06
   44.0900002      -3.25208407E-06
   44.2200012      -3.62505648E-06
   44.3499985      -3.99528290E-06
   44.4799995      -4.36249593E-06
   44.6100006      -4.72644751E-06
   44.7400017      -5.08691073E-06
   44.8699989      -5.44368231E-06
   45.0000000      -5.79658172E-06
   45.1300011      -6.14544979E-06
   45.2599983      -6.49014237E-06
   45.3899994      -6.83052758E-06
   45.5200005      -7.16647855E-06
   45.6500015      -7.49786477E-06
   45.7799988      -7.82455027E-06
   45.9099998      -8.14638224E-06
   46.0400009      -8.46319563E-06
   46.1699982      -8.77480761E-06
   46.2999992      -9.08101811E-06
   46.4300003      -9.38160974E-06
   46.5600014      -9.67635970E-06
   46.6899986      -9.96503604E-06
   46.8199997      -1.02474087E-05
   46.9500008      -1.05232539E-05
   47.0800018      -1.07923588E-05
   47.2099991      -1.10545252E-05
   47.3400002      -1.13095775E-05
   47.4700012      -1.15573648E-05
   47.5999985      -1.17977597E-05
   47.7299995      -1.20306622E-05
   47.8600006      -1.22559986E-05
   47.9900017      -1.24737126E-05
   48.1199989      -1.26837676E-05
   48.2500000      -1.28861448E-05
   48.3800011      -1.30808257E-05
   48.5099983      -1.32677978E-05
   48.6399994      -1.34470420E-05
   48.7700005      -1.36185245E-05
   48.9000015      -1.37821999E-05
   49.0299988      -1.39380090E-05
   49.1599998      -1.40858710E-05
   49.2900009      -1.42256968E-05
   49.4199982      -1.43573852E-05
   49.5499992      -1.44808291E-05
   49.6800003      -1.45959293E-05
   49.8100014      -1.47025848E-05
   49.9399986      -1.48007257E-05
   50.0699997      -1.48902900E-05
   50.2000008      -1.49712441E-05
   50.3300018      -1.50435781E-05
   50.4599991      -1.51073145E-05
   50.5900002      -1.51624918E-05
   50.7200012      -1.52091770E-05
   50.8499985      -1.52474477E-05
   50.9799995      -1.52774046E-05
   51.1100006      -1.52991470E-05
   51.2400017      -1.53127821E-05
   51.3699989      -1.53184119E-05
   51.5000000      -1.53161345E-05
   51.6300011      -1.53060355E-05
   51.7599983      -1.52881858E-05
   51.8899994      -1.52626435E-05
   52.0200005      -1.52294497E-05
   52.1500015      -1.51886379E-05
   52.2799988      -1.51402319E-05
   52.4099998      -1.50842479E-05
   52.5400009      -1.50207106E-05
   52.6699982      -1.49496509E-05
   52.7999992      -1.48711097E-05
   52.9300003      -1.47851561E-05
   53.0600014      -1.46918801E-05
   53.1899986      -1.45913909E-05
   53.3199997      -1.44838295E-05
   53.4500008      -1.43693560E-05
   53.5800018      -1.42481540E-05
   53.7099991      -1.41204127E-05
   53.8400002      -1.39863323E-05
   53.9700012      -1.38461091E-05
   54.0999985      -1.36999397E-05
   54.2299995      -1.35480032E-05
   54.3600006      -1.33904723E-05
   54.4900017      -1.32274954E-05
   54.6199989      -1.30592061E-05
   54.7500000      -1.28857246E-05
   54.8800011      -1.27071517E-05
   55.0099983      -1.25235802E-05
   55.1399994      -1.23350947E-05
   55.2700005      -1.21417752E-05
   55.4000015      -1.19437082E-05
   55.5299988      -1.17409854E-05
   55.6599998      -1.15337152E-05
   55.7900009      -1.13220167E-05
   55.9199982      -1.11060353E-05
   56.0499992      -1.08859349E-05
   56.1800003      -1.06619018E-05
   56.3100014      -1.04341425E-05
   56.4399986      -1.02028744E-05
   56.5699997      -9.96832750E-06
   56.7000008      -9.73073475E-06
   56.8300018      -9.49031801E-06
   56.9599991      -9.24729466E-06
   57.0900002      -9.00185933E-06
   57.2200012      -8.75419028E-06
   57.3499985      -8.50444121E-06
   57.4799995      -8.25274310E-06
   57.6100006      -7.99920508E-06
   57.7400017      -7.74392083E-06
   57.8699989      -7.48697175E-06
   58.0000000      -7.22843379E-06
   58.1300011      -6.96838015E-06
   58.2599983      -6.70689315E-06
   58.3899994      -6.44406327E-06
   58.5200005      -6.17999285E-06
   58.6500015      -5.91480330E-06
   58.7799988      -5.64863194E-06
   58.9099998      -5.38163658E-06
   59.0400009      -5.11398548E-06
   59.1699982      -4.84586417E-06
   59.2999992      -4.57746137E-06
   59.4300003      -4.30897353E-06
   59.5600014      -4.04058756E-06
   59.6899986      -3.77248648E-06
   59.8199997      -3.50483629E-06
   59.9500008      -3.23778204E-06
   60.0800018      -2.97144538E-06
   60.2099991      -2.70592227E-06
   60.3400002      -2.44128319E-06
   60.4700012      -2.17757679E-06
   60.5999985      -1.91483127E-06
   60.7299995      -1.65306460E-06
   60.8600006      -1.39228689E-06
   60.9900017      -1.13251122E-06
   61.1199989      -8.73758211E-07
   61.2500000      -6.16061925E-07
   61.3800011      -3.59473972E-07
   61.5099983      -1.04065315E-07
   61.6399994       1.50073859E-07
   61.7700005       4.02836207E-07
   61.9000015       6.54101200E-07
   62.0299988       9.03738794E-07
   62.1599998       1.15161606E-06
   62.2900009       1.39760198E-06
   62.4199982       1.64157484E-06
   62.5499992       1.88342574E-06
   62.6800003       2.12306463E-06
   62.8100014       2.36042251E-06
   62.9399986       2.59545527E-06
   63.0699997       2.82814176E-06
   63.2000008       3.05848585E-06
   63.3300018       3.28651117E-06
   63.4599991       3.51225776E-06
   63.5900002       3.73577541E-06
   63.7200012       3.95711822E-06
   63.8499985       4.17633828E-06
   63.9799995       4.39347559E-06
   64.1100006       4.60855790E-06
   64.2399979       4.82158976E-06
   64.3700027       5.03255433E-06
   64.5000000       5.24141524E-06
   64.6299973       5.44811110E-06
   64.7600021       5.65257142E-06
   64.8899994       5.85470889E-06
   65.0199966       6.05444166E-06
   65.1500015       6.25168923E-06
   65.2799988       6.44638112E-06
   65.4100037       6.63846640E-06
   65.5400009       6.82791369E-06
   65.6699982       7.01471936E-06
   65.8000031       7.19890159E-06
   65.9300003       7.38050221E-06
   66.0599976       7.55958536E-06
   66.1900024       7.73622924E-06
   66.3199997       7.91052480E-06
   66.4499969       8.08256937E-06
   66.5800018       8.25245661E-06
   66.7099991       8.42027657E-06
   66.8399963       8.58609474E-06
   66.9700012       8.74997022E-06
   67.0999985       8.91193758E-06
   67.2300034       9.07200229E-06
   67.3600006       9.23015068E-06
   67.4899979       9.38634639E-06
   67.6200027       9.54052939E-06
   67.7500000       9.69263692E-06
   67.8799973       9.84259168E-06
   68.0100021       9.99032363E-06
   68.1399994       1.01357664E-05
   68.2699966       1.02788763E-05
   68.4000015       1.04196270E-05
   68.5299988       1.05580129E-05
   68.6600037       1.06940579E-05
   68.7900009       1.08278000E-05
   68.9199982       1.09592984E-05
   69.0500031       1.10886285E-05
   69.1800003       1.12158677E-05
   69.3099976       1.13410906E-05
   69.4400024       1.14643644E-05
   69.5699997       1.15857401E-05
   69.6999969       1.17052568E-05
   69.8300018       1.18229236E-05
   69.9599991       1.19387269E-05
   70.0899963       1.20526356E-05
   70.2200012       1.21645853E-05
   70.3499985       1.22745005E-05
   70.4800034       1.23822874E-05
   70.6100006       1.24878406E-05
   70.7399979       1.25910565E-05
   70.8700027       1.26918330E-05
   71.0000000       1.27900748E-05
   71.1299973       1.28857018E-05
   71.2600021       1.29786595E-05
   71.3899994       1.30689077E-05
   71.5199966       1.31564348E-05
   71.6500015       1.32412451E-05
   71.7799988       1.33233607E-05
   71.9100037       1.34028123E-05
   72.0400009       1.34796337E-05
   72.1699982       1.35538530E-05
   72.3000031       1.36254876E-05
   72.4300003       1.36945328E-05
   72.5599976       1.37609586E-05
   72.6900024       1.38247133E-05
   72.8199997       1.38857140E-05
   72.9499969       1.39438480E-05
   73.0800018       1.39989870E-05
   73.2099991       1.40509856E-05
   73.3399963       1.40996835E-05
   73.4700012       1.41449245E-05
   73.5999985       1.41865457E-05
   73.7300034       1.42244044E-05
   73.8600006       1.42583649E-05
   73.9899979       1.42883146E-05
   74.1200027       1.43141642E-05
   74.2500000       1.43358438E-05
   74.3799973       1.43533071E-05
   74.5100021       1.43665293E-05
   74.6399994       1.43755005E-05
   74.7699966       1.43802145E-05
   74.9000015       1.43806792E-05
   75.0299988       1.43768866E-05
   75.1600037       1.43688212E-05
   75.2900009       1.43564530E-05
   75.4199982       1.43397292E-05
   75.5500031       1.43185680E-05
   75.6800003       1.42928620E-05
   75.8099976       1.42624858E-05
   75.9400024       1.42272884E-05
   76.0699997       1.41871124E-05
   76.1999969       1.41417895E-05
   76.3300018       1.40911570E-05
   76.4599991       1.40350658E-05
   76.5899963       1.39733820E-05
   76.7200012       1.39059957E-05
   76.8499985       1.38328242E-05
   76.9800034       1.37538127E-05
   77.1100006       1.36689341E-05
   77.2399979       1.35781829E-05
   77.3700027       1.34815746E-05
   77.5000000       1.33791382E-05
   77.6299973       1.32709101E-05
   77.7600021       1.31569268E-05
   77.8899994       1.30372191E-05
   78.0199966       1.29118071E-05
   78.1500015       1.27806943E-05
   78.2799988       1.26438645E-05
   78.4100037       1.25012803E-05
   78.5400009       1.23528862E-05
   78.6699982       1.21986086E-05
   78.8000031       1.20383611E-05
   78.9300003       1.18720500E-05
   79.0599976       1.16995870E-05
   79.1900024       1.15208904E-05
   79.3199997       1.13358983E-05
   79.4499969       1.11445752E-05
   79.5800018       1.09469147E-05
   79.7099991       1.07429460E-05
   79.8399963       1.05327335E-05
   79.9700012       1.03163738E-05
   80.0999985       1.00939906E-05
   80.2300034       9.86573104E-06
   80.3600006       9.63175535E-06
   80.4899979       9.39222900E-06
   80.6200027       9.14731390E-06
   80.7500000       8.89716466E-06
   80.8799973       8.64191679E-06
   81.0100021       8.38168853E-06
   81.1399994       8.11657355E-06
   81.2699966       7.84664917E-06
   81.4000015       7.57196949E-06
   81.5299988       7.29257681E-06
   81.6600037       7.00850205E-06
   81.7900009       6.71977614E-06
   81.9199982       6.42643408E-06
   82.0500031       6.12852136E-06
   82.1800003       5.82610710E-06
   82.3099976       5.51928497E-06
   82.4400024       5.20817730E-06
   82.5699997       4.89294143E-06
   82.6999969       4.57376836E-06
   82.8300018       4.25087819E-06
   82.9599991       3.92451921E-06
   83.0899963       3.59495812E-06
   83.2200012       3.26247641E-06
   83.3499985       2.92735444E-06
   83.4800034       2.58987097E-06
   83.6100006       2.25028771E-06
   83.7399979       1.90884725E-06
   83.8700027       1.56576857E-06
   84.0000000       1.22124368E-06
   84.1299973       8.75442367E-07
   84.2600021       5.28510611E-07
   84.3899994       1.80585516E-07
   84.5199966      -1.68208999E-07
   84.6500015      -5.17745320E-07
   84.7799988      -8.67892084E-07
   84.9100037      -1.21849928E-06
   85.0400009      -1.56939757E-06
   85.1699982      -1.92039488E-06
   85.3000031      -2.27127043E-06
   85.4300003      -2.62177696E-06
   85.5599976      -2.97164183E-06
   85.6900024      -3.32056788E-06
   85.8199997      -3.66824406E-06
   85.9499969      -4.01434636E-06
   86.0800018      -4.35854599E-06
   86.2099991      -4.70052510E-06
   86.3399963      -5.03997308E-06
   86.4700012      -5.37660208E-06
   86.5999985      -5.71015062E-06
   86.7300034      -6.04038360E-06
   86.8600006      -6.36709410E-06