  -1.50000000        -1.40612445E-19
  -1.38125002        -4.14581214E-09
  -1.26250005        -1.91489029E-08
  -1.14374995        -6.07413142E-08
  -1.02499998        -1.63298353E-07
 -0.906250000        -3.96585165E-07
 -0.787500024        -8.91915306E-07
 -0.668749988        -1.87832916E-06
 -0.550000012        -3.72579643E-06
 -0.431250006        -6.98737313E-06
 -0.312500000        -1.24275293E-05
 -0.193749994        -2.10224389E-05
  -7.50000030E-02    -3.39225553E-05
   4.37499993E-02    -5.23787530E-05
  0.162499994        -7.76478482E-05
  0.281250000        -1.10905436E-04
  0.400000006        -1.53197921E-04
  0.518750012        -2.05458957E-04
  0.637499988        -2.68599077E-04
  0.756250024        -3.43658612E-04
  0.875000000        -4.31997905E-04
  0.993749976        -5.35490108E-04
   1.11249995        -6.56682474E-04
   1.23125005        -7.98895373E-04
   1.35000002        -9.66239197E-04
   1.46875000        -1.16353529E-03
   1.58749998        -1.39613834E-03
   1.70624995        -1.66966196E-03
   1.82500005        -1.98962120E-03
   1.94375002        -2.36100983E-03
   2.06250000        -2.78783892E-03
   2.18125010        -3.27266962E-03
   2.29999995        -3.81617481E-03
   2.41875005        -4.41677123E-03
   2.53749990        -5.07035293E-03
   2.65625000        -5.77016454E-03
   2.77500010        -6.50683418E-03
   2.89374995        -7.26857828E-03
   3.01250005        -8.04158021E-03
   3.13124990        -8.81053321E-03
   3.25000000        -9.55931377E-03
   3.36875010        -1.02717476E-02
   3.48749995        -1.09324278E-02
   3.60625005        -1.15275150E-02
   3.72499990        -1.20454729E-02
   3.84375000        -1.24776838E-02
   3.96250010        -1.28188916E-02
   4.08125019        -1.30674308E-02
   4.19999981        -1.32252406E-02
   4.31874990        -1.32976342E-02
   4.43750000        -1.32928537E-02
   4.55625010        -1.32214436E-02
   4.67500019        -1.30954776E-02
   4.79374981        -1.29277222E-02
   4.91249990        -1.27307791E-02
   5.03125000        -1.25162965E-02
   5.15000010        -1.22943008E-02
   5.26875019        -1.20727103E-02
   5.38749981        -1.18570579E-02
   5.50624990        -1.16504524E-02
   5.62500000        -1.14537561E-02
   5.74375010        -1.12659708E-02
   5.86250019        -1.10847773E-02
   5.98124981        -1.09071638E-02
   6.09999990        -1.07300868E-02
   6.21875000        -1.05510838E-02
   6.33750010        -1.03687756E-02
   6.45625019        -1.01832096E-02
   6.57499981        -9.99599509E-03
   6.69374990        -9.81023163E-03
   6.81250000        -9.63021908E-03
   6.93125010        -9.46099684E-03
   7.05000019        -9.30774957E-03
   7.16874981        -9.17514972E-03
   7.28749990        -9.06670932E-03
   7.40625000        -8.98421556E-03
   7.52500010        -8.92731827E-03
   7.64375019        -8.89333338E-03
   7.76249981        -8.87727737E-03
   7.88124990        -8.87217000E-03
   8.00000000        -8.86956323E-03
   8.11874962        -8.86027422E-03
   8.23750019        -8.83524679E-03
   8.35624981        -8.78646504E-03
   8.47500038        -8.70782603E-03
   8.59375000        -8.59587733E-03
   8.71249962        -8.45034886E-03
   8.83125019        -8.27440433E-03
   8.94999981        -8.07457976E-03
   9.06875038        -7.86040165E-03
   9.18750000        -7.64369778E-03
   9.30624962        -7.43767014E-03
   9.42500019        -7.25578191E-03
   9.54374981        -7.11058592E-03
   9.66250038        -7.01257866E-03
   9.78125000        -6.96919207E-03
   9.89999962        -6.98402803E-03
   10.0187502        -7.05640111E-03
   10.1374998        -7.18124444E-03
   10.2562504        -7.34939706E-03
   10.3750000        -7.54824886E-03
   10.4937496        -7.76269473E-03
   10.6125002        -7.97631778E-03
   10.7312498        -8.17269180E-03
   10.8500004        -8.33669025E-03
   10.9687500        -8.45568907E-03
   11.0874996        -8.52053333E-03
   11.2062502        -8.52621812E-03
   11.3249998        -8.47218093E-03
   11.4437504        -8.36221501E-03
   11.5625000        -8.20400380E-03
   11.6812496        -8.00831430E-03
   11.8000002        -7.78796198E-03
   11.9187498        -7.55660841E-03
   12.0375004        -7.32754404E-03
   12.1562500        -7.11255241E-03
   12.2749996        -6.92097284E-03
   12.3937502        -6.75904332E-03
   12.5124998        -6.62958622E-03
   12.6312504        -6.53205765E-03
   12.7500000        -6.46294281E-03
   12.8687496        -6.41645817E-03
   12.9875002        -6.38546608E-03
   13.1062498        -6.36251410E-03
   13.2250004        -6.34087576E-03
   13.3437500        -6.31547719E-03
   13.4624996        -6.28361478E-03
   13.5812502        -6.24537282E-03
   13.6999998        -6.20370219E-03
   13.8187504        -6.16413262E-03
   13.9375000        -6.13416173E-03
   14.0562496        -6.12236233E-03
   14.1750002        -6.13732031E-03
   14.2937498        -6.18649460E-03
   14.4125004        -6.27513975E-03
   14.5312500        -6.40539778E-03
   14.6499996        -6.57566916E-03
   14.7687502        -6.78034220E-03
   14.8874998        -7.00991787E-03
   15.0062504        -7.25153973E-03
   15.1250000        -7.48989126E-03
   15.2437496        -7.70838466E-03
   15.3625002        -7.89053924E-03
   15.4812498        -8.02142639E-03
   15.6000004        -8.08903575E-03
   15.7187500        -8.08545109E-03
   15.8374996        -8.00770242E-03
   15.9562502        -7.85822049E-03
   16.0750008        -7.64483819E-03
   16.1937504        -7.38032861E-03
   16.3125000        -7.08152354E-03
   16.4312496        -6.76806923E-03
   16.5499992        -6.46094698E-03
   16.6687508        -6.18087361E-03
   16.7875004        -5.94672840E-03
   16.9062500        -5.77415200E-03
   17.0249996        -5.67442691E-03
   17.1437492        -5.65374736E-03
   17.2625008        -5.71292918E-03
   17.3812504        -5.84757840E-03
   17.5000000        -6.04869006E-03
   17.6187496        -6.30361121E-03
   17.7374992        -6.59726933E-03
   17.8562508        -6.91354321E-03
   17.9750004        -7.23663950E-03
   18.0937500        -7.55234994E-03
   18.2124996        -7.84907397E-03
   18.3312492        -8.11851304E-03
   18.4500008        -8.35599098E-03
   18.5687504        -8.56037065E-03
   18.6875000        -8.73361621E-03
   18.8062496        -8.88003223E-03
   18.9249992        -9.00530256E-03
   19.0437508        -9.11541376E-03
   19.1625004        -9.21561290E-03
   19.2812500        -9.30948835E-03
   19.3999996        -9.39830579E-03
   19.5187492        -9.48065519E-03
   19.6375008        -9.55245458E-03
   19.7562504        -9.60732717E-03
   19.8750000        -9.63729154E-03
   19.9937496        -9.63371899E-03
   20.1124992        -9.58844181E-03
   20.2312508        -9.49489418E-03
   20.3500004        -9.34917573E-03
   20.4687500        -9.15089808E-03
   20.5874996        -8.90374184E-03
   20.7062492        -8.61562788E-03
   20.8250008        -8.29849299E-03
   20.9437504        -7.96765927E-03
   21.0625000        -7.64085399E-03
   21.1812496        -7.33695785E-03
   21.2999992        -7.07458518E-03
   21.4187508        -6.87062927E-03
   21.5375004        -6.73890114E-03
   21.6562500        -6.68898178E-03
   21.7749996        -6.72540069E-03
   21.8937492        -6.84720790E-03
   22.0125008        -7.04799034E-03
   22.1312504        -7.31632160E-03
   22.2500000        -7.63661973E-03
   22.3687496        -7.99032394E-03
   22.4874992        -8.35729484E-03
   22.6062508        -8.71731434E-03
   22.7250004        -9.05154925E-03
   22.8437500        -9.34385881E-03
   22.9624996        -9.58183315E-03
   23.0812492        -9.75748058E-03
   23.2000008        -9.86751821E-03
   23.3187504        -9.91325267E-03
   23.4375000        -9.90007818E-03
   23.5562496        -9.83665977E-03
   23.6749992        -9.73388087E-03
   23.7937508        -9.60367545E-03
   23.9125004        -9.45785269E-03
   24.0312500        -9.30702779E-03
   24.1499996        -9.15976148E-03
   24.2687492        -9.02196858E-03
   24.3875008        -8.89665820E-03
   24.5062504        -8.78400449E-03
   24.6250000        -8.68171919E-03
   24.7437496        -8.58569518E-03
   24.8624992        -8.49081296E-03
   24.9812508        -8.39184225E-03
   25.1000004        -8.28432012E-03
   25.2187500        -8.16531852E-03
   25.3374996        -8.03401321E-03
   25.4562492        -7.89198931E-03
   25.5750008        -7.74326082E-03
   25.6937504        -7.59399123E-03
   25.8125000        -7.45194266E-03
   25.9312496        -7.32572051E-03
   26.0499992        -7.22388178E-03
   26.1687508        -7.15400418E-03
   26.2875004        -7.12181209E-03
   26.4062500        -7.13045336E-03
   26.5249996        -7.18000066E-03
   26.6437492        -7.26723066E-03
   26.7625008        -7.38572190E-03
   26.8812504        -7.52625521E-03
   27.0000000        -7.67749129E-03
   27.1187496        -7.82686844E-03
   27.2374992        -7.96164013E-03
   27.3562508        -8.06996319E-03
   27.4750004        -8.14192276E-03
   27.5937500        -8.17043055E-03
   27.7124996        -8.15188419E-03
   27.8312492        -8.08654912E-03
   27.9500008        -7.97861814E-03
   28.0687504        -7.83593953E-03
   28.1875000        -7.66945630E-03
   28.3062496        -7.49237277E-03
   28.4249992        -7.31915701E-03
   28.5437508        -7.16443826E-03
   28.6625004        -7.04190275E-03
   28.7812500        -6.96328795E-03
   28.8999996        -6.93754246E-03
   29.0187492        -6.97022630E-03
   29.1375008        -7.06319651E-03
   29.2562504        -7.21458485E-03
   29.3750000        -7.41906976E-03
   29.4937496        -7.66840298E-03
   29.6124992        -7.95213599E-03
   29.7312508        -8.25848058E-03
   29.8500004        -8.57521594E-03
   29.9687500        -8.89058039E-03
   30.0874996        -9.19404812E-03
   30.2062492        -9.47695505E-03
   30.3250008        -9.73291323E-03
   30.4437504        -9.95799527E-03
   30.5625000        -1.01506859E-02
   30.6812496        -1.03116212E-02
   30.7999992        -1.04431538E-02
   30.9187508        -1.05488049E-02
   31.0375004        -1.06326416E-02
   31.1562500        -1.06986780E-02
   31.2749996        -1.07503328E-02
   31.3937492        -1.07900128E-02
   31.5125008        -1.08188502E-02
   31.6312504        -1.08366180E-02
   31.7500000        -1.08418297E-02
   31.8687496        -1.08319931E-02
   31.9874992        -1.08040022E-02
   32.1062508        -1.07546085E-02
   32.2249985        -1.06809223E-02
   32.3437500        -1.05808992E-02
   32.4625015        -1.04537364E-02
   32.5812492        -1.03001567E-02
   32.7000008        -1.01225404E-02
   32.8187485        -9.92487557E-03
   32.9375000        -9.71254706E-03
   33.0562515        -9.49196331E-03
   33.1749992        -9.27005522E-03
   33.2937508        -9.05369688E-03
   33.4124985        -8.84909369E-03
   33.5312500        -8.66118912E-03
   33.6500015        -8.49316735E-03
   33.7687492        -8.34606960E-03
   33.8875008        -8.21858551E-03
   34.0062485        -8.10703728E-03
   34.1250000        -8.00556783E-03
   34.2437515        -7.90651422E-03
   34.3624992        -7.80095626E-03
   34.4812508        -7.67938793E-03
   34.5999985        -7.53246760E-03
   34.7187500        -7.35178683E-03
   34.8375015        -7.13059818E-03
   34.9562492        -6.86444342E-03
   35.0750008        -6.55163918E-03
   35.1937485        -6.19357172E-03
   35.3125000        -5.79478359E-03
   35.4312515        -5.36284456E-03
   35.5499992        -4.90800804E-03
   35.6687508        -4.44268901E-03
   35.7874985        -3.98078747E-03
   35.9062500        -3.53692076E-03
   36.0250015        -3.12560610E-03
   36.1437492        -2.76046246E-03
   36.2625008        -2.45348318E-03
   36.3812485        -2.21442617E-03
   36.5000000        -2.05036951E-03
   36.6187515        -1.96544523E-03
   36.7374992        -1.96077675E-03
   36.8562508        -2.03460478E-03
   36.9749985        -2.18258472E-03
   37.0937500        -2.39822594E-03
   37.2125015        -2.67342757E-03
   37.3312492        -2.99906335E-03
   37.4500008        -3.36556812E-03
   37.5687485        -3.76347709E-03
   37.6875000        -4.18387633E-03
   37.8062515        -4.61873598E-03
   37.9249992        -5.06110676E-03
   38.0437508        -5.50517440E-03
   38.1624985        -5.94618684E-03
   38.2812500        -6.38026232E-03
   38.4000015        -6.80412492E-03
   38.5187492        -7.21479999E-03
   38.6375008        -7.60930963E-03
   38.7562485        -7.98441749E-03
   38.8750000        -8.33645463E-03
   38.9937515        -8.66124872E-03
   39.1124992        -8.95419065E-03
   39.2312508        -9.21041798E-03
   39.3499985        -9.42512229E-03
   39.4687500        -9.59394127E-03
   39.5875015        -9.71340854E-03
   39.7062492        -9.78141371E-03
   39.8250008        -9.79761407E-03
   39.9437485        -9.76377074E-03
   40.0625000        -9.68394522E-03
   40.1812515        -9.56453942E-03
   40.2999992        -9.41415038E-03
   40.4187508        -9.24323965E-03
   40.5374985        -9.06362757E-03
   40.6562500        -8.88784230E-03
   40.7750015        -8.72836635E-03
   40.8937492        -8.59683193E-03
   41.0125008        -8.50322656E-03
   41.1312485        -8.45518522E-03
   41.2500000        -8.45739897E-03
   41.3687515        -8.51122942E-03
   41.4874992        -8.61453731E-03
   41.6062508        -8.76175612E-03
   41.7249985        -8.94421898E-03
   41.8437500        -9.15070437E-03
   41.9625015        -9.36817564E-03
   42.0812492        -9.58265457E-03
   42.2000008        -9.78015549E-03
   42.3187485        -9.94762313E-03
   42.4375000        -1.00737838E-02
   42.5562515        -1.01498626E-02
   42.6749992        -1.01700993E-02
   42.7937508        -1.01320315E-02
   42.9124985        -1.00365281E-02
   43.0312500        -9.88757703E-03
   43.1500015        -9.69185028E-03
   43.2687492        -9.45808925E-03
   43.3875008        -9.19636618E-03
   43.5062485        -8.91729165E-03
   43.6250000        -8.63123219E-03
   43.7437515        -8.34761001E-03
   43.8624992        -8.07433575E-03
   43.9812508        -7.81742949E-03
   44.0999985        -7.58084701E-03
   44.2187500        -7.36652222E-03
   44.3375015        -7.17460644E-03
   44.4562492        -7.00387638E-03
   44.5750008        -6.85225567E-03
   44.6937485        -6.71738945E-03
   44.8125000        -6.59720926E-03
   44.9312515        -6.49041310E-03
   45.0499992        -6.39682449E-03
   45.1687508        -6.31756661E-03
   45.2874985        -6.25504600E-03
   45.4062500        -6.21273741E-03
   45.5250015        -6.19478943E-03
   45.6437492        -6.20549545E-03
   45.7625008        -6.24867389E-03
   45.8812485        -6.32703956E-03
