  -1.50000000         6.55268452E-18
  -1.38125002        -2.51197929E-09
  -1.26250005        -1.21114345E-08
  -1.14374995        -4.01318196E-08
  -1.02499998        -1.12280091E-07
 -0.906250000        -2.82600013E-07
 -0.787500024        -6.56895565E-07
 -0.668749988        -1.42852878E-06
 -0.550000012        -2.92797290E-06
 -0.431250006        -5.68438463E-06
 -0.312500000        -1.04931878E-05
 -0.193749994        -1.84794826E-05
  -7.50000030E-02    -3.11446383E-05
   4.37499993E-02    -5.03838710E-05
  0.162499994        -7.84659496E-05
  0.281250000        -1.17971264E-04
  0.400000006        -1.71689215E-04
  0.518750012        -2.42479728E-04
  0.637499988        -3.33105534E-04
  0.756250024        -4.46044869E-04
  0.875000000        -5.83295594E-04
  0.993749976        -7.46186473E-04
   1.11249995        -9.35213233E-04
   1.23125005        -1.14991865E-03
   1.35000002        -1.38883211E-03
   1.46875000        -1.64948229E-03
   1.58749998        -1.92848407E-03
   1.70624995        -2.22169957E-03
   1.82500005        -2.52445694E-03
   1.94375002        -2.83181225E-03
   2.06250000        -3.13883228E-03
   2.18125010        -3.44087416E-03
   2.29999995        -3.73383961E-03
   2.41875005        -4.01438866E-03
   2.53749990        -4.28009359E-03
   2.65625000        -4.52953065E-03
   2.77500010        -4.76230308E-03
   2.89374995        -4.97900182E-03
   3.01250005        -5.18111000E-03
   3.13124990        -5.37086744E-03
   3.25000000        -5.55110583E-03
   3.36875010        -5.72506525E-03
   3.48749995        -5.89621346E-03
   3.60625005        -6.06806902E-03
   3.72499990        -6.24404335E-03
   3.84375000        -6.42729411E-03
   3.96250010        -6.62060315E-03
   4.08125019        -6.82626525E-03
   4.19999981        -7.04599125E-03
   4.31874990        -7.28081726E-03
   4.43750000        -7.53102265E-03
   4.55625010        -7.79605331E-03
   4.67500019        -8.07445310E-03
   4.79374981        -8.36381409E-03
   4.91249990        -8.66074674E-03
   5.03125000        -8.96089431E-03
   5.15000010        -9.25898179E-03
   5.26875019        -9.54892859E-03
   5.38749981        -9.82401799E-03
   5.50624990        -1.00771328E-02
   5.62500000        -1.03010498E-02
   5.74375010        -1.04887802E-02
   5.86250019        -1.06339436E-02
   5.98124981        -1.07311606E-02
   6.09999990        -1.07764145E-02
   6.21875000        -1.07673900E-02
   6.33750010        -1.07037285E-02
   6.45625019        -1.05871949E-02
   6.57499981        -1.04217343E-02
   6.69374990        -1.02133946E-02
   6.81250000        -9.97013319E-03
   6.93125010        -9.70149785E-03
   7.05000019        -9.41819698E-03
   7.16874981        -9.13160108E-03
   7.28749990        -8.85318406E-03
   7.40625000        -8.59395508E-03
   7.52500010        -8.36391002E-03
   7.64375019        -8.17154068E-03
   7.76249981        -8.02342873E-03
   7.88124990        -7.92395044E-03
   8.00000000        -7.87510723E-03
   8.11874962        -7.87648465E-03
   8.23750019        -7.92535208E-03
   8.35624981        -8.01686104E-03
   8.47500038        -8.14436097E-03
   8.59375000        -8.29978008E-03
   8.71249962        -8.47405382E-03
   8.83125019        -8.65758024E-03
   8.94999981        -8.84066988E-03
   9.06875038        -9.01395455E-03
   9.18750000        -9.16877389E-03
   9.30624962        -9.29748081E-03
   9.42500019        -9.39369667E-03
   9.54374981        -9.45249014E-03
   9.66250038        -9.47049819E-03
   9.78125000        -9.44597926E-03
   9.89999962        -9.37881414E-03
   10.0187502        -9.27046128E-03
   10.1374998        -9.12386831E-03
   10.2562504        -8.94334447E-03
   10.3750000        -8.73439386E-03
   10.4937496        -8.50352366E-03
   10.6125002        -8.25801026E-03
   10.7312498        -8.00564140E-03
   10.8500004        -7.75442598E-03
   10.9687500        -7.51228025E-03
   11.0874996        -7.28670415E-03
   11.2062502        -7.08445255E-03
   11.3249998        -6.91121444E-03
   11.4437504        -6.77133165E-03
   11.5625000        -6.66755624E-03
   11.6812496        -6.60087960E-03
   11.8000002        -6.57044211E-03
   11.9187498        -6.57353736E-03
   12.0375004        -6.60572108E-03
   12.1562500        -6.66101836E-03
   12.2749996        -6.73222821E-03
   12.3937502        -6.81130681E-03
   12.5124998        -6.88981032E-03
   12.6312504        -6.95937220E-03
   12.7500000        -7.01217679E-03
   12.8687496        -7.04140821E-03
   12.9875002        -7.04163965E-03
   13.1062498        -7.00913230E-03
   13.2250004        -6.94203330E-03
   13.3437500        -6.84045302E-03
   13.4624996        -6.70641894E-03
   13.5812502        -6.54371735E-03
   13.6999998        -6.35763211E-03
   13.8187504        -6.15459913E-03
   13.9375000        -5.94180962E-03
   14.0562496        -5.72678493E-03
   14.1750002        -5.51695796E-03
   14.2937498        -5.31928474E-03
   14.4125004        -5.13991015E-03
   14.5312500        -4.98390570E-03
   14.6499996        -4.85509122E-03
   14.7687502        -4.75594122E-03
   14.8874998        -4.68757516E-03
   15.0062504        -4.64981794E-03
   15.1250000        -4.64132195E-03
   15.2437496        -4.65973094E-03
   15.3625002        -4.70186817E-03
   15.4812498        -4.76393616E-03
   15.6000004        -4.84171091E-03
   15.7187500        -4.93071927E-03
   15.8374996        -5.02640195E-03
   15.9562502        -5.12425089E-03
   16.0750008        -5.21992426E-03
   16.1937504        -5.30934799E-03
   16.3125000        -5.38880099E-03
   16.4312496        -5.45499707E-03
   16.5499992        -5.50515950E-03
   16.6687508        -5.53709175E-03
   16.7875004        -5.54925064E-03
   16.9062500        -5.54080633E-03
   17.0249996        -5.51169366E-03
   17.1437492        -5.46264183E-03
   17.2625008        -5.39517868E-03
   17.3812504        -5.31160133E-03
   17.5000000        -5.21490723E-03
   17.6187496        -5.10868477E-03
   17.7374992        -4.99696704E-03
   17.8562508        -4.88405256E-03
   17.9750004        -4.77430131E-03
   18.0937500        -4.67192382E-03
   18.2124996        -4.58076969E-03
   18.3312492        -4.50414512E-03
   18.4500008        -4.44465410E-03
   18.5687504        -4.40409593E-03
   18.6875000        -4.38341266E-03
   18.8062496        -4.38269973E-03
   18.9249992        -4.40126751E-03
   19.0437508        -4.43775859E-03
   19.1625004        -4.49030334E-03
   19.2812500        -4.55669546E-03
   19.3999996        -4.63457918E-03
   19.5187492        -4.72162804E-03
   19.6375008        -4.81569162E-03
   19.7562504        -4.91491146E-03
   19.8750000        -5.01778629E-03
   19.9937496        -5.12318546E-03
   20.1124992        -5.23031596E-03
   20.2312508        -5.33864694E-03
   20.3500004        -5.44779794E-03
   20.4687500        -5.55741740E-03
   20.5874996        -5.66705409E-03
   20.7062492        -5.77604864E-03
   20.8250008        -5.88344876E-03
   20.9437504        -5.98797062E-03
   21.0625000        -6.08800352E-03
   21.1812496        -6.18166523E-03
   21.2999992        -6.26689987E-03
   21.4187508        -6.34161616E-03
   21.5375004        -6.40384573E-03
   21.6562500        -6.45191409E-03
   21.7749996        -6.48460491E-03
   21.8937492        -6.50130352E-03
   22.0125008        -6.50210446E-03
   22.1312504        -6.48787618E-03
   22.2500000        -6.46027504E-03
   22.3687496        -6.42170291E-03
   22.4874992        -6.37522293E-03
   22.6062508        -6.32442255E-03
   22.7250004        -6.27325149E-03
   22.8437500        -6.22583274E-03
   22.9624996        -6.18627155E-03
   23.0812492        -6.15845993E-03
   23.2000008        -6.14590989E-03
   23.3187504        -6.15159702E-03
   23.4375000        -6.17784448E-03
   23.5562496        -6.22623553E-03
   23.6749992        -6.29756134E-03
   23.7937508        -6.39179721E-03
   23.9125004        -6.50810776E-03
   24.0312500        -6.64487667E-03
   24.1499996        -6.79975189E-03
   24.2687492        -6.96971035E-03
   24.3875008        -7.15113105E-03
   24.5062504        -7.33988779E-03
   24.6250000        -7.53144966E-03
   24.7437496        -7.72099663E-03
   24.8624992        -7.90355448E-03
   24.9812508        -8.07414390E-03
   25.1000004        -8.22794251E-03
   25.2187500        -8.36046878E-03
   25.3374996        -8.46776832E-03
   25.4562492        -8.54660850E-03
   25.5750008        -8.59466009E-03
   25.6937504        -8.61066300E-03
   25.8125000        -8.59456323E-03
   25.9312496        -8.54759756E-03
   26.0499992        -8.47232621E-03
   26.1687508        -8.37260205E-03
   26.2875004        -8.25346168E-03
   26.4062500        -8.12095031E-03
   26.5249996        -7.98187777E-03
   26.6437492        -7.84351118E-03
   26.7625008        -7.71323266E-03
   26.8812504        -7.59816403E-03
   27.0000000        -7.50479335E-03
   27.1187496        -7.43861962E-03
   27.2374992        -7.40384124E-03
   27.3562508        -7.40310550E-03
   27.4750004        -7.43733766E-03
   27.5937500        -7.50566600E-03
   27.7124996        -7.60544185E-03
   27.8312492        -7.73235550E-03
   27.9500008        -7.88064953E-03
   28.0687504        -8.04340467E-03
   28.1875000        -8.21289327E-03
   28.3062496        -8.38096440E-03
   28.4249992        -8.53945594E-03
   28.5437508        -8.68059602E-03
   28.6625004        -8.79737362E-03
   28.7812500        -8.88386648E-03
   28.8999996        -8.93550646E-03
   29.0187492        -8.94926023E-03
   29.1375008        -8.92374851E-03
   29.2562504        -8.85926746E-03
   29.3750000        -8.75774305E-03
   29.4937496        -8.62261374E-03
   29.6124992        -8.45865440E-03
   29.7312508        -8.27174447E-03
   29.8500004        -8.06861743E-03
   29.9687500        -7.85657018E-03
   30.0874996        -7.64317485E-03
   30.2062492        -7.43598584E-03
   30.3250008        -7.24225398E-03
   30.4437504        -7.06866290E-03
   30.5625000        -6.92108786E-03
   30.6812496        -6.80437917E-03
   30.7999992        -6.72218297E-03
   30.9187508        -6.67680381E-03
   31.0375004        -6.66909991E-03
   31.1562500        -6.69843378E-03
   31.2749996        -6.76266849E-03
   31.3937492        -6.85821939E-03
   31.5125008        -6.98015979E-03
   31.6312504        -7.12238392E-03
   31.7500000        -7.27782352E-03
   31.8687496        -7.43871322E-03
   31.9874992        -7.59690162E-03
   32.1062508        -7.74418563E-03
   32.2249985        -7.87266996E-03
   32.3437500        -7.97512196E-03
   32.4625015        -8.04530829E-03
   32.5812492        -8.07830319E-03
   32.7000008        -8.07072688E-03
   32.8187485        -8.02093558E-03
   32.9375000        -7.92910717E-03
   33.0562515        -7.79725332E-03
   33.1749992        -7.62913050E-03
   33.2937508        -7.43006170E-03
   33.4124985        -7.20667792E-03
   33.5312500        -6.96659135E-03
   33.6500015        -6.71801995E-03
   33.7687492        -6.46938616E-03
   33.8875008        -6.22890703E-03
   34.0062485        -6.00420916E-03
   34.1250000        -5.80198551E-03
   34.2437515        -5.62770711E-03
   34.3624992        -5.48541592E-03
   34.4812508        -5.37759904E-03
   34.5999985        -5.30514726E-03
   34.7187500        -5.26740402E-03
   34.8375015        -5.26228221E-03
   34.9562492        -5.28645189E-03
   35.0750008        -5.33557404E-03
   35.1937485        -5.40456502E-03
   35.3125000        -5.48787462E-03
   35.4312515        -5.57976309E-03
   35.5499992        -5.67455869E-03
   35.6687508        -5.76688582E-03
   35.7874985        -5.85185923E-03
   35.9062500        -5.92523161E-03
   36.0250015        -5.98350260E-03
   36.1437492        -6.02398301E-03
   36.2625008        -6.04482507E-03
   36.3812485        -6.04501879E-03
   36.5000000        -6.02436578E-03
   36.6187515        -5.98343089E-03
   36.7374992        -5.92348026E-03
   36.8562508        -5.84640633E-03
   36.9749985        -5.75464917E-03
   37.0937500        -5.65110100E-03
   37.2125015        -5.53901168E-03
   37.3312492        -5.42187598E-03
   37.4500008        -5.30332187E-03
   37.5687485        -5.18698245E-03
   37.6875000        -5.07636787E-03
   37.8062515        -4.97473683E-03
   37.9249992        -4.88496618E-03
   38.0437508        -4.80943825E-03
   38.1624985        -4.74994304E-03
   38.2812500        -4.70760278E-03
   38.4000015        -4.68283519E-03
   38.5187492        -4.67534596E-03
   38.6375008        -4.68416652E-03
   38.7562485        -4.70772572E-03
   38.8750000        -4.74396069E-03
   38.9937515        -4.79045510E-03
   39.1124992        -4.84459661E-03
   39.2312508        -4.90374304E-03
   39.3499985        -4.96538356E-03
   39.4687500        -5.02728298E-03
   39.5875015        -5.08759730E-03
   39.7062492        -5.14495187E-03
   39.8250008        -5.19847451E-03
   39.9437485        -5.24778618E-03
   40.0625000        -5.29295020E-03
   40.1812515        -5.33438008E-03
   40.2999992        -5.37273148E-03
   40.4187508        -5.40877413E-03
   40.5374985        -5.44326613E-03
   40.6562500        -5.47684357E-03
   40.7750015        -5.50993532E-03
   40.8937492        -5.54270996E-03
   41.0125008        -5.57506830E-03
   41.1312485        -5.60667180E-03
   41.2500000        -5.63700730E-03
   41.3687515        -5.66548575E-03
   41.4874992        -5.69155812E-03
   41.6062508        -5.71483374E-03
   41.7249985        -5.73519431E-03
   41.8437500        -5.75288199E-03
   41.9625015        -5.76855661E-03
   42.0812492        -5.78330830E-03
   42.2000008        -5.79862716E-03
   42.3187485        -5.81632834E-03
   42.4375000        -5.83843421E-03
   42.5562515        -5.86703094E-03
   42.6749992        -5.90410735E-03
   42.7937508        -5.95138781E-03
   42.9124985        -6.01017801E-03
   43.0312500        -6.08123979E-03
   43.1500015        -6.16469420E-03
   43.2687492        -6.25997549E-03
   43.3875008        -6.36582961E-03
   43.5062485        -6.48035808E-03
   43.6250000        -6.60110824E-03
   43.7437515        -6.72519440E-03
   43.8624992        -6.84944587E-03
   43.9812508        -6.97056763E-03
   44.0999985        -7.08529726E-03
   44.2187500        -7.19055999E-03
   44.3375015        -7.28359353E-03
   44.4562492        -7.36205932E-03
   44.5750008        -7.42411800E-03
   44.6937485        -7.46848015E-03
   44.8125000        -7.49443285E-03
   44.9312515        -7.50184432E-03
   45.0499992        -7.49115879E-03
   45.1687508        -7.46337278E-03
   45.2874985        -7.42001459E-03
   45.4062500        -7.36311823E-03
   45.5250015        -7.29519082E-03
   45.6437492        -7.21917627E-03
   45.7625008        -7.13841151E-03
   45.8812485        -7.05656409E-03
