  -1.50000000        -8.69276082E-18
  -1.38125002        -7.28029081E-10
  -1.26250005        -3.70779984E-09
  -1.14374995        -1.29268676E-08
  -1.02499998        -3.77494054E-08
 -0.906250000        -9.84796387E-08
 -0.787500024        -2.36176774E-07
 -0.668749988        -5.28611793E-07
 -0.550000012        -1.11411453E-06
 -0.431250006        -2.22421454E-06
 -0.312500000        -4.22430185E-06
 -0.193749994        -7.65916229E-06
  -7.50000030E-02    -1.32976484E-05
   4.37499993E-02    -2.21685459E-05
  0.162499994        -3.55786069E-05
  0.281250000        -5.51040757E-05
  0.400000006        -8.25491443E-05
  0.518750012        -1.19868222E-04
  0.637499988        -1.69053688E-04
  0.756250024        -2.31995742E-04
  0.875000000        -3.10326024E-04
  0.993749976        -4.05260100E-04
   1.11249995        -5.17455745E-04
   1.23125005        -6.46903180E-04
   1.35000002        -7.92860403E-04
   1.46875000        -9.53842769E-04
   1.58749998        -1.12766889E-03
   1.70624995        -1.31156074E-03
   1.82500005        -1.50228885E-03
   1.94375002        -1.69635122E-03
   2.06250000        -1.89016946E-03
   2.18125010        -2.08028872E-03
   2.29999995        -2.26356159E-03
   2.41875005        -2.43730843E-03
   2.53749990        -2.59943819E-03
   2.65625000        -2.74852826E-03
   2.77500010        -2.88385781E-03
   2.89374995        -3.00539983E-03
   3.01250005        -3.11377482E-03
   3.13124990        -3.21017439E-03
   3.25000000        -3.29626631E-03
   3.36875010        -3.37408483E-03
   3.48749995        -3.44592077E-03
   3.60625005        -3.51421232E-03
   3.72499990        -3.58144287E-03
   3.84375000        -3.65004689E-03
   3.96250010        -3.72232660E-03
   4.08125019        -3.80036957E-03
   4.19999981        -3.88597324E-03
   4.31874990        -3.98057001E-03
   4.43750000        -4.08515101E-03
   4.55625010        -4.20018891E-03
   4.67500019        -4.32556774E-03
   4.79374981        -4.46051452E-03
   4.91249990        -4.60354984E-03
   5.03125000        -4.75246040E-03
   5.15000010        -4.90430230E-03
   5.26875019        -5.05544757E-03
   5.38749981        -5.20167546E-03
   5.50624990        -5.33831120E-03
   5.62500000        -5.46042016E-03
   5.74375010        -5.56303607E-03
   5.86250019        -5.64143294E-03
   5.98124981        -5.69140352E-03
   6.09999990        -5.70954662E-03
   6.21875000        -5.69352834E-03
   6.33750010        -5.64230513E-03
   6.45625019        -5.55628212E-03
   6.57499981        -5.43739973E-03
   6.69374990        -5.28912898E-03
   6.81250000        -5.11637283E-03
   6.93125010        -4.92528174E-03
   7.05000019        -4.72297985E-03
   7.16874981        -4.51723114E-03
   7.28749990        -4.31605382E-03
   7.40625000        -4.12731618E-03
   7.52500010        -3.95833608E-03
   7.64375019        -3.81550728E-03
   7.76249981        -3.70398373E-03
   7.88124990        -3.62743530E-03
   8.00000000        -3.58789018E-03
   8.11874962        -3.58567084E-03
   8.23750019        -3.61942593E-03
   8.35624981        -3.68624786E-03
   8.47500038        -3.78186931E-03
   8.59375000        -3.90091632E-03
   8.71249962        -4.03720420E-03
   8.83125019        -4.18405235E-03
   8.94999981        -4.33460204E-03
   9.06875038        -4.48211608E-03
   9.18750000        -4.62025311E-03
   9.30624962        -4.74329898E-03
   9.42500019        -4.84635634E-03
   9.54374981        -4.92548943E-03
   9.66250038        -4.97781672E-03
   9.78125000        -5.00157150E-03
   9.89999962        -4.99611860E-03
   10.0187502        -4.96193953E-03
   10.1374998        -4.90059098E-03
   10.2562504        -4.81463596E-03
   10.3750000        -4.70755110E-03
   10.4937496        -4.58360743E-03
   10.6125002        -4.44772979E-03
   10.7312498        -4.30532824E-03
   10.8500004        -4.16210527E-03
   10.9687500        -4.02383832E-03
   11.0874996        -3.89614701E-03
   11.2062502        -3.78424581E-03
   11.3249998        -3.69269773E-03
   11.4437504        -3.62517987E-03
   11.5625000        -3.58427619E-03
   11.6812496        -3.57131287E-03
   11.8000002        -3.58624873E-03
   11.9187498        -3.62763763E-03
   12.0375004        -3.69266397E-03
   12.1562500        -3.77726252E-03
   12.2749996        -3.87631287E-03
   12.3937502        -3.98390461E-03
   12.5124998        -4.09365864E-03
   12.6312504        -4.19908110E-03
   12.7500000        -4.29393491E-03
   12.8687496        -4.37259814E-03
   12.9875002        -4.43038484E-03
   13.1062498        -4.46381373E-03
   13.2250004        -4.47079539E-03
   13.3437500        -4.45073470E-03
   13.4624996        -4.40453738E-03
   13.5812502        -4.33452474E-03
   13.6999998        -4.24426096E-03
   13.8187504        -4.13831230E-03
   13.9375000        -4.02195333E-03
   14.0562496        -3.90084344E-03
   14.1750002        -3.78070073E-03
   14.2937498        -3.66698788E-03
   14.4125004        -3.56463855E-03
   14.5312500        -3.47783277E-03
   14.6499996        -3.40983644E-03
   14.7687502        -3.36290686E-03
   14.8874998        -3.33826174E-03
   15.0062504        -3.33610992E-03
   15.1250000        -3.35572986E-03
   15.2437496        -3.39558511E-03
   15.3625002        -3.45346308E-03
   15.4812498        -3.52662429E-03
   15.6000004        -3.61195044E-03
   15.7187500        -3.70608293E-03
   15.8374996        -3.80554772E-03
   15.9562502        -3.90686048E-03
   16.0750008        -4.00661863E-03
   16.1937504        -4.10157815E-03
   16.3125000        -4.18872386E-03
   16.4312496        -4.26533399E-03
   16.5499992        -4.32904204E-03
   16.6687508        -4.37790668E-03
   16.7875004        -4.41047130E-03
   16.9062500        -4.42583067E-03
   17.0249996        -4.42368258E-03
   17.1437492        -4.40436881E-03
   17.2625008        -4.36889147E-03
   17.3812504        -4.31889808E-03
   17.5000000        -4.25663777E-03
   17.6187496        -4.18487284E-03
   17.7374992        -4.10676049E-03
   17.8562508        -4.02569911E-03
   17.9750004        -3.94515228E-03
   18.0937500        -3.86846112E-03
   18.2124996        -3.79865919E-03
   18.3312492        -3.73830227E-03
   18.4500008        -3.68932844E-03
   18.5687504        -3.65296379E-03
   18.6875000        -3.62967583E-03
   18.8062496        -3.61918658E-03
   18.9249992        -3.62053886E-03
   19.0437508        -3.63221462E-03
   19.1625004        -3.65229021E-03
   19.2812500        -3.67862103E-03
   19.3999996        -3.70903197E-03
   19.5187492        -3.74149997E-03
   19.6375008        -3.77431116E-03
   19.7562504        -3.80617892E-03
   19.8750000        -3.83631117E-03
   19.9937496        -3.86442244E-03
   20.1124992        -3.89069295E-03
   20.2312508        -3.91567731E-03
   20.3500004        -3.94017622E-03
   20.4687500        -3.96508304E-03
   20.5874996        -3.99122294E-03
   20.7062492        -4.01920313E-03
   20.8250008        -4.04928531E-03
   20.9437504        -4.08129860E-03
   21.0625000        -4.11459710E-03
   21.1812496        -4.14807117E-03
   21.2999992        -4.18020738E-03
   21.4187508        -4.20919154E-03
   21.5375004        -4.23304690E-03
   21.6562500        -4.24979394E-03
   21.7749996        -4.25761286E-03
   21.8937492        -4.25500190E-03
   22.0125008        -4.24090633E-03
   22.1312504        -4.21481906E-03
   22.2500000        -4.17683972E-03
   22.3687496        -4.12768731E-03
   22.4874992        -4.06867266E-03
   22.6062508        -4.00163187E-03
   22.7250004        -3.92882992E-03
   22.8437500        -3.85284494E-03
   22.9624996        -3.77644133E-03
   23.0812492        -3.70244053E-03
   23.2000008        -3.63360485E-03
   23.3187504        -3.57252965E-03
   23.4375000        -3.52155673E-03
   23.5562496        -3.48270405E-03
   23.6749992        -3.45761213E-03
   23.7937508        -3.44750681E-03
   23.9125004        -3.45316832E-03
   24.0312500        -3.47490911E-03
   24.1499996        -3.51255341E-03
   24.2687492        -3.56541923E-03
   24.3875008        -3.63230356E-03
   24.5062504        -3.71147064E-03
   24.6250000        -3.80065548E-03
   24.7437496        -3.89707810E-03
   24.8624992        -3.99748562E-03
   24.9812508        -4.09822073E-03
   25.1000004        -4.19532554E-03
   25.2187500        -4.28467803E-03
   25.3374996        -4.36216267E-03
   25.4562492        -4.42386698E-03
   25.5750008        -4.46629804E-03
   25.6937504        -4.48659761E-03
   25.8125000        -4.48275218E-03
   25.9312496        -4.45376802E-03
   26.0499992        -4.39981045E-03
   26.1687508        -4.32227785E-03
   26.2875004        -4.22380865E-03
   26.4062500        -4.10821242E-03
   26.5249996        -3.98032647E-03
   26.6437492        -3.84579599E-03
   26.7625008        -3.71079869E-03
   26.8812504        -3.58172203E-03
   27.0000000        -3.46481544E-03
   27.1187496        -3.36584216E-03
   27.2374992        -3.28975124E-03
   27.3562508        -3.24039184E-03
   27.4750004        -3.22029158E-03
   27.5937500        -3.23051075E-03
   27.7124996        -3.27058323E-03
   27.8312492        -3.33854393E-03
   27.9500008        -3.43104498E-03
   28.0687504        -3.54354433E-03
   28.1875000        -3.67055670E-03
   28.3062496        -3.80594982E-03
   28.4249992        -3.94326355E-03
   28.5437508        -4.07603150E-03
   28.6625004        -4.19809390E-03
   28.7812500        -4.30387352E-03
   28.8999996        -4.38861316E-03
   29.0187492        -4.44856053E-03
   29.1375008        -4.48109582E-03
   29.2562504        -4.48480435E-03
   29.3750000        -4.45949612E-03
   29.4937496        -4.40617325E-03
   29.6124992        -4.32695914E-03
   29.7312508        -4.22499096E-03
   29.8500004        -4.10428783E-03
   29.9687500        -3.96958971E-03
   30.0874996        -3.82618885E-03
   30.2062492        -3.67974187E-03
   30.3250008        -3.53607396E-03
   30.4437504        -3.40097630E-03
   30.5625000        -3.27999704E-03
   30.6812496        -3.17823351E-03
   30.7999992        -3.10012815E-03
   30.9187508        -3.04927398E-03
   31.0375004        -3.02824238E-03
   31.1562500        -3.03843617E-03
   31.2749996        -3.07998643E-03
   31.3937492        -3.15169315E-03
   31.5125008        -3.25102662E-03
   31.6312504        -3.37419054E-03
   31.7500000        -3.51624959E-03
   31.8687496        -3.67132388E-03
   31.9874992        -3.83284036E-03
   32.1062508        -3.99383111E-03
   32.2249985        -4.14726418E-03
   32.3437500        -4.28639445E-03
   32.4625015        -4.40510176E-03
   32.5812492        -4.49820841E-03
   32.7000008        -4.56174882E-03
   32.8187485        -4.59317258E-03
   32.9375000        -4.59147478E-03
   33.0562515        -4.55723284E-03
   33.1749992        -4.49255994E-03
   33.2937508        -4.40096855E-03
   33.4124985        -4.28715860E-03
   33.5312500        -4.15674271E-03
   33.6500015        -4.01592860E-03
   33.7687492        -3.87117779E-03
   33.8875008        -3.72886611E-03
   34.0062485        -3.59496148E-03
   34.1250000        -3.47474450E-03
   34.2437515        -3.37258144E-03
   34.3624992        -3.29176337E-03
   34.4812508        -3.23441485E-03
   34.5999985        -3.20147234E-03
   34.7187500        -3.19272908E-03
   34.8375015        -3.20693455E-03
   34.9562492        -3.24193784E-03
   35.0750008        -3.29486257E-03
   35.1937485        -3.36229592E-03
   35.3125000        -3.44048371E-03
   35.4312515        -3.52551322E-03
   35.5499992        -3.61348223E-03
   35.6687508        -3.70064448E-03
   35.7874985        -3.78352939E-03
   35.9062500        -3.85903986E-03
   36.0250015        -3.92452301E-03
   36.1437492        -3.97782447E-03
   36.2625008        -4.01732558E-03
   36.3812485        -4.04196791E-03
   36.5000000        -4.05126344E-03
   36.6187515        -4.04529879E-03
   36.7374992        -4.02472541E-03
   36.8562508        -3.99073493E-03
   36.9749985        -3.94502003E-03
   37.0937500        -3.88971670E-03
   37.2125015        -3.82732484E-03
   37.3312492        -3.76060908E-03
   37.4500008        -3.69247794E-03
   37.5687485        -3.62585089E-03
   37.6875000        -3.56351212E-03
   37.8062515        -3.50796687E-03
   37.9249992        -3.46130435E-03
   38.0437508        -3.42508149E-03
   38.1624985        -3.40023567E-03
   38.2812500        -3.38703510E-03
   38.4000015        -3.38507351E-03
   38.5187492        -3.39331175E-03
   38.6375008        -3.41016357E-03
   38.7562485        -3.43362195E-03
   38.8750000        -3.46141588E-03
   38.9937515        -3.49118398E-03
   39.1124992        -3.52065382E-03
   39.2312508        -3.54780955E-03
   39.3499985        -3.57103348E-03
   39.4687500        -3.58921196E-03
   39.5875015        -3.60179320E-03
   39.7062492        -3.60879558E-03
   39.8250008        -3.61076556E-03
   39.9437485        -3.60868732E-03
   40.0625000        -3.60385654E-03
   40.1812515        -3.59773007E-03
   40.2999992        -3.59176262E-03
   40.4187508        -3.58725013E-03
   40.5374985        -3.58519447E-03
   40.6562500        -3.58619774E-03
   40.7750015        -3.59040103E-03
   40.8937492        -3.59747163E-03
   41.0125008        -3.60663491E-03
   41.1312485        -3.61675629E-03
   41.2500000        -3.62645276E-03
   41.3687515        -3.63423559E-03
   41.4874992        -3.63865891E-03
   41.6062508        -3.63846822E-03
   41.7249985        -3.63273057E-03
   41.8437500        -3.62093630E-03
   41.9625015        -3.60306562E-03
   42.0812492        -3.57960863E-03
   42.2000008        -3.55154788E-03
   42.3187485        -3.52029665E-03
   42.4375000        -3.48760583E-03
   42.5562515        -3.45544517E-03
   42.6749992        -3.42587219E-03
   42.7937508        -3.40089807E-03
   42.9124985        -3.38236010E-03
   43.0312500        -3.37181357E-03
   43.1500015        -3.37044569E-03
   43.2687492        -3.37901665E-03
   43.3875008        -3.39782960E-03
   43.5062485        -3.42672737E-03
   43.6250000        -3.46511044E-03
   43.7437515        -3.51197273E-03
   43.8624992        -3.56594916E-03
   43.9812508        -3.62536800E-03
   44.0999985        -3.68830585E-03
   44.2187500        -3.75264441E-03
   44.3375015        -3.81612079E-03
   44.4562492        -3.87638411E-03
   44.5750008        -3.93104926E-03
   44.6937485        -3.97776254E-03
   44.8125000        -4.01426852E-03
   44.9312515        -4.03849501E-03
   45.0499992        -4.04864643E-03
   45.1687508        -4.04330390E-03
   45.2874985        -4.02153470E-03
   45.4062500        -3.98299750E-03
   45.5250015        -3.92803643E-03
   45.6437492        -3.85775208E-03
   45.7625008        -3.77404597E-03
   45.8812485        -3.67961847E-03
