  -1.50000000         8.31492622E-18
  -1.38125002         3.69946629E-09
  -1.26250005         1.27098962E-08
  -1.14374995         2.75837273E-08
  -1.02499998         4.72696655E-08
 -0.906250000         6.59751578E-08
 -0.787500024         6.31923243E-08
 -0.668749988        -1.86337257E-08
 -0.550000012        -3.12838154E-07
 -0.431250006        -1.08056008E-06
 -0.312500000        -2.75797720E-06
 -0.193749994        -5.95954543E-06
  -7.50000030E-02    -1.13791448E-05
   4.37499993E-02    -1.95294433E-05
  0.162499994        -3.02914323E-05
  0.281250000        -4.23168021E-05
  0.400000006        -5.24208845E-05
  0.518750012        -5.51851372E-05
  0.637499988        -4.30083965E-05
  0.756250024        -6.77039816E-06
  0.875000000         6.28966445E-05
  0.993749976         1.73944092E-04
   1.11249995         3.31240008E-04
   1.23125005         5.35349711E-04
   1.35000002         7.82121555E-04
   1.46875000         1.06321333E-03
   1.58749998         1.36741903E-03
   1.70624995         1.68242701E-03
   1.82500005         1.99654070E-03
   1.94375002         2.29996047E-03
   2.06250000         2.58541573E-03
   2.18125010         2.84818071E-03
   2.29999995         3.08569707E-03
   2.41875005         3.29710217E-03
   2.53749990         3.48289823E-03
   2.65625000         3.64483800E-03
   2.77500010         3.78593197E-03
   2.89374995         3.91037948E-03
   3.01250005         4.02323343E-03
   3.13124990         4.12972970E-03
   3.25000000         4.23439220E-03
   3.36875010         4.34015458E-03
   3.48749995         4.44781454E-03
   3.60625005         4.55602538E-03
   3.72499990         4.66188975E-03
   3.84375000         4.76198364E-03
   3.96250010         4.85350238E-03
   4.08125019         4.93516773E-03
   4.19999981         5.00763766E-03
   4.31874990         5.07331826E-03
   4.43750000         5.13570663E-03
   4.55625010         5.19850012E-03
   4.67500019         5.26479073E-03
   4.79374981         5.33653563E-03
   4.91249990         5.41441236E-03
   5.03125000         5.49796131E-03
   5.15000010         5.58587397E-03
   5.26875019         5.67625416E-03
   5.38749981         5.76676754E-03
   5.50624990         5.85469836E-03
   5.62500000         5.93701797E-03
   5.74375010         6.01059198E-03
   5.86250019         6.07259106E-03
   5.98124981         6.12106314E-03
   6.09999990         6.15552114E-03
   6.21875000         6.17734808E-03
   6.33750010         6.18983060E-03
   6.45625019         6.19776035E-03
   6.57499981         6.20664703E-03
   6.69374990         6.22174051E-03
   6.81250000         6.24708971E-03
   6.93125010         6.28486276E-03
   7.05000019         6.33505685E-03
   7.16874981         6.39560958E-03
   7.28749990         6.46282034E-03
   7.40625000         6.53194822E-03
   7.52500010         6.59785094E-03
   7.64375019         6.65559061E-03
   7.76249981         6.70097629E-03
   7.88124990         6.73105009E-03
   8.00000000         6.74452120E-03
   8.11874962         6.74209092E-03
   8.23750019         6.72660442E-03
   8.35624981         6.70292368E-03
   8.47500038         6.67746598E-03
   8.59375000         6.65741786E-03
   8.71249962         6.64972793E-03
   8.83125019         6.66006422E-03
   8.94999981         6.69192383E-03
   9.06875038         6.74607605E-03
   9.18750000         6.82040909E-03
   9.30624962         6.91017974E-03
   9.42500019         7.00857537E-03
   9.54374981         7.10746506E-03
   9.66250038         7.19822943E-03
   9.78125000         7.27259228E-03
   9.89999962         7.32341921E-03
   10.0187502         7.34544732E-03
   10.1374998         7.33590825E-03
   10.2562504         7.29495613E-03
   10.3750000         7.22580263E-03
   10.4937496         7.13447342E-03
   10.6125002         7.02914782E-03
   10.7312498         6.91915955E-03
   10.8500004         6.81380741E-03
   10.9687500         6.72119902E-03
   11.0874996         6.64734980E-03
   11.2062502         6.59567025E-03
   11.3249998         6.56688865E-03
   11.4437504         6.55933516E-03
   11.5625000         6.56944327E-03
   11.6812496         6.59232400E-03
   11.8000002         6.62230561E-03
   11.9187498         6.65342854E-03
   12.0375004         6.67991443E-03
   12.1562500         6.69667171E-03
   12.2749996         6.69983588E-03
   12.3937502         6.68728352E-03
   12.5124998         6.65898807E-03
   12.6312504         6.61707483E-03
   12.7500000         6.56548049E-03
   12.8687496         6.50923373E-03
   12.9875002         6.45350805E-03
   13.1062498         6.40268018E-03
   13.2250004         6.35963632E-03
   13.3437500         6.32550893E-03
   13.4624996         6.29985798E-03
   13.5812502         6.28118869E-03
   13.6999998         6.26757788E-03
   13.8187504         6.25717919E-03
   13.9375000         6.24846248E-03
   14.0562496         6.24016300E-03
   14.1750002         6.23106770E-03
   14.2937498         6.21980987E-03
   14.4125004         6.20483467E-03
   14.5312500         6.18459377E-03
   14.6499996         6.15787692E-03
   14.7687502         6.12413045E-03
   14.8874998         6.08355179E-03
   15.0062504         6.03686925E-03
   15.1250000         5.98484138E-03
   15.2437496         5.92765165E-03
   15.3625002         5.86447492E-03
   15.4812498         5.79342525E-03
   15.6000004         5.71198901E-03
   15.7187500         5.61785046E-03
   15.8374996         5.50984917E-03
   15.9562502         5.38874837E-03
   16.0750008         5.25753573E-03
   16.1937504         5.12114447E-03
   16.3125000         4.98568872E-03
   16.4312496         4.85745957E-03
   16.5499992         4.74199839E-03
   16.6687508         4.64349799E-03
   16.7875004         4.56462288E-03
   16.9062500         4.50666063E-03
   17.0249996         4.46979515E-03
   17.1437492         4.45327535E-03
   17.2625008         4.45535500E-03
   17.3812504         4.47304221E-03
   17.5000000         4.50183824E-03
   17.6187496         4.53573372E-03
   17.7374992         4.56763711E-03
   17.8562508         4.59028967E-03
   17.9750004         4.59747575E-03
   18.0937500         4.58521396E-03
   18.2124996         4.55256319E-03
   18.3312492         4.50176699E-03
   18.4500008         4.43768408E-03
   18.5687504         4.36667027E-03
   18.6875000         4.29524761E-03
   18.8062496         4.22894675E-03
   18.9249992         4.17159777E-03
   19.0437508         4.12515691E-03
   19.1625004         4.08996362E-03
   19.2812500         4.06517228E-03
   19.3999996         4.04911069E-03
   19.5187492         4.03940957E-03
   19.6375008         4.03293408E-03
   19.7562504         4.02568420E-03
   19.8750000         4.01289528E-03
   19.9937496         3.98950372E-03
   20.1124992         3.95098142E-03
   20.2312508         3.89436446E-03
   20.3500004         3.81915062E-03
   20.4687500         3.72776226E-03
   20.5874996         3.62535566E-03
   20.7062492         3.51899234E-03
   20.8250008         3.41638457E-03
   20.9437504         3.32457037E-03
   21.0625000         3.24887433E-03
   21.1812496         3.19239125E-03
   21.2999992         3.15602822E-03
   21.4187508         3.13894800E-03
   21.5375004         3.13915359E-03
   21.6562500         3.15395882E-03
   21.7749996         3.18020862E-03
   21.8937492         3.21427407E-03
   22.0125008         3.25198378E-03
   22.1312504         3.28869116E-03
   22.2500000         3.31961364E-03
   22.3687496         3.34044197E-03
   22.4874992         3.34805972E-03
   22.6062508         3.34113580E-03
   22.7250004         3.32035380E-03
   22.8437500         3.28816660E-03
   22.9624996         3.24813137E-03
   23.0812492         3.20403487E-03
   23.2000008         3.15909088E-03
   23.3187504         3.11545352E-03
   23.4375000         3.07416706E-03
   23.5562496         3.03548714E-03
   23.6749992         2.99939956E-03
   23.7937508         2.96608242E-03
   23.9125004         2.93613318E-03
   24.0312500         2.91049457E-03
   24.1499996         2.89014610E-03
   24.2687492         2.87574180E-03
   24.3875008         2.86735781E-03
   24.5062504         2.86447117E-03
   24.6250000         2.86614988E-03
   24.7437496         2.87134689E-03
   24.8624992         2.87913904E-03
   24.9812508         2.88878800E-03
   25.1000004         2.89959763E-03
   25.2187500         2.91065057E-03
   25.3374996         2.92058289E-03
   25.4562492         2.92755477E-03
   25.5750008         2.92949774E-03
   25.6937504         2.92460946E-03
   25.8125000         2.91194371E-03
   25.9312496         2.89190398E-03
   26.0499992         2.86646024E-03
   26.1687508         2.83901137E-03
   26.2875004         2.81392969E-03
   26.4062500         2.79592373E-03
   26.5249996         2.78939563E-03
   26.6437492         2.79793469E-03
   26.7625008         2.82401289E-03
   26.8812504         2.86885072E-03
   27.0000000         2.93237856E-03
   27.1187496         3.01321177E-03
   27.2374992         3.10861249E-03
   27.3562508         3.21448641E-03
   27.4750004         3.32551077E-03
   27.5937500         3.43548390E-03
   27.7124996         3.53793055E-03
   27.8312492         3.62690189E-03
   27.9500008         3.69781279E-03
   28.0687504         3.74812516E-03
   28.1875000         3.77770374E-03
   28.3062496         3.78876622E-03
   28.4249992         3.78546305E-03
   28.5437508         3.77321942E-03
   28.6625004         3.75801371E-03
   28.7812500         3.74575122E-03
   28.8999996         3.74180125E-03
   29.0187492         3.75069352E-03
   29.1375008         3.77589930E-03
   29.2562504         3.81962722E-03
   29.3750000         3.88259999E-03
   29.4937496         3.96386487E-03
   29.6124992         4.06073174E-03
   29.7312508         4.16895002E-03
   29.8500004         4.28317580E-03
   29.9687500         4.39767912E-03
   30.0874996         4.50716121E-03
   30.2062492         4.60747350E-03
   30.3250008         4.69606649E-03
   30.4437504         4.77207080E-03
   30.5625000         4.83602658E-03
   30.6812496         4.88940347E-03
   30.7999992         4.93408693E-03
   30.9187508         4.97199688E-03
   31.0375004         5.00491774E-03
   31.1562500         5.03450446E-03
   31.2749996         5.06236637E-03
   31.3937492         5.09008486E-03
   31.5125008         5.11909183E-03
   31.6312504         5.15041267E-03
   31.7500000         5.18437661E-03
   31.8687496         5.22043230E-03
   31.9874992         5.25719440E-03
   32.1062508         5.29274810E-03
   32.2249985         5.32513531E-03
   32.3437500         5.35286171E-03
   32.4625015         5.37524093E-03
   32.5812492         5.39246108E-03
   32.7000008         5.40535850E-03
   32.8187485         5.41501027E-03
   32.9375000         5.42232720E-03
   33.0562515         5.42782201E-03
   33.1749992         5.43165114E-03
   33.2937508         5.43389656E-03
   33.4124985         5.43495687E-03
   33.5312500         5.43585652E-03
   33.6500015         5.43832406E-03
   33.7687492         5.44458441E-03
   33.8875008         5.45693701E-03
   34.0062485         5.47727756E-03
   34.1250000         5.50675252E-03
   34.2437515         5.54564502E-03
   34.3624992         5.59351500E-03
   34.4812508         5.64947864E-03
   34.5999985         5.71245933E-03
   34.7187500         5.78127149E-03
   34.8375015         5.85448602E-03
   34.9562492         5.93014015E-03
   35.0750008         6.00547064E-03
   35.1937485         6.07683882E-03
   35.3125000         6.13997923E-03
   35.4312515         6.19056262E-03
   35.5499992         6.22492936E-03
   35.6687508         6.24077348E-03
   35.7874985         6.23755343E-03
   35.9062500         6.21651253E-03
   36.0250015         6.18031854E-03
   36.1437492         6.13247976E-03
   36.2625008         6.07674755E-03
   36.3812485         6.01669168E-03
   36.5000000         5.95552707E-03
   36.6187515         5.89615526E-03
   36.7374992         5.84125193E-03
   36.8562508         5.79325203E-03
   36.9749985         5.75411879E-03
   37.0937500         5.72493626E-03
   37.2125015         5.70546556E-03
   37.3312492         5.69387944E-03
   37.4500008         5.68685168E-03
   37.5687485         5.68006001E-03
   37.6875000         5.66900289E-03
   37.8062515         5.64990146E-03
   37.9249992         5.62042277E-03
   38.0437508         5.58000943E-03
   38.1624985         5.52976085E-03
   38.2812500         5.47196437E-03
   38.4000015         5.40948752E-03
   38.5187492         5.34528261E-03
   38.6375008         5.28214779E-03
   38.7562485         5.22276945E-03
   38.8750000         5.16990758E-03
   38.9937515         5.12652425E-03
   39.1124992         5.09567698E-03
   39.2312508         5.08010900E-03
   39.3499985         5.08163683E-03
   39.4687500         5.10053989E-03
   39.5875015         5.13520790E-03
   39.7062492         5.18221082E-03
   39.8250008         5.23681939E-03
   39.9437485         5.29381912E-03
   40.0625000         5.34836156E-03
   40.1812515         5.39658545E-03
   40.2999992         5.43583557E-03
   40.4187508         5.46448957E-03
   40.5374985         5.48154255E-03
   40.6562500         5.48620615E-03
   40.7750015         5.47773857E-03
   40.8937492         5.45560522E-03
   41.0125008         5.41989692E-03
   41.1312485         5.37180342E-03
   41.2500000         5.31389192E-03
   41.3687515         5.25000319E-03
   41.4874992         5.18473005E-03
   41.6062508         5.12263039E-03
   41.7249985         5.06741926E-03
   41.8437500         5.02140494E-03
   41.9625015         4.98535018E-03
   42.0812492         4.95875208E-03
   42.2000008         4.94038360E-03
   42.3187485         4.92884871E-03
   42.4375000         4.92291665E-03
   42.5562515         4.92153084E-03
   42.6749992         4.92353877E-03
   42.7937508         4.92733158E-03
   42.9124985         4.93063219E-03
   43.0312500         4.93060378E-03
   43.1500015         4.92431084E-03
   43.2687492         4.90940129E-03
   43.3875008         4.88476176E-03
   43.5062485         4.85089840E-03
   43.6250000         4.80988342E-03
   43.7437515         4.76488099E-03
   43.8624992         4.71941056E-03
   43.9812508         4.67661675E-03
   44.0999985         4.63877711E-03
   44.2187500         4.60717967E-03
   44.3375015         4.58233571E-03
   44.4562492         4.56436444E-03
   44.5750008         4.55331989E-03
   44.6937485         4.54929192E-03
   44.8125000         4.55222791E-03
   44.9312515         4.56157932E-03
   45.0499992         4.57595987E-03
   45.1687508         4.59302496E-03
   45.2874985         4.60968958E-03
   45.4062500         4.62265778E-03
   45.5250015         4.62909602E-03
   45.6437492         4.62722965E-03
   45.7625008         4.61664470E-03
   45.8812485         4.59821243E-03
