  -24.4200001         0.00000000    
  -24.2900009         0.00000000    
  -24.1599998         3.25263828E-16
  -24.0300007         1.28775414E-15
  -23.8999996         2.61781843E-15
  -23.7700005         2.90119902E-15
  -23.6399994        -7.21750263E-16
  -23.5100002        -1.24124835E-14
  -23.3799992        -3.70144589E-14
  -23.2500000        -7.91037768E-14
  -23.1200008        -1.42003190E-13
  -22.9899998        -2.27112654E-13
  -22.8600006        -3.33853577E-13
  -22.7299995        -4.60358964E-13
  -22.6000004        -6.04808304E-13
  -22.4699993        -7.67074067E-13
  -22.3400002        -9.50190881E-13
  -22.2099991        -1.16113586E-12
  -22.0799999        -1.41054442E-12
  -21.9500008        -1.71125484E-12
  -21.8199997        -2.07591127E-12
  -21.6900005        -2.51416856E-12
  -21.5599995        -3.03023058E-12
  -21.4300003        -3.62146034E-12
  -21.2999992        -4.27858964E-12
  -21.1700001        -4.98767997E-12
  -21.0400009        -5.73353214E-12
  -20.9099998        -6.50381181E-12
  -20.7800007        -7.29291801E-12
  -20.6499996        -8.10458731E-12
  -20.5200005        -8.95249933E-12
  -20.3899994        -9.85860438E-12
  -20.2600002        -1.08494767E-11
  -20.1299992        -1.19515405E-11
  -20.0000000        -1.31863279E-11
  -19.8700008        -1.45670281E-11
  -19.7399998        -1.60972485E-11
  -19.6100006        -1.77724242E-11
  -19.4799995        -1.95835813E-11
  -19.3500004        -2.15225563E-11
  -19.2199993        -2.35872849E-11
  -19.0900002        -2.57857503E-11
  -18.9599991        -2.81373917E-11
  -18.8299999        -3.06714411E-11
  -18.7000008        -3.34224315E-11
  -18.5699997        -3.64238674E-11
  -18.4400005        -3.97016378E-11
  -18.3099995        -4.32688642E-11
  -18.1800003        -4.71236695E-11
  -18.0499992        -5.12506010E-11
  -17.9200001        -5.56256222E-11
  -17.7900009        -6.02236178E-11
  -17.6599998        -6.50266924E-11
  -17.5300007        -7.00312863E-11
  -17.3999996        -7.52522211E-11
  -17.2700005        -8.07227687E-11
  -17.1399994        -8.64903565E-11
  -17.0100002        -9.26091218E-11
  -16.8799992        -9.91308771E-11
  -16.7500000        -1.06096749E-10
  -16.6200008        -1.13531601E-10
  -16.4899998        -1.21442606E-10
  -16.3600006        -1.29822333E-10
  -16.2299995        -1.38655656E-10
  -16.1000004        -1.47928600E-10
  -15.9700003        -1.57636987E-10
  -15.8400002        -1.67792460E-10
  -15.7100000        -1.78424261E-10
  -15.5799999        -1.89576327E-10
  -15.4499998        -2.01300074E-10
  -15.3199997        -2.13644963E-10
  -15.1899996        -2.26649199E-10
  -15.0600004        -2.40333115E-10
  -14.9300003        -2.54697125E-10
  -14.8000002        -2.69725298E-10
  -14.6700001        -2.85393625E-10
  -14.5400000        -3.01681430E-10
  -14.4099998        -3.18582855E-10
  -14.2799997        -3.36115830E-10
  -14.1499996        -3.54325791E-10
  -14.0200005        -3.73283127E-10
  -13.8900003        -3.93074850E-10
  -13.7600002        -4.13792278E-10
  -13.6300001        -4.35517400E-10
  -13.5000000        -4.58312138E-10
  -13.3699999        -4.82212437E-10
  -13.2399998        -5.07229092E-10
  -13.1099997        -5.33355637E-10
  -12.9799995        -5.60580526E-10
  -12.8500004        -5.88900928E-10
  -12.7200003        -6.18334495E-10
  -12.5900002        -6.48925358E-10
  -12.4600000        -6.80743129E-10
  -12.3299999        -7.13874182E-10
  -12.1999998        -7.48408169E-10
  -12.0699997        -7.84422471E-10
  -11.9399996        -8.21969437E-10
  -11.8100004        -8.61069660E-10
  -11.6800003        -9.01713815E-10
  -11.5500002        -9.43872758E-10
  -11.4200001        -9.87513959E-10
  -11.2900000        -1.03262054E-09
  -11.1599998        -1.07920717E-09
  -11.0299997        -1.12732912E-09
  -10.8999996        -1.17708276E-09
  -10.7700005        -1.22859389E-09
  -10.6400003        -1.28199951E-09
  -10.5100002        -1.33742450E-09
  -10.3800001        -1.39495893E-09
  -10.2500000        -1.45464241E-09
  -10.1199999        -1.51645652E-09
  -9.98999977        -1.58033009E-09
  -9.85999966        -1.64615344E-09
  -9.72999954        -1.71380166E-09
  -9.60000038        -1.78315929E-09
  -9.47000027        -1.85414550E-09
  -9.34000015        -1.92673144E-09
  -9.21000004        -2.00095207E-09
  -9.07999992        -2.07690798E-09
  -8.94999981        -2.15476237E-09
  -8.81999969        -2.23473062E-09
  -8.68999958        -2.31707342E-09
  -8.56000042        -2.40208631E-09
  -8.43000031        -2.49009369E-09
  -8.30000019        -2.58144262E-09
  -8.17000008        -2.67649458E-09
  -8.03999996        -2.77561130E-09
  -7.90999985        -2.87913360E-09
  -7.78000021        -2.98734815E-09
  -7.65000010        -3.10044390E-09
  -7.51999998        -3.21846305E-09
  -7.38999987        -3.34125061E-09
  -7.26000023        -3.46841000E-09
  -7.13000011        -3.59927377E-09
  -7.00000000        -3.73289710E-09
  -6.86999989        -3.86807386E-09
  -6.73999977        -4.00337896E-09
  -6.61000013        -4.13723145E-09
  -6.48000002        -4.26796909E-09
  -6.34999990        -4.39392878E-09
  -6.21999979        -4.51351578E-09
  -6.09000015        -4.62526328E-09
  -5.96000004        -4.72787010E-09
  -5.82999992        -4.82022200E-09
  -5.69999981        -4.90139573E-09
  -5.57000017        -4.97065722E-09
  -5.44000006        -5.02745889E-09
  -5.30999994        -5.07143838E-09
  -5.17999983        -5.10243181E-09
  -5.05000019        -5.12048981E-09
  -4.92000008        -5.12589660E-09
  -4.78999996        -5.11918818E-09
  -4.65999985        -5.10115417E-09
  -4.53000021        -5.07282172E-09
  -4.40000010        -5.03541209E-09
  -4.26999998        -4.99027619E-09
  -4.13999987        -4.93880714E-09
  -4.01000023        -4.88233765E-09
  -3.88000011        -4.82203522E-09
  -3.75000000        -4.75880757E-09
  -3.61999989        -4.69321515E-09
  -3.49000001        -4.62541561E-09
  -3.35999990        -4.55512117E-09
  -3.23000002        -4.48158666E-09
  -3.09999990        -4.40361037E-09
  -2.97000003        -4.31955760E-09
  -2.83999991        -4.22738644E-09
  -2.71000004        -4.12468903E-09
  -2.57999992        -4.00873867E-09
  -2.45000005        -3.87655197E-09
  -2.31999993        -3.72495945E-09
  -2.19000006        -3.55069840E-09
  -2.05999994        -3.35051409E-09
  -1.92999995        -3.12128012E-09
  -1.79999995        -2.86011903E-09
  -1.66999996        -2.56452037E-09
  -1.53999996        -2.23243579E-09
  -1.40999997        -1.86234572E-09
  -1.27999997        -1.45328805E-09
  -1.14999998        -1.00483200E-09
  -1.01999998        -5.17012322E-10
 -0.889999986         9.77736121E-12
 -0.759999990         5.74922776E-10
 -0.629999995         1.17774024E-09
 -0.500000000         1.81762561E-09
 -0.370000005         2.49419063E-09
 -0.239999995         3.20737326E-09
 -0.109999999         3.95751920E-09
   1.99999996E-02     4.74543382E-09
  0.150000006         5.57240387E-09
  0.280000001         6.44020526E-09
  0.409999996         7.35108774E-09
  0.540000021         8.30774827E-09
  0.670000017         9.31330213E-09
  0.800000012         1.03712283E-08
  0.930000007         1.14853158E-08
   1.05999994         1.26595951E-08
   1.19000006         1.38982461E-08
   1.32000005         1.52055044E-08
   1.45000005         1.65855560E-08
   1.58000004         1.80424511E-08
   1.71000004         1.95800069E-08
   1.84000003         2.12017550E-08
   1.97000003         2.29109087E-08
   2.09999990         2.47103511E-08
   2.23000002         2.66026632E-08
   2.35999990         2.85901596E-08
   2.49000001         3.06749328E-08
   2.61999989         3.28589067E-08
   2.75000000         3.51438736E-08
   2.88000011         3.75315068E-08
   3.00999999         4.00233944E-08
   3.14000010         4.26210320E-08
   3.26999998         4.53258444E-08
   3.40000010         4.81391993E-08
   3.52999997         5.10624538E-08
   3.66000009         5.40970078E-08
   3.78999996         5.72443817E-08
   3.92000008         6.05063164E-08
   4.05000019         6.38848334E-08
   4.17999983         6.73823166E-08
   4.30999994         7.10015513E-08
   4.44000006         7.47457207E-08
   4.57000017         7.86183776E-08
   4.69999981         8.26233659E-08
   4.82999992         8.67647216E-08
   4.96000004         9.10466014E-08
   5.09000015         9.54731192E-08
   5.21999979         1.00048318E-07
   5.34999990         1.04776085E-07
   5.48000002         1.09660085E-07
   5.61000013         1.14703816E-07
   5.73999977         1.19910553E-07
   5.86999989         1.25283350E-07
   6.00000000         1.30825129E-07
   6.13000011         1.36538574E-07
   6.26000023         1.42426174E-07
   6.38999987         1.48490201E-07
   6.51999998         1.54732646E-07
   6.65000010         1.61155285E-07
   6.78000021         1.67759623E-07
   6.90999985         1.74546969E-07
   7.03999996         1.81518402E-07
   7.17000008         1.88674932E-07
   7.30000019         1.96017453E-07
   7.42999983         2.03546833E-07
   7.55999994         2.11263895E-07
   7.69000006         2.19169436E-07
   7.82000017         2.27264152E-07
   7.94999981         2.35548569E-07
   8.07999992         2.44023028E-07
   8.21000004         2.52687499E-07
   8.34000015         2.61541771E-07
   8.47000027         2.70585105E-07
   8.60000038         2.79816561E-07
   8.72999954         2.89234833E-07
   8.85999966         2.98838359E-07
   8.98999977         3.08625346E-07
   9.11999989         3.18593862E-07
   9.25000000         3.28741891E-07
   9.38000011         3.39067157E-07
   9.51000023         3.49567387E-07
   9.64000034         3.60239966E-07
   9.77000046         3.71082166E-07
   9.89999962         3.82091002E-07
   10.0299997         3.93263207E-07
   10.1599998         4.04595283E-07
   10.2900000         4.16083452E-07
   10.4200001         4.27723819E-07
   10.5500002         4.39512178E-07
   10.6800003         4.51444151E-07
   10.8100004         4.63515192E-07
   10.9399996         4.75720412E-07
   11.0699997         4.88054582E-07
   11.1999998         5.00511987E-07
   11.3299999         5.13086377E-07
   11.4600000         5.25770929E-07
   11.5900002         5.38558197E-07
   11.7200003         5.51439996E-07
   11.8500004         5.64407685E-07
   11.9799995         5.77451999E-07
   12.1099997         5.90563445E-07
   12.2399998         6.03732133E-07
   12.3699999         6.16948000E-07
   12.5000000         6.30200816E-07
   12.6300001         6.43480234E-07
   12.7600002         6.56775796E-07
   12.8900003         6.70076815E-07
   13.0200005         6.83372605E-07
   13.1499996         6.96652023E-07
   13.2799997         7.09903929E-07
   13.4099998         7.23116898E-07
   13.5400000         7.36279446E-07
   13.6700001         7.49380035E-07
   13.8000002         7.62407069E-07
   13.9300003         7.75349008E-07
   14.0600004         7.88194257E-07
   14.1899996         8.00931332E-07
   14.3199997         8.13548411E-07
   14.4499998         8.26033670E-07
   14.5799999         8.38374717E-07
   14.7100000         8.50558877E-07
   14.8400002         8.62572733E-07
   14.9700003         8.74402360E-07
   15.1000004         8.86033263E-07
   15.2299995         8.97450377E-07
   15.3599997         9.08638071E-07
   15.4899998         9.19580543E-07
   15.6199999         9.30261479E-07
   15.7500000         9.40664734E-07
   15.8800001         9.50773824E-07
   16.0100002         9.60572379E-07
   16.1399994         9.70044198E-07
   16.2700005         9.79172910E-07
   16.3999996         9.87942485E-07
   16.5300007         9.96337008E-07
   16.6599998         1.00434067E-06
   16.7900009         1.01193791E-06
   16.9200001         1.01911348E-06
   17.0499992         1.02585250E-06
   17.1800003         1.03214018E-06
   17.3099995         1.03796231E-06
   17.4400005         1.04330468E-06
   17.5699997         1.04815308E-06
   17.7000008         1.05249353E-06
   17.8299999         1.05631216E-06
   17.9599991         1.05959475E-06
   18.0900002         1.06232721E-06
   18.2199993         1.06449511E-06
   18.3500004         1.06608445E-06
   18.4799995         1.06708080E-06
   18.6100006         1.06747018E-06
   18.7399998         1.06723871E-06
   18.8700008         1.06637276E-06
   19.0000000         1.06485868E-06
   19.1299992         1.06268340E-06
   19.2600002         1.05983418E-06
   19.3899994         1.05629817E-06
   19.5200005         1.05206345E-06
   19.6499996         1.04711796E-06
   19.7800007         1.04145056E-06
   19.9099998         1.03505067E-06
   20.0400009         1.02790830E-06
   20.1700001         1.02001457E-06
   20.2999992         1.01136118E-06
   20.4300003         1.00194120E-06
   20.5599995         9.91748152E-07
   20.6900005         9.80776463E-07
   20.8199997         9.69020903E-07
   20.9500008         9.56477152E-07
   21.0799999         9.43140606E-07
   21.2099991         9.29007172E-07
   21.3400002         9.14072643E-07
   21.4699993         8.98333099E-07
   21.6000004         8.81784786E-07
   21.7299995         8.64424180E-07
   21.8600006         8.46248327E-07
   21.9899998         8.27254723E-07
   22.1200008         8.07441609E-07
   22.2500000         7.86807732E-07
   22.3799992         7.65352638E-07
   22.5100002         7.43076555E-07
   22.6399994         7.19980335E-07
   22.7700005         6.96065399E-07
   22.8999996         6.71333794E-07
   23.0300007         6.45788077E-07
   23.1599998         6.19431546E-07
   23.2900009         5.92268179E-07
   23.4200001         5.64302582E-07
   23.5499992         5.35540153E-07
   23.6800003         5.05986975E-07
   23.8099995         4.75650040E-07
   23.9400005         4.44536937E-07
   24.0699997         4.12655851E-07
   24.2000008         3.80015649E-07
   24.3299999         3.46625569E-07
   24.4599991         3.12495473E-07
   24.5900002         2.77635593E-07
   24.7199993         2.42056871E-07
   24.8500004         2.05770718E-07
   24.9799995         1.68789313E-07
   25.1100006         1.31125390E-07
   25.2399998         9.27924759E-08
   25.3700008         5.38045697E-08
   25.5000000         1.41762353E-08
   25.6299992        -2.60776201E-08
   25.7600002        -6.69417943E-08
   25.8899994        -1.08400954E-07
   26.0200005        -1.50439647E-07
   26.1499996        -1.93042411E-07
   26.2800007        -2.36193500E-07
   26.4099998        -2.79877014E-07
   26.5400009        -3.24076552E-07
   26.6700001        -3.68775261E-07
   26.7999992        -4.13955519E-07
   26.9300003        -4.59598880E-07
   27.0599995        -5.05686216E-07
   27.1900005        -5.52197491E-07
   27.3199997        -5.99111900E-07
   27.4500008        -6.46408068E-07
   27.5799999        -6.94063999E-07
   27.7099991        -7.42057296E-07
   27.8400002        -7.90365107E-07
   27.9699993        -8.38964297E-07
   28.1000004        -8.87831561E-07
   28.2299995        -9.36943252E-07
   28.3600006        -9.86275836E-07
   28.4899998        -1.03580555E-06
   28.6200008        -1.08550910E-06
   28.7500000        -1.13536294E-06
   28.8799992        -1.18534456E-06
   29.0100002        -1.23543145E-06
   29.1399994        -1.28560202E-06
   29.2700005        -1.33583490E-06
   29.3999996        -1.38610937E-06
   29.5300007        -1.43640511E-06
   29.6599998        -1.48670154E-06
   29.7900009        -1.53697817E-06
   29.9200001        -1.58721400E-06
   30.0499992        -1.63738753E-06
   30.1800003        -1.68747692E-06
   30.3099995        -1.73745923E-06
   30.4400005        -1.78731125E-06
   30.5699997        -1.83700922E-06
   30.7000008        -1.88652882E-06
   30.8299999        -1.93584606E-06
   30.9599991        -1.98493649E-06
   31.0900002        -2.03377590E-06
   31.2199993        -2.08233996E-06
   31.3500004        -2.13060412E-06
   31.4799995        -2.17854426E-06
   31.6100006        -2.22613585E-06
   31.7399998        -2.27335522E-06
   31.8700008        -2.32017828E-06
   32.0000000        -2.36658161E-06
   32.1300011        -2.41254179E-06
   32.2599983        -2.45803699E-06
   32.3899994        -2.50304515E-06
   32.5200005        -2.54754514E-06
   32.6500015        -2.59151693E-06
   32.7799988        -2.63494076E-06
   32.9099998        -2.67779819E-06
   33.0400009        -2.72007082E-06
   33.1699982        -2.76174046E-06
   33.2999992        -2.80278960E-06
   33.4300003        -2.84320117E-06
   33.5600014        -2.88295723E-06
   33.6899986        -2.92204118E-06
   33.8199997        -2.96043549E-06
   33.9500008        -2.99812268E-06
   34.0800018        -3.03508614E-06
   34.2099991        -3.07130813E-06
   34.3400002        -3.10677183E-06
   34.4700012        -3.14145905E-06
   34.5999985        -3.17535296E-06
   34.7299995        -3.20843537E-06
   34.8600006        -3.24068901E-06
   34.9900017        -3.27209659E-06
   35.1199989        -3.30264083E-06
   35.2500000        -3.33230560E-06
   35.3800011        -3.36107564E-06
   35.5099983        -3.38893574E-06
   35.6399994        -3.41587292E-06
   35.7700005        -3.44187401E-06
   35.9000015        -3.46692786E-06
   36.0299988        -3.49102334E-06
   36.1599998        -3.51414997E-06
   36.2900009        -3.53629798E-06
   36.4199982        -3.55745783E-06
   36.5499992        -3.57761974E-06
   36.6800003        -3.59677415E-06
   36.8100014        -3.61491175E-06
   36.9399986        -3.63202344E-06
   37.0699997        -3.64810012E-06
   37.2000008        -3.66313338E-06
   37.3300018        -3.67711482E-06
   37.4599991        -3.69003669E-06
   37.5900002        -3.70189173E-06
   37.7200012        -3.71267288E-06
   37.8499985        -3.72237378E-06
   37.9799995        -3.73098806E-06
   38.1100006        -3.73851003E-06
   38.2400017        -3.74493447E-06
   38.3699989        -3.75025616E-06
   38.5000000        -3.75447075E-06
   38.6300011        -3.75757486E-06
   38.7599983        -3.75956506E-06
   38.8899994        -3.76043931E-06
   39.0200005        -3.76019534E-06
   39.1500015        -3.75883224E-06
   39.2799988        -3.75634863E-06
   39.4099998        -3.75274362E-06
   39.5400009        -3.74801698E-06
   39.6699982        -3.74216688E-06
   39.7999992        -3.73519265E-06
   39.9300003        -3.72709337E-06
   40.0600014        -3.71786791E-06
   40.1899986        -3.70751559E-06
   40.3199997        -3.69603595E-06
   40.4500008        -3.68342921E-06
   40.5800018        -3.66969562E-06
   40.7099991        -3.65483629E-06
   40.8400002        -3.63885283E-06
   40.9700012        -3.62174706E-06
   41.0999985        -3.60352124E-06
   41.2299995        -3.58417810E-06
   41.3600006        -3.56371925E-06
   41.4900017        -3.54214785E-06
   41.6199989        -3.51946665E-06
   41.7500000        -3.49567813E-06
   41.8800011        -3.47078571E-06
   42.0099983        -3.44479281E-06
   42.1399994        -3.41770351E-06
   42.2700005        -3.38952213E-06
   42.4000015        -3.36025391E-06
   42.5299988        -3.32990453E-06
   42.6599998        -3.29848012E-06
   42.7900009        -3.26598729E-06
   42.9199982        -3.23243330E-06
   43.0499992        -3.19782635E-06
   43.1800003        -3.16217461E-06
   43.3100014        -3.12548673E-06
   43.4399986        -3.08777248E-06
   43.5699997        -3.04904142E-06
   43.7000008        -3.00930401E-06
   43.8300018        -2.96857047E-06
   43.9599991        -2.92685104E-06
   44.0900002        -2.88415549E-06
   44.2200012        -2.84049383E-06
   44.3499985        -2.79587539E-06
   44.4799995        -2.75030902E-06
   44.6100006        -2.70380315E-06
   44.7400017        -2.65636618E-06
   44.8699989        -2.60800653E-06
   45.0000000        -2.55873306E-06
   45.1300011        -2.50855464E-06
   45.2599983        -2.45748197E-06
   45.3899994        -2.40552549E-06
   45.5200005        -2.35269749E-06
   45.6500015        -2.29901002E-06
   45.7799988        -2.24447672E-06
   45.9099998        -2.18911123E-06
   46.0400009        -2.13292719E-06
   46.1699982        -2.07593894E-06
   46.2999992        -2.01816056E-06
   46.4300003        -1.95960615E-06
   46.5600014        -1.90028936E-06
   46.6899986        -1.84022429E-06
   46.8199997        -1.77942479E-06
   46.9500008        -1.71790475E-06
   47.0800018        -1.65567792E-06
   47.2099991        -1.59275862E-06
   47.3400002        -1.52916027E-06
   47.4700012        -1.46489651E-06
   47.5999985        -1.39998076E-06
   47.7299995        -1.33442575E-06
   47.8600006        -1.26824443E-06
   47.9900017        -1.20144966E-06
   48.1199989        -1.13405451E-06
   48.2500000        -1.06607206E-06
   48.3800011        -9.97516281E-07
   48.5099983        -9.28401278E-07
   48.6399994        -8.58742510E-07
   48.7700005        -7.88555610E-07
   48.9000015        -7.17857120E-07
   49.0299988        -6.46663977E-07
   49.1599998        -5.74993464E-07
   49.2900009        -5.02863315E-07
   49.4199982        -4.30291664E-07
   49.5499992        -3.57296415E-07
   49.6800003        -2.83895986E-07
   49.8100014        -2.10109064E-07
   49.9399986        -1.35954508E-07
   50.0699997        -6.14512601E-08
   50.2000008         1.33815004E-08
   50.3300018         8.85247502E-08
   50.4599991         1.63959413E-07
   50.5900002         2.39666889E-07
   50.7200012         3.15629194E-07
   50.8499985         3.91828991E-07
   50.9799995         4.68249368E-07
   51.1100006         5.44874183E-07
   51.2400017         6.21687718E-07
   51.3699989         6.98674341E-07
   51.5000000         7.75818648E-07
   51.6300011         8.53104723E-07
   51.7599983         9.30516023E-07
   51.8899994         1.00803607E-06
   52.0200005         1.08564711E-06
   52.1500015         1.16333160E-06
   52.2799988         1.24107146E-06
   52.4099998         1.31884815E-06
   52.5400009         1.39664337E-06
   52.6699982         1.47443836E-06
   52.7999992         1.55221448E-06
   52.9300003         1.62995252E-06
   53.0600014         1.70763360E-06
   53.1899986         1.78523783E-06
   53.3199997         1.86274610E-06
   53.4500008         1.94013865E-06
   53.5800018         2.01739590E-06
   53.7099991         2.09449900E-06
   53.8400002         2.17142951E-06
   53.9700012         2.24816972E-06
   54.0999985         2.32470325E-06
   54.2299995         2.40101394E-06
   54.3600006         2.47708681E-06
   54.4900017         2.55290752E-06
   54.6199989         2.62846197E-06
   54.7500000         2.70373607E-06
   54.8800011         2.77871527E-06
   55.0099983         2.85338569E-06
   55.1399994         2.92773234E-06
   55.2700005         3.00174088E-06
   55.4000015         3.07539653E-06
   55.5299988         3.14868521E-06
   55.6599998         3.22159372E-06
   55.7900009         3.29410796E-06
   55.9199982         3.36621542E-06
   56.0499992         3.43790339E-06
   56.1800003         3.50915957E-06
   56.3100014         3.57997169E-06
   56.4399986         3.65032747E-06
   56.5699997         3.72021441E-06
   56.7000008         3.78962000E-06
   56.8300018         3.85853173E-06
   56.9599991         3.92693664E-06
   57.0900002         3.99482224E-06
   57.2200012         4.06217623E-06
   57.3499985         4.12898680E-06
   57.4799995         4.19524122E-06
   57.6100006         4.26092902E-06
   57.7400017         4.32603838E-06
   57.8699989         4.39055793E-06
   58.0000000         4.45447768E-06
   58.1300011         4.51778669E-06
   58.2599983         4.58047407E-06
   58.3899994         4.64252980E-06
   58.5200005         4.70394389E-06
   58.6500015         4.76470677E-06
   58.7799988         4.82480937E-06
   58.9099998         4.88424303E-06
   59.0400009         4.94300002E-06
   59.1699982         5.00107080E-06
   59.2999992         5.05844855E-06
   59.4300003         5.11512417E-06
   59.5600014         5.17108811E-06
   59.6899986         5.22633172E-06
   59.8199997         5.28084456E-06
   59.9500008         5.33461662E-06
   60.0800018         5.38763607E-06
   60.2099991         5.43989290E-06
   60.3400002         5.49137576E-06
   60.4700012         5.54207418E-06
   60.5999985         5.59197815E-06
   60.7299995         5.64107768E-06
   60.8600006         5.68936366E-06
   60.9900017         5.73682701E-06
   61.1199989         5.78345862E-06
   61.2500000         5.82925031E-06
   61.3800011         5.87419345E-06
   61.5099983         5.91827938E-06
   61.6399994         5.96149948E-06
   61.7700005         6.00384601E-06
   61.9000015         6.04531033E-06
   62.0299988         6.08588425E-06
   62.1599998         6.12555959E-06
   62.2900009         6.16432771E-06
   62.4199982         6.20218088E-06
   62.5499992         6.23911046E-06
   62.6800003         6.27510826E-06
   62.8100014         6.31016519E-06
   62.9399986         6.34427170E-06
   63.0699997         6.37741869E-06
   63.2000008         6.40959570E-06
   63.3300018         6.44079319E-06
   63.4599991         6.47100069E-06
   63.5900002         6.50020866E-06
   63.7200012         6.52840754E-06
   63.8499985         6.55558870E-06
   63.9799995         6.58174258E-06
   64.1100006         6.60686146E-06
   64.2399979         6.63093670E-06
   64.3700027         6.65395964E-06
   64.5000000         6.67592212E-06
   64.6299973         6.69681503E-06
   64.7600021         6.71663020E-06
   64.8899994         6.73535897E-06
   65.0199966         6.75299134E-06
   65.1500015         6.76951959E-06
   65.2799988         6.78493370E-06
   65.4100037         6.79922596E-06
   65.5400009         6.81238726E-06
   65.6699982         6.82440941E-06
   65.8000031         6.83528515E-06
   65.9300003         6.84500537E-06
   66.0599976         6.85356326E-06
   66.1900024         6.86095063E-06
   66.3199997         6.86715930E-06
   66.4499969         6.87218198E-06
   66.5800018         6.87601050E-06
   66.7099991         6.87863894E-06
   66.8399963         6.88005957E-06
   66.9700012         6.88026785E-06
   67.0999985         6.87925876E-06
   67.2300034         6.87702732E-06
   67.3600006         6.87356942E-06
   67.4899979         6.86888234E-06
   67.6200027         6.86296289E-06
   67.7500000         6.85580835E-06
   67.8799973         6.84741644E-06
   68.0100021         6.83778353E-06
   68.1399994         6.82690734E-06
   68.2699966         6.81478559E-06
   68.4000015         6.80141693E-06
   68.5299988         6.78680044E-06
   68.6600037         6.77093476E-06
   68.7900009         6.75382080E-06
   68.9199982         6.73545856E-06
   69.0500031         6.71584939E-06
   69.1800003         6.69499332E-06
   69.3099976         6.67289169E-06
   69.4400024         6.64954496E-06
   69.5699997         6.62495404E-06
   69.6999969         6.59911984E-06
   69.8300018         6.57204373E-06
   69.9599991         6.54372934E-06
   70.0899963         6.51417895E-06
   70.2200012         6.48339756E-06
   70.3499985         6.45139016E-06
   70.4800034         6.41816223E-06
   70.6100006         6.38372012E-06
   70.7399979         6.34807157E-06
   70.8700027         6.31122384E-06
   71.0000000         6.27318514E-06
   71.1299973         6.23396272E-06
   71.2600021         6.19356479E-06
   71.3899994         6.15200088E-06
   71.5199966         6.10928055E-06
   71.6500015         6.06541289E-06
   71.7799988         6.02041018E-06
   71.9100037         5.97428516E-06
   72.0400009         5.92705146E-06
   72.1699982         5.87872319E-06
   72.3000031         5.82931716E-06
   72.4300003         5.77884930E-06
   72.5599976         5.72733688E-06
   72.6900024         5.67479765E-06
   72.8199997         5.62124933E-06
   72.9499969         5.56670966E-06
   73.0800018         5.51119729E-06
   73.2099991         5.45472994E-06
   73.3399963         5.39732719E-06
   73.4700012         5.33900766E-06
   73.5999985         5.27979137E-06
   73.7300034         5.21969832E-06
   73.8600006         5.15874717E-06
   73.9899979         5.09695747E-06
   74.1200027         5.03434876E-06
   74.2500000         4.97094061E-06
   74.3799973         4.90675211E-06
   74.5100021         4.84180282E-06
   74.6399994         4.77611229E-06
   74.7699966         4.70970099E-06
   74.9000015         4.64259074E-06
   75.0299988         4.57480473E-06
   75.1600037         4.50636571E-06
   75.2900009         4.43729868E-06
   75.4199982         4.36763003E-06
   75.5500031         4.29738611E-06
   75.6800003         4.22659468E-06
   75.8099976         4.15528257E-06
   75.9400024         4.08347705E-06
   76.0699997         4.01120633E-06
   76.1999969         3.93849905E-06
   76.3300018         3.86538295E-06
   76.4599991         3.79188759E-06
   76.5899963         3.71804231E-06
   76.7200012         3.64387756E-06
   76.8499985         3.56942405E-06
   76.9800034         3.49471338E-06
   77.1100006         3.41977648E-06
   77.2399979         3.34464494E-06
   77.3700027         3.26935060E-06
   77.5000000         3.19392416E-06
   77.6299973         3.11839631E-06
   77.7600021         3.04279729E-06
   77.8899994         2.96715780E-06
   78.0199966         2.89150762E-06
   78.1500015         2.81587677E-06
   78.2799988         2.74029685E-06
   78.4100037         2.66479924E-06
   78.5400009         2.58941691E-06
   78.6699982         2.51418260E-06
   78.8000031         2.43912814E-06
   78.9300003         2.36428605E-06
   79.0599976         2.28968906E-06
   79.1900024         2.21536857E-06
   79.3199997         2.14135639E-06
   79.4499969         2.06768368E-06
   79.5800018         1.99438045E-06
   79.7099991         1.92147854E-06
   79.8399963         1.84900819E-06
   79.9700012         1.77700019E-06
   80.0999985         1.70548549E-06
   80.2300034         1.63449533E-06
   80.3600006         1.56405997E-06
   80.4899979         1.49421021E-06
   80.6200027         1.42497549E-06
   80.7500000         1.35638572E-06