  -24.4200001        -3.61824434E-18
  -24.2870007        -3.62120440E-18
  -24.1539993         3.52713228E-16
  -24.0209999         1.38930122E-15
  -23.8880005         2.75292526E-15
  -23.7549992         2.79258377E-15
  -23.6219997        -1.73783346E-15
  -23.4890003        -1.54530285E-14
  -23.3560009        -4.35730452E-14
  -23.2229996        -9.08240768E-14
  -23.0900002        -1.60367745E-13
  -22.9570007        -2.53172266E-13
  -22.8239994        -3.68143504E-13
  -22.6910000        -5.03110628E-13
  -22.5580006        -6.56472923E-13
  -22.4249992        -8.29051508E-13
  -22.2919998        -1.02554456E-12
  -22.1590004        -1.25501551E-12
  -22.0259991        -1.53007229E-12
  -21.8929996        -1.86475553E-12
  -21.7600002        -2.27156510E-12
  -21.6270008        -2.75838011E-12
  -21.4939995        -3.32616682E-12
  -21.3610001        -3.96825628E-12
  -21.2280006        -4.67161119E-12
  -21.0949993        -5.41998434E-12
  -20.9619999        -6.19832744E-12
  -20.8290005        -6.99739355E-12
  -20.6959991        -7.81733185E-12
  -20.5629997        -8.66925021E-12
  -20.4300003        -9.57419734E-12
  -20.2970009        -1.05596929E-11
  -20.1639996        -1.16546104E-11
  -20.0310001        -1.28837089E-11
  -19.8980007        -1.42632781E-11
  -19.7649994        -1.57991467E-11
  -19.6320000        -1.74876710E-11
  -19.4990005        -1.93195633E-11
  -19.3659992        -2.12855931E-11
  -19.2329998        -2.33826188E-11
  -19.1000004        -2.56182315E-11
  -18.9669991        -2.80126061E-11
  -18.8339996        -3.05968272E-11
  -18.7010002        -3.34079223E-11
  -18.5680008        -3.64817655E-11
  -18.4349995        -3.98456927E-11
  -18.3020000        -4.35128149E-11
  -18.1690006        -4.74797458E-11
  -18.0359993        -5.17285659E-11
  -17.9029999        -5.62327927E-11
  -17.7700005        -6.09660794E-11
  -17.6369991        -6.59114568E-11
  -17.5039997        -7.10688106E-11
  -17.3710003        -7.64586450E-11
  -17.2380009        -8.21209559E-11
  -17.1049995        -8.81094225E-11
  -16.9720001        -9.44823317E-11
  -16.8390007        -1.01292343E-10
  -16.7059994        -1.08577973E-10
  -16.5730000        -1.16358728E-10
  -16.4400005        -1.24635469E-10
  -16.3069992        -1.33395670E-10
  -16.1739998        -1.42622428E-10
  -16.0410004        -1.52304586E-10
  -15.9080000        -1.62445404E-10
  -15.7749996        -1.73067088E-10
  -15.6420002        -1.84210203E-10
  -15.5089998        -1.95927496E-10
  -15.3760004        -2.08274190E-10
  -15.2430000        -2.21297078E-10
  -15.1099997        -2.35025582E-10
  -14.9770002        -2.49467336E-10
  -14.8439999        -2.64610056E-10
  -14.7110004        -2.80429263E-10
  -14.5780001        -2.96900254E-10
  -14.4449997        -3.14011511E-10
  -14.3120003        -3.31775662E-10
  -14.1789999        -3.50235202E-10
  -14.0459995        -3.69461101E-10
  -13.9130001        -3.89544619E-10
  -13.7799997        -4.10583650E-10
  -13.6470003        -4.32667985E-10
  -13.5139999        -4.55866039E-10
  -13.3809996        -4.80218032E-10
  -13.2480001        -5.05736564E-10
  -13.1149998        -5.32414668E-10
  -12.9820004        -5.60239966E-10
  -12.8490000        -5.89209903E-10
  -12.7159996        -6.19344964E-10
  -12.5830002        -6.50694831E-10
  -12.4499998        -6.83336554E-10
  -12.3170004        -7.17364390E-10
  -12.1840000        -7.52873486E-10
  -12.0509996        -7.89943166E-10
  -11.9180002        -8.28623059E-10
  -11.7849998        -8.68927597E-10
  -11.6520004        -9.10839904E-10
  -11.5190001        -9.54325619E-10
  -11.3859997        -9.99352379E-10
  -11.2530003        -1.04591069E-09
  -11.1199999        -1.09403020E-09
  -10.9870005        -1.14378673E-09
  -10.8540001        -1.19529753E-09
  -10.7209997        -1.24870558E-09
  -10.5880003        -1.30415556E-09
  -10.4549999        -1.36176781E-09
  -10.3219995        -1.42161516E-09
  -10.1890001        -1.48370993E-09
  -10.0559998        -1.54800195E-09
  -9.92300034        -1.61439029E-09
  -9.78999996        -1.68274517E-09
  -9.65699959        -1.75293513E-09
  -9.52400017        -1.82485616E-09
  -9.39099979        -1.89845450E-09
  -9.25800037        -1.97374184E-09
  -9.12500000        -2.05080219E-09
  -8.99199963        -2.12978835E-09
  -8.85900021        -2.21091412E-09
  -8.72599983        -2.29444508E-09
  -8.59300041        -2.38068698E-09
  -8.46000004        -2.46998022E-09
  -8.32699966        -2.56269184E-09
  -8.19400024        -2.65920796E-09
  -8.06099987        -2.75992029E-09
  -7.92799997        -2.86520274E-09
  -7.79500008        -2.97537528E-09
  -7.66200018        -3.09065640E-09
  -7.52899981        -3.21110805E-09
  -7.39599991        -3.33657768E-09
  -7.26300001        -3.46664897E-09
  -7.13000011        -3.60060759E-09
  -6.99700022        -3.73743481E-09
  -6.86399984        -3.87582677E-09
  -6.73099995        -4.01424360E-09
  -6.59800005        -4.15098222E-09
  -6.46500015        -4.28426228E-09
  -6.33199978        -4.41231141E-09
  -6.19899988        -4.53344429E-09
  -6.06599998        -4.64612349E-09
  -5.93300009        -4.74899808E-09
  -5.80000019        -4.84092055E-09
  -5.66699982        -4.92095120E-09
  -5.53399992        -4.98835373E-09
  -5.40100002        -5.04259301E-09
  -5.26800013        -5.08334130E-09
  -5.13500023        -5.11049381E-09
  -5.00199986        -5.12418907E-09
  -4.86899996        -5.12483433E-09
  -4.73600006        -5.11311660E-09
  -4.60300016        -5.08999776E-09
  -4.46999979        -5.05668440E-09
  -4.33699989        -5.01456521E-09
  -4.20400000        -4.96512564E-09
  -4.07100010        -4.90983831E-09
  -3.93799996        -4.85004747E-09
  -3.80500007        -4.78685447E-09
  -3.67199993        -4.72101824E-09
  -3.53900003        -4.65287897E-09
  -3.40599990        -4.58230298E-09
  -3.27300000        -4.50866011E-09
  -3.14000010        -4.43082016E-09
  -3.00699997        -4.34716796E-09
  -2.87400007        -4.25563584E-09
  -2.74099994        -4.15374179E-09
  -2.60800004        -4.03863787E-09
  -2.47499990        -3.90717991E-09
  -2.34200001        -3.75600040E-09
  -2.20900011        -3.58160968E-09
  -2.07599998        -3.38051143E-09
  -1.94299996        -3.14933479E-09
  -1.80999994        -2.88497182E-09
  -1.67700005        -2.58470845E-09
  -1.54400003        -2.24633800E-09
  -1.41100001        -1.86823401E-09
  -1.27800000        -1.44937851E-09
  -1.14499998        -9.89337390E-10
  -1.01199996        -4.88179219E-10
 -0.879000008         5.36490748E-11
 -0.745999992         6.35476116E-10
 -0.612999976         1.25657573E-09
 -0.479999989         1.91633220E-09
 -0.347000003         2.61439048E-09
 -0.214000002         3.35076811E-09
  -8.10000002E-02     4.12594137E-09
   5.20000011E-02     4.94089525E-09
  0.185000002         5.79714410E-09
  0.317999989         6.69673206E-09
  0.451000005         7.64221397E-09
  0.583999991         8.63662919E-09
  0.717000008         9.68345581E-09
  0.850000024         1.07865521E-08
  0.982999980         1.19500934E-08
   1.11600006         1.31784752E-08
   1.24899995         1.44762140E-08
   1.38199997         1.58478315E-08
   1.51499999         1.72977472E-08
   1.64800000         1.88301712E-08
   1.78100002         2.04490220E-08
   1.91400003         2.21578844E-08
   2.04699993         2.39599878E-08
   2.18000007         2.58582098E-08
   2.31299996         2.78551315E-08
   2.44600010         2.99530782E-08
   2.57900000         3.21541727E-08
   2.71199989         3.44603777E-08
   2.84500003         3.68735265E-08
   2.97799993         3.93953457E-08
   3.11100006         4.20274660E-08
   3.24399996         4.47714115E-08
   3.37700009         4.76286566E-08
   3.50999999         5.06006366E-08
   3.64299989         5.36888365E-08
   3.77600002         5.68948622E-08
   3.90899992         6.02205432E-08
   4.04199982         6.36680326E-08
   4.17500019         6.72398812E-08
   4.30800009         7.09390591E-08
   4.44099998         7.47689981E-08
   4.57399988         7.87335210E-08
   4.70699978         8.28367561E-08
   4.84000015         8.70830590E-08
   4.97300005         9.14768492E-08
   5.10599995         9.60225321E-08
   5.23899984         1.00724399E-07
   5.37200022         1.05586551E-07
   5.50500011         1.10612895E-07
   5.63800001         1.15807104E-07
   5.77099991         1.21172661E-07
   5.90399981         1.26712791E-07
   6.03700018         1.32430586E-07
   6.17000008         1.38328858E-07
   6.30299997         1.44410194E-07
   6.43599987         1.50676954E-07
   6.56899977         1.57131154E-07
   6.70200014         1.63774573E-07
   6.83500004         1.70608729E-07
   6.96799994         1.77634902E-07
   7.10099983         1.84854230E-07
   7.23400021         1.92267692E-07
   7.36700010         1.99876283E-07
   7.50000000         2.07680941E-07
   7.63299990         2.15682533E-07
   7.76599979         2.23881884E-07
   7.89900017         2.32279660E-07
   8.03199959         2.40876290E-07
   8.16499996         2.49671899E-07
   8.29800034         2.58666290E-07
   8.43099976         2.67858866E-07
   8.56400013         2.77248660E-07
   8.69699955         2.86834336E-07
   8.82999992         2.96614303E-07
   8.96300030         3.06586770E-07
   9.09599972         3.16749663E-07
   9.22900009         3.27100850E-07
   9.36200047         3.37637999E-07
   9.49499989         3.48358611E-07
   9.62800026         3.59260014E-07
   9.76099968         3.70339251E-07
   9.89400005         3.81593139E-07
   10.0270004         3.93018212E-07
   10.1599998         4.04610660E-07
   10.2930002         4.16366504E-07
   10.4259996         4.28281538E-07
   10.5590000         4.40351300E-07
   10.6920004         4.52571101E-07
   10.8249998         4.64936051E-07
   10.9580002         4.77440892E-07
   11.0909996         4.90079969E-07
   11.2240000         5.02847058E-07
   11.3570004         5.15735394E-07
   11.4899998         5.28737473E-07
   11.6230001         5.41845054E-07
   11.7559996         5.55049326E-07
   11.8889999         5.68340738E-07
   12.0220003         5.81709344E-07
   12.1549997         5.95144854E-07
   12.2880001         6.08636583E-07
   12.4209995         6.22173729E-07
   12.5539999         6.35745323E-07
   12.6870003         6.49340222E-07
   12.8199997         6.62947173E-07
   12.9530001         6.76554691E-07
   13.0860004         6.90151069E-07
   13.2189999         7.03724311E-07
   13.3520002         7.17262424E-07
   13.4849997         7.30753072E-07
   13.6180000         7.44183922E-07
   13.7510004         7.57542637E-07
   13.8839998         7.70816825E-07
   14.0170002         7.83994153E-07
   14.1499996         7.97062341E-07
   14.2830000         8.10008771E-07
   14.4160004         8.22820880E-07
   14.5489998         8.35485537E-07
   14.6820002         8.47989213E-07
   14.8149996         8.60317755E-07
   14.9480000         8.72456269E-07
   15.0810003         8.84389294E-07
   15.2139997         8.96100744E-07
   15.3470001         9.07574076E-07
   15.4799995         9.18792182E-07
   15.6129999         9.29737780E-07
   15.7460003         9.40393534E-07
   15.8789997         9.50741878E-07
   16.0119991         9.60765306E-07
   16.1450005         9.70446308E-07
   16.2779999         9.79767492E-07
   16.4109993         9.88711690E-07
   16.5440006         9.97261623E-07
   16.6770000         1.00540069E-06
   16.8099995         1.01311230E-06
   16.9430008         1.02037995E-06
   17.0760002         1.02718798E-06
   17.2089996         1.03352056E-06
   17.3419991         1.03936247E-06
   17.4750004         1.04469859E-06
   17.6079998         1.04951380E-06
   17.7409992         1.05379308E-06
   17.8740005         1.05752144E-06
   18.0070000         1.06068376E-06
   18.1399994         1.06326456E-06
   18.2730007         1.06524885E-06
   18.4060001         1.06662117E-06
   18.5389996         1.06736650E-06
   18.6720009         1.06746973E-06
   18.8050003         1.06691618E-06
   18.9379997         1.06569121E-06
   19.0709991         1.06378070E-06
   19.2040005         1.06117068E-06
   19.3369999         1.05784750E-06
   19.4699993         1.05379786E-06
   19.6030006         1.04900880E-06
   19.7360001         1.04346827E-06
   19.8689995         1.03716457E-06
   20.0020008         1.03008676E-06
   20.1350002         1.02222498E-06
   20.2679996         1.01357045E-06
   20.4009991         1.00411512E-06
   20.5340004         9.93852154E-07
   20.6669998         9.82775305E-07
   20.7999992         9.70879114E-07
   20.9330006         9.58158466E-07
   21.0660000         9.44608814E-07
   21.1989994         9.30225383E-07
   21.3320007         9.15003795E-07
   21.4650002         8.98939732E-07
   21.5979996         8.82029212E-07
   21.7310009         8.64268372E-07
   21.8640003         8.45654142E-07
   21.9969997         8.26183737E-07
   22.1299992         8.05855336E-07
   22.2630005         7.84667805E-07
   22.3959999         7.62620630E-07
   22.5289993         7.39714096E-07
   22.6620007         7.15949284E-07
   22.7950001         6.91327671E-07
   22.9279995         6.65851587E-07
   23.0610008         6.39523989E-07
   23.1940002         6.12348458E-07
   23.3269997         5.84329541E-07
   23.4599991         5.55472411E-07
   23.5930004         5.25783150E-07
   23.7259998         4.95268807E-07
   23.8589993         4.63936914E-07
   23.9920006         4.31795911E-07
   24.1250000         3.98854809E-07
   24.2579994         3.65123157E-07
   24.3910007         3.30611130E-07
   24.5240002         2.95329414E-07
   24.6569996         2.59289351E-07
   24.7900009         2.22502933E-07
   24.9230003         1.84982810E-07
   25.0559998         1.46742465E-07
   25.1889992         1.07796019E-07
   25.3220005         6.81583572E-08
   25.4549999         2.78448464E-08
   25.5879993        -1.31287026E-08
   25.7210007        -5.47461489E-08
   25.8540001        -9.69911866E-08
   25.9869995        -1.39847387E-07
   26.1200008        -1.83298241E-07
   26.2530003        -2.27327078E-07
   26.3859997        -2.71916889E-07
   26.5189991        -3.17050194E-07
   26.6520004        -3.62708931E-07
   26.7849998        -4.08874314E-07
   26.9179993        -4.55526646E-07
   27.0510006        -5.02645435E-07
   27.1840000        -5.50209222E-07
   27.3169994        -5.98195811E-07
   27.4500008        -6.46582293E-07
   27.5830002        -6.95345193E-07
   27.7159996        -7.44460522E-07
   27.8490009        -7.93903780E-07
   27.9820004        -8.43650241E-07
   28.1149998        -8.93674837E-07
   28.2479992        -9.43952159E-07
   28.3810005        -9.94456968E-07
   28.5139999        -1.04516369E-06
   28.6469994        -1.09604741E-06
   28.7800007        -1.14708325E-06
   28.9130001        -1.19824699E-06
   29.0459995        -1.24951509E-06
   29.1790009        -1.30086460E-06
   29.3120003        -1.35227288E-06
   29.4449997        -1.40371822E-06
   29.5779991        -1.45517845E-06
   29.7110004        -1.50663186E-06
   29.8439999        -1.55805606E-06
   29.9769993        -1.60942841E-06
   30.1100006        -1.66072539E-06
   30.2430000        -1.71192301E-06
   30.3759995        -1.76299648E-06
   30.5090008        -1.81392079E-06
   30.6420002        -1.86467003E-06
   30.7749996        -1.91521849E-06
   30.9080009        -1.96554038E-06
   31.0410004        -2.01560920E-06
   31.1739998        -2.06539926E-06
   31.3069992        -2.11488418E-06
   31.4400005        -2.16403828E-06
   31.5730000        -2.21283494E-06
   31.7059994        -2.26124894E-06
   31.8390007        -2.30925389E-06
   31.9720001        -2.35682501E-06
   32.1049995        -2.40393729E-06
   32.2379990        -2.45056640E-06
   32.3709984        -2.49668938E-06
   32.5040016        -2.54228348E-06
   32.6370010        -2.58732734E-06
   32.7700005        -2.63179982E-06
   32.9029999        -2.67568089E-06
   33.0359993        -2.71895055E-06
   33.1689987        -2.76159017E-06
   33.3019981        -2.80358017E-06
   33.4350014        -2.84490216E-06
   33.5680008        -2.88553747E-06
   33.7010002        -2.92546792E-06
   33.8339996        -2.96467465E-06
   33.9669991        -3.00313968E-06
   34.0999985        -3.04084460E-06
   34.2330017        -3.07777077E-06
   34.3660011        -3.11389954E-06
   34.4990005        -3.14921226E-06
   34.6320000        -3.18368984E-06
   34.7649994        -3.21731318E-06
   34.8979988        -3.25006386E-06
   35.0309982        -3.28192277E-06
   35.1640015        -3.31287220E-06
   35.2970009        -3.34289507E-06
   35.4300003        -3.37197503E-06
   35.5629997        -3.40009706E-06
   35.6959991        -3.42724729E-06
   35.8289986        -3.45341300E-06
   35.9620018        -3.47858145E-06
   36.0950012        -3.50274195E-06
   36.2280006        -3.52588313E-06
   36.3610001        -3.54799477E-06
   36.4939995        -3.56906617E-06
   36.6269989        -3.58908687E-06
   36.7599983        -3.60804688E-06
   36.8930016        -3.62593642E-06
   37.0260010        -3.64274547E-06
   37.1590004        -3.65846472E-06
   37.2919998        -3.67308553E-06
   37.4249992        -3.68659948E-06
   37.5579987        -3.69899863E-06
   37.6910019        -3.71027568E-06
   37.8240013        -3.72042359E-06
   37.9570007        -3.72943555E-06
   38.0900002        -3.73730495E-06
   38.2229996        -3.74402634E-06
   38.3559990        -3.74959404E-06
   38.4889984        -3.75400327E-06
   38.6220016        -3.75724994E-06
   38.7550011        -3.75933109E-06
   38.8880005        -3.76024377E-06
   39.0209999        -3.75998661E-06
   39.1539993        -3.75855802E-06
   39.2869987        -3.75595687E-06
   39.4199982        -3.75218224E-06
   39.5530014        -3.74723277E-06
   39.6860008        -3.74110778E-06
   39.8190002        -3.73380567E-06
   39.9519997        -3.72532531E-06
   40.0849991        -3.71566557E-06
   40.2179985        -3.70482576E-06
   40.3510017        -3.69280565E-06
   40.4840012        -3.67960547E-06
   40.6170006        -3.66522613E-06
   40.7500000        -3.64966900E-06
   40.8829994        -3.63293634E-06
   41.0159988        -3.61502998E-06
   41.1489983        -3.59595242E-06
   41.2820015        -3.57570593E-06
   41.4150009        -3.55429324E-06
   41.5480003        -3.53171663E-06
   41.6809998        -3.50797905E-06
   41.8139992        -3.48308390E-06
   41.9469986        -3.45703438E-06
   42.0800018        -3.42983481E-06
   42.2130013        -3.40148972E-06
   42.3460007        -3.37200481E-06
   42.4790001        -3.34138599E-06
   42.6119995        -3.30963940E-06
   42.7449989        -3.27677230E-06
   42.8779984        -3.24279199E-06
   43.0110016        -3.20770687E-06
   43.1440010        -3.17152512E-06
   43.2770004        -3.13425630E-06
   43.4099998        -3.09591042E-06
   43.5429993        -3.05649769E-06
   43.6759987        -3.01602950E-06
   43.8089981        -2.97451652E-06
   43.9420013        -2.93197013E-06
   44.0750008        -2.88840147E-06
   44.2080002        -2.84382077E-06
   44.3409996        -2.79823780E-06
   44.4739990        -2.75166190E-06
   44.6069984        -2.70410237E-06
   44.7400017        -2.65556764E-06
   44.8730011        -2.60606635E-06
   45.0060005        -2.55560803E-06
   45.1389999        -2.50420271E-06
   45.2719994        -2.45186129E-06
   45.4049988        -2.39859605E-06
   45.5379982        -2.34441995E-06
   45.6710014        -2.28934687E-06
   45.8040009        -2.23339134E-06
   45.9370003        -2.17656793E-06
   46.0699997        -2.11889164E-06
   46.2029991        -2.06037703E-06
   46.3359985        -2.00103909E-06
   46.4690018        -1.94089216E-06
   46.6020012        -1.87995158E-06
   46.7350006        -1.81823179E-06
   46.8680000        -1.75574814E-06
   47.0009995        -1.69251564E-06
   47.1339989        -1.62854917E-06
   47.2669983        -1.56386386E-06
   47.4000015        -1.49847426E-06
   47.5330009        -1.43239481E-06
   47.6660004        -1.36563949E-06
   47.7989998        -1.29822160E-06
   47.9319992        -1.23015479E-06
   48.0649986        -1.16145293E-06
   48.1980019        -1.09212976E-06
   48.3310013        -1.02219985E-06
   48.4640007        -9.51679112E-07
   48.5970001        -8.80583002E-07
   48.7299995        -8.08928746E-07
   48.8629990        -7.36733682E-07
   48.9959984        -6.64015886E-07
   49.1290016        -5.90793718E-07
   49.2620010        -5.17086278E-07
   49.3950005        -4.42912125E-07
   49.5279999        -3.68290728E-07
   49.6609993        -2.93241811E-07
   49.7939987        -2.17785072E-07
   49.9269981        -1.41940660E-07
   50.0600014        -6.57292460E-08
   50.1930008         1.08287566E-08
   50.3260002         8.77124577E-08
   50.4589996         1.64901749E-07
   50.5919991         2.42376501E-07
   50.7249985         3.20117834E-07
   50.8580017         3.98107119E-07
   50.9910011         4.76327045E-07
   51.1240005         5.54760391E-07
   51.2570000         6.33390584E-07
   51.3899994         7.12200915E-07
   51.5229988         7.91174614E-07
   51.6559982         8.70294514E-07
   51.7890015         9.49542766E-07
   51.9220009         1.02890112E-06
   52.0550003         1.10835072E-06
   52.1879997         1.18787204E-06
   52.3209991         1.26744578E-06
   52.4539986         1.34705215E-06
   52.5870018         1.42667159E-06
   52.7200012         1.50628387E-06
   52.8530006         1.58586920E-06
   52.9860001         1.66540735E-06
   53.1189995         1.74487764E-06
   53.2519989         1.82425902E-06
   53.3849983         1.90353035E-06
   53.5180016         1.98267071E-06
   53.6510010         2.06165964E-06
   53.7840004         2.14047691E-06
   53.9169998         2.21910318E-06
   54.0499992         2.29752050E-06
   54.1829987         2.37571180E-06
   54.3160019         2.45366027E-06
   54.4490013         2.53135067E-06
   54.5820007         2.60876755E-06
   54.7150002         2.68589611E-06
   54.8479996         2.76272112E-06
   54.9809990         2.83922691E-06
   55.1139984         2.91539754E-06
   55.2470016         2.99121780E-06
   55.3800011         3.06667175E-06
   55.5130005         3.14174395E-06
   55.6459999         3.21642028E-06
   55.7789993         3.29068553E-06
   55.9119987         3.36452649E-06
   56.0449982         3.43792954E-06
   56.1780014         3.51088215E-06
   56.3110008         3.58337115E-06
   56.4440002         3.65538313E-06
   56.5769997         3.72690511E-06
   56.7099991         3.79792345E-06
   56.8429985         3.86842430E-06
   56.9760017         3.93839355E-06
   57.1090012         4.00781755E-06
   57.2420006         4.07668267E-06
   57.3750000         4.14497663E-06
   57.5079994         4.21268624E-06
   57.6409988         4.27980012E-06
   57.7739983         4.34630601E-06
   57.9070015         4.41219208E-06
   58.0400009         4.47744787E-06
   58.1730003         4.54206156E-06
   58.3059998         4.60602178E-06
   58.4389992         4.66931760E-06
   58.5719986         4.73193813E-06
   58.7050018         4.79387381E-06
   58.8380013         4.85511464E-06
   58.9710007         4.91565197E-06
   59.1040001         4.97547626E-06
   59.2369995         5.03457932E-06
   59.3699989         5.09295251E-06
   59.5029984         5.15058537E-06
   59.6360016         5.20746880E-06
   59.7690010         5.26359190E-06
   59.9020004         5.31894329E-06
   60.0349998         5.37351116E-06
   60.1679993         5.42728367E-06
   60.3009987         5.48024946E-06
   60.4339981         5.53239670E-06
   60.5670013         5.58371448E-06
   60.7000008         5.63419235E-06
   60.8330002         5.68382029E-06
   60.9659996         5.73258922E-06
   61.0989990         5.78048957E-06
   61.2319984         5.82751181E-06
   61.3650017         5.87364775E-06
   61.4980011         5.91888738E-06
   61.6310005         5.96322116E-06
   61.7639999         6.00663998E-06
   61.8969994         6.04913430E-06
   62.0299988         6.09069502E-06
   62.1629982         6.13131351E-06
   62.2960014         6.17098112E-06
   62.4290009         6.20969013E-06
   62.5620003         6.24743097E-06
   62.6949997         6.28419502E-06
   62.8279991         6.31997364E-06
   62.9609985         6.35475544E-06
   63.0940018         6.38853044E-06
   63.2270012         6.42128771E-06
   63.3600006         6.45301589E-06
   63.4930000         6.48370360E-06
   63.6259995         6.51334085E-06
   63.7589989         6.54191763E-06
   63.8919983         6.56942393E-06
   64.0250015         6.59585112E-06
   64.1579971         6.62119010E-06
   64.2910004         6.64543222E-06
   64.4240036         6.66856931E-06
   64.5569992         6.69059091E-06
   64.6900024         6.71148882E-06
   64.8229980         6.73125260E-06
   64.9560013         6.74987177E-06
   65.0889969         6.76733771E-06
   65.2220001         6.78363949E-06
   65.3550034         6.79876757E-06
   65.4879990         6.81271376E-06
   65.6210022         6.82546943E-06
   65.7539978         6.83702592E-06
   65.8870010         6.84737506E-06
   66.0199966         6.85650821E-06
   66.1529999         6.86441763E-06
   66.2860031         6.87109423E-06
   66.4189987         6.87652982E-06
   66.5520020         6.88071486E-06
   66.6849976         6.88364207E-06
   66.8180008         6.88530463E-06
   66.9509964         6.88569526E-06
   67.0839996         6.88480895E-06
   67.2170029         6.88264163E-06
   67.3499985         6.87918873E-06
   67.4830017         6.87444845E-06
   67.6159973         6.86841577E-06
   67.7490005         6.86108933E-06
   67.8820038         6.85246550E-06
   68.0149994         6.84254064E-06
   68.1480026         6.83131248E-06
   68.2809982         6.81877782E-06
   68.4140015         6.80493440E-06
   68.5469971         6.78978131E-06
   68.6800003         6.77331855E-06
   68.8130035         6.75554566E-06
   68.9459991         6.73646355E-06
   69.0790024         6.71607359E-06
   69.2119980         6.69437668E-06
   69.3450012         6.67137283E-06
   69.4779968         6.64706386E-06
   69.6110001         6.62144976E-06
   69.7440033         6.59453144E-06
   69.8769989         6.56631164E-06
   70.0100021         6.53679217E-06
   70.1429977         6.50597713E-06
   70.2760010         6.47387151E-06
   70.4089966         6.44048214E-06
   70.5419998         6.40581584E-06
   70.6750031         6.36988079E-06
   70.8079987         6.33268519E-06
   70.9410019         6.29423721E-06
   71.0739975         6.25454550E-06
   71.2070007         6.21361733E-06
   71.3399963         6.17146179E-06
   71.4729996         6.12808844E-06
   71.6060028         6.08350729E-06
   71.7389984         6.03773060E-06
   71.8720016         5.99077021E-06
   72.0049973         5.94264156E-06
   72.1380005         5.89336059E-06
   72.2710037         5.84294457E-06
   72.4039993         5.79141079E-06
   72.5370026         5.73877787E-06
   72.6699982         5.68506539E-06
   72.8030014         5.63029107E-06
   72.9359970         5.57447493E-06
   73.0690002         5.51763560E-06
   73.2020035         5.45979310E-06
   73.3349991         5.40096698E-06
   73.4680023         5.34117771E-06
   73.6009979         5.28044666E-06
   73.7340012         5.21879474E-06
   73.8669968         5.15624424E-06
   74.0000000         5.09281563E-06
   74.1330032         5.02852936E-06
   74.2659988         4.96340681E-06
   74.3990021         4.89746799E-06
   74.5319977         4.83073336E-06
   74.6650009         4.76322430E-06
   74.7979965         4.69496354E-06
   74.9309998         4.62597382E-06
   75.0640030         4.55627969E-06
   75.1969986         4.48590708E-06
   75.3300018         4.41488328E-06
   75.4629974         4.34323647E-06
   75.5960007         4.27099530E-06
   75.7289963         4.19818934E-06
   75.8619995         4.12484769E-06
   75.9950027         4.05100081E-06
   76.1279984         3.97667827E-06
   76.2610016         3.90190962E-06
   76.3939972         3.82672533E-06
   76.5270004         3.75115815E-06
   76.6600037         3.67523944E-06
   76.7929993         3.59900218E-06
   76.9260025         3.52247980E-06
   77.0589981         3.44570617E-06
   77.1920013         3.36871517E-06
   77.3249969         3.29154159E-06
   77.4580002         3.21421817E-06
   77.5910034         3.13677810E-06
   77.7239990         3.05925391E-06
   77.8570023         2.98167811E-06
   77.9899979         2.90408252E-06
   78.1230011         2.82649989E-06
   78.2559967         2.74896365E-06
   78.3889999         2.67150722E-06
   78.5220032         2.59416561E-06
   78.6549988         2.51697315E-06
   78.7880020         2.43996601E-06
   78.9209976         2.36317874E-06
   79.0540009         2.28664635E-06
   79.1869965         2.21040273E-06
   79.3199997         2.13448152E-06
   79.4530029         2.05891592E-06
   79.5859985         1.98373868E-06
   79.7190018         1.90898277E-06
   79.8519974         1.83468046E-06
   79.9850006         1.76086530E-06
   80.1179962         1.68757026E-06
   80.2509995         1.61482910E-06
   80.3840027         1.54267423E-06
   80.5169983         1.47113951E-06
   80.6500015         1.40025736E-06
   80.7829971         1.33005904E-06
   80.9160004         1.26057603E-06
   81.0490036         1.19183971E-06
   81.1819992         1.12388125E-06
   81.3150024         1.05673155E-06
   81.4479980         9.90423587E-07
   81.5810013         9.24990559E-07
   81.7139969         8.60465889E-07
   81.8470001         7.96882659E-07
   81.9800034         7.34274749E-07
   82.1129990         6.72674616E-07
   82.2460022         6.12113240E-07
   82.3789978         5.52621259E-07
   82.5120010         4.94226526E-07
   82.6449966         4.36955446E-07
   82.7779999         3.80834479E-07
   82.9110031         3.25887413E-07
   83.0439987         2.72138124E-07
   83.1770020         2.19608992E-07