  -24.4200001         1.00232701E-17
  -24.2870007         1.00118269E-17
  -24.1539993        -1.35471458E-16
  -24.0209999        -6.75825830E-16
  -23.8880005        -1.88427773E-15
  -23.7549992        -3.96316043E-15
  -23.6219997        -6.96358788E-15
  -23.4890003        -1.07452389E-14
  -23.3560009        -1.49908281E-14
  -23.2229996        -1.92743448E-14
  -23.0900002        -2.31657531E-14
  -22.9570007        -2.63429144E-14
  -22.8239994        -2.86771678E-14
  -22.6910000        -3.02635453E-14
  -22.5580006        -3.13799212E-14
  -22.4249992        -3.23780072E-14
  -22.2919998        -3.35273801E-14
  -22.1590004        -3.48500762E-14
  -22.0259991        -3.59869266E-14
  -21.8929996        -3.61361060E-14
  -21.7600002        -3.40877974E-14
  -21.6270008        -2.83594525E-14
  -21.4939995        -1.74136455E-14
  -21.3610001         8.18409520E-17
  -21.2280006         2.49998606E-14
  -21.0949993         5.75586603E-14
  -20.9619999         9.72250099E-14
  -20.8290005         1.42740596E-13
  -20.6959991         1.92266640E-13
  -20.5629997         2.43623969E-13
  -20.4300003         2.94589684E-13
  -20.2970009         3.43194494E-13
  -20.1639996         3.87982642E-13
  -20.0310001         4.28192610E-13
  -19.8980007         4.63843916E-13
  -19.7649994         4.95734259E-13
  -19.6320000         5.25359758E-13
  -19.4990005         5.54786523E-13
  -19.3659992         5.86497973E-13
  -19.2329998         6.23232802E-13
  -19.1000004         6.67838940E-13
  -18.9669991         7.23110862E-13
  -18.8339996         7.91634878E-13
  -18.7010002         8.75612950E-13
  -18.5680008         9.76671543E-13
  -18.4349995         1.09566804E-12
  -18.3020000         1.23250824E-12
  -18.1690006         1.38602335E-12
  -18.0359993         1.55394415E-12
  -17.9029999         1.73299623E-12
  -17.7700005         1.91913738E-12
  -17.6369991         2.10792018E-12
  -17.5039997         2.29499189E-12
  -17.3710003         2.47659965E-12
  -17.2380009         2.65008675E-12
  -17.1049995         2.81429936E-12
  -16.9720001         2.96980149E-12
  -16.8390007         3.11891008E-12
  -16.7059994         3.26548185E-12
  -16.5730000         3.41451975E-12
  -16.4400005         3.57163387E-12
  -16.3069992         3.74240829E-12
  -16.1739998         3.93176984E-12
  -16.0410004         4.14342735E-12
  -15.9080000         4.37946120E-12
  -15.7749996         4.64005353E-12
  -15.6420002         4.92340457E-12
  -15.5089998         5.22579549E-12
  -15.3760004         5.54184780E-12
  -15.2430000         5.86484160E-12
  -15.1099997         6.18712980E-12
  -14.9770002         6.50067934E-12
  -14.8439999         6.79752348E-12
  -14.7110004         7.07034648E-12
  -14.5780001         7.31296707E-12
  -14.4449997         7.52087368E-12
  -14.3120003         7.69163292E-12
  -14.1789999         7.82507392E-12
  -14.0459995         7.92339805E-12
  -13.9130001         7.99092823E-12
  -13.7799997         8.03369697E-12
  -13.6470003         8.05868480E-12
  -13.5139999         8.07293468E-12
  -13.3809996         8.08249301E-12
  -13.2480001         8.09150923E-12
  -13.1149998         8.10143619E-12
  -12.9820004         8.11061635E-12
  -12.8490000         8.11410054E-12
  -12.7159996         8.10398450E-12
  -12.5830002         8.07014525E-12
  -12.4499998         8.00103647E-12
  -12.3170004         7.88464953E-12
  -12.1840000         7.70944333E-12
  -12.0509996         7.46501819E-12
  -11.9180002         7.14261116E-12
  -11.7849998         6.73505175E-12
  -11.6520004         6.23684177E-12
  -11.5190001         5.64359540E-12
  -11.3859997         4.95214026E-12
  -11.2530003         4.16004687E-12
  -11.1199999         3.26563429E-12
  -10.9870005         2.26818347E-12
  -10.8540001         1.16831122E-12
  -10.7209997        -3.17271877E-14
  -10.5880003        -1.32770260E-12
  -10.4549999        -2.71356266E-12
  -10.3219995        -4.18186406E-12
  -10.1890001        -5.72489669E-12
  -10.0559998        -7.33642921E-12
  -9.92300034        -9.01377670E-12
  -9.78999996        -1.07608367E-11
  -9.65699959        -1.25900150E-11
  -9.52400017        -1.45250522E-11
  -9.39099979        -1.66021433E-11
  -9.25800037        -1.88700132E-11
  -9.12500000        -2.13887207E-11
  -8.99199963        -2.42261888E-11
  -8.85900021        -2.74530208E-11
  -8.72599983        -3.11360694E-11
  -8.59300041        -3.53305059E-11
  -8.46000004        -4.00717029E-11
  -8.32699966        -4.53678935E-11
  -8.19400024        -5.11937610E-11
  -8.06099987        -5.74870394E-11
  -7.92799997        -6.41482145E-11
  -7.79500008        -7.10439485E-11
  -7.66200018        -7.80161977E-11
  -7.52899981        -8.48942722E-11
  -7.39599991        -9.15124157E-11
  -7.26300001        -9.77281658E-11
  -7.13000011        -1.03445301E-10
  -6.99700022        -1.08632714E-10
  -6.86399984        -1.13344396E-10
  -6.73099995        -1.17731547E-10
  -6.59800005        -1.22050495E-10
  -6.46500015        -1.26661001E-10
  -6.33199978        -1.32016273E-10
  -6.19899988        -1.38643472E-10
  -6.06599998        -1.47115514E-10
  -5.93300009        -1.58017086E-10
  -5.80000019        -1.71905878E-10
  -5.66699982        -1.89272778E-10
  -5.53399992        -2.10503337E-10
  -5.40100002        -2.35846342E-10
  -5.26800013        -2.65391153E-10
  -5.13500023        -2.99055336E-10
  -5.00199986        -3.36587674E-10
  -4.86899996        -3.77583687E-10
  -4.73600006        -4.21516350E-10
  -4.60300016        -4.67778538E-10
  -4.46999979        -5.15733289E-10
  -4.33699989        -5.64770675E-10
  -4.20400000        -6.14365336E-10
  -4.07100010        -6.64127808E-10
  -3.93799996        -7.13848869E-10
  -3.80500007        -7.63527519E-10
  -3.67199993        -8.13385803E-10
  -3.53900003        -8.63863814E-10
  -3.40599990        -9.15595766E-10
  -3.27300000        -9.69370140E-10
  -3.14000010        -1.02607445E-09
  -3.00699997        -1.08663356E-09
  -2.87400007        -1.15194132E-09
  -2.74099994        -1.22279586E-09
  -2.60800004        -1.29984190E-09
  -2.47499990        -1.38352851E-09
  -2.34200001        -1.47408263E-09
  -2.20900011        -1.57150493E-09
  -2.07599998        -1.67558245E-09
  -1.94299996        -1.78592729E-09
  -1.80999994        -1.90202543E-09
  -1.67700005        -2.02330219E-09
  -1.54400003        -2.14918860E-09
  -1.41100001        -2.27919283E-09
  -1.27800000        -2.41295939E-09
  -1.14499998        -2.55031596E-09
  -1.01199996        -2.69130518E-09
 -0.879000008        -2.83619550E-09
 -0.745999992        -2.98546610E-09
 -0.612999976        -3.13977622E-09
 -0.479999989        -3.29991612E-09
 -0.347000003        -3.46674311E-09
 -0.214000002        -3.64111341E-09
  -8.10000002E-02    -3.82381282E-09
   5.20000011E-02    -4.01549549E-09
  0.185000002        -4.21663060E-09
  0.317999989        -4.42747305E-09
  0.451000005        -4.64804817E-09
  0.583999991        -4.87816454E-09
  0.717000008        -5.11743492E-09
  0.850000024        -5.36533573E-09
  0.982999980        -5.62125457E-09
   1.11600006        -5.88456395E-09
   1.24899995        -6.15468432E-09
   1.38199997        -6.43114584E-09
   1.51499999        -6.71363942E-09
   1.64800000        -7.00204739E-09
   1.78100002        -7.29645810E-09
   1.91400003        -7.59716734E-09
   2.04699993        -7.90464938E-09
   2.18000007        -8.21952550E-09
   2.31299996        -8.54250892E-09
   2.44600010        -8.87435903E-09
   2.57900000        -9.21581833E-09
   2.71199989        -9.56757074E-09
   2.84500003        -9.93020244E-09
   2.97799993        -1.03041726E-08
   3.11100006        -1.06898108E-08
   3.24399996        -1.10873213E-08
   3.37700009        -1.14968035E-08
   3.50999999        -1.19182868E-08
   3.64299989        -1.23517836E-08
   3.77600002        -1.27973161E-08
   3.90899992        -1.32549758E-08
   4.04199982        -1.37249545E-08
   4.17500019        -1.42075782E-08
   4.30800009        -1.47033195E-08
   4.44099998        -1.52127893E-08
   4.57399988        -1.57367293E-08
   4.70699978        -1.62759779E-08
   4.84000015        -1.68314216E-08
   4.97300005        -1.74039467E-08
   5.10599995        -1.79943740E-08
   5.23899984        -1.86034104E-08
   5.37200022        -1.92315976E-08
   5.50500011        -1.98792556E-08
   5.63800001        -2.05464730E-08
   5.77099991        -2.12330846E-08
   5.90399981        -2.19386660E-08
   6.03700018        -2.26625723E-08
   6.17000008        -2.34039437E-08
   6.30299997        -2.41617713E-08
   6.43599987        -2.49349252E-08
   6.56899977        -2.57222101E-08
   6.70200014        -2.65224198E-08
   6.83500004        -2.73343712E-08
   6.96799994        -2.81569346E-08
   7.10099983        -2.89890618E-08
   7.23400021        -2.98297849E-08
   7.36700010        -3.06782191E-08
   7.50000000        -3.15335349E-08
   7.63299990        -3.23949401E-08
   7.76599979        -3.32616281E-08
   7.89900017        -3.41327571E-08
   8.03199959        -3.50074068E-08
   8.16499996        -3.58845291E-08
   8.29800034        -3.67629411E-08
   8.43099976        -3.76412963E-08
   8.56400013        -3.85180741E-08
   8.69699955        -3.93916011E-08
   8.82999992        -4.02600477E-08
   8.96300030        -4.11214778E-08
   9.09599972        -4.19738733E-08
   9.22900009        -4.28151665E-08
   9.36200047        -4.36433147E-08
   9.49499989        -4.44563213E-08
   9.62800026        -4.52522890E-08
   9.76099968        -4.60294167E-08
   9.89400005        -4.67860595E-08
   10.0270004        -4.75207145E-08
   10.1599998        -4.82320246E-08
   10.2930002        -4.89187357E-08
   10.4259996        -4.95796897E-08
   10.5590000        -5.02137887E-08
   10.6920004        -5.08199314E-08
   10.8249998        -5.13969987E-08
   10.9580002        -5.19437648E-08
   11.0909996        -5.24588977E-08
   11.2240000        -5.29409370E-08
   11.3570004        -5.33881952E-08
   11.4899998        -5.37988250E-08
   11.6230001        -5.41707585E-08
   11.7559996        -5.45017755E-08
   11.8889999        -5.47894459E-08
   12.0220003        -5.50312222E-08
   12.1549997        -5.52244046E-08
   12.2880001        -5.53662112E-08
   12.4209995        -5.54537465E-08
   12.5539999        -5.54841009E-08
   12.6870003        -5.54542900E-08
   12.8199997        -5.53612693E-08
   12.9530001        -5.52019372E-08
   13.0860004        -5.49731070E-08
   13.2189999        -5.46715384E-08
   13.3520002        -5.42938778E-08
   13.4849997        -5.38365867E-08
   13.6180000        -5.32960236E-08
   13.7510004        -5.26683372E-08
   13.8839998        -5.19495167E-08
   14.0170002        -5.11353448E-08
   14.1499996        -5.02214412E-08
   14.2830000        -4.92032548E-08
   14.4160004        -4.80760853E-08
   14.5489998        -4.68351189E-08
   14.6820002        -4.54754563E-08
   14.8149996        -4.39921202E-08
   14.9480000        -4.23801509E-08
   15.0810003        -4.06345606E-08
   15.2139997        -3.87504286E-08
   15.3470001        -3.67228878E-08
   15.4799995        -3.45471634E-08
   15.6129999        -3.22185585E-08
   15.7460003        -2.97325080E-08
   15.8789997        -2.70845817E-08
   16.0119991        -2.42704594E-08
   16.1450005        -2.12859810E-08
   16.2779999        -1.81271105E-08
   16.4109993        -1.47899222E-08
   16.5440006        -1.12706440E-08
   16.6770000        -7.56569474E-09
   16.8099995        -3.67161523E-09
   16.9430008         4.14866114E-10
   17.0760002         4.69692418E-09
   17.2089996         9.17751475E-09
   17.3419991         1.38594203E-08
   17.4750004         1.87452969E-08
   17.6079998         2.38375808E-08
   17.7409992         2.91385422E-08
   17.8740005         3.46502738E-08
   18.0070000         4.03746654E-08
   18.1399994         4.63134633E-08
   18.2730007         5.24682413E-08
   18.4060001         5.88404099E-08
   18.5389996         6.54312231E-08
   18.6720009         7.22418392E-08
   18.8050003         7.92732706E-08
   18.9379997         8.65265264E-08
   19.0709991         9.40024734E-08
   19.2040005         1.01702113E-07
   19.3369999         1.09626356E-07
   19.4699993         1.17776253E-07
   19.6030006         1.26152926E-07
   19.7360001         1.34757613E-07
   19.8689995         1.43591720E-07
   20.0020008         1.52656639E-07
   20.1350002         1.61954006E-07
   20.2679996         1.71485411E-07
   20.4009991         1.81252517E-07
   20.5340004         1.91256817E-07
   20.6669998         2.01499716E-07
   20.7999992         2.11982339E-07
   20.9330006         2.22705481E-07
   21.0660000         2.33669439E-07
   21.1989994         2.44874144E-07
   21.3320007         2.56318884E-07
   21.4650002         2.68002424E-07
   21.5979996         2.79922858E-07
   21.7310009         2.92077772E-07
   21.8640003         3.04464237E-07
   21.9969997         3.17078843E-07
   22.1299992         3.29917725E-07
   22.2630005         3.42976705E-07
   22.3959999         3.56251320E-07
   22.5289993         3.69736995E-07
   22.6620007         3.83428841E-07
   22.7950001         3.97321884E-07
   22.9279995         4.11411008E-07
   23.0610008         4.25690672E-07
   23.1940002         4.40155247E-07
   23.3269997         4.54798538E-07
   23.4599991         4.69613894E-07
   23.5930004         4.84593954E-07
   23.7259998         4.99730788E-07
   23.8589993         5.15015472E-07
   23.9920006         5.30438228E-07
   24.1250000         5.45988485E-07
   24.2579994         5.61654701E-07
   24.3910007         5.77424601E-07
   24.5240002         5.93285222E-07
   24.6569996         6.09222866E-07
   24.7900009         6.25223606E-07
   24.9230003         6.41273004E-07
   25.0559998         6.57356736E-07
   25.1889992         6.73460363E-07
   25.3220005         6.89569561E-07
   25.4549999         7.05670232E-07
   25.5879993         7.21748506E-07
   25.7210007         7.37790685E-07
   25.8540001         7.53783183E-07
   25.9869995         7.69712642E-07
   26.1200008         7.85565419E-07
   26.2530003         8.01327815E-07
   26.3859997         8.16985960E-07
   26.5189991         8.32525416E-07
   26.6520004         8.47931290E-07
   26.7849998         8.63188234E-07
   26.9179993         8.78280218E-07
   27.0510006         8.93190816E-07
   27.1840000         9.07903086E-07
   27.3169994         9.22399636E-07
   27.4500008         9.36662730E-07
   27.5830002         9.50674632E-07
   27.7159996         9.64417495E-07
   27.8490009         9.77873242E-07
   27.9820004         9.91024308E-07
   28.1149998         1.00385296E-06
   28.2479992         1.01634168E-06
   28.3810005         1.02847332E-06
   28.5139999         1.04023047E-06
   28.6469994         1.05159597E-06
   28.7800007         1.06255277E-06
   28.9130001         1.07308335E-06
   29.0459995         1.08317022E-06
   29.1790009         1.09279586E-06
   29.3120003         1.10194196E-06
   29.4449997         1.11059035E-06
   29.5779991         1.11872271E-06
   29.7110004         1.12632017E-06
   29.8439999         1.13336398E-06
   29.9769993         1.13983538E-06
   30.1100006         1.14571583E-06
   30.2430000         1.15098680E-06
   30.3759995         1.15563012E-06
   30.5090008         1.15962803E-06
   30.6420002         1.16296314E-06
   30.7749996         1.16561864E-06
   30.9080009         1.16757815E-06
   31.0410004         1.16882563E-06
   31.1739998         1.16934575E-06
   31.3069992         1.16912327E-06
   31.4400005         1.16814340E-06
   31.5730000         1.16639171E-06
   31.7059994         1.16385388E-06
   31.8390007         1.16051604E-06
   31.9720001         1.15636419E-06
   32.1049995         1.15138505E-06
   32.2379990         1.14556542E-06
   32.3709984         1.13889246E-06
   32.5040016         1.13135388E-06
   32.6370010         1.12293799E-06
   32.7700005         1.11363386E-06
   32.9029999         1.10343126E-06
   33.0359993         1.09232064E-06
   33.1689987         1.08029383E-06
   33.3019981         1.06734319E-06
   33.4350014         1.05346226E-06
   33.5680008         1.03864579E-06
   33.7010002         1.02288925E-06
   33.8339996         1.00618900E-06
   33.9669991         9.88542638E-07
   34.0999985         9.69948019E-07
   34.2330017         9.50403944E-07
   34.3660011         9.29910016E-07
   34.4990005         9.08466120E-07
   34.6320000         8.86072939E-07
   34.7649994         8.62731270E-07
   34.8979988         8.38442702E-07
   35.0309982         8.13209169E-07
   35.1640015         7.87033343E-07
   35.2970009         7.59918294E-07
   35.4300003         7.31867715E-07
   35.5629997         7.02886325E-07
   35.6959991         6.72979354E-07
   35.8289986         6.42153225E-07
   35.9620018         6.10415157E-07
   36.0950012         5.77773676E-07
   36.2280006         5.44238276E-07
   36.3610001         5.09819699E-07
   36.4939995         4.74529486E-07
   36.6269989         4.38380596E-07
   36.7599983         4.01386870E-07
   36.8930016         3.63563146E-07
   37.0260010         3.24925082E-07
   37.1590004         2.85489108E-07
   37.2919998         2.45272275E-07
   37.4249992         2.04292192E-07
   37.5579987         1.62566778E-07
   37.6910019         1.20114507E-07
   37.8240013         7.69540449E-08
   37.9570007         3.31045129E-08
   38.0900002        -1.14147793E-08
   38.2229996        -5.65842306E-08
   38.3559990        -1.02383758E-07
   38.4889984        -1.48793120E-07
   38.6220016        -1.95791316E-07
   38.7550011        -2.43356993E-07
   38.8880005        -2.91468069E-07
   39.0209999        -3.40101934E-07
   39.1539993        -3.89235225E-07
   39.2869987        -4.38844097E-07
   39.4199982        -4.88903879E-07
   39.5530014        -5.39389362E-07
   39.6860008        -5.90274908E-07
   39.8190002        -6.41534598E-07
   39.9519997        -6.93141999E-07
   40.0849991        -7.45070622E-07
   40.2179985        -7.97293978E-07
   40.3510017        -8.49785465E-07
   40.4840012        -9.02518764E-07
   40.6170006        -9.55467613E-07
   40.7500000        -1.00860575E-06
   40.8829994        -1.06190748E-06
   41.0159988        -1.11534678E-06
   41.1489983        -1.16889794E-06
   41.2820015        -1.22253516E-06
   41.4150009        -1.27623287E-06
   41.5480003        -1.32996502E-06
   41.6809998        -1.38370569E-06
   41.8139992        -1.43742864E-06
   41.9469986        -1.49110735E-06
   42.0800018        -1.54471525E-06
   42.2130013        -1.59822548E-06
   42.3460007        -1.65161134E-06
   42.4790001        -1.70484645E-06
   42.6119995        -1.75790399E-06
   42.7449989        -1.81075814E-06
   42.8779984        -1.86338320E-06
   43.0110016        -1.91575418E-06
   43.1440010        -1.96784663E-06
   43.2770004        -2.01963735E-06
   43.4099998        -2.07110293E-06
   43.5429993        -2.12222176E-06
   43.6759987        -2.17297224E-06
   43.8089981        -2.22333460E-06
   43.9420013        -2.27328815E-06
   44.0750008        -2.32281423E-06
   44.2080002        -2.37189397E-06
   44.3409996        -2.42050874E-06
   44.4739990        -2.46864079E-06
   44.6069984        -2.51627216E-06
   44.7400017        -2.56338490E-06
   44.8730011        -2.60996217E-06
   45.0060005        -2.65598692E-06
   45.1389999        -2.70144210E-06
   45.2719994        -2.74631179E-06
   45.4049988        -2.79058008E-06
   45.5379982        -2.83423242E-06
   45.6710014        -2.87725425E-06
   45.8040009        -2.91963261E-06
   45.9370003        -2.96135454E-06
   46.0699997        -3.00240913E-06
   46.2029991        -3.04278569E-06
   46.3359985        -3.08247536E-06
   46.4690018        -3.12146881E-06
   46.6020012        -3.15975876E-06
   46.7350006        -3.19733840E-06
   46.8680000        -3.23420068E-06
   47.0009995        -3.27033945E-06
   47.1339989        -3.30574926E-06
   47.2669983        -3.34042420E-06
   47.4000015        -3.37435858E-06
   47.5330009        -3.40754673E-06
   47.6660004        -3.43998295E-06
   47.7989998        -3.47166156E-06
   47.9319992        -3.50257687E-06
   48.0649986        -3.53272412E-06
   48.1980019        -3.56209807E-06
   48.3310013        -3.59069463E-06
   48.4640007        -3.61851016E-06
   48.5970001        -3.64554171E-06
   48.7299995        -3.67178814E-06
   48.8629990        -3.69724899E-06
   48.9959984        -3.72192426E-06
   49.1290016        -3.74581577E-06
   49.2620010        -3.76892649E-06
   49.3950005        -3.79125936E-06
   49.5279999        -3.81281893E-06
   49.6609993        -3.83360930E-06
   49.7939987        -3.85363546E-06
   49.9269981        -3.87290220E-06
   50.0600014        -3.89141405E-06
   50.1930008        -3.90917558E-06
   50.3260002        -3.92619040E-06
   50.4589996        -3.94246172E-06
   50.5919991        -3.95799316E-06
   50.7249985        -3.97278700E-06
   50.8580017        -3.98684597E-06
   50.9910011        -4.00017234E-06
   51.1240005        -4.01276884E-06
   51.2570000        -4.02463866E-06
   51.3899994        -4.03578542E-06
   51.5229988        -4.04621323E-06
   51.6559982        -4.05592664E-06
   51.7890015        -4.06493155E-06
   51.9220009        -4.07323432E-06
   52.0550003        -4.08084179E-06
   52.1879997        -4.08776077E-06
   52.3209991        -4.09399991E-06
   52.4539986        -4.09956601E-06
   52.5870018        -4.10446683E-06
   52.7200012        -4.10870962E-06
   52.8530006        -4.11229985E-06
   52.9860001        -4.11524343E-06
   53.1189995        -4.11754581E-06
   53.2519989        -4.11920973E-06
   53.3849983        -4.12023837E-06
   53.5180016        -4.12063491E-06
   53.6510010        -4.12040026E-06
   53.7840004        -4.11953624E-06
   53.9169998        -4.11804422E-06
   54.0499992        -4.11592509E-06
   54.1829987        -4.11318160E-06
   54.3160019        -4.10981465E-06
   54.4490013        -4.10582697E-06
   54.5820007        -4.10122175E-06
   54.7150002        -4.09600125E-06
   54.8479996        -4.09016957E-06
   54.9809990        -4.08372898E-06
   55.1139984        -4.07668313E-06
   55.2470016        -4.06903473E-06
   55.3800011        -4.06078470E-06
   55.5130005        -4.05193487E-06
   55.6459999        -4.04248476E-06
   55.7789993        -4.03243257E-06
   55.9119987        -4.02177648E-06
   56.0449982        -4.01051147E-06
   56.1780014        -3.99863347E-06
   56.3110008        -3.98613520E-06
   56.4440002        -3.97301073E-06
   56.5769997        -3.95925190E-06
   56.7099991        -3.94485050E-06
   56.8429985        -3.92979882E-06
   56.9760017        -3.91408821E-06
   57.1090012        -3.89771049E-06
   57.2420006        -3.88065700E-06
   57.3750000        -3.86292004E-06
   57.5079994        -3.84449186E-06
   57.6409988        -3.82536336E-06
   57.7739983        -3.80552660E-06
   57.9070015        -3.78497248E-06
   58.0400009        -3.76369189E-06
   58.1730003        -3.74167416E-06
   58.3059998        -3.71890769E-06
   58.4389992        -3.69538020E-06
   58.5719986        -3.67107714E-06
   58.7050018        -3.64598395E-06
   58.8380013        -3.62008427E-06
   58.9710007        -3.59335991E-06
   59.1040001        -3.56579221E-06
   59.2369995        -3.53736186E-06
   59.3699989        -3.50804862E-06
   59.5029984        -3.47783157E-06
   59.6360016        -3.44668933E-06
   59.7690010        -3.41460077E-06
   59.9020004        -3.38154405E-06
   60.0349998        -3.34749780E-06
   60.1679993        -3.31244019E-06
   60.3009987        -3.27634984E-06
   60.4339981        -3.23920472E-06
   60.5670013        -3.20098320E-06
   60.7000008        -3.16166256E-06
   60.8330002        -3.12121983E-06
   60.9659996        -3.07963137E-06
   61.0989990        -3.03687330E-06
   61.2319984        -2.99292014E-06
   61.3650017        -2.94774645E-06
   61.4980011        -2.90132539E-06
   61.6310005        -2.85363012E-06
   61.7639999        -2.80463246E-06
   61.8969994        -2.75430375E-06
   62.0299988        -2.70261603E-06
   62.1629982        -2.64954019E-06
   62.2960014        -2.59504827E-06
   62.4290009        -2.53911162E-06
   62.5620003        -2.48170272E-06
   62.6949997        -2.42279452E-06
   62.8279991        -2.36236065E-06
   62.9609985        -2.30037517E-06
   63.0940018        -2.23681354E-06
   63.2270012        -2.17165098E-06
   63.3600006        -2.10486382E-06
   63.4930000        -2.03642935E-06
   63.6259995        -1.96632413E-06
   63.7589989        -1.89452589E-06
   63.8919983        -1.82101212E-06
   64.0250015        -1.74576121E-06
   64.1579971        -1.66875100E-06
   64.2910004        -1.58995965E-06
   64.4240036        -1.50936580E-06
   64.5569992        -1.42694842E-06
   64.6900024        -1.34268737E-06
   64.8229980        -1.25656288E-06
   64.9560013        -1.16855631E-06
   65.0889969        -1.07865014E-06
   65.2220001        -9.86827899E-07
   65.3550034        -8.93074969E-07
   65.4879990        -7.97377652E-07
   65.6210022        -6.99724410E-07
   65.7539978        -6.00104613E-07
   65.8870010        -4.98510246E-07
   66.0199966        -3.94933892E-07
   66.1529999        -2.89369524E-07
   66.2860031        -1.81812723E-07
   66.4189987        -7.22604838E-08
   66.5520020         3.92898656E-08
   66.6849976         1.52840258E-07
   66.8180008         2.68390750E-07
   66.9509964         3.85941149E-07
   67.0839996         5.05491073E-07
   67.2170029         6.27037821E-07
   67.3499985         7.50579034E-07
   67.4830017         8.76110732E-07
   67.6159973         1.00362729E-06
   67.7490005         1.13312183E-06
   67.8820038         1.26458576E-06
   68.0149994         1.39800898E-06
   68.1480026         1.53337771E-06
   68.2809982         1.67067833E-06
   68.4140015         1.80989355E-06
   68.5469971         1.95100461E-06
   68.6800003         2.09398968E-06
   68.8130035         2.23882466E-06
   68.9459991         2.38548500E-06
   69.0790024         2.53394251E-06
   69.2119980         2.68416784E-06
   69.3450012         2.83612985E-06
   69.4779968         2.98979580E-06
   69.6110001         3.14513136E-06
   69.7440033         3.30210037E-06
   69.8769989         3.46066599E-06
   70.0100021         3.62078845E-06
   70.1429977         3.78242726E-06
   70.2760010         3.94553990E-06
   70.4089966         4.11008159E-06
   70.5419998         4.27600571E-06
   70.6750031         4.44326361E-06
   70.8079987         4.61180343E-06
   70.9410019         4.78157153E-06
   71.0739975         4.95251243E-06
   71.2070007         5.12456700E-06
   71.3399963         5.29767476E-06
   71.4729996         5.47177297E-06
   71.6060028         5.64679658E-06
   71.7389984         5.82267921E-06
   71.8720016         5.99935311E-06
   72.0049973         6.17674823E-06
   72.1380005         6.35479455E-06
   72.2710037         6.53342022E-06
   72.4039993         6.71255339E-06
   72.5370026         6.89212129E-06
   72.6699982         7.07204981E-06
   72.8030014         7.25226528E-06
   72.9359970         7.43269129E-06
   73.0690002         7.61325236E-06
   73.2020035         7.79387119E-06
   73.3349991         7.97446774E-06
   73.4680023         8.15496333E-06
   73.6009979         8.33527520E-06
   73.7340012         8.51531968E-06
   73.8669968         8.69501309E-06
   74.0000000         8.87426722E-06
   74.1330032         9.05299385E-06
   74.2659988         9.23110474E-06
   74.3990021         9.40850714E-06
   74.5319977         9.58511191E-06
   74.6650009         9.76082447E-06
   74.7979965         9.93555204E-06
   74.9309998         1.01092037E-05
   75.0640030         1.02816839E-05
   75.1969986         1.04529017E-05
   75.3300018         1.06227626E-05
   75.4629974         1.07911765E-05
   75.5960007         1.09580487E-05
   75.7289963         1.11232894E-05
   75.8619995         1.12868047E-05
   75.9950027         1.14485047E-05
   76.1279984         1.16082965E-05
   76.2610016         1.17660884E-05
   76.3939972         1.19217875E-05
   76.5270004         1.20753020E-05
   76.6600037         1.22265383E-05
   76.7929993         1.23754035E-05
   76.9260025         1.25218030E-05
   77.0589981         1.26656450E-05
   77.1920013         1.28068350E-05
   77.3249969         1.29452819E-05
   77.4580002         1.30808921E-05
   77.5910034         1.32135756E-05
   77.7239990         1.33432395E-05
   77.8570023         1.34697975E-05
   77.9899979         1.35931596E-05
   78.1230011         1.37132420E-05
   78.2559967         1.38299592E-05
   78.3889999         1.39432286E-05
   78.5220032         1.40529692E-05
   78.6549988         1.41591008E-05
   78.7880020         1.42615445E-05
   78.9209976         1.43602228E-05
   79.0540009         1.44550613E-05
   79.1869965         1.45459826E-05
   79.3199997         1.46329130E-05
   79.4530029         1.47157807E-05
   79.5859985         1.47945120E-05
   79.7190018         1.48690369E-05
   79.8519974         1.49392845E-05
   79.9850006         1.50051874E-05
   80.1179962         1.50666774E-05
   80.2509995         1.51236909E-05
   80.3840027         1.51761651E-05
   80.5169983         1.52240391E-05
   80.6500015         1.52672565E-05
   80.7829971         1.53057626E-05
   80.9160004         1.53395049E-05
   81.0490036         1.53684341E-05
   81.1819992         1.53925066E-05
   81.3150024         1.54116769E-05
   81.4479980         1.54259069E-05
   81.5810013         1.54351583E-05
   81.7139969         1.54393965E-05
   81.8470001         1.54385889E-05
   81.9800034         1.54327026E-05
   82.1129990         1.54217123E-05
   82.2460022         1.54055888E-05
   82.3789978         1.53843084E-05
   82.5120010         1.53578458E-05
   82.6449966         1.53261790E-05
   82.7779999         1.52892899E-05
   82.9110031         1.52471594E-05
   83.0439987         1.51997738E-05
   83.1770020         1.51471213E-05