  -1.50000000         3.90237385E-18
  -1.38125002        -1.20089028E-09
  -1.26250005        -5.54457680E-09
  -1.14374995        -1.75747399E-08
  -1.02499998        -4.71974175E-08
 -0.906250000        -1.14466040E-07
 -0.787500024        -2.57011493E-07
 -0.668749988        -5.40215638E-07
 -0.550000012        -1.06912955E-06
 -0.431250006        -1.99959936E-06
 -0.312500000        -3.54462668E-06
 -0.193749994        -5.97152666E-06
  -7.50000030E-02    -9.58678902E-06
   4.37499993E-02    -1.47088485E-05
  0.162499994        -2.16334702E-05
  0.281250000        -3.06003967E-05
  0.400000006        -4.17716292E-05
  0.518750012        -5.52301062E-05
  0.637499988        -7.10033273E-05
  0.756250024        -8.91107411E-05
  0.875000000        -1.09628614E-04
  0.993749976        -1.32762550E-04
   1.11249995        -1.58916548E-04
   1.23125005        -1.88747130E-04
   1.35000002        -2.23192867E-04
   1.46875000        -2.63470894E-04
   1.58749998        -3.11035139E-04
   1.70624995        -3.67493805E-04
   1.82500005        -4.34488407E-04
   1.94375002        -5.13540232E-04
   2.06250000        -6.05875975E-04
   2.18125010        -7.12247042E-04
   2.29999995        -8.32760765E-04
   2.41875005        -9.66743042E-04
   2.53749990        -1.11264980E-03
   2.65625000        -1.26804342E-03
   2.77500010        -1.42964325E-03
   2.89374995        -1.59345521E-03
   3.01250005        -1.75497402E-03
   3.13124990        -1.90944702E-03
   3.25000000        -2.05217930E-03
   3.36875010        -2.17885477E-03
   3.48749995        -2.28584185E-03
   3.60625005        -2.37045786E-03
   3.72499990        -2.43116193E-03
   3.84375000        -2.46765651E-03
   3.96250010        -2.48088920E-03
   4.08125019        -2.47294782E-03
   4.19999981        -2.44686310E-03
   4.31874990        -2.40633637E-03
   4.43750000        -2.35541863E-03
   4.55625010        -2.29817606E-03
   4.67500019        -2.23837001E-03
   4.79374981        -2.17918656E-03
   4.91249990        -2.12303805E-03
   5.03125000        -2.07145233E-03
   5.15000010        -2.02505896E-03
   5.26875019        -1.98366446E-03
   5.38749981        -1.94640737E-03
   5.50624990        -1.91196951E-03
   5.62500000        -1.87881931E-03
   5.74375010        -1.84545736E-03
   5.86250019        -1.81063765E-03
   5.98124981        -1.77354307E-03
   6.09999990        -1.73389597E-03
   6.21875000        -1.69199752E-03
   6.33750010        -1.64869428E-03
   6.45625019        -1.60528184E-03
   6.57499981        -1.56335928E-03
   6.69374990        -1.52465363E-03
   6.81250000        -1.49083766E-03
   6.93125010        -1.46335841E-03
   7.05000019        -1.44329772E-03
   7.16874981        -1.43127469E-03
   7.28749990        -1.42739888E-03
   7.40625000        -1.43127434E-03
   7.52500010        -1.44205033E-03
   7.64375019        -1.45850936E-03
   7.76249981        -1.47918158E-03
   7.88124990        -1.50247128E-03
   8.00000000        -1.52678299E-03
   8.11874962        -1.55063742E-03
   8.23750019        -1.57276669E-03
   8.35624981        -1.59218418E-03
   8.47500038        -1.60822493E-03
   8.59375000        -1.62055623E-03
   8.71249962        -1.62916223E-03
   8.83125019        -1.63430080E-03
   8.94999981        -1.63644308E-03
   9.06875038        -1.63619802E-03
   9.18750000        -1.63422769E-03
   9.30624962        -1.63116318E-03
   9.42500019        -1.62752287E-03
   9.54374981        -1.62364612E-03
   9.66250038        -1.61964120E-03
   9.78125000        -1.61535828E-03
   9.89999962        -1.61038793E-03
   10.0187502        -1.60408951E-03
   10.1374998        -1.59564824E-03
   10.2562504        -1.58415909E-03
   10.3750000        -1.56873278E-03
   10.4937496        -1.54861633E-03
   10.6125002        -1.52331742E-03
   10.7312498        -1.49272056E-03
   10.8500004        -1.45718083E-03
   10.9687500        -1.41758239E-03
   11.0874996        -1.37534959E-03
   11.2062502        -1.33240432E-03
   11.3249998        -1.29106524E-03
   11.4437504        -1.25389418E-03
   11.5625000        -1.22349837E-03
   11.6812496        -1.20230578E-03
   11.8000002        -1.19233364E-03
   11.9187498        -1.19497324E-03
   12.0375004        -1.21081620E-03
   12.1562500        -1.23953831E-03
   12.2749996        -1.27986155E-03
   12.3937502        -1.32959930E-03
   12.5124998        -1.38578657E-03
   12.6312504        -1.44488539E-03
   12.7500000        -1.50304893E-03
   12.8687496        -1.55642361E-03
   12.9875002        -1.60145701E-03
   13.1062498        -1.63518719E-03
   13.2250004        -1.65548315E-03
   13.3437500        -1.66121358E-03
   13.4624996        -1.65232888E-03
   13.5812502        -1.62984768E-03
   13.6999998        -1.59575068E-03
   13.8187504        -1.55279459E-03
   13.9375000        -1.50426291E-03
   14.0562496        -1.45368185E-03
   14.1750002        -1.40452897E-03
   14.2937498        -1.35996076E-03
   14.4125004        -1.32258935E-03
   14.5312500        -1.29431998E-03
   14.6499996        -1.27626839E-03
   14.7687502        -1.26875425E-03
   14.8874998        -1.27136859E-03
   15.0062504        -1.28310081E-03
   15.1250000        -1.30250608E-03
   15.2437496        -1.32789265E-03
   15.3625002        -1.35750696E-03
   15.4812498        -1.38969591E-03
   15.6000004        -1.42303284E-03
   15.7187500        -1.45639631E-03
   15.8374996        -1.48899737E-03
   15.9562502        -1.52035942E-03
   16.0750008        -1.55025721E-03
   16.1937504        -1.57862715E-03
   16.3125000        -1.60546240E-03
   16.4312496        -1.63070997E-03
   16.5499992        -1.65418105E-03
   16.6687508        -1.67548982E-03
   16.7875004        -1.69402640E-03
   16.9062500        -1.70896866E-03
   17.0249996        -1.71933242E-03
   17.1437492        -1.72405457E-03
   17.2625008        -1.72210101E-03
   17.3812504        -1.71258661E-03
   17.5000000        -1.69489684E-03
   17.6187496        -1.66879839E-03
   17.7374992        -1.63452688E-03
   17.8562508        -1.59284391E-03
   17.9750004        -1.54505728E-03
   18.0937500        -1.49299996E-03
   18.2124996        -1.43896835E-03
   18.3312492        -1.38562080E-03
   18.4500008        -1.33584207E-03
   18.5687504        -1.29258051E-03
   18.6875000        -1.25866756E-03
   18.8062496        -1.23663119E-03
   18.9249992        -1.22851576E-03
   19.0437508        -1.23572175E-03
   19.1625004        -1.25887920E-03
   19.2812500        -1.29776495E-03
   19.3999996        -1.35127536E-03
   19.5187492        -1.41745759E-03
   19.6375008        -1.49360194E-03
   19.7562504        -1.57639163E-03
   19.8750000        -1.66210183E-03
   19.9937496        -1.74683367E-03
   20.1124992        -1.82676793E-03
   20.2312508        -1.89841900E-03
   20.3500004        -1.95886800E-03
   20.4687500        -2.00595614E-03
   20.5874996        -2.03842297E-03
   20.7062492        -2.05597328E-03
   20.8250008        -2.05926993E-03
   20.9437504        -2.04985030E-03
   21.0625000        -2.02997075E-03
   21.1812496        -2.00239872E-03
   21.2999992        -1.97016238E-03
   21.4187508        -1.93629088E-03
   21.5375004        -1.90355827E-03
   21.6562500        -1.87426549E-03
   21.7749996        -1.85007323E-03
   21.8937492        -1.83190429E-03
   22.0125008        -1.81992305E-03
   22.1312504        -1.81358994E-03
   22.2500000        -1.81178492E-03
   22.3687496        -1.81298505E-03
   22.4874992        -1.81547296E-03
   22.6062508        -1.81755517E-03
   22.7250004        -1.81776693E-03
   22.8437500        -1.81503932E-03
   22.9624996        -1.80881540E-03
   23.0812492        -1.79910148E-03
   23.2000008        -1.78645179E-03
   23.3187504        -1.77188939E-03
   23.4375000        -1.75677484E-03
   23.5562496        -1.74263585E-03
   23.6749992        -1.73098117E-03
   23.7937508        -1.72311685E-03
   23.9125004        -1.71998737E-03
   24.0312500        -1.72205688E-03
   24.1499996        -1.72924704E-03
   24.2687492        -1.74093386E-03
   24.3875008        -1.75600604E-03
   24.5062504        -1.77297636E-03
   24.6250000        -1.79013424E-03
   24.7437496        -1.80571922E-03
   24.8624992        -1.81810081E-03
   24.9812508        -1.82594045E-03
   25.1000004        -1.82832230E-03
   25.2187500        -1.82483683E-03
   25.3374996        -1.81561196E-03
   25.4562492        -1.80128845E-03
   25.5750008        -1.78294326E-03
   25.6937504        -1.76196895E-03
   25.8125000        -1.73992454E-03
   25.9312496        -1.71836978E-03
   26.0499992        -1.69870188E-03
   26.1687508        -1.68201036E-03
   26.2875004        -1.66896370E-03
   26.4062500        -1.65973965E-03
   26.5249996        -1.65400526E-03
   26.6437492        -1.65095052E-03
   26.7625008        -1.64936983E-03
   26.8812504        -1.64778694E-03
   27.0000000        -1.64460938E-03
   27.1187496        -1.63830037E-03
   27.2374992        -1.62754918E-03
   27.3562508        -1.61142810E-03
   27.4750004        -1.58951734E-03
   27.5937500        -1.56198838E-03
   27.7124996        -1.52963691E-03
   27.8312492        -1.49385969E-03
   27.9500008        -1.45657849E-03
   28.0687504        -1.42011314E-03
   28.1875000        -1.38701499E-03
   28.3062496        -1.35987159E-03
   28.4249992        -1.34109915E-03
   28.5437508        -1.33273809E-03
   28.6625004        -1.33626757E-03
   28.7812500        -1.35245698E-03
   28.8999996        -1.38126442E-03
   29.0187492        -1.42179453E-03
   29.1375008        -1.47232041E-03
   29.2562504        -1.53037056E-03
   29.3750000        -1.59287534E-03
   29.4937496        -1.65636372E-03
   29.6124992        -1.71719561E-03
   29.7312508        -1.77181163E-03
   29.8500004        -1.81698101E-03
   29.9687500        -1.85002573E-03
   30.0874996        -1.86900527E-03
   30.2062492        -1.87284558E-03
   30.3250008        -1.86140172E-03
   30.4437504        -1.83545146E-03
   30.5625000        -1.79661927E-03
   30.6812496        -1.74723973E-03
   30.7999992        -1.69017143E-03
   30.9187508        -1.62857852E-03
   31.0375004        -1.56569877E-03
   31.1562500        -1.50461786E-03
   31.2749996        -1.44806935E-03
   31.3937492        -1.39827747E-03
   31.5125008        -1.35685422E-03
   31.6312504        -1.32475642E-03
   31.7500000        -1.30230642E-03
   31.8687496        -1.28926698E-03
   31.9874992        -1.28496008E-03
   32.1062508        -1.28841354E-03
   32.2249985        -1.29851792E-03
   32.3437500        -1.31417252E-03
   32.4625015        -1.33440527E-03
   32.5812492        -1.35845388E-03
   32.7000008        -1.38579763E-03
   32.8187485        -1.41614140E-03
   32.9375000        -1.44935190E-03
   33.0562515        -1.48535939E-03
   33.1749992        -1.52403675E-03
   33.2937508        -1.56507397E-03
   33.4124985        -1.60786463E-03
   33.5312500        -1.65142200E-03
   33.6500015        -1.69433875E-03
   33.7687492        -1.73479936E-03
   33.8875008        -1.77064771E-03
   34.0062485        -1.79950963E-03
   34.1250000        -1.81895809E-03
   34.2437515        -1.82670960E-03
   34.3624992        -1.82083261E-03
   34.4812508        -1.79994595E-03
   34.5999985        -1.76338863E-03
   34.7187500        -1.71134109E-03
   34.8375015        -1.64488424E-03
   34.9562492        -1.56598771E-03
   35.0750008        -1.47742534E-03
   35.1937485        -1.38262229E-03
   35.3125000        -1.28544727E-03
   35.4312515        -1.18996343E-03
   35.5499992        -1.10016391E-03
   35.6687508        -1.01970753E-03
   35.7874985        -9.51682043E-04
   35.9062500        -8.98410159E-04
   36.0250015        -8.61315173E-04
   36.1437492        -8.40855122E-04
   36.2625008        -8.36529187E-04
   36.3812485        -8.46954295E-04
   36.5000000        -8.70003656E-04
   36.6187515        -9.02995351E-04
   36.7374992        -9.42913466E-04
   36.8562508        -9.86644416E-04
   36.9749985        -1.03120808E-03
   37.0937500        -1.07396662E-03
   37.2125015        -1.11279404E-03
   37.3312492        -1.14619604E-03
   37.4500008        -1.17337180E-03
   37.5687485        -1.19421585E-03
   37.6875000        -1.20926404E-03
   37.8062515        -1.21959066E-03
   37.9249992        -1.22666778E-03
   38.0437508        -1.23219960E-03
   38.1624985        -1.23794877E-03
   38.2812500        -1.24556641E-03
   38.4000015        -1.25644170E-03
   38.5187492        -1.27158093E-03
   38.6375008        -1.29152602E-03
   38.7562485        -1.31631829E-03
   38.8750000        -1.34550803E-03
   38.9937515        -1.37820945E-03
   39.1124992        -1.41319539E-03
   39.2312508        -1.44902116E-03
   39.3499985        -1.48416730E-03
   39.4687500        -1.51718617E-03
   39.5875015        -1.54683960E-03
   39.7062492        -1.57221290E-03
   39.8250008        -1.59279467E-03
   39.9437485        -1.60851574E-03
   40.0625000        -1.61974039E-03
   40.1812515        -1.62721460E-03
   40.2999992        -1.63197378E-03
   40.4187508        -1.63522048E-03
   40.5374985        -1.63818512E-03
   40.6562500        -1.64198235E-03
   40.7750015        -1.64748169E-03
   40.8937492        -1.65520248E-03
   41.0125008        -1.66524807E-03
   41.1312485        -1.67728553E-03
   41.2500000        -1.69057539E-03
   41.3687515        -1.70404685E-03
   41.4874992        -1.71641551E-03
   41.6062508        -1.72632758E-03
   41.7249985        -1.73251820E-03
   41.8437500        -1.73396466E-03
   41.9625015        -1.73001841E-03
   42.0812492        -1.72049785E-03
   42.2000008        -1.70573266E-03
   42.3187485        -1.68655068E-03
   42.4375000        -1.66420813E-03
   42.5562515        -1.64026732E-03
   42.6749992        -1.61643652E-03
   42.7937508        -1.59438734E-03
   42.9124985        -1.57556927E-03
   43.0312500        -1.56104297E-03
   43.1500015        -1.55135058E-03
   43.2687492        -1.54643820E-03
   43.3875008        -1.54564076E-03
   43.5062485        -1.54773169E-03
   43.6250000        -1.55103370E-03
   43.7437515        -1.55358179E-03
   43.8624992        -1.55332207E-03
   43.9812508        -1.54832576E-03
   44.0999985        -1.53700146E-03
   44.2187500        -1.51827896E-03
   44.3375015        -1.49175036E-03
   44.4562492        -1.45775161E-03
   44.5750008        -1.41737564E-03
   44.6937485        -1.37241615E-03
   44.8125000        -1.32524571E-03
   44.9312515        -1.27863896E-03
   45.0499992        -1.23555853E-03
   45.1687508        -1.19892170E-03
   45.2874985        -1.17137155E-03
   45.4062500        -1.15506840E-03
   45.5250015        -1.15152274E-03
   45.6437492        -1.16148009E-03
   45.7625008        -1.18486572E-03
   45.8812485        -1.22079276E-03
