  -24.4200001         0.00000000    
  -24.2900009         0.00000000    
  -24.1599998        -1.08001354E-18
  -24.0300007        -1.08542880E-17
  -23.8999996        -5.24602113E-17
  -23.7700005        -1.73631974E-16
  -23.6399994        -4.51909124E-16
  -23.5100002        -9.92898903E-16
  -23.3799992        -1.92053222E-15
  -23.2500000        -3.36090984E-15
  -23.1200008        -5.42391619E-15
  -22.9899998        -8.18839032E-15
  -22.8600006        -1.16969067E-14
  -22.7299995        -1.59646364E-14
  -22.6000004        -2.10038828E-14
  -22.4699993        -2.68621659E-14
  -22.3400002        -3.36678215E-14
  -22.2099991        -4.16747461E-14
  -22.0799999        -5.12965457E-14
  -21.9500008        -6.31217829E-14
  -21.8199997        -7.79049812E-14
  -21.6900005        -9.65321098E-14
  -21.5599995        -1.19964721E-13
  -21.4300003        -1.49170200E-13
  -21.2999992        -1.85048781E-13
  -21.1700001        -2.28368350E-13
  -21.0400009        -2.79716327E-13
  -20.9099998        -3.39475301E-13
  -20.7800007        -4.07824301E-13
  -20.6499996        -4.84764193E-13
  -20.5200005        -5.70162786E-13
  -20.3899994        -6.63813188E-13
  -20.2600002        -7.65499101E-13
  -20.1299992        -8.75063097E-13
  -20.0000000        -9.92473465E-13
  -19.8700008        -1.11788855E-12
  -19.7399998        -1.25171878E-12
  -19.6100006        -1.39468287E-12
  -19.4799995        -1.54785874E-12
  -19.3500004        -1.71272013E-12
  -19.2199993        -1.89115585E-12
  -19.0900002        -2.08546331E-12
  -18.9599991        -2.29830759E-12
  -18.8299999        -2.53264662E-12
  -18.7000008        -2.79162088E-12
  -18.5699997        -3.07841578E-12
  -18.4400005        -3.39611043E-12
  -18.3099995        -3.74752616E-12
  -18.1800003        -4.13509938E-12
  -18.0499992        -4.56078925E-12
  -17.9200001        -5.02604165E-12
  -17.7900009        -5.53180722E-12
  -17.6599998        -6.07862545E-12
  -17.5300007        -6.66675395E-12
  -17.3999996        -7.29633975E-12
  -17.2700005        -7.96761008E-12
  -17.1399994        -8.68106802E-12
  -17.0100002        -9.43766940E-12
  -16.8799992        -1.02389737E-11
  -16.7500000        -1.10872561E-11
  -16.6200008        -1.19855775E-11
  -16.4899998        -1.29378036E-11
  -16.3600006        -1.39485793E-11
  -16.2299995        -1.50232552E-11
  -16.1000004        -1.61677581E-11
  -15.9700003        -1.73884362E-11
  -15.8400002        -1.86918415E-11
  -15.7100000        -2.00845052E-11
  -15.5799999        -2.15726881E-11
  -15.4499998        -2.31621510E-11
  -15.3199997        -2.48579386E-11
  -15.1899996        -2.66642541E-11
  -15.0600004        -2.85844091E-11
  -14.9300003        -3.06208565E-11
  -14.8000002        -3.27753484E-11
  -14.6700001        -3.50492031E-11
  -14.5400000        -3.74435760E-11
  -14.4099998        -3.99598341E-11
  -14.2799997        -4.25998715E-11
  -14.1499996        -4.53663704E-11
  -14.0200005        -4.82630116E-11
  -13.8900003        -5.12945242E-11
  -13.7600002        -5.44666950E-11
  -13.6300001        -5.77862549E-11
  -13.5000000        -6.12607534E-11
  -13.3699999        -6.48983922E-11
  -13.2399998        -6.87079421E-11
  -13.1099997        -7.26987359E-11
  -12.9799995        -7.68806546E-11
  -12.8500004        -8.12642106E-11
  -12.7200003        -8.58606242E-11
  -12.5900002        -9.06818023E-11
  -12.4600000        -9.57401589E-11
  -12.3299999        -1.01048253E-10
  -12.1999998        -1.06618187E-10
  -12.0699997        -1.12460749E-10
  -11.9399996        -1.18584531E-10
  -11.8100004        -1.24994834E-10
  -11.6800003        -1.31692962E-10
  -11.5500002        -1.38675751E-10
  -11.4200001        -1.45935625E-10
  -11.2900000        -1.53461466E-10
  -11.1599998        -1.61240285E-10
  -11.0299997        -1.69259523E-10
  -10.8999996        -1.77510104E-10
  -10.7700005        -1.85989876E-10
  -10.6400003        -1.94706917E-10
  -10.5100002        -2.03682446E-10
  -10.3800001        -2.12952461E-10
  -10.2500000        -2.22568228E-10
  -10.1199999        -2.32594444E-10
  -9.98999977        -2.43105452E-10
  -9.85999966        -2.54179261E-10
  -9.72999954        -2.65889449E-10
  -9.60000038        -2.78296192E-10
  -9.47000027        -2.91436208E-10
  -9.34000015        -3.05314080E-10
  -9.21000004        -3.19894888E-10
  -9.07999992        -3.35100392E-10
  -8.94999981        -3.50809382E-10
  -8.81999969        -3.66863318E-10
  -8.68999958        -3.83077542E-10
  -8.56000042        -3.99257877E-10
  -8.43000031        -4.15222162E-10
  -8.30000019        -4.30824848E-10
  -8.17000008        -4.45982862E-10
  -8.03999996        -4.60700728E-10
  -7.90999985        -4.75091133E-10
  -7.78000021        -4.89389917E-10
  -7.65000010        -5.03961262E-10
  -7.51999998        -5.19292609E-10
  -7.38999987        -5.35977651E-10
  -7.26000023        -5.54687740E-10
  -7.13000011        -5.76132309E-10
  -7.00000000        -6.01011130E-10
  -6.86999989        -6.29961194E-10
  -6.73999977        -6.63502198E-10
  -6.61000013        -7.01986025E-10
  -6.48000002        -7.45553563E-10
  -6.34999990        -7.94104005E-10
  -6.21999979        -8.47280024E-10
  -6.09000015        -9.04471331E-10
  -5.96000004        -9.64837543E-10
  -5.82999992        -1.02734976E-09
  -5.69999981        -1.09084897E-09
  -5.57000017        -1.15411714E-09
  -5.44000006        -1.21595634E-09
  -5.30999994        -1.27526922E-09
  -5.17999983        -1.33113565E-09
  -5.05000019        -1.38287726E-09
  -4.92000008        -1.43010648E-09
  -4.78999996        -1.47275370E-09
  -4.65999985        -1.51106949E-09
  -4.53000021        -1.54560376E-09
  -4.40000010        -1.57715885E-09
  -4.26999998        -1.60672309E-09
  -4.13999987        -1.63538738E-09
  -4.01000023        -1.66425440E-09
  -3.88000011        -1.69434300E-09
  -3.75000000        -1.72650116E-09
  -3.61999989        -1.76133008E-09
  -3.49000001        -1.79912896E-09
  -3.35999990        -1.83986404E-09
  -3.23000002        -1.88316363E-09
  -3.09999990        -1.92834171E-09
  -2.97000003        -1.97444705E-09
  -2.83999991        -2.02033279E-09
  -2.71000004        -2.06474415E-09
  -2.57999992        -2.10641038E-09
  -2.45000005        -2.14414042E-09
  -2.31999993        -2.17690843E-09
  -2.19000006        -2.20392216E-09
  -2.05999994        -2.22467333E-09
  -1.92999995        -2.23895591E-09
  -1.79999995        -2.24685892E-09
  -1.66999996        -2.24873165E-09
  -1.53999996        -2.24511831E-09
  -1.40999997        -2.23667684E-09
  -1.27999997        -2.22408003E-09
  -1.14999998        -2.20791208E-09
  -1.01999998        -2.18856644E-09
 -0.889999986        -2.16615503E-09
 -0.759999990        -2.14043649E-09
 -0.629999995        -2.11076645E-09
 -0.500000000        -2.07607931E-09
 -0.370000005        -2.03489758E-09
 -0.239999995        -1.98537209E-09
 -0.109999999        -1.92534455E-09
   1.99999996E-02    -1.85244076E-09
  0.150000006        -1.76416592E-09
  0.280000001        -1.65801395E-09
  0.409999996        -1.53157509E-09
  0.540000021        -1.38262957E-09
  0.670000017        -1.20922927E-09
  0.800000012        -1.00975450E-09
  0.930000007        -7.82946818E-10
   1.05999994        -5.27915656E-10
   1.19000006        -2.44120058E-10
   1.32000005         6.86767379E-11
   1.45000005         4.10464884E-10
   1.58000004         7.81066767E-10
   1.71000004         1.18020993E-09
   1.84000003         1.60761238E-09
   1.97000003         2.06305395E-09
   2.09999990         2.54643551E-09
   2.23000002         3.05782732E-09
   2.35999990         3.59748942E-09
   2.49000001         4.16588453E-09
   2.61999989         4.76366324E-09
   2.75000000         5.39163425E-09
   2.88000011         6.05072437E-09
   3.00999999         6.74193545E-09
   3.14000010         7.46628537E-09
   3.26999998         8.22477020E-09
   3.40000010         9.01831498E-09
   3.52999997         9.84774928E-09
   3.66000009         1.07137943E-08
   3.78999996         1.16170691E-08
   3.92000008         1.25581145E-08
   4.05000019         1.35374201E-08
   4.17999983         1.45554875E-08
   4.30999994         1.56128888E-08
   4.44000006         1.67103344E-08
   4.57000017         1.78487447E-08
   4.69999981         1.90293203E-08
   4.82999992         2.02535908E-08
   4.96000004         2.15234657E-08
   5.09000015         2.28412613E-08
   5.21999979         2.42097258E-08
   5.34999990         2.56319961E-08
   5.48000002         2.71116001E-08
   5.61000013         2.86523978E-08
   5.73999977         3.02585228E-08
   5.86999989         3.19343059E-08
   6.00000000         3.36841914E-08
   6.13000011         3.55126630E-08
   6.26000023         3.74241651E-08
   6.38999987         3.94230355E-08
   6.51999998         4.15134416E-08
   6.65000010         4.36993304E-08
   6.78000021         4.59844323E-08
   6.90999985         4.83722538E-08
   7.03999996         5.08660598E-08
   7.17000008         5.34689697E-08
   7.30000019         5.61839038E-08
   7.42999983         5.90137468E-08
   7.55999994         6.19613161E-08
   7.69000006         6.50294254E-08
   7.82000017         6.82209702E-08
   7.94999981         7.15388992E-08
   8.07999992         7.49862323E-08
   8.21000004         7.85660959E-08
   8.34000015         8.22815949E-08
   8.47000027         8.61358558E-08
   8.60000038         9.01318913E-08
   8.72999954         9.42725507E-08
   8.85999966         9.85604345E-08
   8.98999977         1.02997824E-07
   9.11999989         1.07586565E-07
   9.25000000         1.12328088E-07
   9.38000011         1.17223273E-07
   9.51000023         1.22272581E-07
   9.64000034         1.27475900E-07
   9.77000046         1.32832810E-07
   9.89999962         1.38342443E-07
   10.0299997         1.44003721E-07
   10.1599998         1.49815435E-07
   10.2900000         1.55776277E-07
   10.4200001         1.61885069E-07
   10.5500002         1.68140758E-07
   10.6800003         1.74542521E-07
   10.8100004         1.81089803E-07
   10.9399996         1.87782291E-07
   11.0699997         1.94619957E-07
   11.1999998         2.01602901E-07
   11.3299999         2.08731336E-07
   11.4600000         2.16005489E-07
   11.5900002         2.23425459E-07
   11.7200003         2.30990963E-07
   11.8500004         2.38701517E-07
   11.9799995         2.46556226E-07
   12.1099997         2.54553498E-07
   12.2399998         2.62691458E-07
   12.3699999         2.70967547E-07
   12.5000000         2.79379037E-07
   12.6300001         2.87922660E-07
   12.7600002         2.96595005E-07
   12.8900003         3.05392632E-07
   13.0200005         3.14312103E-07
   13.1499996         3.23350207E-07
   13.2799997         3.32503987E-07
   13.4099998         3.41770743E-07
   13.5400000         3.51148060E-07
   13.6700001         3.60633891E-07
   13.8000002         3.70226445E-07
   13.9300003         3.79923790E-07
   14.0600004         3.89723994E-07
   14.1899996         3.99624639E-07
   14.3199997         4.09622885E-07
   14.4499998         4.19715008E-07
   14.5799999         4.29896232E-07
   14.7100000         4.40160761E-07
   14.8400002         4.50501346E-07
   14.9700003         4.60909490E-07
   15.1000004         4.71375415E-07
   15.2299995         4.81887980E-07
   15.3599997         4.92434992E-07
   15.4899998         5.03003150E-07
   15.6199999         5.13578470E-07
   15.7500000         5.24146344E-07
   15.8800001         5.34691935E-07
   16.0100002         5.45200294E-07
   16.1399994         5.55656413E-07
   16.2700005         5.66045685E-07
   16.3999996         5.76353557E-07
   16.5300007         5.86565932E-07
   16.6599998         5.96668883E-07
   16.7900009         6.06648655E-07
   16.9200001         6.16491491E-07
   17.0499992         6.26183464E-07
   17.1800003         6.35710137E-07
   17.3099995         6.45056730E-07
   17.4400005         6.54207838E-07
   17.5699997         6.63146977E-07
   17.7000008         6.71856924E-07
   17.8299999         6.80319602E-07
   17.9599991         6.88515797E-07
   18.0900002         6.96425730E-07
   18.2199993         7.04028707E-07
   18.3500004         7.11303642E-07
   18.4799995         7.18229330E-07
   18.6100006         7.24784059E-07
   18.7399998         7.30946851E-07
   18.8700008         7.36696563E-07
   19.0000000         7.42012730E-07
   19.1299992         7.46875628E-07
   19.2600002         7.51266100E-07
   19.3899994         7.55165843E-07
   19.5200005         7.58557121E-07
   19.6499996         7.61422712E-07
   19.7800007         7.63746016E-07
   19.9099998         7.65510777E-07
   20.0400009         7.66700907E-07
   20.1700001         7.67300094E-07
   20.2999992         7.67292249E-07
   20.4300003         7.66660605E-07
   20.5599995         7.65388506E-07
   20.6900005         7.63458161E-07
   20.8199997         7.60851947E-07
   20.9500008         7.57551618E-07
   21.0799999         7.53538586E-07
   21.2099991         7.48794037E-07
   21.3400002         7.43299040E-07
   21.4699993         7.37035009E-07
   21.6000004         7.29983014E-07
   21.7299995         7.22124753E-07
   21.8600006         7.13442546E-07
   21.9899998         7.03918886E-07
   22.1200008         6.93536947E-07
   22.2500000         6.82280927E-07
   22.3799992         6.70135080E-07
   22.5100002         6.57084513E-07
   22.6399994         6.43115413E-07
   22.7700005         6.28213911E-07
   22.8999996         6.12366989E-07
   23.0300007         5.95561914E-07
   23.1599998         5.77786579E-07
   23.2900009         5.59028763E-07
   23.4200001         5.39276925E-07
   23.5499992         5.18519698E-07
   23.6800003         4.96746054E-07
   23.8099995         4.73945448E-07
   23.9400005         4.50107962E-07
   24.0699997         4.25223675E-07
   24.2000008         3.99283692E-07
   24.3299999         3.72279970E-07
   24.4599991         3.44204665E-07
   24.5900002         3.15051977E-07
   24.7199993         2.84816196E-07
   24.8500004         2.53492942E-07
   24.9799995         2.21078963E-07
   25.1100006         1.87572013E-07
   25.2399998         1.52971296E-07
   25.3700008         1.17276947E-07
   25.5000000         8.04899258E-08
   25.6299992         4.26124984E-08
   25.7600002         3.64808384E-09
   25.8899994        -3.63997081E-08
   26.0200005        -7.75254847E-08
   26.1499996        -1.19723794E-07
   26.2800007        -1.62988144E-07
   26.4099998        -2.07311174E-07
   26.5400009        -2.52684714E-07
   26.6700001        -2.99100435E-07
   26.7999992        -3.46548404E-07
   26.9300003        -3.95018219E-07
   27.0599995        -4.44498539E-07
   27.1900005        -4.94977371E-07
   27.3199997        -5.46441640E-07
   27.4500008        -5.98877477E-07
   27.5799999        -6.52269762E-07
   27.7099991        -7.06602407E-07
   27.8400002        -7.61858189E-07
   27.9699993        -8.18018805E-07
   28.1000004        -8.75064870E-07
   28.2299995        -9.32976150E-07
   28.3600006        -9.91730531E-07
   28.4899998        -1.05130607E-06
   28.6200008        -1.11167913E-06
   28.7500000        -1.17282491E-06
   28.8799992        -1.23471796E-06
   29.0100002        -1.29733189E-06
   29.1399994        -1.36063898E-06
   29.2700005        -1.42461101E-06
   29.3999996        -1.48921902E-06
   29.5300007        -1.55443274E-06
   29.6599998        -1.62022116E-06
   29.7900009        -1.68655242E-06
   29.9200001        -1.75339335E-06
   30.0499992        -1.82071039E-06
   30.1800003        -1.88846923E-06
   30.3099995        -1.95663483E-06
   30.4400005        -2.02517049E-06
   30.5699997        -2.09403993E-06
   30.7000008        -2.16320564E-06
   30.8299999        -2.23262964E-06
   30.9599991        -2.30227374E-06
   31.0900002        -2.37209883E-06
   31.2199993        -2.44206626E-06
   31.3500004        -2.51213646E-06
   31.4799995        -2.58226964E-06
   31.6100006        -2.65242693E-06
   31.7399998        -2.72256761E-06
   31.8700008        -2.79265214E-06
   32.0000000        -2.86264049E-06
   32.1300011        -2.93249218E-06
   32.2599983        -3.00216652E-06
   32.3899994        -3.07162281E-06
   32.5200005        -3.14081922E-06
   32.6500015        -3.20971412E-06
   32.7799988        -3.27826524E-06
   32.9099998        -3.34642914E-06
   33.0400009        -3.41416239E-06
   33.1699982        -3.48142044E-06
   33.2999992        -3.54815802E-06
   33.4300003        -3.61432944E-06
   33.5600014        -3.67988810E-06
   33.6899986        -3.74478668E-06
   33.8199997        -3.80897791E-06
   33.9500008        -3.87241380E-06
   34.0800018        -3.93504570E-06
   34.2099991        -3.99682494E-06
   34.3400002        -4.05770243E-06
   34.4700012        -4.11762903E-06
   34.5999985        -4.17655610E-06
   34.7299995        -4.23443316E-06
   34.8600006        -4.29121155E-06
   34.9900017        -4.34684125E-06
   35.1199989        -4.40127224E-06
   35.2500000        -4.45445494E-06
   35.3800011        -4.50633934E-06
   35.5099983        -4.55687541E-06
   35.6399994        -4.60601177E-06
   35.7700005        -4.65369885E-06
   35.9000015        -4.69988527E-06
   36.0299988        -4.74452145E-06
   36.1599998        -4.78755601E-06
   36.2900009        -4.82893938E-06
   36.4199982        -4.86862155E-06
   36.5499992        -4.90655339E-06
   36.6800003        -4.94268579E-06
   36.8100014        -4.97697147E-06
   36.9399986        -5.00936312E-06
   37.0699997        -5.03981528E-06
   37.2000008        -5.06828246E-06
   37.3300018        -5.09472147E-06
   37.4599991        -5.11909002E-06
   37.5900002        -5.14134626E-06
   37.7200012        -5.16145019E-06
   37.8499985        -5.17936178E-06
   37.9799995        -5.19504283E-06
   38.1100006        -5.20845560E-06
   38.2400017        -5.21956281E-06
   38.3699989        -5.22832715E-06
   38.5000000        -5.23471363E-06
   38.6300011        -5.23868584E-06
   38.7599983        -5.24020879E-06
   38.8899994        -5.23924746E-06
   39.0200005        -5.23576773E-06
   39.1500015        -5.22973642E-06
   39.2799988        -5.22112032E-06
   39.4099998        -5.20988715E-06
   39.5400009        -5.19600599E-06
   39.6699982        -5.17944773E-06
   39.7999992        -5.16018281E-06
   39.9300003        -5.13818441E-06
   40.0600014        -5.11342614E-06
   40.1899986        -5.08588391E-06
   40.3199997        -5.05553407E-06
   40.4500008        -5.02235525E-06
   40.5800018        -4.98632653E-06
   40.7099991        -4.94742972E-06
   40.8400002        -4.90564707E-06
   40.9700012        -4.86096314E-06
   41.0999985        -4.81336292E-06
   41.2299995        -4.76283230E-06
   41.3600006        -4.70936038E-06
   41.4900017        -4.65293624E-06
   41.6199989        -4.59355078E-06
   41.7500000        -4.53119674E-06
   41.8800011        -4.46586819E-06
   42.0099983        -4.39756195E-06
   42.1399994        -4.32627621E-06
   42.2700005        -4.25201051E-06
   42.4000015        -4.17476849E-06
   42.5299988        -4.09455379E-06
   42.6599998        -4.01137549E-06
   42.7900009        -3.92524225E-06
   42.9199982        -3.83616589E-06
   43.0499992        -3.74416231E-06
   43.1800003        -3.64924699E-06
   43.3100014        -3.55143857E-06
   43.4399986        -3.45075750E-06
   43.5699997        -3.34722722E-06
   43.7000008        -3.24087114E-06
   43.8300018        -3.13171518E-06
   43.9599991        -3.01978662E-06
   44.0900002        -2.90511457E-06
   44.2200012        -2.78772859E-06
   44.3499985        -2.66766119E-06
   44.4799995        -2.54494580E-06
   44.6100006        -2.41961698E-06
   44.7400017        -2.29171246E-06
   44.8699989        -2.16127046E-06
   45.0000000        -2.02833166E-06
   45.1300011        -1.89293951E-06
   45.2599983        -1.75513833E-06
   45.3899994        -1.61497633E-06
   45.5200005        -1.47250239E-06
   45.6500015        -1.32776916E-06
   45.7799988        -1.18082960E-06
   45.9099998        -1.03173966E-06
   46.0400009        -8.80555717E-07
   46.1699982        -7.27337238E-07
   46.2999992        -5.72144302E-07
   46.4300003        -4.15037391E-07
   46.5600014        -2.56079460E-07
   46.6899986        -9.53327799E-08
   46.8199997         6.71388420E-08
   46.9500008         2.31270974E-07
   47.0800018         3.96999212E-07
   47.2099991         5.64259324E-07
   47.3400002         7.32984518E-07
   47.4700012         9.03108287E-07
   47.5999985         1.07456367E-06
   47.7299995         1.24728228E-06
   47.8600006         1.42119586E-06
   47.9900017         1.59623482E-06
   48.1199989         1.77232812E-06
   48.2500000         1.94940526E-06
   48.3800011         2.12739360E-06
   48.5099983         2.30622118E-06
   48.6399994         2.48581409E-06
   48.7700005         2.66609891E-06
   48.9000015         2.84700218E-06
   49.0299988         3.02845046E-06
   49.1599998         3.21037078E-06
   49.2900009         3.39269013E-06
   49.4199982         3.57533668E-06
   49.5499992         3.75823947E-06
   49.6800003         3.94132712E-06
   49.8100014         4.12453073E-06
   49.9399986         4.30778118E-06
   50.0699997         4.49101117E-06
   50.2000008         4.67415202E-06
   50.3300018         4.85713781E-06
   50.4599991         5.03990304E-06
   50.5900002         5.22238133E-06
   50.7200012         5.40450810E-06
   50.8499985         5.58621969E-06
   50.9799995         5.76745060E-06
   51.1100006         5.94813946E-06
   51.2400017         6.12822214E-06
   51.3699989         6.30763952E-06
   51.5000000         6.48633022E-06
   51.6300011         6.66423693E-06
   51.7599983         6.84130327E-06
   51.8899994         7.01747331E-06
   52.0200005         7.19269519E-06
   52.1500015         7.36691982E-06
   52.2799988         7.54009807E-06
   52.4099998         7.71218583E-06
   52.5400009         7.88313992E-06
   52.6699982         8.05292075E-06
   52.7999992         8.22148922E-06
   52.9300003         8.38880715E-06
   53.0600014         8.55484359E-06
   53.1899986         8.71956399E-06
   53.3199997         8.88293653E-06
   53.4500008         9.04493027E-06
   53.5800018         9.20551702E-06
   53.7099991         9.36466677E-06
   53.8400002         9.52235223E-06
   53.9700012         9.67854794E-06
   54.0999985         9.83322661E-06
   54.2299995         9.98636551E-06
   54.3600006         1.01379401E-05
   54.4900017         1.02879312E-05
   54.6199989         1.04363180E-05
   54.7500000         1.05830859E-05
   54.8800011         1.07282185E-05
   55.0099983         1.08717040E-05
   55.1399994         1.10135334E-05
   55.2700005         1.11536974E-05
   55.4000015         1.12921916E-05
   55.5299988         1.14290142E-05
   55.6599998         1.15641606E-05
   55.7900009         1.16976316E-05
   55.9199982         1.18294292E-05
   56.0499992         1.19595525E-05
   56.1800003         1.20880050E-05
   56.3100014         1.22147876E-05
   56.4399986         1.23399032E-05
   56.5699997         1.24633525E-05
   56.7000008         1.25851357E-05
   56.8300018         1.27052544E-05
   56.9599991         1.28237089E-05
   57.0900002         1.29404989E-05
   57.2200012         1.30556236E-05
   57.3499985         1.31690831E-05
   57.4799995         1.32808755E-05
   57.6100006         1.33910044E-05
   57.7400017         1.34994680E-05
   57.8699989         1.36062672E-05
   58.0000000         1.37114048E-05
   58.1300011         1.38148798E-05
   58.2599983         1.39166959E-05
   58.3899994         1.40168531E-05
   58.5200005         1.41153505E-05
   58.6500015         1.42121871E-05
   58.7799988         1.43073585E-05
   58.9099998         1.44008627E-05
   59.0400009         1.44926889E-05
   59.1699982         1.45828290E-05
   59.2999992         1.46712673E-05
   59.4300003         1.47579904E-05
   59.5600014         1.48429745E-05
   59.6899986         1.49262005E-05
   59.8199997         1.50076421E-05
   59.9500008         1.50872720E-05
   60.0800018         1.51650602E-05
   60.2099991         1.52409757E-05
   60.3400002         1.53149831E-05
   60.4700012         1.53870515E-05
   60.5999985         1.54571462E-05
   60.7299995         1.55252255E-05
   60.8600006         1.55912549E-05
   60.9900017         1.56551941E-05
   61.1199989         1.57170070E-05
   61.2500000         1.57766499E-05
   61.3800011         1.58340790E-05
   61.5099983         1.58892526E-05
   61.6399994         1.59421234E-05
   61.7700005         1.59926421E-05
   61.9000015         1.60407544E-05
   62.0299988         1.60864056E-05
   62.1599998         1.61295393E-05
   62.2900009         1.61700918E-05
   62.4199982         1.62079996E-05
   62.5499992         1.62431916E-05
   62.6800003         1.62756005E-05
   62.8100014         1.63051518E-05
   62.9399986         1.63317709E-05
   63.0699997         1.63553777E-05
   63.2000008         1.63758959E-05
   63.3300018         1.63932418E-05
   63.4599991         1.64073354E-05
   63.5900002         1.64180910E-05
   63.7200012         1.64254288E-05
   63.8499985         1.64292614E-05
   63.9799995         1.64295016E-05
   64.1100006         1.64260618E-05
   64.2399979         1.64188532E-05
   64.3700027         1.64077865E-05
   64.5000000         1.63927671E-05
   64.6299973         1.63737022E-05
   64.7600021         1.63504956E-05
   64.8899994         1.63230488E-05
   65.0199966         1.62912638E-05
   65.1500015         1.62550386E-05
   65.2799988         1.62142751E-05
   65.4100037         1.61688713E-05
   65.5400009         1.61187236E-05
   65.6699982         1.60637319E-05
   65.8000031         1.60037926E-05
   65.9300003         1.59388110E-05
   66.0599976         1.58686871E-05
   66.1900024         1.57933264E-05
   66.3199997         1.57126342E-05
   66.4499969         1.56265178E-05
   66.5800018         1.55348916E-05
   66.7099991         1.54376648E-05
   66.8399963         1.53347573E-05
   66.9700012         1.52260827E-05
   67.0999985         1.51115610E-05
   67.2300034         1.49911157E-05
   67.3600006         1.48646668E-05
   67.4899979         1.47321398E-05
   67.6200027         1.45934609E-05
   67.7500000         1.44485593E-05
   67.8799973         1.42973631E-05
   68.0100021         1.41398077E-05
   68.1399994         1.39758286E-05
   68.2699966         1.38053647E-05
   68.4000015         1.36283570E-05
   68.5299988         1.34447555E-05
   68.6600037         1.32545101E-05
   68.7900009         1.30575800E-05
   68.9199982         1.28539241E-05
   69.0500031         1.26435116E-05
   69.1800003         1.24263133E-05
   69.3099976         1.22023102E-05
   69.4400024         1.19714823E-05
   69.5699997         1.17338204E-05
   69.6999969         1.14893182E-05
   69.8300018         1.12379748E-05
   69.9599991         1.09797920E-05
   70.0899963         1.07147780E-05
   70.2200012         1.04429437E-05
   70.3499985         1.01643072E-05
   70.4800034         9.87888779E-06
   70.6100006         9.58671171E-06
   70.7399979         9.28780901E-06
   70.8700027         8.98221515E-06
   71.0000000         8.66997198E-06
   71.1299973         8.35112314E-06
   71.2600021         8.02572504E-06
   71.3899994         7.69383496E-06
   71.5199966         7.35551976E-06
   71.6500015         7.01085264E-06
   71.7799988         6.65991320E-06
   71.9100037         6.30278782E-06
   72.0400009         5.93957020E-06
   72.1699982         5.57036037E-06
   72.3000031         5.19526338E-06
   72.4300003         4.81438974E-06
   72.5599976         4.42785631E-06
   72.6900024         4.03578406E-06
   72.8199997         3.63829827E-06
   72.9499969         3.23552922E-06
   73.0800018         2.82760925E-06
   73.2099991         2.41467569E-06
   73.3399963         1.99686883E-06
   73.4700012         1.57433328E-06
   73.5999985         1.14721695E-06
   73.7300034         7.15672400E-07
   73.8600006         2.79856039E-07
   73.9899979        -1.60070954E-07
   74.1200027        -6.03942681E-07
   74.2500000        -1.05158779E-06
   74.3799973        -1.50283017E-06
   74.5100021        -1.95748817E-06
   74.6399994        -2.41537555E-06
   74.7699966        -2.87630041E-06
   74.9000015        -3.34006654E-06
   75.0299988        -3.80647316E-06
   75.1600037        -4.27531540E-06
   75.2900009        -4.74638591E-06
   75.4199982        -5.21947322E-06
   75.5500031        -5.69436543E-06
   75.6800003        -6.17084652E-06
   75.8099976        -6.64870095E-06
   75.9400024        -7.12771089E-06
   76.0699997        -7.60765852E-06
   76.1999969        -8.08832465E-06
   76.3300018        -8.56948918E-06
   76.4599991        -9.05093293E-06
   76.5899963        -9.53243398E-06
   76.7200012        -1.00137686E-05
   76.8499985        -1.04947158E-05
   76.9800034        -1.09750481E-05
   77.1100006        -1.14545401E-05
   77.2399979        -1.19329625E-05
   77.3700027        -1.24100870E-05
   77.5000000        -1.28856818E-05
   77.6299973        -1.33595140E-05
   77.7600021        -1.38313517E-05
   77.8899994        -1.43009602E-05
   78.0199966        -1.47681067E-05
   78.1500015        -1.52325574E-05
   78.2799988        -1.56940823E-05
   78.4100037        -1.61524513E-05
   78.5400009        -1.66074369E-05
   78.6699982        -1.70588137E-05
   78.8000031        -1.75063615E-05
   78.9300003        -1.79498620E-05
   79.0599976        -1.83890988E-05
   79.1900024        -1.88238610E-05
   79.3199997        -1.92539374E-05
   79.4499969        -1.96791243E-05
   79.5800018        -2.00992181E-05
   79.7099991        -2.05140186E-05
   79.8399963        -2.09233258E-05
   79.9700012        -2.13269432E-05
   80.0999985        -2.17246816E-05
   80.2300034        -2.21163446E-05
   80.3600006        -2.25017448E-05
   80.4899979        -2.28806948E-05
   80.6200027        -2.32530092E-05
   80.7500000        -2.36185097E-05