  -24.4200001         4.30509252E-18
  -24.2870007         4.30366232E-18
  -24.1539993         1.99991612E-16
  -24.0209999         1.05386622E-15
  -23.8880005         3.39771533E-15
  -23.7549992         8.51636233E-15
  -23.6219997         1.81561614E-14
  -23.4890003         3.44148673E-14
  -23.3560009         5.94995922E-14
  -23.2229996         9.53787491E-14
  -23.0900002         1.43391402E-13
  -22.9570007         2.03902176E-13
  -22.8239994         2.76094116E-13
  -22.6910000         3.57971709E-13
  -22.5580006         4.46607568E-13
  -22.4249992         5.38613479E-13
  -22.2919998         6.30766869E-13
  -22.1590004         7.20684851E-13
  -22.0259991         8.07422109E-13
  -21.8929996         8.91878422E-13
  -21.7600002         9.76938582E-13
  -21.6270008         1.06731486E-12
  -21.4939995         1.16912155E-12
  -21.3610001         1.28925906E-12
  -21.2280006         1.43471552E-12
  -21.0949993         1.61189920E-12
  -20.9619999         1.82610329E-12
  -20.8290005         2.08116358E-12
  -20.6959991         2.37932851E-12
  -20.5629997         2.72132165E-12
  -20.4300003         3.10654302E-12
  -20.2970009         3.53335026E-12
  -20.1639996         3.99936421E-12
  -20.0310001         4.50176701E-12
  -19.8980007         5.03758580E-12
  -19.7649994         5.60398559E-12
  -19.6320000         6.19858938E-12
  -19.4990005         6.81985024E-12
  -19.3659992         7.46747716E-12
  -19.2329998         8.14286832E-12
  -19.1000004         8.84950099E-12
  -18.9669991         9.59317695E-12
  -18.8339996         1.03820581E-11
  -18.7010002         1.12264087E-11
  -18.5680008         1.21380484E-11
  -18.4349995         1.31295443E-11
  -18.3020000         1.42132313E-11
  -18.1690006         1.54002106E-11
  -18.0359993         1.66994647E-11
  -17.9029999         1.81172421E-11
  -17.7700005         1.96567953E-11
  -17.6369991         2.13185476E-11
  -17.5039997         2.31006152E-11
  -17.3710003         2.49996447E-11
  -17.2380009         2.70118216E-11
  -17.1049995         2.91339106E-11
  -16.9720001         3.13642029E-11
  -16.8390007         3.37032589E-11
  -16.7059994         3.61544336E-11
  -16.5730000         3.87241003E-11
  -16.4400005         4.14216959E-11
  -16.3069992         4.42595370E-11
  -16.1739998         4.72525179E-11
  -16.0410004         5.04176770E-11
  -15.9080000         5.37736834E-11
  -15.7749996         5.73402228E-11
  -15.6420002         6.11372689E-11
  -15.5089998         6.51843024E-11
  -15.3760004         6.94994340E-11
  -15.2430000         7.40985606E-11
  -15.1099997         7.89946372E-11
  -14.9770002         8.41971770E-11
  -14.8439999         8.97120642E-11
  -14.7110004         9.55418383E-11
  -14.5780001         1.01686382E-10
  -14.4449997         1.08144098E-10
  -14.3120003         1.14913343E-10
  -14.1789999         1.21994040E-10
  -14.0459995         1.29389263E-10
  -13.9130001         1.37106479E-10
  -13.7799997         1.45158413E-10
  -13.6470003         1.53563343E-10
  -13.5139999         1.62344763E-10
  -13.3809996         1.71530554E-10
  -13.2480001         1.81151566E-10
  -13.1149998         1.91240135E-10
  -12.9820004         2.01828373E-10
  -12.8490000         2.12946646E-10
  -12.7159996         2.24622335E-10
  -12.5830002         2.36878933E-10
  -12.4499998         2.49735788E-10
  -12.3170004         2.63208177E-10
  -12.1840000         2.77307843E-10
  -12.0509996         2.92044194E-10
  -11.9180002         3.07425474E-10
  -11.7849998         3.23460425E-10
  -11.6520004         3.40159623E-10
  -11.5190001         3.57536889E-10
  -11.3859997         3.75610210E-10
  -11.2530003         3.94402094E-10
  -11.1199999         4.13939300E-10
  -10.9870005         4.34251690E-10
  -10.8540001         4.55370380E-10
  -10.7209997         4.77325679E-10
  -10.5880003         5.00144259E-10
  -10.4549999         5.23846910E-10
  -10.3219995         5.48447010E-10
  -10.1890001         5.73949721E-10
  -10.0559998         6.00353378E-10
  -9.92300034         6.27652152E-10
  -9.78999996         6.55840493E-10
  -9.65699959         6.84919288E-10
  -9.52400017         7.14902693E-10
  -9.39099979         7.45824569E-10
  -9.25800037         7.77744258E-10
  -9.12500000         8.10749745E-10
  -8.99199963         8.44957326E-10
  -8.85900021         8.80507334E-10
  -8.72599983         9.17554865E-10
  -8.59300041         9.56256407E-10
  -8.46000004         9.96752125E-10
  -8.32699966         1.03914599E-09
  -8.19400024         1.08348530E-09
  -8.06099987         1.12974174E-09
  -7.92799997         1.17779686E-09
  -7.79500008         1.22743393E-09
  -7.66200018         1.27834010E-09
  -7.52899981         1.33011790E-09
  -7.39599991         1.38230949E-09
  -7.26300001         1.43443124E-09
  -7.13000011         1.48601975E-09
  -6.99700022         1.53668278E-09
  -6.86399984         1.58615532E-09
  -6.73099995         1.63435188E-09
  -6.59800005         1.68141334E-09
  -6.46500015         1.72773895E-09
  -6.33199978         1.77400028E-09
  -6.19899988         1.82113324E-09
  -6.06599998         1.87030347E-09
  -5.93300009         1.92284788E-09
  -5.80000019         1.98018957E-09
  -5.66699982         2.04373585E-09
  -5.53399992         2.11476170E-09
  -5.40100002         2.19429075E-09
  -5.26800013         2.28298025E-09
  -5.13500023         2.38102604E-09
  -5.00199986         2.48809240E-09
  -4.86899996         2.60327848E-09
  -4.73600006         2.72512812E-09
  -4.60300016         2.85168267E-09
  -4.46999979         2.98058134E-09
  -4.33699989         3.10919979E-09
  -4.20400000         3.23482019E-09
  -4.07100010         3.35481998E-09
  -3.93799996         3.46686657E-09
  -3.80500007         3.56909768E-09
  -3.67199993         3.66027542E-09
  -3.53900003         3.73989728E-09
  -3.40599990         3.80825105E-09
  -3.27300000         3.86640853E-09
  -3.14000010         3.91615229E-09
  -3.00699997         3.95984001E-09
  -2.87400007         4.00021438E-09
  -2.74099994         4.04017175E-09
  -2.60800004         4.08251077E-09
  -2.47499990         4.12967172E-09
  -2.34200001         4.18350465E-09
  -2.20900011         4.24506785E-09
  -2.07599998         4.31449143E-09
  -1.94299996         4.39090941E-09
  -1.80999994         4.47246951E-09
  -1.67700005         4.55642368E-09
  -1.54400003         4.63928806E-09
  -1.41100001         4.71706585E-09
  -1.27800000         4.78550177E-09
  -1.14499998         4.84036011E-09
  -1.01199996         4.87768803E-09
 -0.879000008         4.89404517E-09
 -0.745999992         4.88667906E-09
 -0.612999976         4.85362195E-09
 -0.479999989         4.79370854E-09
 -0.347000003         4.70650230E-09
 -0.214000002         4.59214267E-09
  -8.10000002E-02     4.45112480E-09
   5.20000011E-02     4.28403135E-09
  0.185000002         4.09124290E-09
  0.317999989         3.87265642E-09
  0.451000005         3.62743879E-09
  0.583999991         3.35384409E-09
  0.717000008         3.04911252E-09
  0.850000024         2.70946487E-09
  0.982999980         2.33020292E-09
   1.11600006         1.90590255E-09
   1.24899995         1.43069201E-09
   1.38199997         8.98591923E-10
   1.51499999         3.03885916E-10
   1.64800000        -3.58510055E-10
   1.78100002        -1.09271370E-09
   1.91400003        -1.90160421E-09
   2.04699993        -2.78665246E-09
   2.18000007        -3.74785536E-09
   2.31299996        -4.78379825E-09
   2.44600010        -5.89183324E-09
   2.57900000        -7.06837078E-09
   2.71199989        -8.30925728E-09
   2.84500003        -9.61020241E-09
   2.97799993        -1.09672413E-08
   3.11100006        -1.23771624E-08
   3.24399996        -1.38378971E-08
   3.37700009        -1.53488067E-08
   3.50999999        -1.69108780E-08
   3.64299989        -1.85267695E-08
   3.77600002        -2.02007424E-08
   3.90899992        -2.19384582E-08
   4.04199982        -2.37466722E-08
   4.17500019        -2.56328523E-08
   4.30800009        -2.76047505E-08
   4.44099998        -2.96699572E-08
   4.57399988        -3.18355156E-08
   4.70699978        -3.41075790E-08
   4.84000015        -3.64911728E-08
   4.97300005        -3.89900805E-08
   5.10599995        -4.16068602E-08
   5.23899984        -4.43429613E-08
   5.37200022        -4.71989843E-08
   5.50500011        -5.01750144E-08
   5.63800001        -5.32710125E-08
   5.77099991        -5.64872309E-08
   5.90399981        -5.98246004E-08
   6.03700018        -6.32850572E-08
   6.17000008        -6.68718201E-08
   6.30299997        -7.05895360E-08
   6.43599987        -7.44442588E-08
   6.56899977        -7.84433709E-08
   6.70200014        -8.25953848E-08
   6.83500004        -8.69095800E-08
   6.96799994        -9.13956555E-08
   7.10099983        -9.60632960E-08
   7.23400021        -1.00921781E-07
   7.36700010        -1.05979566E-07
   7.50000000        -1.11244063E-07
   7.63299990        -1.16721374E-07
   7.76599979        -1.22416282E-07
   7.89900017        -1.28332218E-07
   8.03199959        -1.34471520E-07
   8.16499996        -1.40835638E-07
   8.29800034        -1.47425510E-07
   8.43099976        -1.54241917E-07
   8.56400013        -1.61285968E-07
   8.69699955        -1.68559424E-07
   8.82999992        -1.76065029E-07
   8.96300030        -1.83806719E-07
   9.09599972        -1.91789809E-07
   9.22900009        -2.00020921E-07
   9.36200047        -2.08507842E-07
   9.49499989        -2.17259370E-07
   9.62800026        -2.26284868E-07
   9.76099968        -2.35593930E-07
   9.89400005        -2.45195906E-07
   10.0270004        -2.55099422E-07
   10.1599998        -2.65312110E-07
   10.2930002        -2.75840137E-07
   10.4259996        -2.86688078E-07
   10.5590000        -2.97858776E-07
   10.6920004        -3.09353425E-07
   10.8249998        -3.21171626E-07
   10.9580002        -3.33311732E-07
   11.0909996        -3.45771127E-07
   11.2240000        -3.58546714E-07
   11.3570004        -3.71635252E-07
   11.4899998        -3.85033871E-07
   11.6230001        -3.98740298E-07
   11.7559996        -4.12753138E-07
   11.8889999        -4.27072194E-07
   12.0220003        -4.41698262E-07
   12.1549997        -4.56633188E-07
   12.2880001        -4.71879503E-07
   12.4209995        -4.87440104E-07
   12.5539999        -5.03317892E-07
   12.6870003        -5.19515197E-07
   12.8199997        -5.36033212E-07
   12.9530001        -5.52871597E-07
   13.0860004        -5.70028078E-07
   13.2189999        -5.87498164E-07
   13.3520002        -6.05274749E-07
   13.4849997        -6.23348285E-07
   13.6180000        -6.41707061E-07
   13.7510004        -6.60336866E-07
   13.8839998        -6.79222126E-07
   14.0170002        -6.98345673E-07
   14.1499996        -7.17689829E-07
   14.2830000        -7.37236689E-07
   14.4160004        -7.56968689E-07
   14.5489998        -7.76869001E-07
   14.6820002        -7.96922052E-07
   14.8149996        -8.17113573E-07
   14.9480000        -8.37430377E-07
   15.0810003        -8.57860698E-07
   15.2139997        -8.78393848E-07
   15.3470001        -8.99019369E-07
   15.4799995        -9.19726972E-07
   15.6129999        -9.40505629E-07
   15.7460003        -9.61343176E-07
   15.8789997        -9.82225856E-07
   16.0119991        -1.00313764E-06
   16.1450005        -1.02405988E-06
   16.2779999        -1.04497133E-06
   16.4109993        -1.06584775E-06
   16.5440006        -1.08666279E-06
   16.6770000        -1.10738779E-06
   16.8099995        -1.12799194E-06
   16.9430008        -1.14844374E-06
   17.0760002        -1.16871126E-06
   17.2089996        -1.18876210E-06
   17.3419991        -1.20856521E-06
   17.4750004        -1.22809035E-06
   17.6079998        -1.24730889E-06
   17.7409992        -1.26619398E-06
   17.8740005        -1.28472050E-06
   18.0070000        -1.30286446E-06
   18.1399994        -1.32060381E-06
   18.2730007        -1.33791627E-06
   18.4060001        -1.35478035E-06
   18.5389996        -1.37117365E-06
   18.6720009        -1.38707298E-06
   18.8050003        -1.40245379E-06
   18.9379997        -1.41728935E-06
   19.0709991        -1.43155125E-06
   19.2040005        -1.44520914E-06
   19.3369999        -1.45823094E-06
   19.4699993        -1.47058336E-06
   19.6030006        -1.48223251E-06
   19.7360001        -1.49314440E-06
   19.8689995        -1.50328572E-06
   20.0020008        -1.51262486E-06
   20.1350002        -1.52113216E-06
   20.2679996        -1.52878079E-06
   20.4009991        -1.53554663E-06
   20.5340004        -1.54140866E-06
   20.6669998        -1.54634904E-06
   20.7999992        -1.55035241E-06
   20.9330006        -1.55340604E-06
   21.0660000        -1.55549833E-06
   21.1989994        -1.55661883E-06
   21.3320007        -1.55675707E-06
   21.4650002        -1.55590249E-06
   21.5979996        -1.55404314E-06
   21.7310009        -1.55116584E-06
   21.8640003        -1.54725592E-06
   21.9969997        -1.54229735E-06
   22.1299992        -1.53627252E-06
   22.2630005        -1.52916380E-06
   22.3959999        -1.52095322E-06
   22.5289993        -1.51162374E-06
   22.6620007        -1.50116023E-06
   22.7950001        -1.48954973E-06
   22.9279995        -1.47678270E-06
   23.0610008        -1.46285322E-06
   23.1940002        -1.44775925E-06
   23.3269997        -1.43150294E-06
   23.4599991        -1.41409021E-06
   23.5930004        -1.39553015E-06
   23.7259998        -1.37583515E-06
   23.8589993        -1.35501932E-06
   23.9920006        -1.33309788E-06
   24.1250000        -1.31008653E-06
   24.2579994        -1.28600084E-06
   24.3910007        -1.26085524E-06
   24.5240002        -1.23466316E-06
   24.6569996        -1.20743653E-06
   24.7900009        -1.17918614E-06
   24.9230003        -1.14992235E-06
   25.0559998        -1.11965483E-06
   25.1889992        -1.08839436E-06
   25.3220005        -1.05615311E-06
   25.4549999        -1.02294564E-06
   25.5879993        -9.88789679E-07
   25.7210007        -9.53706717E-07
   25.8540001        -9.17722446E-07
   25.9869995        -8.80866821E-07
   26.1200008        -8.43174064E-07
   26.2530003        -8.04681974E-07
   26.3859997        -7.65431651E-07
   26.5189991        -7.25465952E-07
   26.6520004        -6.84829331E-07
   26.7849998        -6.43565897E-07
   26.9179993        -6.01719194E-07
   27.0510006        -5.59330829E-07
   27.1840000        -5.16439798E-07
   27.3169994        -4.73082338E-07
   27.4500008        -4.29291504E-07
   27.5830002        -3.85097593E-07
   27.7159996        -3.40528260E-07
   27.8490009        -2.95609397E-07
   27.9820004        -2.50365900E-07
   28.1149998        -2.04822641E-07
   28.2479992        -1.59005054E-07
   28.3810005        -1.12940469E-07
   28.5139999        -6.66581457E-08
   28.6469994        -2.01900665E-08
   28.7800007         2.64291966E-08
   28.9130001         7.31626315E-08
   29.0459995         1.19971261E-07
   29.1790009         1.66814829E-07
   29.3120003         2.13653010E-07
   29.4449997         2.60446086E-07
   29.5779991         3.07156199E-07
   29.7110004         3.53748504E-07
   29.8439999         4.00191709E-07
   29.9769993         4.46459040E-07
   30.1100006         4.92528329E-07
   30.2430000         5.38382039E-07
   30.3759995         5.84007125E-07
   30.5090008         6.29394322E-07
   30.6420002         6.74537262E-07
   30.7749996         7.19431853E-07
   30.9080009         7.64075025E-07
   31.0410004         8.08463653E-07
   31.1739998         8.52593871E-07
   31.3069992         8.96460506E-07
   31.4400005         9.40056566E-07
   31.5730000         9.83372956E-07
   31.7059994         1.02639945E-06
   31.8390007         1.06912432E-06
   31.9720001         1.11153588E-06
   32.1049995         1.15362320E-06
   32.2379990         1.19537719E-06
   32.3709984         1.23679160E-06
   32.5040016         1.27786438E-06
   32.6370010         1.31859781E-06
   32.7700005         1.35900007E-06
   32.9029999         1.39908423E-06
   33.0359993         1.43886894E-06
   33.1689987         1.47837795E-06
   33.3019981         1.51763891E-06
   33.4350014         1.55668295E-06
   33.5680008         1.59554270E-06
   33.7010002         1.63425261E-06
   33.8339996         1.67284622E-06
   33.9669991         1.71135582E-06
   34.0999985         1.74981244E-06
   34.2330017         1.78824439E-06
   34.3660011         1.82667736E-06
   34.4990005         1.86513512E-06
   34.6320000         1.90363971E-06
   34.7649994         1.94221184E-06
   34.8979988         1.98087309E-06
   35.0309982         2.01964463E-06
   35.1640015         2.05855122E-06
   35.2970009         2.09761970E-06
   35.4300003         2.13688008E-06
   35.5629997         2.17636716E-06
   35.6959991         2.21611890E-06
   35.8289986         2.25617782E-06
   35.9620018         2.29658872E-06
   36.0950012         2.33739888E-06
   36.2280006         2.37865697E-06
   36.3610001         2.42041142E-06
   36.4939995         2.46270974E-06
   36.6269989         2.50559651E-06
   36.7599983         2.54911311E-06
   36.8930016         2.59329749E-06
   37.0260010         2.63818220E-06
   37.1590004         2.68379654E-06
   37.2919998         2.73016553E-06
   37.4249992         2.77730965E-06
   37.5579987         2.82524866E-06
   37.6910019         2.87399894E-06
   37.8240013         2.92357731E-06
   37.9570007         2.97400106E-06
   38.0900002         3.02528815E-06
   38.2229996         3.07745859E-06
   38.3559990         3.13053488E-06
   38.4889984         3.18454090E-06
   38.6220016         3.23950303E-06
   38.7550011         3.29544787E-06
   38.8880005         3.35240247E-06
   39.0209999         3.41039276E-06
   39.1539993         3.46944125E-06
   39.2869987         3.52956863E-06
   39.4199982         3.59078899E-06
   39.5530014         3.65311234E-06
   39.6860008         3.71654187E-06
   39.8190002         3.78107438E-06
   39.9519997         3.84670102E-06
   40.0849991         3.91340609E-06
   40.2179985         3.98117072E-06
   40.3510017         4.04997081E-06
   40.4840012         4.11977953E-06
   40.6170006         4.19056960E-06
   40.7500000         4.26231236E-06
   40.8829994         4.33497962E-06
   41.0159988         4.40854546E-06
   41.1489983         4.48298397E-06
   41.2820015         4.55827194E-06
   41.4150009         4.63438664E-06
   41.5480003         4.71130579E-06
   41.6809998         4.78900665E-06
   41.8139992         4.86746512E-06
   41.9469986         4.94665392E-06
   42.0800018         5.02654166E-06
   42.2130013         5.10709242E-06
   42.3460007         5.18826391E-06
   42.4790001         5.27000839E-06
   42.6119995         5.35227082E-06
   42.7449989         5.43499073E-06
   42.8779984         5.51810217E-06
   43.0110016         5.60153512E-06
   43.1440010         5.68521637E-06
   43.2770004         5.76907087E-06
   43.4099998         5.85302359E-06
   43.5429993         5.93700042E-06
   43.6759987         6.02092950E-06
   43.8089981         6.10474081E-06
   43.9420013         6.18836930E-06
   44.0750008         6.27175268E-06
   44.2080002         6.35483184E-06
   44.3409996         6.43755129E-06
   44.4739990         6.51985511E-06
   44.6069984         6.60168962E-06
   44.7400017         6.68299890E-06
   44.8730011         6.76372656E-06
   45.0060005         6.84381166E-06
   45.1389999         6.92318918E-06
   45.2719994         7.00179044E-06
   45.4049988         7.07953996E-06
   45.5379982         7.15635952E-06
   45.6710014         7.23216635E-06
   45.8040009         7.30687316E-06
   45.9370003         7.38039216E-06
   46.0699997         7.45263469E-06
   46.2029991         7.52351161E-06
   46.3359985         7.59293744E-06
   46.4690018         7.66082940E-06
   46.6020012         7.72710700E-06
   46.7350006         7.79169750E-06
   46.8680000         7.85452994E-06
   47.0009995         7.91553975E-06
   47.1339989         7.97466510E-06
   47.2669983         8.03184776E-06
   47.4000015         8.08703044E-06
   47.5330009         8.14015584E-06
   47.6660004         8.19116758E-06
   47.7989998         8.24000563E-06
   47.9319992         8.28660723E-06
   48.0649986         8.33090598E-06
   48.1980019         8.37283278E-06
   48.3310013         8.41231395E-06
   48.4640007         8.44927399E-06
   48.5970001         8.48363470E-06
   48.7299995         8.51531695E-06
   48.8629990         8.54424434E-06
   48.9959984         8.57033956E-06
   49.1290016         8.59353258E-06
   49.2620010         8.61375429E-06
   49.3950005         8.63094465E-06
   49.5279999         8.64504909E-06
   49.6609993         8.65601851E-06
   49.7939987         8.66380833E-06
   49.9269981         8.66838218E-06
   50.0600014         8.66970822E-06
   50.1930008         8.66775372E-06
   50.3260002         8.66249138E-06
   50.4589996         8.65389211E-06
   50.5919991         8.64192680E-06
   50.7249985         8.62656543E-06
   50.8580017         8.60777163E-06
   50.9910011         8.58550902E-06
   51.1240005         8.55974031E-06
   51.2570000         8.53042275E-06
   51.3899994         8.49751450E-06
   51.5229988         8.46097464E-06
   51.6559982         8.42076133E-06
   51.7890015         8.37684092E-06
   51.9220009         8.32918158E-06
   52.0550003         8.27775784E-06
   52.1879997         8.22255060E-06
   52.3209991         8.16355077E-06
   52.4539986         8.10075289E-06
   52.5870018         8.03416242E-06
   52.7200012         7.96378936E-06
   52.8530006         7.88964917E-06
   52.9860001         7.81176095E-06
   53.1189995         7.73014472E-06
   53.2519989         7.64482411E-06
   53.3849983         7.55581868E-06
   53.5180016         7.46314981E-06
   53.6510010         7.36683342E-06
   53.7840004         7.26688540E-06
   53.9169998         7.16331897E-06
   54.0499992         7.05614411E-06
   54.1829987         6.94537357E-06
   54.3160019         6.83101916E-06
   54.4490013         6.71309681E-06
   54.5820007         6.59162743E-06
   54.7150002         6.46663602E-06
   54.8479996         6.33815671E-06
   54.9809990         6.20623086E-06
   55.1139984         6.07090760E-06
   55.2470016         5.93224513E-06
   55.3800011         5.79030893E-06
   55.5130005         5.64517222E-06
   55.6459999         5.49691276E-06
   55.7789993         5.34561241E-06
   55.9119987         5.19135438E-06
   56.0449982         5.03422234E-06
   56.1780014         4.87429861E-06
   56.3110008         4.71166413E-06
   56.4440002         4.54639530E-06
   56.5769997         4.37856670E-06
   56.7099991         4.20824927E-06
   56.8429985         4.03551212E-06
   56.9760017         3.86042348E-06
   57.1090012         3.68305291E-06
   57.2420006         3.50347000E-06
   57.3750000         3.32175091E-06
   57.5079994         3.13797591E-06
   57.6409988         2.95223276E-06
   57.7739983         2.76461583E-06
   57.9070015         2.57522811E-06
   58.0400009         2.38417965E-06
   58.1730003         2.19158755E-06
   58.3059998         1.99757415E-06
   58.4389992         1.80226641E-06
   58.5719986         1.60579248E-06
   58.7050018         1.40828149E-06
   58.8380013         1.20986010E-06
   58.9710007         1.01065223E-06
   59.1040001         8.10777408E-07
   59.2369995         6.10349446E-07
   59.3699989         4.09477167E-07
   59.5029984         2.08263771E-07
   59.6360016         6.80931178E-09
   59.7690010        -1.94789507E-07
   59.9020004        -3.96436945E-07
   60.0349998        -5.98037047E-07
   60.1679993        -7.99490977E-07
   60.3009987        -1.00069633E-06
   60.4339981        -1.20154573E-06
   60.5670013        -1.40192560E-06
   60.7000008        -1.60171692E-06
   60.8330002        -1.80079485E-06
   60.9659996        -1.99903002E-06
   61.0989990        -2.19628964E-06
   61.2319984        -2.39244059E-06
   61.3650017        -2.58735008E-06
   61.4980011        -2.78088896E-06
   61.6310005        -2.97293286E-06
   61.7639999        -3.16336445E-06
   61.8969994        -3.35207483E-06
   62.0299988        -3.53896439E-06
   62.1629982        -3.72394243E-06
   62.2960014        -3.90692776E-06
   62.4290009        -4.08784626E-06
   62.5620003        -4.26663109E-06
   62.6949997        -4.44321995E-06
   62.8279991        -4.61755235E-06
   62.9609985        -4.78956918E-06
   63.0940018        -4.95921086E-06
   63.2270012        -5.12641373E-06
   63.3600006        -5.29111139E-06
   63.4930000        -5.45323428E-06
   63.6259995        -5.61270826E-06
   63.7589989        -5.76945649E-06
   63.8919983        -5.92340120E-06
   64.0250015        -6.07446418E-06
   64.1579971        -6.22257176E-06
   64.2910004        -6.36765208E-06
   64.4240036        -6.50964239E-06
   64.5569992        -6.64848676E-06
   64.6900024        -6.78413971E-06
   64.8229980        -6.91656669E-06
   64.9560013        -7.04574222E-06
   65.0889969        -7.17165267E-06
   65.2220001        -7.29429348E-06
   65.3550034        -7.41366694E-06
   65.4879990        -7.52978167E-06
   65.6210022        -7.64265042E-06
   65.7539978        -7.75228636E-06
   65.8870010        -7.85870361E-06
   66.0199966        -7.96191307E-06
   66.1529999        -8.06192475E-06
   66.2860031        -8.15874228E-06
   66.4189987        -8.25236930E-06
   66.5520020        -8.34280490E-06
   66.6849976        -8.43004727E-06
   66.8180008        -8.51409550E-06
   66.9509964        -8.59495049E-06
   67.0839996        -8.67261679E-06
   67.2170029        -8.74710804E-06
   67.3499985        -8.81844335E-06
   67.4830017        -8.88665181E-06
   67.6159973        -8.95177345E-06
   67.7490005        -9.01385647E-06
   67.8820038        -9.07295816E-06
   68.0149994        -9.12914584E-06
   68.1480026        -9.18249043E-06
   68.2809982        -9.23307107E-06
   68.4140015        -9.28096506E-06
   68.5469971        -9.32625062E-06
   68.6800003        -9.36900324E-06
   68.8130035        -9.40929567E-06
   68.9459991        -9.44719523E-06
   69.0790024        -9.48276193E-06
   69.2119980        -9.51605034E-06
   69.3450012        -9.54710958E-06
   69.4779968        -9.57598513E-06
   69.6110001        -9.60272246E-06
   69.7440033        -9.62736249E-06
   69.8769989        -9.64995252E-06
   70.0100021        -9.67053893E-06
   70.1429977        -9.68917720E-06
   70.2760010        -9.70592555E-06
   70.4089966        -9.72085127E-06
   70.5419998        -9.73402894E-06
   70.6750031        -9.74553677E-06
   70.8079987        -9.75546300E-06
   70.9410019        -9.76389219E-06
   71.0739975        -9.77091440E-06
   71.2070007        -9.77661784E-06
   71.3399963        -9.78108437E-06
   71.4729996        -9.78439402E-06
   71.6060028        -9.78661501E-06
   71.7389984        -9.78781009E-06
   71.8720016        -9.78803291E-06
   72.0049973        -9.78732623E-06
   72.1380005        -9.78572825E-06
   72.2710037        -9.78326807E-06
   72.4039993        -9.77997297E-06
   72.5370026        -9.77586569E-06
   72.6699982        -9.77096897E-06
   72.8030014        -9.76531101E-06
   72.9359970        -9.75892090E-06
   73.0690002        -9.75183411E-06
   73.2020035        -9.74409249E-06
   73.3349991        -9.73574515E-06
   73.4680023        -9.72684484E-06
   73.6009979        -9.71744885E-06
   73.7340012        -9.70761903E-06
   73.8669968        -9.69741541E-06
   74.0000000        -9.68689528E-06
   74.1330032        -9.67611322E-06
   74.2659988        -9.66511743E-06
   74.3990021        -9.65394793E-06
   74.5319977        -9.64263654E-06
   74.6650009        -9.63120419E-06
   74.7979965        -9.61966362E-06
   74.9309998        -9.60802208E-06
   75.0640030        -9.59627778E-06
   75.1969986        -9.58442706E-06
   75.3300018        -9.57246448E-06
   75.4629974        -9.56038457E-06
   75.5960007        -9.54818643E-06
   75.7289963        -9.53587460E-06
   75.8619995        -9.52345727E-06
   75.9950027        -9.51095444E-06
   76.1279984        -9.49838886E-06
   76.2610016        -9.48579236E-06
   76.3939972        -9.47320223E-06
   76.5270004        -9.46065848E-06
   76.6600037        -9.44820204E-06
   76.7929993        -9.43587474E-06
   76.9260025        -9.42371298E-06
   77.0589981        -9.41174858E-06
   77.1920013        -9.40000609E-06
   77.3249969        -9.38850189E-06
   77.4580002        -9.37724599E-06
   77.5910034        -9.36623928E-06
   77.7239990        -9.35547632E-06
   77.8570023        -9.34494619E-06
   77.9899979        -9.33463707E-06
   78.1230011        -9.32453622E-06
   78.2559967        -9.31463182E-06
   78.3889999        -9.30492024E-06
   78.5220032        -9.29539965E-06
   78.6549988        -9.28607733E-06
   78.7880020        -9.27697238E-06
   78.9209976        -9.26810753E-06
   79.0540009        -9.25951463E-06
   79.1869965        -9.25123277E-06
   79.3199997        -9.24330288E-06
   79.4530029        -9.23576772E-06
   79.5859985        -9.22867275E-06
   79.7190018        -9.22205527E-06
   79.8519974        -9.21595347E-06
   79.9850006        -9.21039373E-06
   80.1179962        -9.20539605E-06
   80.2509995        -9.20097409E-06
   80.3840027        -9.19713239E-06
   80.5169983        -9.19387367E-06
   80.6500015        -9.19119248E-06
   80.7829971        -9.18908063E-06
   80.9160004        -9.18753449E-06
   81.0490036        -9.18654951E-06
   81.1819992        -9.18612568E-06
   81.3150024        -9.18626938E-06
   81.4479980        -9.18699789E-06
   81.5810013        -9.18832939E-06
   81.7139969        -9.19029753E-06
   81.8470001        -9.19293689E-06
   81.9800034        -9.19628837E-06
   82.1129990        -9.20039292E-06
   82.2460022        -9.20529510E-06
   82.3789978        -9.21103492E-06
   82.5120010        -9.21764786E-06
   82.6449966        -9.22516210E-06
   82.7779999        -9.23359676E-06
   82.9110031        -9.24296455E-06
   83.0439987        -9.25326549E-06
   83.1770020        -9.26449047E-06