  -24.4200001       0.00000000    
  -24.2900009       0.00000000    
  -24.1599998      -2.19815836E-17
  -24.0300007      -1.08697535E-16
  -23.8999996      -3.19961137E-16
  -23.7700005      -7.26763745E-16
  -23.6399994      -1.40384901E-15
  -23.5100002      -2.42168922E-15
  -23.3799992      -3.83908747E-15
  -23.2500000      -5.69780217E-15
  -23.1200008      -8.02057277E-15
  -22.9899998      -1.08136690E-14
  -22.8600006      -1.40745680E-14
  -22.7299995      -1.78046597E-14
  -22.6000004      -2.20260059E-14
  -22.4699993      -2.68004121E-14
  -22.3400002      -3.22484247E-14
  -22.2099991      -3.85655592E-14
  -22.0799999      -4.60332015E-14
  -21.9500008      -5.50221083E-14
  -21.8199997      -6.59873564E-14
  -21.6900005      -7.94546042E-14
  -21.5599995      -9.59987569E-14
  -21.4300003      -1.16216986E-13
  -21.2999992      -1.40698786E-13
  -21.1700001      -1.69996151E-13
  -21.0400009      -2.04596688E-13
  -20.9099998      -2.44902460E-13
  -20.7800007      -2.91216487E-13
  -20.6499996      -3.43738438E-13
  -20.5200005      -4.02570609E-13
  -20.3899994      -4.67733979E-13
  -20.2600002      -5.39195153E-13
  -20.1299992      -6.16902308E-13
  -20.0000000      -7.00829911E-13
  -19.8700008      -7.91029514E-13
  -19.7399998      -8.87683373E-13
  -19.6100006      -9.91157894E-13
  -19.4799995      -1.10205096E-12
  -19.3500004      -1.22122906E-12
  -19.2199993      -1.34984840E-12
  -19.0900002      -1.48935703E-12
  -18.9599991      -1.64147396E-12
  -18.8299999      -1.80814619E-12
  -18.7000008      -1.99148554E-12
  -18.5699997      -2.19368881E-12
  -18.4400005      -2.41694989E-12
  -18.3099995      -2.66337104E-12
  -18.1800003      -2.93488150E-12
  -18.0499992      -3.23317393E-12
  -17.9200001      -3.55966341E-12
  -17.7900009      -3.91547428E-12
  -17.6599998      -4.30145849E-12
  -17.5300007      -4.71824359E-12
  -17.3999996      -5.16630618E-12
  -17.2700005      -5.64606998E-12
  -17.1399994      -6.15801637E-12
  -17.0100002      -6.70280281E-12
  -16.8799992      -7.28138296E-12
  -16.7500000      -7.89511252E-12
  -16.6200008      -8.54584025E-12
  -16.4899998      -9.23597396E-12
  -16.3600006      -9.96851039E-12
  -16.2299995      -1.07470248E-11
  -16.1000004      -1.15756233E-11
  -15.9700003      -1.24588517E-11
  -15.8400002      -1.34015611E-11
  -15.7100000      -1.44087468E-11
  -15.5799999      -1.54853717E-11
  -15.4499998      -1.66361768E-11
  -15.3199997      -1.78655320E-11
  -15.1899996      -1.91772969E-11
  -15.0600004      -2.05747537E-11
  -14.9300003      -2.20605929E-11
  -14.8000002      -2.36369709E-11
  -14.6700001      -2.53056361E-11
  -14.5400000      -2.70680908E-11
  -14.4099998      -2.89257958E-11
  -14.2799997      -3.08803816E-11
  -14.1499996      -3.29338536E-11
  -14.0200005      -3.50887340E-11
  -13.8900003      -3.73482148E-11
  -13.7600002      -3.97161852E-11
  -13.6300001      -4.21972804E-11
  -13.5000000      -4.47968676E-11
  -13.3699999      -4.75210010E-11
  -13.2399998      -5.03763906E-11
  -13.1099997      -5.33703463E-11
  -12.9799995      -5.65107752E-11
  -12.8500004      -5.98061045E-11
  -12.7200003      -6.32652403E-11
  -12.5900002      -6.68974667E-11
  -12.4600000      -7.07122347E-11
  -12.3299999      -7.47189394E-11
  -12.1999998      -7.89265667E-11
  -12.0699997      -8.33432282E-11
  -11.9399996      -8.79757586E-11
  -11.8100004      -9.28292165E-11
  -11.6800003      -9.79065370E-11
  -11.5500002      -1.03208372E-10
  -11.4200001      -1.08733099E-10
  -11.2900000      -1.14477240E-10
  -11.1599998      -1.20436189E-10
  -11.0299997      -1.26605268E-10
  -10.8999996      -1.32981140E-10
  -10.7700005      -1.39563375E-10
  -10.6400003      -1.46356108E-10
  -10.5100002      -1.53369498E-10
  -10.3800001      -1.60620864E-10
  -10.2500000      -1.68135214E-10
  -10.1199999      -1.75945022E-10
  -9.98999977      -1.84089008E-10
  -9.85999966      -1.92609970E-10
  -9.72999954      -2.01551623E-10
  -9.60000038      -2.10954559E-10
  -9.47000027      -2.20851726E-10
  -9.34000015      -2.31263772E-10
  -9.21000004      -2.42194598E-10
  -9.07999992      -2.53627980E-10
  -8.94999981      -2.65525435E-10
  -8.81999969      -2.77826429E-10
  -8.68999958      -2.90450802E-10
  -8.56000042      -3.03303938E-10
  -8.43000031      -3.16284610E-10
  -8.30000019      -3.29295646E-10
  -8.17000008      -3.42256223E-10
  -8.03999996      -3.55115520E-10
  -7.90999985      -3.67866598E-10
  -7.78000021      -3.80558918E-10
  -7.65000010      -3.93308552E-10
  -7.51999998      -4.06304546E-10
  -7.38999987      -4.19810214E-10
  -7.26000023      -4.34158404E-10
  -7.13000011      -4.49740412E-10
  -7.00000000      -4.66988170E-10
  -6.86999989      -4.86350515E-10
  -6.73999977      -5.08264486E-10
  -6.61000013      -5.33123268E-10
  -6.48000002      -5.61243274E-10
  -6.34999990      -5.92832394E-10
  -6.21999979      -6.27962682E-10
  -6.09000015      -6.66549260E-10
  -5.96000004      -7.08339332E-10
  -5.82999992      -7.52911011E-10
  -5.69999981      -7.99685373E-10
  -5.57000017      -8.47950044E-10
  -5.44000006      -8.96894725E-10
  -5.30999994      -9.45656664E-10
  -5.17999983      -9.93372384E-10
  -5.05000019      -1.03923392E-09
  -4.92000008      -1.08254272E-09
  -4.78999996      -1.12275955E-09
  -4.65999985      -1.15954391E-09
  -4.53000021      -1.19278032E-09
  -4.40000010      -1.22258859E-09
  -4.26999998      -1.24931465E-09
  -4.13999987      -1.27350397E-09
  -4.01000023      -1.29585698E-09
  -3.88000011      -1.31716982E-09
  -3.75000000      -1.33826461E-09
  -3.61999989      -1.35991463E-09
  -3.49000001      -1.38276957E-09
  -3.35999990      -1.40728829E-09
  -3.23000002      -1.43368428E-09
  -3.09999990      -1.46188894E-09
  -2.97000003      -1.49153612E-09
  -2.83999991      -1.52197133E-09
  -2.71000004      -1.55228419E-09
  -2.57999992      -1.58136282E-09
  -2.45000005      -1.60796654E-09
  -2.31999993      -1.63080982E-09
  -2.19000006      -1.64865299E-09
  -2.05999994      -1.66038905E-09
  -1.92999995      -1.66512049E-09
  -1.79999995      -1.66221970E-09
  -1.66999996      -1.65136371E-09
  -1.53999996      -1.63254343E-09
  -1.40999997      -1.60604197E-09
  -1.27999997      -1.57238456E-09
  -1.14999998      -1.53226332E-09
  -1.01999998      -1.48643997E-09
 -0.889999986      -1.43563816E-09
 -0.759999990      -1.38042922E-09
 -0.629999995      -1.32112632E-09
 -0.500000000      -1.25769029E-09
 -0.370000005      -1.18965970E-09
 -0.239999995      -1.11611120E-09
 -0.109999999      -1.03565223E-09
   1.99999996E-02  -9.46450696E-10
  0.150000006      -8.46295645E-10
  0.280000001      -7.32691741E-10
  0.409999996      -6.02972949E-10
  0.540000021      -4.54431937E-10
  0.670000017      -2.84455126E-10
  0.800000012      -9.06467887E-11
  0.930000007       1.29058389E-10
   1.05999994       3.76312009E-10
   1.19000006       6.52299326E-10
   1.32000005       9.57724566E-10
   1.45000005       1.29283317E-09
   1.58000004       1.65747116E-09
   1.71000004       2.05117434E-09
   1.84000003       2.47328424E-09
   1.97000003       2.92307423E-09
   2.09999990       3.39988171E-09
   2.23000002       3.90323907E-09
   2.35999990       4.43297532E-09
   2.49000001       4.98930230E-09
   2.61999989       5.57286484E-09
   2.75000000       6.18475227E-09
   2.88000011       6.82647006E-09
   3.00999999       7.49988960E-09
   3.14000010       8.20715051E-09
   3.26999998       8.95056029E-09
   3.40000010       9.73246461E-09
   3.52999997       1.05551292E-08
   3.66000009       1.14206280E-08
   3.78999996       1.23307524E-08
   3.92000008       1.32869502E-08
   4.05000019       1.42902996E-08
   4.17999983       1.53415129E-08
   4.30999994       1.64409890E-08
   4.44000006       1.75889046E-08
   4.57000017       1.87853146E-08
   4.69999981       2.00302814E-08
   4.82999992       2.13240146E-08
   4.96000004       2.26669972E-08
   5.09000015       2.40601139E-08
   5.21999979       2.55047468E-08
   5.34999990       2.70028160E-08
   5.48000002       2.85568209E-08
   5.61000013       3.01698222E-08
   5.73999977       3.18453601E-08
   5.86999989       3.35873942E-08
   6.00000000       3.54001415E-08
   6.13000011       3.72879683E-08
   6.26000023       3.92552124E-08
   6.38999987       4.13060803E-08
   6.51999998       4.34444658E-08
   6.65000010       4.56739073E-08
   6.78000021       4.79974851E-08
   6.90999985       5.04177962E-08
   7.03999996       5.29370006E-08
   7.17000008       5.55568569E-08
   7.30000019       5.82788147E-08
   7.42999983       6.11041457E-08
   7.55999994       6.40341042E-08
   7.69000006       6.70699905E-08
   7.82000017       7.02133960E-08
   7.94999981       7.34662322E-08
   8.07999992       7.68308510E-08
   8.21000004       8.03100946E-08
   8.34000015       8.39072953E-08
   8.47000027       8.76262334E-08
   8.60000038       9.14710796E-08
   8.72999954       9.54462465E-08
   8.85999966       9.95562459E-08
   8.98999977       1.03805583E-07
   9.11999989       1.08198506E-07
   9.25000000       1.12738967E-07
   9.38000011       1.17430375E-07
   9.51000023       1.22275580E-07
   9.64000034       1.27276749E-07
   9.77000046       1.32435446E-07
   9.89999962       1.37752508E-07
   10.0299997       1.43228277E-07
   10.1599998       1.48862583E-07
   10.2900000       1.54654956E-07
   10.4200001       1.60604742E-07
   10.5500002       1.66711160E-07
   10.6800003       1.72973586E-07
   10.8100004       1.79391520E-07
   10.9399996       1.85964666E-07
   11.0699997       1.92693093E-07
   11.1999998       1.99577030E-07
   11.3299999       2.06616917E-07
   11.4600000       2.13813308E-07
   11.5900002       2.21166616E-07
   11.7200003       2.28677123E-07
   11.8500004       2.36344789E-07
   11.9799995       2.44169001E-07
   12.1099997       2.52148510E-07
   12.2399998       2.60281439E-07
   12.3699999       2.68565003E-07
   12.5000000       2.76995820E-07
   12.6300001       2.85569627E-07
   12.7600002       2.94281620E-07
   12.8900003       3.03126370E-07
   13.0200005       3.12098280E-07
   13.1499996       3.21191465E-07
   13.2799997       3.30400070E-07
   13.4099998       3.39718412E-07
   13.5400000       3.49141033E-07
   13.6700001       3.58662845E-07
   13.8000002       3.68279132E-07
   13.9300003       3.77985629E-07
   14.0600004       3.87778186E-07
   14.1899996       3.97652940E-07
   14.3199997       4.07605881E-07
   14.4499998       4.17632748E-07
   14.5799999       4.27728821E-07
   14.7100000       4.37888730E-07
   14.8400002       4.48106164E-07
   14.9700003       4.58373847E-07
   15.1000004       4.68683282E-07
   15.2299995       4.79024834E-07
   15.3599997       4.89387617E-07
   15.4899998       4.99759665E-07
   15.6199999       5.10128189E-07
   15.7500000       5.20479318E-07
   15.8800001       5.30799014E-07
   16.0100002       5.41072495E-07
   16.1399994       5.51284927E-07
   16.2700005       5.61421814E-07
   16.3999996       5.71468377E-07
   16.5300007       5.81410575E-07
   16.6599998       5.91234368E-07
   16.7900009       6.00926285E-07
   16.9200001       6.10472796E-07
   17.0499992       6.19860543E-07
   17.1800003       6.29075998E-07
   17.3099995       6.38105178E-07
   17.4400005       6.46933756E-07
   17.5699997       6.55546444E-07
   17.7000008       6.63926983E-07
   17.8299999       6.72058093E-07
   17.9599991       6.79921470E-07
   18.0900002       6.87497277E-07
   18.2199993       6.94765163E-07
   18.3500004       7.01703414E-07
   18.4799995       7.08289917E-07
   18.6100006       7.14501994E-07
   18.7399998       7.20316791E-07
   18.8700008       7.25711629E-07
   19.0000000       7.30664112E-07
   19.1299992       7.35152412E-07
   19.2600002       7.39155496E-07
   19.3899994       7.42652958E-07
   19.5200005       7.45625414E-07
   19.6499996       7.48054163E-07
   19.7800007       7.49921185E-07
   19.9099998       7.51208802E-07
   20.0400009       7.51899904E-07
   20.1700001       7.51977041E-07
   20.2999992       7.51422874E-07
   20.4300003       7.50219328E-07
   20.5599995       7.48348157E-07
   20.6900005       7.45790089E-07
   20.8199997       7.42525287E-07
   20.9500008       7.38533572E-07
   21.0799999       7.33793740E-07
   21.2099991       7.28284590E-07
   21.3400002       7.21984577E-07
   21.4699993       7.14872613E-07
   21.6000004       7.06928120E-07
   21.7299995       6.98130805E-07
   21.8600006       6.88461739E-07
   21.9899998       6.77903074E-07
   22.1200008       6.66438041E-07
   22.2500000       6.54051519E-07
   22.3799992       6.40729127E-07
   22.5100002       6.26457734E-07
   22.6399994       6.11225403E-07
   22.7700005       5.95020424E-07
   22.8999996       5.77832054E-07
   23.0300007       5.59649322E-07
   23.1599998       5.40461542E-07
   23.2900009       5.20258197E-07
   23.4200001       4.99027806E-07
   23.5499992       4.76758800E-07
   23.6800003       4.53439696E-07
   23.8099995       4.29058758E-07
   23.9400005       4.03603991E-07
   24.0699997       3.77064168E-07
   24.2000008       3.49428376E-07
   24.3299999       3.20686752E-07
   24.4599991       2.90830371E-07
   24.5900002       2.59852271E-07
   24.7199993       2.27746540E-07
   24.8500004       1.94509326E-07
   24.9799995       1.60138597E-07
   25.1100006       1.24634170E-07
   25.2399998       8.79974280E-08
   25.3700008       5.02314990E-08
   25.5000000       1.13402603E-08
   25.6299992      -2.86708062E-08
   25.7600002      -6.97958669E-08
   25.8899994      -1.12028225E-07
   26.0200005      -1.55361022E-07
   26.1499996      -1.99787095E-07
   26.2800007      -2.45298963E-07
   26.4099998      -2.91889307E-07
   26.5400009      -3.39550439E-07
   26.6700001      -3.88273776E-07
   26.7999992      -4.38050932E-07
   26.9300003      -4.88871876E-07
   27.0599995      -5.40725921E-07
   27.1900005      -5.93600475E-07
   27.3199997      -6.47481897E-07
   27.4500008      -7.02354441E-07
   27.5799999      -7.58200372E-07
   27.7099991      -8.15000533E-07
   27.8400002      -8.72733551E-07
   27.9699993      -9.31376746E-07
   28.1000004      -9.90905619E-07
   28.2299995      -1.05129470E-06
   28.3600006      -1.11251779E-06
   28.4899998      -1.17454726E-06
   28.6200008      -1.23735629E-06
   28.7500000      -1.30091678E-06
   28.8799992      -1.36520146E-06
   29.0100002      -1.43018224E-06
   29.1399994      -1.49583138E-06
   29.2700005      -1.56212081E-06
   29.3999996      -1.62902211E-06
   29.5300007      -1.69650684E-06
   29.6599998      -1.76454489E-06
   29.7900009      -1.83310590E-06
   29.9200001      -1.90215746E-06
   30.0499992      -1.97166537E-06
   30.1800003      -2.04159460E-06
   30.3099995      -2.11190763E-06
   30.4400005      -2.18256537E-06
   30.5699997      -2.25352733E-06
   30.7000008      -2.32475077E-06
   30.8299999      -2.39619339E-06
   30.9599991      -2.46781042E-06
   31.0900002      -2.53955704E-06
   31.2199993      -2.61138848E-06
   31.3500004      -2.68326016E-06
   31.4799995      -2.75512775E-06
   31.6100006      -2.82694714E-06
   31.7399998      -2.89867558E-06
   31.8700008      -2.97027009E-06
   32.0000000      -3.04168907E-06
   32.1300011      -3.11289091E-06
   32.2599983      -3.18383422E-06
   32.3899994      -3.25447695E-06
   32.5200005      -3.32477725E-06
   32.6500015      -3.39469216E-06
   32.7799988      -3.46417755E-06
   32.9099998      -3.53318819E-06
   33.0400009      -3.60167701E-06
   33.1699982      -3.66959625E-06
   33.2999992      -3.73689568E-06
   33.4300003      -3.80352412E-06
   33.5600014      -3.86942975E-06
   33.6899986      -3.93456003E-06
   33.8199997      -3.99886130E-06
   33.9500008      -4.06228037E-06
   34.0800018      -4.12476402E-06
   34.2099991      -4.18625996E-06
   34.3400002      -4.24671589E-06
   34.4700012      -4.30608134E-06
   34.5999985      -4.36430628E-06
   34.7299995      -4.42134115E-06
   34.8600006      -4.47713774E-06
   34.9900017      -4.53164785E-06
   35.1199989      -4.58482509E-06
   35.2500000      -4.63662127E-06
   35.3800011      -4.68698863E-06
   35.5099983      -4.73587852E-06
   35.6399994      -4.78324182E-06
   35.7700005      -4.82902806E-06
   35.9000015      -4.87318584E-06
   36.0299988      -4.91566288E-06
   36.1599998      -4.95640552E-06
   36.2900009      -4.99535963E-06
   36.4199982      -5.03247111E-06
   36.5499992      -5.06768538E-06
   36.6800003      -5.10094878E-06
   36.8100014      -5.13220721E-06
   36.9399986      -5.16140926E-06
   37.0699997      -5.18850402E-06
   37.2000008      -5.21344373E-06
   37.3300018      -5.23618019E-06
   37.4599991      -5.25667019E-06
   37.5900002      -5.27486918E-06
   37.7200012      -5.29073759E-06
   37.8499985      -5.30423540E-06
   37.9799995      -5.31532396E-06
   38.1100006      -5.32396734E-06
   38.2400017      -5.33012917E-06
   38.3699989      -5.33377261E-06
   38.5000000      -5.33486309E-06
   38.6300011      -5.33336379E-06
   38.7599983      -5.32923968E-06
   38.8899994      -5.32245394E-06
   39.0200005      -5.31297064E-06
   39.1500015      -5.30075476E-06
   39.2799988      -5.28576993E-06
   39.4099998      -5.26798294E-06
   39.5400009      -5.24735970E-06
   39.6699982      -5.22386927E-06
   39.7999992      -5.19748301E-06
   39.9300003      -5.16817317E-06
   40.0600014      -5.13591613E-06
   40.1899986      -5.10069003E-06
   40.3199997      -5.06247625E-06
   40.4500008      -5.02125931E-06
   40.5800018      -4.97702604E-06
   40.7099991      -4.92976505E-06
   40.8400002      -4.87946818E-06
   40.9700012      -4.82612813E-06
   41.0999985      -4.76973901E-06
   41.2299995      -4.71029625E-06
   41.3600006      -4.64779623E-06
   41.4900017      -4.58223531E-06
   41.6199989      -4.51361029E-06
   41.7500000      -4.44191983E-06
   41.8800011      -4.36716118E-06
   42.0099983      -4.28933390E-06
   42.1399994      -4.20843799E-06
   42.2700005      -4.12447480E-06
   42.4000015      -4.03744752E-06
   42.5299988      -3.94736162E-06
   42.6599998      -3.85422436E-06
   42.7900009      -3.75804666E-06
   42.9199982      -3.65884193E-06
   43.0499992      -3.55662542E-06
   43.1800003      -3.45141734E-06
   43.3100014      -3.34323954E-06
   43.4399986      -3.23211634E-06
   43.5699997      -3.11807526E-06
   43.7000008      -3.00114539E-06
   43.8300018      -2.88135766E-06
   43.9599991      -2.75874550E-06
   44.0900002      -2.63334232E-06
   44.2200012      -2.50518315E-06
   44.3499985      -2.37430436E-06
   44.4799995      -2.24074233E-06
   44.6100006      -2.10453595E-06
   44.7400017      -1.96572387E-06
   44.8699989      -1.82434803E-06
   45.0000000      -1.68045119E-06
   45.1300011      -1.53407848E-06
   45.2599983      -1.38527810E-06
   45.3899994      -1.23410121E-06
   45.5200005      -1.08060101E-06
   45.6500015      -9.24835717E-07
   45.7799988      -7.66865355E-07
   45.9099998      -6.06753815E-07
   46.0400009      -4.44568713E-07
   46.1699982      -2.80379226E-07
   46.2999992      -1.14257368E-07
   46.4300003       5.37225304E-08
   46.5600014       2.23484847E-07
   46.6899986       3.94953190E-07
   46.8199997       5.68049984E-07
   46.9500008       7.42697694E-07
   47.0800018       9.18818330E-07
   47.2099991       1.09633527E-06
   47.3400002       1.27517092E-06
   47.4700012       1.45524780E-06
   47.5999985       1.63648963E-06
   47.7299995       1.81881933E-06
   47.8600006       2.00215959E-06
   47.9900017       2.18643277E-06
   48.1199989       2.37156019E-06
   48.2500000       2.55746227E-06
   48.3800011       2.74405897E-06
   48.5099983       2.93126777E-06
   48.6399994       3.11900726E-06
   48.7700005       3.30719377E-06
   48.9000015       3.49574475E-06
   49.0299988       3.68457563E-06
   49.1599998       3.87360433E-06
   49.2900009       4.06274739E-06
   49.4199982       4.25192275E-06
   49.5499992       4.44105081E-06
   49.6800003       4.63005335E-06
   49.8100014       4.81885309E-06
   49.9399986       5.00737633E-06
   50.0699997       5.19554987E-06
   50.2000008       5.38330369E-06
   50.3300018       5.57056910E-06
   50.4599991       5.75727836E-06
   50.5900002       5.94336598E-06
   50.7200012       6.12876738E-06
   50.8499985       6.31341709E-06
   50.9799995       6.49725280E-06
   51.1100006       6.68021039E-06
   51.2400017       6.86222711E-06
   51.3699989       7.04323975E-06
   51.5000000       7.22318737E-06
   51.6300011       7.40200949E-06
   51.7599983       7.57964608E-06
   51.8899994       7.75603803E-06
   52.0200005       7.93112940E-06
   52.1500015       8.10486654E-06
   52.2799988       8.27719759E-06
   52.4099998       8.44807346E-06
   52.5400009       8.61745048E-06
   52.6699982       8.78528590E-06
   52.7999992       8.95154062E-06
   52.9300003       9.11618008E-06
   53.0600014       9.27916881E-06
   53.1899986       9.44047770E-06
   53.3199997       9.60007765E-06
   53.4500008       9.75794410E-06
   53.5800018       9.91405159E-06
   53.7099991       1.00683746E-05
   53.8400002       1.02208924E-05
   53.9700012       1.03715838E-05
   54.0999985       1.05204263E-05
   54.2299995       1.06674015E-05
   54.3600006       1.08124887E-05
   54.4900017       1.09556704E-05
   54.6199989       1.10969313E-05
   54.7500000       1.12362568E-05
   54.8800011       1.13736332E-05
   55.0099983       1.15090525E-05
   55.1399994       1.16425063E-05
   55.2700005       1.17739919E-05
   55.4000015       1.19035076E-05
   55.5299988       1.20310551E-05
   55.6599998       1.21566381E-05
   55.7900009       1.22802658E-05
   55.9199982       1.24019471E-05
   56.0499992       1.25216911E-05
   56.1800003       1.26395107E-05
   56.3100014       1.27554194E-05
   56.4399986       1.28694319E-05
   56.5699997       1.29815598E-05
   56.7000008       1.30918152E-05
   56.8300018       1.32002133E-05
   56.9599991       1.33067633E-05
   57.0900002       1.34114780E-05
   57.2200012       1.35143646E-05
   57.3499985       1.36154358E-05
   57.4799995       1.37146999E-05
   57.6100006       1.38121668E-05
   57.7400017       1.39078438E-05
   57.8699989       1.40017419E-05
   58.0000000       1.40938700E-05
   58.1300011       1.41842374E-05
   58.2599983       1.42728568E-05
   58.3899994       1.43597372E-05
   58.5200005       1.44448886E-05
   58.6500015       1.45283193E-05
   58.7799988       1.46100392E-05
   58.9099998       1.46900538E-05
   59.0400009       1.47683704E-05
   59.1699982       1.48449890E-05
   59.2999992       1.49199122E-05
   59.4300003       1.49931357E-05
   59.5600014       1.50646511E-05
   59.6899986       1.51344493E-05
   59.8199997       1.52025177E-05
   59.9500008       1.52688372E-05
   60.0800018       1.53333913E-05
   60.2099991       1.53961555E-05
   60.3400002       1.54571026E-05
   60.4700012       1.55162088E-05
   60.5999985       1.55734433E-05
   60.7299995       1.56287751E-05
   60.8600006       1.56821716E-05
   60.9900017       1.57336035E-05
   61.1199989       1.57830327E-05
   61.2500000       1.58304247E-05
   61.3800011       1.58757412E-05
   61.5099983       1.59189440E-05
   61.6399994       1.59599913E-05
   61.7700005       1.59988340E-05
   61.9000015       1.60354284E-05
   62.0299988       1.60697200E-05
   62.1599998       1.61016542E-05
   62.2900009       1.61311673E-05
   62.4199982       1.61581975E-05
   62.5499992       1.61826774E-05
   62.6800003       1.62045308E-05
   62.8100014       1.62236829E-05
   62.9399986       1.62400520E-05
   63.0699997       1.62535562E-05
   63.2000008       1.62641099E-05
   63.3300018       1.62716242E-05
   63.4599991       1.62760098E-05
   63.5900002       1.62771757E-05
   63.7200012       1.62750293E-05
   63.8499985       1.62694760E-05
   63.9799995       1.62604247E-05
   64.1100006       1.62477791E-05
   64.2399979       1.62314391E-05
   64.3700027       1.62113101E-05
   64.5000000       1.61872904E-05
   64.6299973       1.61592779E-05
   64.7600021       1.61271691E-05
   64.8899994       1.60908585E-05
   65.0199966       1.60502332E-05
   65.1500015       1.60051841E-05
   65.2799988       1.59555984E-05
   65.4100037       1.59013616E-05
   65.5400009       1.58423536E-05
   65.6699982       1.57784616E-05
   65.8000031       1.57095656E-05
   65.9300003       1.56355491E-05
   66.0599976       1.55562939E-05
   66.1900024       1.54716854E-05
   66.3199997       1.53816127E-05
   66.4499969       1.52859629E-05
   66.5800018       1.51846289E-05
   66.7099991       1.50775049E-05
   66.8399963       1.49644893E-05
   66.9700012       1.48454792E-05
   67.0999985       1.47203773E-05
   67.2300034       1.45890872E-05
   67.3600006       1.44515152E-05
   67.4899979       1.43075667E-05
   67.6200027       1.41571518E-05
   67.7500000       1.40001803E-05
   67.8799973       1.38365649E-05
   68.0100021       1.36662184E-05
   68.1399994       1.34890570E-05
   68.2699966       1.33049989E-05
   68.4000015       1.31139668E-05
   68.5299988       1.29158861E-05
   68.6600037       1.27106887E-05
   68.7900009       1.24983089E-05
   68.9199982       1.22786905E-05
   69.0500031       1.20517834E-05
   69.1800003       1.18175431E-05
   69.3099976       1.15759303E-05
   69.4400024       1.13269170E-05
   69.5699997       1.10704814E-05
   69.6999969       1.08066070E-05
   69.8300018       1.05352865E-05
   69.9599991       1.02565164E-05
   70.0899963       9.97030111E-06
   70.2200012       9.67665255E-06
   70.3499985       9.37558525E-06
   70.4800034       9.06712012E-06
   70.6100006       8.75128353E-06
   70.7399979       8.42810641E-06
   70.8700027       8.09762787E-06
   71.0000000       7.75988974E-06
   71.1299973       7.41494341E-06
   71.2600021       7.06284663E-06
   71.3899994       6.70366308E-06
   71.5199966       6.33746640E-06
   71.6500015       5.96433802E-06
   71.7799988       5.58436841E-06
   71.9100037       5.19765808E-06
   72.0400009       4.80431618E-06
   72.1699982       4.40446183E-06
   72.3000031       3.99822284E-06
   72.4300003       3.58573539E-06
   72.5599976       3.16714363E-06
   72.6900024       2.74259992E-06
   72.8199997       2.31226340E-06
   72.9499969       1.87629917E-06
   73.0800018       1.43487819E-06
   73.2099991       9.88177021E-07
   73.3399963       5.36376263E-07
   73.4700012       7.96626907E-08
   73.5999985      -3.81772793E-07
   73.7300034      -8.47733588E-07
   73.8600006      -1.31801926E-06
   73.9899979      -1.79242204E-06
   74.1200027      -2.27072860E-06
   74.2500000      -2.75272009E-06
   74.3799973      -3.23816948E-06
   74.5100021      -3.72684326E-06
   74.6399994      -4.21850064E-06
   74.7699966      -4.71289468E-06
   74.9000015      -5.20976937E-06
   75.0299988      -5.70886505E-06
   75.1600037      -6.20991432E-06
   75.2900009      -6.71264570E-06
   75.4199982      -7.21678316E-06
   75.5500031      -7.72204658E-06
   75.6800003      -8.22815582E-06
   75.8099976      -8.73482531E-06
   75.9400024      -9.24177129E-06
   76.0699997      -9.74870818E-06
   76.1999969      -1.02553504E-05
   76.3300018      -1.07614133E-05
   76.4599991      -1.12666103E-05
   76.5899963      -1.17706577E-05
   76.7200012      -1.22732690E-05
   76.8499985      -1.27741578E-05
   76.9800034      -1.32730374E-05
   77.1100006      -1.37696197E-05
   77.2399979      -1.42636145E-05
   77.3700027      -1.47547316E-05
   77.5000000      -1.52426774E-05
   77.6299973      -1.57271588E-05
   77.7600021      -1.62078832E-05
   77.8899994      -1.66845548E-05
   78.0199966      -1.71568790E-05
   78.1500015      -1.76245667E-05
   78.2799988      -1.80873267E-05
   78.4100037      -1.85448735E-05
   78.5400009      -1.89969269E-05
   78.6699982      -1.94432087E-05
   78.8000031      -1.98834477E-05
   78.9300003      -2.03173786E-05
   79.0599976      -2.07447465E-05
   79.1900024      -2.11652987E-05
   79.3199997      -2.15787913E-05
   79.4499969      -2.19849826E-05
   79.5800018      -2.23836450E-05
   79.7099991      -2.27745495E-05
   79.8399963      -2.31574777E-05
   79.9700012      -2.35322113E-05
   80.0999985      -2.38985413E-05
   80.2300034      -2.42562637E-05
   80.3600006      -2.46051768E-05
   80.4899979      -2.49450877E-05
   80.6200027      -2.52758055E-05
   80.7500000      -2.55971499E-05
   80.8799973      -2.59089429E-05
   81.0100021      -2.62110170E-05
   81.1399994      -2.65032158E-05
   81.2699966      -2.67853902E-05
   81.4000015      -2.70573983E-05
   81.5299988      -2.73191108E-05
   81.6600037      -2.75704115E-05
   81.7900009      -2.78111929E-05
   81.9199982      -2.80413569E-05
   82.0500031      -2.82608198E-05
   82.1800003      -2.84695070E-05
   82.3099976      -2.86673530E-05
   82.4400024      -2.88543015E-05
   82.5699997      -2.90303087E-05
   82.6999969      -2.91953347E-05
   82.8300018      -2.93493486E-05
   82.9599991      -2.94923302E-05
   83.0899963      -2.96242652E-05
   83.2200012      -2.97451425E-05
   83.3499985      -2.98549621E-05
   83.4800034      -2.99537332E-05
   83.6100006      -3.00414722E-05
   83.7399979      -3.01182026E-05
   83.8700027      -3.01839573E-05
   84.0000000      -3.02387798E-05
   84.1299973      -3.02827248E-05
   84.2600021      -3.03158558E-05
   84.3899994      -3.03382476E-05
   84.5199966      -3.03499837E-05
   84.6500015      -3.03511606E-05
   84.7799988      -3.03418874E-05
   84.9100037      -3.03222769E-05
   85.0400009      -3.02924564E-05
   85.1699982      -3.02525550E-05
   85.3000031      -3.02027165E-05
   85.4300003      -3.01430864E-05
   85.5599976      -3.00738211E-05
   85.6900024      -2.99950734E-05
   85.8199997      -2.99070089E-05
   85.9499969      -2.98097912E-05
   86.0800018      -2.97035967E-05
   86.2099991      -2.95885966E-05
   86.3399963      -2.94649708E-05
   86.4700012      -2.93329012E-05
   86.5999985      -2.91925771E-05
   86.7300034      -2.90441913E-05
   86.8600006      -2.88879419E-05