  -24.4200001         9.74699259E-18
  -24.2870007         9.73715162E-18
  -24.1539993         8.53448726E-18
  -24.0209999        -2.47900570E-18
  -23.8880005        -4.95557188E-17
  -23.7549992        -1.86607393E-16
  -23.6219997        -5.00445541E-16
  -23.4890003        -1.10777701E-15
  -23.3560009        -2.14307001E-15
  -23.2229996        -3.73960684E-15
  -23.0900002        -6.00904951E-15
  -22.9570007        -9.02652858E-15
  -22.8239994        -1.28281115E-14
  -22.6910000        -1.74252787E-14
  -22.5580006        -2.28371873E-14
  -22.4249992        -2.91368390E-14
  -22.2919998        -3.65030814E-14
  -22.1590004        -4.52679039E-14
  -22.0259991        -5.59476747E-14
  -21.8929996        -6.92499511E-14
  -21.7600002        -8.60511003E-14
  -21.6270008        -1.07346200E-13
  -21.4939995        -1.34177581E-13
  -21.3610001        -1.67553498E-13
  -21.2280006        -2.08369292E-13
  -21.0949993        -2.57343409E-13
  -20.9619999        -3.14978078E-13
  -20.8290005        -3.81548498E-13
  -20.6959991        -4.57121374E-13
  -20.5629997        -5.41598125E-13
  -20.4300003        -6.34775490E-13
  -20.2970009        -7.36417004E-13
  -20.1639996        -8.46328758E-13
  -20.0310001        -9.64434370E-13
  -19.8980007        -1.09084898E-12
  -19.7649994        -1.22594838E-12
  -19.6320000        -1.37043436E-12
  -19.4990005        -1.52539298E-12
  -19.3659992        -1.69233930E-12
  -19.2329998        -1.87324266E-12
  -19.1000004        -2.07052171E-12
  -18.9669991        -2.28700457E-12
  -18.8339996        -2.52584629E-12
  -18.7010002        -2.79040679E-12
  -18.5680008        -3.08409656E-12
  -18.4349995        -3.41020723E-12
  -18.3020000        -3.77174290E-12
  -18.1690006        -4.17127661E-12
  -18.0359993        -4.61085380E-12
  -17.9029999        -5.09195594E-12
  -17.7700005        -5.61553104E-12
  -17.6369991        -6.18209260E-12
  -17.5039997        -6.79187869E-12
  -17.3710003        -7.44504718E-12
  -17.2380009        -8.14188907E-12
  -17.1049995        -8.88304968E-12
  -16.9720001        -9.66971468E-12
  -16.8390007        -1.05037732E-11
  -16.7059994        -1.13879245E-11
  -16.5730000        -1.23257455E-11
  -16.4400005        -1.33216884E-11
  -16.3069992        -1.43810328E-11
  -16.1739998        -1.55097827E-11
  -16.0410004        -1.67145082E-11
  -15.9080000        -1.80021362E-11
  -15.7749996        -1.93797044E-11
  -15.6420002        -2.08540962E-11
  -15.5089998        -2.24317492E-11
  -15.3760004        -2.41184329E-11
  -15.2430000        -2.59190343E-11
  -15.1099997        -2.78374702E-11
  -14.9770002        -2.98766879E-11
  -14.8439999        -3.20388022E-11
  -14.7110004        -3.43253308E-11
  -14.5780001        -3.67375227E-11
  -14.4449997        -3.92767451E-11
  -14.3120003        -4.19448434E-11
  -14.1789999        -4.47444859E-11
  -14.0459995        -4.76793847E-11
  -13.9130001        -5.07543937E-11
  -13.7799997        -5.39755254E-11
  -13.6470003        -5.73498506E-11
  -13.5139999        -6.08853315E-11
  -13.3809996        -6.45906800E-11
  -13.2480001        -6.84752324E-11
  -13.1149998        -7.25489183E-11
  -12.9820004        -7.68222777E-11
  -12.8490000        -8.13065795E-11
  -12.7159996        -8.60138627E-11
  -12.5830002        -9.09569087E-11
  -12.4499998        -9.61491026E-11
  -12.3170004        -1.01603913E-10
  -12.1840000        -1.07334225E-10
  -12.0509996        -1.13351412E-10
  -11.9180002        -1.19664167E-10
  -11.7849998        -1.26277488E-10
  -11.6520004        -1.33191763E-10
  -11.5190001        -1.40402398E-10
  -11.3859997        -1.47900137E-10
  -11.2530003        -1.55672142E-10
  -11.1199999        -1.63704217E-10
  -10.9870005        -1.71983566E-10
  -10.8540001        -1.80502516E-10
  -10.7209997        -1.89262342E-10
  -10.5880003        -1.98276839E-10
  -10.4549999        -2.07575290E-10
  -10.3219995        -2.17203686E-10
  -10.1890001        -2.27224142E-10
  -10.0559998        -2.37711961E-10
  -9.92300034        -2.48750104E-10
  -9.78999996        -2.60421157E-10
  -9.65699959        -2.72797507E-10
  -9.52400017        -2.85930640E-10
  -9.39099979        -2.99840458E-10
  -9.25800037        -3.14506032E-10
  -9.12500000        -3.29859834E-10
  -8.99199963        -3.45786427E-10
  -8.85900021        -3.62126440E-10
  -8.72599983        -3.78687581E-10
  -8.59300041        -3.95261573E-10
  -8.46000004        -4.11646939E-10
  -8.32699966        -4.27676033E-10
  -8.19400024        -4.43244330E-10
  -8.06099987        -4.58338534E-10
  -7.92799997        -4.73061368E-10
  -7.79500008        -4.87648977E-10
  -7.66200018        -5.02478281E-10
  -7.52899981        -5.18062815E-10
  -7.39599991        -5.35034406E-10
  -7.26300001        -5.54111312E-10
  -7.13000011        -5.76054704E-10
  -6.99700022        -6.01614536E-10
  -6.86399984        -6.31470265E-10
  -6.73099995        -6.66169508E-10
  -6.59800005        -7.06071590E-10
  -6.46500015        -7.51300411E-10
  -6.33199978        -8.01711586E-10
  -6.19899988        -8.56878790E-10
  -6.06599998        -9.16101028E-10
  -5.93300009        -9.78432113E-10
  -5.80000019        -1.04273190E-09
  -5.66699982        -1.10773490E-09
  -5.53399992        -1.17213361E-09
  -5.40100002        -1.23466781E-09
  -5.26800013        -1.29421474E-09
  -5.13500023        -1.34987121E-09
  -5.00199986        -1.40102074E-09
  -4.86899996        -1.44737966E-09
  -4.73600006        -1.48901713E-09
  -4.60300016        -1.52634683E-09
  -4.46999979        -1.56009072E-09
  -4.33699989        -1.59121472E-09
  -4.20400000        -1.62084524E-09
  -4.07100010        -1.65016989E-09
  -3.93799996        -1.68033132E-09
  -3.80500007        -1.71232517E-09
  -3.67199993        -1.74690884E-09
  -3.53900003        -1.78452897E-09
  -3.40599990        -1.82527626E-09
  -3.27300000        -1.86886995E-09
  -3.14000010        -1.91467309E-09
  -3.00699997        -1.96174099E-09
  -2.87400007        -2.00889128E-09
  -2.74099994        -2.05479922E-09
  -2.60800004        -2.09810036E-09
  -2.47499990        -2.13749685E-09
  -2.34200001        -2.17185692E-09
  -2.20900011        -2.20029506E-09
  -2.07599998        -2.22223040E-09
  -1.94299996        -2.23741403E-09
  -1.80999994        -2.24592234E-09
  -1.67700005        -2.24811791E-09
  -1.54400003        -2.24458185E-09
  -1.41100001        -2.23602070E-09
  -1.27800000        -2.22315566E-09
  -1.14499998        -2.20660779E-09
  -1.01199996        -2.18678209E-09
 -0.879000008        -2.16376961E-09
 -0.745999992        -2.13726614E-09
 -0.612999976        -2.10652273E-09
 -0.479999989        -2.07032769E-09
 -0.347000003        -2.02702388E-09
 -0.214000002        -1.97455807E-09
  -8.10000002E-02    -1.91056015E-09
   5.20000011E-02    -1.83244597E-09
  0.185000002        -1.73753190E-09
  0.317999989        -1.62315617E-09
  0.451000005        -1.48679424E-09
  0.583999991        -1.32616307E-09
  0.717000008        -1.13930043E-09
  0.850000024        -9.24622601E-10
  0.982999980        -6.80945633E-10
   1.11600006        -4.07484102E-10
   1.24899995        -1.03813250E-10
   1.38199997         2.30185621E-10
   1.51499999         5.94401306E-10
   1.64800000         9.88581772E-10
   1.78100002         1.41242529E-09
   1.91400003         1.86566140E-09
   2.04699993         2.34812791E-09
   2.18000007         2.85983126E-09
   2.31299996         3.40097861E-09
   2.44600010         3.97199740E-09
   2.57900000         4.57352201E-09
   2.71199989         5.20637622E-09
   2.84500003         5.87152549E-09
   2.97799993         6.57002408E-09
   3.11100006         7.30296446E-09
   3.24399996         8.07141554E-09
   3.37700009         8.87637785E-09
   3.50999999         9.71875469E-09
   3.64299989         1.05993267E-08
   3.77600002         1.15187637E-08
   3.90899992         1.24776447E-08
   4.04199982         1.34764857E-08
   4.17500019         1.45158223E-08
   4.30800009         1.55962621E-08
   4.44099998         1.67185608E-08
   4.57399988         1.78837123E-08
   4.70699978         1.90930098E-08
   4.84000015         2.03481250E-08
   4.97300005         2.16511413E-08
   5.10599995         2.30045991E-08
   5.23899984         2.44114915E-08
   5.37200022         2.58752539E-08
   5.50500011         2.73997394E-08
   5.63800001         2.89891453E-08
   5.77099991         3.06479571E-08
   5.90399981         3.23808393E-08
   6.03700018         3.41925670E-08
   6.17000008         3.60879469E-08
   6.30299997         3.80716969E-08
   6.43599987         4.01483859E-08
   6.56899977         4.23223945E-08
   6.70200014         4.45978543E-08
   6.83500004         4.69786485E-08
   6.96799994         4.94684080E-08
   7.10099983         5.20705434E-08
   7.23400021         5.47882983E-08
   7.36700010         5.76247494E-08
   7.50000000         6.05829413E-08
   7.63299990         6.36659010E-08
   7.76599979         6.68767015E-08
   7.89900017         7.02184479E-08
   8.03199959         7.36943875E-08
   8.16499996         7.73078099E-08
   8.29800034         8.10620762E-08
   8.43099976         8.49605470E-08
   8.56400013         8.90064982E-08
   8.69699955         9.32030346E-08
   8.82999992         9.75530199E-08
   8.96300030         1.02058955E-07
   9.09599972         1.06722943E-07
   9.22900009         1.11546584E-07
   9.36200047         1.16530899E-07
   9.49499989         1.21676379E-07
   9.62800026         1.26983039E-07
   9.76099968         1.32450396E-07
   9.89400005         1.38077553E-07
   10.0270004         1.43863375E-07
   10.1599998         1.49806510E-07
   10.2930002         1.55905639E-07
   10.4259996         1.62159466E-07
   10.5590000         1.68566913E-07
   10.6920004         1.75127127E-07
   10.8249998         1.81839539E-07
   10.9580002         1.88703950E-07
   11.0909996         1.95720261E-07
   11.2240000         2.02888700E-07
   11.3570004         2.10209507E-07
   11.4899998         2.17682867E-07
   11.6230001         2.25308796E-07
   11.7559996         2.33086993E-07
   11.8889999         2.41016778E-07
   12.0220003         2.49096928E-07
   12.1549997         2.57325667E-07
   12.2880001         2.65700749E-07
   12.4209995         2.74219190E-07
   12.5539999         2.82877920E-07
   12.6870003         2.91673388E-07
   12.8199997         3.00601897E-07
   12.9530001         3.09659697E-07
   13.0860004         3.18843263E-07
   13.2189999         3.28149241E-07
   13.3520002         3.37574647E-07
   13.4849997         3.47116838E-07
   13.6180000         3.56773540E-07
   13.7510004         3.66542679E-07
   13.8839998         3.76422349E-07
   14.0170002         3.86410505E-07
   14.1499996         3.96504788E-07
   14.2830000         4.06702327E-07
   14.4160004         4.16999370E-07
   14.5489998         4.27391200E-07
   14.6820002         4.37871677E-07
   14.8149996         4.48433610E-07
   14.9480000         4.59067905E-07
   15.0810003         4.69764217E-07
   15.2139997         4.80511005E-07
   15.3470001         4.91295111E-07
   15.4799995         5.02102523E-07
   15.6129999         5.12918234E-07
   15.7460003         5.23726612E-07
   15.8789997         5.34511912E-07
   16.0119991         5.45258047E-07
   16.1450005         5.55949100E-07
   16.2779999         5.66569327E-07
   16.4109993         5.77103435E-07
   16.5440006         5.87536078E-07
   16.6770000         5.97852647E-07
   16.8099995         6.08038363E-07
   16.9430008         6.18078559E-07
   17.0760002         6.27958173E-07
   17.2089996         6.37661685E-07
   17.3419991         6.47173238E-07
   17.4750004         6.56475891E-07
   17.6079998         6.65551966E-07
   17.7409992         6.74382534E-07
   17.8740005         6.82947871E-07
   18.0070000         6.91227172E-07
   18.1399994         6.99198836E-07
   18.2730007         7.06840467E-07
   18.4060001         7.14129442E-07
   18.5389996         7.21042738E-07
   18.6720009         7.27557449E-07
   18.8050003         7.33651063E-07
   18.9379997         7.39301356E-07
   19.0709991         7.44486726E-07
   19.2040005         7.49186597E-07
   19.3369999         7.53380789E-07
   19.4699993         7.57050316E-07
   19.6030006         7.60176533E-07
   19.7360001         7.62741422E-07
   19.8689995         7.64727474E-07
   20.0020008         7.66117580E-07
   20.1350002         7.66894289E-07
   20.2679996         7.67040319E-07
   20.4009991         7.66537994E-07
   20.5340004         7.65369009E-07
   20.6669998         7.63515061E-07
   20.7999992         7.60956880E-07
   20.9330006         7.57675139E-07
   21.0660000         7.53650056E-07
   21.1989994         7.48861169E-07
   21.3320007         7.43288467E-07
   21.4650002         7.36911716E-07
   21.5979996         7.29710905E-07
   21.7310009         7.21666197E-07
   21.8640003         7.12758776E-07
   21.9969997         7.02970055E-07
   22.1299992         6.92282015E-07
   22.2630005         6.80677829E-07
   22.3959999         6.68140899E-07
   22.5289993         6.54655253E-07
   22.6620007         6.40206054E-07
   22.7950001         6.24778863E-07
   22.9279995         6.08359585E-07
   23.0610008         5.90934690E-07
   23.1940002         5.72491160E-07
   23.3269997         5.53016207E-07
   23.4599991         5.32497552E-07
   23.5930004         5.10922860E-07
   23.7259998         4.88280932E-07
   23.8589993         4.64560486E-07
   23.9920006         4.39750579E-07
   24.1250000         4.13841462E-07
   24.2579994         3.86823586E-07
   24.3910007         3.58688823E-07
   24.5240002         3.29429753E-07
   24.6569996         2.99039812E-07
   24.7900009         2.67514025E-07
   24.9230003         2.34848216E-07
   25.0559998         2.01039526E-07
   25.1889992         1.66086494E-07
   25.3220005         1.29988436E-07
   25.4549999         9.27466886E-08
   25.5879993         5.43629959E-08
   25.7210007         1.48405457E-08
   25.8540001        -2.58168296E-08
   25.9869995        -6.76038923E-08
   26.1200008        -1.10514996E-07
   26.2530003        -1.54543187E-07
   26.3859997        -1.99680713E-07
   26.5189991        -2.45919438E-07
   26.6520004        -2.93249713E-07
   26.7849998        -3.41661945E-07
   26.9179993        -3.91144681E-07
   27.0510006        -4.41686268E-07
   27.1840000        -4.93273774E-07
   27.3169994        -5.45893272E-07
   27.4500008        -5.99529358E-07
   27.5830002        -6.54166001E-07
   27.7159996        -7.09786377E-07
   27.8490009        -7.66371443E-07
   27.9820004        -8.23901701E-07
   28.1149998        -8.82356346E-07
   28.2479992        -9.41713552E-07
   28.3810005        -1.00194995E-06
   28.5139999        -1.06304128E-06
   28.6469994        -1.12496207E-06
   28.7800007        -1.18768594E-06
   28.9130001        -1.25118527E-06
   29.0459995        -1.31543163E-06
   29.1790009        -1.38039513E-06
   29.3120003        -1.44604553E-06
   29.4449997        -1.51235099E-06
   29.5779991        -1.57927877E-06
   29.7110004        -1.64679534E-06
   29.8439999        -1.71486624E-06
   29.9769993        -1.78345579E-06
   30.1100006        -1.85252736E-06
   30.2430000        -1.92204402E-06
   30.3759995        -1.99196711E-06
   30.5090008        -2.06225786E-06
   30.6420002        -2.13287694E-06
   30.7749996        -2.20378320E-06
   30.9080009        -2.27493638E-06
   31.0410004        -2.34629488E-06
   31.1739998        -2.41781709E-06
   31.3069992        -2.48946094E-06
   31.4400005        -2.56118415E-06
   31.5730000        -2.63294442E-06
   31.7059994        -2.70469900E-06
   31.8390007        -2.77640561E-06
   31.9720001        -2.84802104E-06
   32.1049995        -2.91950232E-06
   32.2379990        -2.99080557E-06
   32.3709984        -3.06188713E-06
   32.5040016        -3.13270334E-06
   32.6370010        -3.20320896E-06
   32.7700005        -3.27335829E-06
   32.9029999        -3.34310562E-06
   33.0359993        -3.41240411E-06
   33.1689987        -3.48120648E-06
   33.3019981        -3.54946405E-06
   33.4350014        -3.61712773E-06
   33.5680008        -3.68414771E-06
   33.7010002        -3.75047352E-06
   33.8339996        -3.81605469E-06
   33.9669991        -3.88083890E-06
   34.0999985        -3.94477456E-06
   34.2330017        -4.00780982E-06
   34.3660011        -4.06989147E-06
   34.4990005        -4.13096814E-06
   34.6320000        -4.19098569E-06
   34.7649994        -4.24989230E-06
   34.8979988        -4.30763430E-06
   35.0309982        -4.36415849E-06
   35.1640015        -4.41941120E-06
   35.2970009        -4.47333969E-06
   35.4300003        -4.52588938E-06
   35.5629997        -4.57700708E-06
   35.6959991        -4.62663866E-06
   35.8289986        -4.67472910E-06
   35.9620018        -4.72122565E-06
   36.0950012        -4.76607283E-06
   36.2280006        -4.80921744E-06
   36.3610001        -4.85060582E-06
   36.4939995        -4.89018475E-06
   36.6269989        -4.92790150E-06
   36.7599983        -4.96370512E-06
   36.8930016        -4.99754515E-06
   37.0260010        -5.02937110E-06
   37.1590004        -5.05913567E-06
   37.2919998        -5.08679113E-06
   37.4249992        -5.11229200E-06
   37.5579987        -5.13559371E-06
   37.6910019        -5.15665306E-06
   37.8240013        -5.17542685E-06
   37.9570007        -5.19187415E-06
   38.0900002        -5.20595358E-06
   38.2229996        -5.21762604E-06
   38.3559990        -5.22685195E-06
   38.4889984        -5.23359222E-06
   38.6220016        -5.23780909E-06
   38.7550011        -5.23946437E-06
   38.8880005        -5.23852077E-06
   39.0209999        -5.23494236E-06
   39.1539993        -5.22869232E-06
   39.2869987        -5.21973607E-06
   39.4199982        -5.20803951E-06
   39.5530014        -5.19356854E-06
   39.6860008        -5.17629269E-06
   39.8190002        -5.15618012E-06
   39.9519997        -5.13320265E-06
   40.0849991        -5.10733207E-06
   40.2179985        -5.07854293E-06
   40.3510017        -5.04681020E-06
   40.4840012        -5.01211207E-06
   40.6170006        -4.97442534E-06
   40.7500000        -4.93373227E-06
   40.8829994        -4.89001377E-06
   41.0159988        -4.84325301E-06
   41.1489983        -4.79343453E-06
   41.2820015        -4.74054514E-06
   41.4150009        -4.68457210E-06
   41.5480003        -4.62550406E-06
   41.6809998        -4.56333328E-06
   41.8139992        -4.49805248E-06
   41.9469986        -4.42965711E-06
   42.0800018        -4.35814309E-06
   42.2130013        -4.28351132E-06
   42.3460007        -4.20576225E-06
   42.4790001        -4.12490135E-06
   42.6119995        -4.04093544E-06
   42.7449989        -3.95387360E-06
   42.8779984        -3.86372812E-06
   43.0110016        -3.77051333E-06
   43.1440010        -3.67424627E-06
   43.2770004        -3.57494673E-06
   43.4099998        -3.47263563E-06
   43.5429993        -3.36733706E-06
   43.6759987        -3.25907627E-06
   43.8089981        -3.14788053E-06
   43.9420013        -3.03377874E-06
   44.0750008        -2.91680135E-06
   44.2080002        -2.79698043E-06
   44.3409996        -2.67435053E-06
   44.4739990        -2.54894735E-06
   44.6069984        -2.42080819E-06
   44.7400017        -2.28997237E-06
   44.8730011        -2.15648129E-06
   45.0060005        -2.02037972E-06
   45.1389999        -1.88171373E-06
   45.2719994        -1.74053150E-06
   45.4049988        -1.59688341E-06
   45.5379982        -1.45082390E-06
   45.6710014        -1.30240744E-06
   45.8040009        -1.15169269E-06
   45.9370003        -9.98739097E-07
   46.0699997        -8.43608632E-07
   46.2029991        -6.86363705E-07
   46.3359985        -5.27069346E-07
   46.4690018        -3.65791493E-07
   46.6020012        -2.02596837E-07
   46.7350006        -3.75524749E-08
   46.8680000         1.29273403E-07
   47.0009995         2.97811908E-07
   47.1339989         4.67993345E-07
   47.2669983         6.39747213E-07
   47.4000015         8.13003680E-07
   47.5330009         9.87690896E-07
   47.6660004         1.16373633E-06
   47.7989998         1.34106699E-06
   47.9319992         1.51960717E-06
   48.0649986         1.69928308E-06
   48.1980019         1.88001820E-06
   48.3310013         2.06173604E-06
   48.4640007         2.24435848E-06
   48.5970001         2.42780766E-06
   48.7299995         2.61200489E-06
   48.8629990         2.79687129E-06
   48.9959984         2.98232908E-06
   49.1290016         3.16829937E-06
   49.2620010         3.35470486E-06
   49.3950005         3.54146778E-06
   49.5279999         3.72851218E-06
   49.6609993         3.91576214E-06
   49.7939987         4.10314260E-06
   49.9269981         4.29058036E-06
   50.0600014         4.47800267E-06
   50.1930008         4.66533675E-06
   50.3260002         4.85251076E-06
   50.4589996         5.03945421E-06
   50.5919991         5.22609616E-06
   50.7249985         5.41236750E-06
   50.8580017         5.59819910E-06
   50.9910011         5.78352274E-06
   51.1240005         5.96827067E-06
   51.2570000         6.15237741E-06
   51.3899994         6.33577611E-06
   51.5229988         6.51840355E-06
   51.6559982         6.70019836E-06
   51.7890015         6.88110003E-06
   51.9220009         7.06105129E-06
   52.0550003         7.23999665E-06
   52.1879997         7.41788335E-06
   52.3209991         7.59466093E-06
   52.4539986         7.77028254E-06
   52.5870018         7.94470179E-06
   52.7200012         8.11787868E-06
   52.8530006         8.28977136E-06
   52.9860001         8.46034163E-06
   53.1189995         8.62955403E-06
   53.2519989         8.79737217E-06
   53.3849983         8.96376241E-06
   53.5180016         9.12869382E-06
   53.6510010         9.29213547E-06
   53.7840004         9.45405554E-06
   53.9169998         9.61442584E-06
   54.0499992         9.77321906E-06
   54.1829987         9.93041067E-06
   54.3160019         1.00859725E-05
   54.4490013         1.02398844E-05
   54.5820007         1.03921248E-05
   54.7150002         1.05426743E-05
   54.8479996         1.06915186E-05
   54.9809990         1.08386421E-05
   55.1139984         1.09840348E-05
   55.2470016         1.11276877E-05
   55.3800011         1.12695943E-05
   55.5130005         1.14097520E-05
   55.6459999         1.15481562E-05
   55.7789993         1.16848078E-05
   55.9119987         1.18197067E-05
   56.0449982         1.19528549E-05
   56.1780014         1.20842533E-05
   56.3110008         1.22139054E-05
   56.4440002         1.23418104E-05
   56.5769997         1.24679718E-05
   56.7099991         1.25923907E-05
   56.8429985         1.27150652E-05
   56.9760017         1.28359998E-05
   57.1090012         1.29551918E-05
   57.2420006         1.30726421E-05
   57.3750000         1.31883507E-05
   57.5079994         1.33023168E-05
   57.6409988         1.34145421E-05
   57.7739983         1.35250284E-05
   57.9070015         1.36337749E-05
   58.0400009         1.37407842E-05
   58.1730003         1.38460564E-05
   58.3059998         1.39495942E-05
   58.4389992         1.40513957E-05
   58.5719986         1.41514620E-05
   58.7050018         1.42497893E-05
   58.8380013         1.43463740E-05
   58.9710007         1.44412097E-05
   59.1040001         1.45342847E-05
   59.2369995         1.46255870E-05
   59.3699989         1.47151031E-05
   59.5029984         1.48028103E-05
   59.6360016         1.48886884E-05
   59.7690010         1.49727121E-05
   59.9020004         1.50548522E-05
   60.0349998         1.51350787E-05
   60.1679993         1.52133589E-05
   60.3009987         1.52896555E-05
   60.4339981         1.53639376E-05
   60.5670013         1.54361642E-05
   60.7000008         1.55062953E-05
   60.8330002         1.55742928E-05
   60.9659996         1.56401165E-05
   61.0989990         1.57037211E-05
   61.2319984         1.57650647E-05
   61.3650017         1.58241019E-05
   61.4980011         1.58807852E-05
   61.6310005         1.59350620E-05
   61.7639999         1.59868832E-05
   61.8969994         1.60361906E-05
   62.0299988         1.60829259E-05
   62.1629982         1.61270254E-05
   62.2960014         1.61684238E-05
   62.4290009         1.62070519E-05
   62.5620003         1.62428369E-05
   62.6949997         1.62757042E-05
   62.8279991         1.63055720E-05
   62.9609985         1.63323621E-05
   63.0940018         1.63559907E-05
   63.2270012         1.63763725E-05
   63.3600006         1.63934219E-05
   63.4930000         1.64070498E-05
   63.6259995         1.64171670E-05
   63.7589989         1.64236826E-05
   63.8919983         1.64265039E-05
   64.0250015         1.64255398E-05
   64.1579971         1.64206922E-05
   64.2910004         1.64118665E-05
   64.4240036         1.63989662E-05
   64.5569992         1.63818877E-05
   64.6900024         1.63605309E-05
   64.8229980         1.63347941E-05
   64.9560013         1.63045715E-05
   65.0889969         1.62697525E-05
   65.2220001         1.62302349E-05
   65.3550034         1.61859061E-05
   65.4879990         1.61366606E-05
   65.6210022         1.60823893E-05
   65.7539978         1.60229847E-05
   65.8870010         1.59583378E-05
   66.0199966         1.58883468E-05
   66.1529999         1.58129078E-05
   66.2860031         1.57319173E-05
   66.4189987         1.56452807E-05
   66.5520020         1.55528978E-05
   66.6849976         1.54546797E-05
   66.8180008         1.53505298E-05
   66.9509964         1.52403609E-05
   67.0839996         1.51240865E-05
   67.2170029         1.50016203E-05
   67.3499985         1.48728795E-05
   67.4830017         1.47377841E-05
   67.6159973         1.45962531E-05
   67.7490005         1.44482110E-05
   67.8820038         1.42935833E-05
   68.0149994         1.41322980E-05
   68.1480026         1.39642871E-05
   68.2809982         1.37894849E-05
   68.4140015         1.36078324E-05
   68.5469971         1.34192733E-05
   68.6800003         1.32237574E-05
   68.8130035         1.30212384E-05
   68.9459991         1.28116772E-05
   69.0790024         1.25950401E-05
   69.2119980         1.23712980E-05
   69.3450012         1.21404273E-05
   69.4779968         1.19024135E-05
   69.6110001         1.16572455E-05
   69.7440033         1.14049153E-05
   69.8769989         1.11454256E-05
   70.0100021         1.08787790E-05
   70.1429977         1.06049847E-05
   70.2760010         1.03240591E-05
   70.4089966         1.00360185E-05
   70.5419998         9.74089016E-06
   70.6750031         9.43870236E-06
   70.8079987         9.12949235E-06
   70.9410019         8.81329925E-06
   71.0739975         8.49017124E-06
   71.2070007         8.16016382E-06
   71.3399963         7.82333700E-06
   71.4729996         7.47975855E-06
   71.6060028         7.12950532E-06
   71.7389984         6.77265871E-06
   71.8720016         6.40930966E-06
   72.0049973         6.03955550E-06
   72.1380005         5.66350081E-06
   72.2710037         5.28125702E-06
   72.4039993         4.89294098E-06
   72.5370026         4.49867548E-06
   72.6699982         4.09858876E-06
   72.8030014         3.69281429E-06
   72.9359970         3.28148985E-06
   73.0690002         2.86475665E-06
   73.2020035         2.44276202E-06
   73.3349991         2.01565558E-06
   73.4680023         1.58359126E-06
   73.6009979         1.14672866E-06
   73.7340012         7.05230775E-07
   73.8669968         2.59265562E-07
   74.0000000        -1.90993816E-07
   74.1330032        -6.45369028E-07
   74.2659988        -1.10367603E-06
   74.3990021        -1.56572514E-06
   74.5319977        -2.03132163E-06
   74.6650009        -2.50026415E-06
   74.7979965        -2.97234715E-06
   74.9309998        -3.44735940E-06
   75.0640030        -3.92508537E-06
   75.1969986        -4.40530584E-06
   75.3300018        -4.88779779E-06
   75.4629974        -5.37233473E-06
   75.5960007        -5.85868884E-06
   75.7289963        -6.34662911E-06
   75.8619995        -6.83592407E-06
   75.9950027        -7.32634089E-06
   76.1279984        -7.81764538E-06
   76.2610016        -8.30960289E-06
   76.3939972        -8.80197695E-06
   76.5270004        -9.29453199E-06
   76.6600037        -9.78702883E-06
   76.7929993        -1.02792292E-05
   76.9260025        -1.07708920E-05
   77.0589981        -1.12617754E-05
   77.1920013        -1.17516347E-05
   77.3249969        -1.22402234E-05
   77.4580002        -1.27272970E-05
   77.5910034        -1.32126052E-05
   77.7239990        -1.36959006E-05
   77.8570023        -1.41769315E-05
   77.9899979        -1.46554494E-05
   78.1230011        -1.51312061E-05
   78.2559967        -1.56039514E-05
   78.3889999        -1.60734435E-05
   78.5220032        -1.65394340E-05
   78.6549988        -1.70016847E-05
   78.7880020        -1.74599572E-05
   78.9209976        -1.79140188E-05
   79.0540009        -1.83636348E-05
   79.1869965        -1.88085814E-05
   79.3199997        -1.92486332E-05
   79.4530029        -1.96835681E-05
   79.5859985        -2.01131716E-05
   79.7190018        -2.05372253E-05
   79.8519974        -2.09555201E-05
   79.9850006        -2.13678413E-05
   80.1179962        -2.17739889E-05
   80.2509995        -2.21737519E-05
   80.3840027        -2.25669282E-05
   80.5169983        -2.29533198E-05
   80.6500015        -2.33327301E-05
   80.7829971        -2.37049662E-05
   80.9160004        -2.40698373E-05
   81.0490036        -2.44271614E-05
   81.1819992        -2.47767584E-05
   81.3150024        -2.51184538E-05
   81.4479980        -2.54520801E-05
   81.5810013        -2.57774736E-05
   81.7139969        -2.60944780E-05
   81.8470001        -2.64029441E-05
   81.9800034        -2.67027281E-05
   82.1129990        -2.69936900E-05
   82.2460022        -2.72756970E-05
   82.3789978        -2.75486218E-05
   82.5120010        -2.78123425E-05
   82.6449966        -2.80667427E-05
   82.7779999        -2.83117097E-05
   82.9110031        -2.85471342E-05
   83.0439987        -2.87729144E-05
   83.1770020        -2.89889540E-05