  -24.4200001       0.00000000    
  -24.2900009       0.00000000    
  -24.1599998      -1.58845826E-17
  -24.0300007      -7.25165619E-17
  -23.8999996      -1.91607019E-16
  -23.7700005      -3.79251273E-16
  -23.6399994      -6.18505364E-16
  -23.5100002      -8.70866654E-16
  -23.3799992      -1.08741073E-15
  -23.2500000      -1.22660832E-15
  -23.1200008      -1.27270967E-15
  -22.9899998      -1.24722213E-15
  -22.8600006      -1.20700088E-15
  -22.7299995      -1.22586917E-15
  -22.6000004      -1.36156893E-15
  -22.4699993      -1.61493142E-15
  -22.3400002      -1.89187858E-15
  -22.2099991      -1.97994566E-15
  -22.0799999      -1.54880599E-15
  -21.9500008      -1.79108478E-16
  -21.8199997       2.58304074E-15
  -21.6900005       7.15561575E-15
  -21.5599995       1.38489836E-14
  -21.4300003       2.28094470E-14
  -21.2999992       3.39918523E-14
  -21.1700001       4.71689541E-14
  -21.0400009       6.19766554E-14
  -20.9099998       7.79855713E-14
  -20.7800007       9.47827700E-14
  -20.6499996       1.12045261E-13
  -20.5200005       1.29589021E-13
  -20.3899994       1.47383909E-13
  -20.2600002       1.65534836E-13
  -20.1299992       1.84237879E-13
  -20.0000000       2.03728541E-13
  -19.8700008       2.24240616E-13
  -19.7399998       2.45992083E-13
  -19.6100006       2.69205285E-13
  -19.4799995       2.94159038E-13
  -19.3500004       3.21258645E-13
  -19.2199993       3.51101418E-13
  -19.0900002       3.84514604E-13
  -18.9599991       4.22545028E-13
  -18.8299999       4.66391899E-13
  -18.7000008       5.17286572E-13
  -18.5699997       5.76339107E-13
  -18.4400005       6.44381087E-13
  -18.3099995       7.21839526E-13
  -18.1800003       8.08672302E-13
  -18.0499992       9.04383339E-13
  -17.9200001       1.00812273E-12
  -17.7900009       1.11885317E-12
  -17.6599998       1.23555528E-12
  -17.5300007       1.35742893E-12
  -17.3999996       1.48405528E-12
  -17.2700005       1.61548769E-12
  -17.1399994       1.75225687E-12
  -17.0100002       1.89529837E-12
  -16.8799992       2.04582445E-12
  -16.7500000       2.20517159E-12
  -16.6200008       2.37466513E-12
  -16.4899998       2.55552871E-12
  -16.3600006       2.74885128E-12
  -16.2299995       2.95561362E-12
  -16.1000004       3.17674728E-12
  -15.9700003       3.41319941E-12
  -15.8400002       3.66596076E-12
  -15.7100000       3.93603466E-12
  -15.5799999       4.22433876E-12
  -15.4499998       4.53154398E-12
  -15.3199997       4.85789924E-12
  -15.1899996       5.20308362E-12
  -15.0600004       5.56613913E-12
  -14.9300003       5.94552532E-12
  -14.8000002       6.33931536E-12
  -14.6700001       6.74551127E-12
  -14.5400000       7.16243124E-12
  -14.4099998       7.58907347E-12
  -14.2799997       8.02539458E-12
  -14.1499996       8.47239553E-12
  -14.0200005       8.93199230E-12
  -13.8900003       9.40665341E-12
  -13.7600002       9.89889334E-12
  -13.6300001       1.04107122E-11
  -13.5000000       1.09431422E-11
  -13.3699999       1.14960038E-11
  -13.2399998       1.20680072E-11
  -13.1099997       1.26571991E-11
  -12.9799995       1.32616834E-11
  -12.8500004       1.38804844E-11
  -12.7200003       1.45143004E-11
  -12.5900002       1.51659605E-11
  -12.4600000       1.58403325E-11
  -12.3299999       1.65436224E-11
  -12.1999998       1.72820352E-11
  -12.0699997       1.80600881E-11
  -11.9399996       1.88787822E-11
  -11.8100004       1.97341345E-11
  -11.6800003       2.06164183E-11
  -11.5500002       2.15105017E-11
  -11.4200001       2.23973444E-11
  -11.2900000       2.32567247E-11
  -11.1599998       2.40706535E-11
  -11.0299997       2.48271282E-11
  -10.8999996       2.55234219E-11
  -10.7700005       2.61681909E-11
  -10.6400003       2.67818649E-11
  -10.5100002       2.73949648E-11
  -10.3800001       2.80442614E-11
  -10.2500000       2.87672178E-11
  -10.1199999       2.95955031E-11
  -9.98999977       3.05484353E-11
  -9.85999966       3.16275652E-11
  -9.72999954       3.28134395E-11
  -9.60000038       3.40651465E-11
  -9.47000027       3.53232582E-11
  -9.34000015       3.65157661E-11
  -9.21000004       3.75663702E-11
  -9.07999992       3.84041965E-11
  -8.94999981       3.89732829E-11
  -8.81999969       3.92404650E-11
  -8.68999958       3.92005595E-11
  -8.56000042       3.88777760E-11
  -8.43000031       3.83232647E-11
  -8.30000019       3.76091762E-11
  -8.17000008       3.68203940E-11
  -8.03999996       3.60454756E-11
  -7.90999985       3.53688259E-11
  -7.78000021       3.48656486E-11
  -7.65000010       3.46017867E-11
  -7.51999998       3.46388300E-11
  -7.38999987       3.50452341E-11
  -7.26000023       3.59122697E-11
  -7.13000011       3.73734377E-11
  -7.00000000       3.96247653E-11
  -6.86999989       4.29431213E-11
  -6.73999977       4.76991294E-11
  -6.61000013       5.43614771E-11
  -6.48000002       6.34899008E-11
  -6.34999990       7.57145180E-11
  -6.21999979       9.17012022E-11
  -6.09000015       1.12102300E-10
  -5.96000004       1.37496139E-10
  -5.82999992       1.68316583E-10
  -5.69999981       2.04779638E-10
  -5.57000017       2.46810961E-10
  -5.44000006       2.93982089E-10
  -5.30999994       3.45461687E-10
  -5.17999983       3.99987876E-10
  -5.05000019       4.55866761E-10
  -4.92000008       5.11000742E-10
  -4.78999996       5.62946967E-10
  -4.65999985       6.09004569E-10
  -4.53000021       6.46326159E-10
  -4.40000010       6.72046863E-10
  -4.26999998       6.83420931E-10
  -4.13999987       6.77957579E-10
  -4.01000023       6.53543442E-10
  -3.88000011       6.08542328E-10
  -3.75000000       5.41865386E-10
  -3.61999989       4.53004134E-10
  -3.49000001       3.42024131E-10
  -3.35999990       2.09520956E-10
  -3.23000002       5.65405604E-11
  -3.09999990      -1.15528614E-10
  -2.97000003      -3.05082515E-10
  -2.83999991      -5.10438358E-10
  -2.71000004      -7.29971417E-10
  -2.57999992      -9.62240176E-10
  -2.45000005      -1.20609434E-09
  -2.31999993      -1.46075663E-09
  -2.19000006      -1.72587566E-09
  -2.05999994      -2.00154671E-09
  -1.92999995      -2.28830266E-09
  -1.79999995      -2.58707633E-09
  -1.66999996      -2.89914026E-09
  -1.53999996      -3.22602922E-09
  -1.40999997      -3.56945229E-09
  -1.27999997      -3.93120603E-09
  -1.14999998      -4.31309033E-09
  -1.01999998      -4.71684070E-09
 -0.889999986      -5.14407850E-09
 -0.759999990      -5.59628344E-09
 -0.629999995      -6.07479134E-09
 -0.500000000      -6.58081811E-09
 -0.370000005      -7.11549974E-09
 -0.239999995      -7.67995179E-09
 -0.109999999      -8.27533686E-09
   1.99999996E-02  -8.90293084E-09
  0.150000006      -9.56418500E-09
  0.280000001      -1.02607736E-08
  0.409999996      -1.09946230E-08
  0.540000021      -1.17679226E-08
  0.670000017      -1.25831061E-08
  0.800000012      -1.34428264E-08
  0.930000007      -1.43499026E-08
   1.05999994      -1.53072612E-08
   1.19000006      -1.63178768E-08
   1.32000005      -1.73847123E-08
   1.45000005      -1.85106668E-08
   1.58000004      -1.96985273E-08
   1.71000004      -2.09509601E-08
   1.84000003      -2.22704966E-08
   1.97000003      -2.36595383E-08
   2.09999990      -2.51203875E-08
   2.23000002      -2.66552931E-08
   2.35999990      -2.82664949E-08
   2.49000001      -2.99562757E-08
   2.61999989      -3.17270334E-08
   2.75000000      -3.35813297E-08
   2.88000011      -3.55219534E-08
   3.00999999      -3.75519598E-08
   3.14000010      -3.96747168E-08
   3.26999998      -4.18939123E-08
   3.40000010      -4.42135928E-08
   3.52999997      -4.66381387E-08
   3.66000009      -4.91722645E-08
   3.78999996      -5.18209902E-08
   3.92000008      -5.45896270E-08
   4.05000019      -5.74837280E-08
   4.17999983      -6.05090591E-08
   4.30999994      -6.36715569E-08
   4.44000006      -6.69773002E-08
   4.57000017      -7.04324705E-08
   4.69999981      -7.40433137E-08
   4.82999992      -7.78160825E-08
   4.96000004      -8.17570083E-08
   5.09000015      -8.58722515E-08
   5.21999979      -9.01678803E-08
   5.34999990      -9.46497849E-08
   5.48000002      -9.93236640E-08
   5.61000013      -1.04195010E-07
   5.73999977      -1.09269060E-07
   5.86999989      -1.14550886E-07
   6.00000000      -1.20045328E-07
   6.13000011      -1.25757111E-07
   6.26000023      -1.31690896E-07
   6.38999987      -1.37851401E-07
   6.51999998      -1.44243444E-07
   6.65000010      -1.50872125E-07
   6.78000021      -1.57742861E-07
   6.90999985      -1.64861490E-07
   7.03999996      -1.72234337E-07
   7.17000008      -1.79868238E-07
   7.30000019      -1.87770539E-07
   7.42999983      -1.95949099E-07
   7.55999994      -2.04412203E-07
   7.69000006      -2.13168448E-07
   7.82000017      -2.22226674E-07
   7.94999981      -2.31595862E-07
   8.07999992      -2.41284880E-07
   8.21000004      -2.51302509E-07
   8.34000015      -2.61657249E-07
   8.47000027      -2.72357227E-07
   8.60000038      -2.83410174E-07
   8.72999954      -2.94823309E-07
   8.85999966      -3.06603482E-07
   8.98999977      -3.18757202E-07
   9.11999989      -3.31290551E-07
   9.25000000      -3.44209610E-07
   9.38000011      -3.57520236E-07
   9.51000023      -3.71228424E-07
   9.64000034      -3.85340201E-07
   9.77000046      -3.99861932E-07
   9.89999962      -4.14800127E-07
   10.0299997      -4.30161606E-07
   10.1599998      -4.45953333E-07
   10.2900000      -4.62182498E-07
   10.4200001      -4.78856236E-07
   10.5500002      -4.95981510E-07
   10.6800003      -5.13565169E-07
   10.8100004      -5.31613637E-07
   10.9399996      -5.50132711E-07
   11.0699997      -5.69127906E-07
   11.1999998      -5.88604053E-07
   11.3299999      -6.08565415E-07
   11.4600000      -6.29015801E-07
   11.5900002      -6.49958565E-07
   11.7200003      -6.71396663E-07
   11.8500004      -6.93333050E-07
   11.9799995      -7.15770454E-07
   12.1099997      -7.38711663E-07
   12.2399998      -7.62159459E-07
   12.3699999      -7.86116971E-07
   12.5000000      -8.10587437E-07
   12.6300001      -8.35574099E-07
   12.7600002      -8.61080252E-07
   12.8900003      -8.87109081E-07
   13.0200005      -9.13663484E-07
   13.1499996      -9.40746020E-07
   13.2799997      -9.68358222E-07
   13.4099998      -9.96501171E-07
   13.5400000      -1.02517436E-06
   13.6700001      -1.05437653E-06
   13.8000002      -1.08410484E-06
   13.9300003      -1.11435554E-06
   14.0600004      -1.14512318E-06
   14.1899996      -1.17640172E-06
   14.3199997      -1.20818413E-06
   14.4499998      -1.24046267E-06
   14.5799999      -1.27322926E-06
   14.7100000      -1.30647561E-06
   14.8400002      -1.34019376E-06
   14.9700003      -1.37437576E-06
   15.1000004      -1.40901443E-06
   15.2299995      -1.44410285E-06
   15.3599997      -1.47963465E-06
   15.4899998      -1.51560437E-06
   15.6199999      -1.55200644E-06
   15.7500000      -1.58883574E-06
   15.8800001      -1.62608774E-06
   16.0100002      -1.66375719E-06
   16.1399994      -1.70183887E-06
   16.2700005      -1.74032732E-06
   16.3999996      -1.77921618E-06
   16.5300007      -1.81849884E-06
   16.6599998      -1.85816748E-06
   16.7900009      -1.89821390E-06
   16.9200001      -1.93862843E-06
   17.0499992      -1.97940062E-06
   17.1800003      -2.02051910E-06
   17.3099995      -2.06197160E-06
   17.4400005      -2.10374515E-06
   17.5699997      -2.14582519E-06
   17.7000008      -2.18819719E-06
   17.8299999      -2.23084521E-06
   17.9599991      -2.27375267E-06
   18.0900002      -2.31690251E-06
   18.2199993      -2.36027699E-06
   18.3500004      -2.40385816E-06
   18.4799995      -2.44762646E-06
   18.6100006      -2.49156301E-06
   18.7399998      -2.53564826E-06
   18.8700008      -2.57986221E-06
   19.0000000      -2.62418462E-06
   19.1299992      -2.66859524E-06
   19.2600002      -2.71307408E-06
   19.3899994      -2.75760090E-06
   19.5200005      -2.80215522E-06
   19.6499996      -2.84671705E-06
   19.7800007      -2.89126638E-06
   19.9099998      -2.93578341E-06
   20.0400009      -2.98024815E-06
   20.1700001      -3.02464059E-06
   20.2999992      -3.06894049E-06
   20.4300003      -3.11312692E-06
   20.5599995      -3.15717875E-06
   20.6900005      -3.20107415E-06
   20.8199997      -3.24479015E-06
   20.9500008      -3.28830401E-06
   21.0799999      -3.33159051E-06
   21.2099991      -3.37462438E-06
   21.3400002      -3.41737973E-06
   21.4699993      -3.45982949E-06
   21.6000004      -3.50194659E-06
   21.7299995      -3.54370309E-06
   21.8600006      -3.58507145E-06
   21.9899998      -3.62602373E-06
   22.1200008      -3.66653217E-06
   22.2500000      -3.70656949E-06
   22.3799992      -3.74610886E-06
   22.5100002      -3.78512368E-06
   22.6399994      -3.82358894E-06
   22.7700005      -3.86147940E-06
   22.8999996      -3.89877187E-06
   23.0300007      -3.93544178E-06
   23.1599998      -3.97146778E-06
   23.2900009      -4.00682666E-06
   23.4200001      -4.04149569E-06
   23.5499992      -4.07545258E-06
   23.6800003      -4.10867324E-06
   23.8099995      -4.14113447E-06
   23.9400005      -4.17281126E-06
   24.0699997      -4.20367815E-06
   24.2000008      -4.23370921E-06
   24.3299999      -4.26287761E-06
   24.4599991      -4.29115653E-06
   24.5900002      -4.31851777E-06
   24.7199993      -4.34493541E-06
   24.8500004      -4.37038079E-06
   24.9799995      -4.39482847E-06
   25.1100006      -4.41825114E-06
   25.2399998      -4.44062289E-06
   25.3700008      -4.46191825E-06
   25.5000000      -4.48211222E-06
   25.6299992      -4.50117932E-06
   25.7600002      -4.51909546E-06
   25.8899994      -4.53583607E-06
   26.0200005      -4.55137751E-06
   26.1499996      -4.56569569E-06
   26.2800007      -4.57876740E-06
   26.4099998      -4.59056810E-06
   26.5400009      -4.60107367E-06
   26.6700001      -4.61026048E-06
   26.7999992      -4.61810350E-06
   26.9300003      -4.62457774E-06
   27.0599995      -4.62965681E-06
   27.1900005      -4.63331480E-06
   27.3199997      -4.63552487E-06
   27.4500008      -4.63626066E-06
   27.5799999      -4.63549486E-06
   27.7099991      -4.63320202E-06
   27.8400002      -4.62935668E-06
   27.9699993      -4.62393291E-06
   28.1000004      -4.61690570E-06
   28.2299995      -4.60825095E-06
   28.3600006      -4.59794455E-06
   28.4899998      -4.58596332E-06
   28.6200008      -4.57228316E-06
   28.7500000      -4.55688223E-06
   28.8799992      -4.53973826E-06
   29.0100002      -4.52082895E-06
   29.1399994      -4.50013295E-06
   29.2700005      -4.47762977E-06
   29.3999996      -4.45329852E-06
   29.5300007      -4.42711917E-06
   29.6599998      -4.39907262E-06
   29.7900009      -4.36913933E-06
   29.9200001      -4.33730065E-06
   30.0499992      -4.30353703E-06
   30.1800003      -4.26783072E-06
   30.3099995      -4.23016218E-06
   30.4400005      -4.19051321E-06
   30.5699997      -4.14886608E-06
   30.7000008      -4.10520261E-06
   30.8299999      -4.05950686E-06
   30.9599991      -4.01176248E-06
   31.0900002      -3.96195401E-06
   31.2199993      -3.91006688E-06
   31.3500004      -3.85608746E-06
   31.4799995      -3.80000301E-06
   31.6100006      -3.74180149E-06
   31.7399998      -3.68147175E-06
   31.8700008      -3.61900220E-06
   32.0000000      -3.55438283E-06
   32.1300011      -3.48760477E-06
   32.2599983      -3.41865916E-06
   32.3899994      -3.34753872E-06
   32.5200005      -3.27423686E-06
   32.6500015      -3.19874857E-06
   32.7799988      -3.12106977E-06
   32.9099998      -3.04119703E-06
   33.0400009      -2.95912923E-06
   33.1699982      -2.87486523E-06
   33.2999992      -2.78840480E-06
   33.4300003      -2.69974930E-06
   33.5600014      -2.60890101E-06
   33.6899986      -2.51586266E-06
   33.8199997      -2.42063857E-06
   33.9500008      -2.32323396E-06
   34.0800018      -2.22365566E-06
   34.2099991      -2.12191162E-06
   34.3400002      -2.01801117E-06
   34.4700012      -1.91196546E-06
   34.5999985      -1.80378674E-06
   34.7299995      -1.69348857E-06
   34.8600006      -1.58108571E-06
   34.9900017      -1.46659443E-06
   35.1199989      -1.35003222E-06
   35.2500000      -1.23141729E-06
   35.3800011      -1.11076906E-06
   35.5099983      -9.88108013E-07
   35.6399994      -8.63455227E-07
   35.7700005      -7.36833670E-07
   35.9000015      -6.08266987E-07
   36.0299988      -4.77780077E-07
   36.1599998      -3.45399116E-07
   36.2900009      -2.11151459E-07
   36.4199982      -7.50661187E-08
   36.5499992       6.28269845E-08
   36.6800003       2.02496281E-07
   36.8100014       3.43908425E-07
   36.9399986       4.87028160E-07
   37.0699997       6.31817670E-07
   37.2000008       7.78237847E-07
   37.3300018       9.26246571E-07
   37.4599991       1.07579922E-06
   37.5900002       1.22684833E-06
   37.7200012       1.37934421E-06
   37.8499985       1.53323481E-06
   37.9799995       1.68846532E-06
   38.1100006       1.84497912E-06
   38.2400017       2.00271825E-06
   38.3699989       2.16162312E-06
   38.5000000       2.32163234E-06
   38.6300011       2.48268361E-06
   38.7599983       2.64471328E-06
   38.8899994       2.80765607E-06
   39.0200005       2.97144607E-06
   39.1500015       3.13601618E-06
   39.2799988       3.30129842E-06
   39.4099998       3.46722368E-06
   39.5400009       3.63372124E-06
   39.6699982       3.80072015E-06
   39.7999992       3.96814767E-06
   39.9300003       4.13593079E-06
   40.0600014       4.30399541E-06
   40.1899986       4.47226603E-06
   40.3199997       4.64066579E-06
   40.4500008       4.80911740E-06
   40.5800018       4.97754309E-06
   40.7099991       5.14586145E-06
   40.8400002       5.31399292E-06
   40.9700012       5.48185471E-06
   41.0999985       5.64936454E-06
   41.2299995       5.81643826E-06
   41.3600006       5.98299312E-06
   41.4900017       6.14894407E-06
   41.6199989       6.31420789E-06
   41.7500000       6.47869865E-06
   41.8800011       6.64233266E-06
   42.0099983       6.80502308E-06
   42.1399994       6.96668303E-06
   42.2700005       7.12722476E-06
   42.4000015       7.28655823E-06
   42.5299988       7.44459112E-06
   42.6599998       7.60123157E-06
   42.7900009       7.75638637E-06
   42.9199982       7.90995909E-06
   43.0499992       8.06185471E-06
   43.1800003       8.21197773E-06
   43.3100014       8.36023264E-06
   43.4399986       8.50652486E-06
   43.5699997       8.65075981E-06
   43.7000008       8.79284471E-06
   43.8300018       8.93268862E-06
   43.9599991       9.07020058E-06
   44.0900002       9.20529510E-06
   44.2200012       9.33788488E-06
   44.3499985       9.46788623E-06
   44.4799995       9.59521822E-06
   44.6100006       9.71980171E-06
   44.7400017       9.84155849E-06
   44.8699989       9.96041399E-06
   45.0000000       1.00762936E-05
   45.1300011       1.01891246E-05
   45.2599983       1.02988352E-05
   45.3899994       1.04053543E-05
   45.5200005       1.05086110E-05
   45.6500015       1.06085345E-05
   45.7799988       1.07050564E-05
   45.9099998       1.07981059E-05
   46.0400009       1.08876175E-05
   46.1699982       1.09735229E-05
   46.2999992       1.10557585E-05
   46.4300003       1.11342615E-05
   46.5600014       1.12089729E-05
   46.6899986       1.12798343E-05
   46.8199997       1.13467913E-05
   46.9500008       1.14097929E-05
   47.0800018       1.14687873E-05
   47.2099991       1.15237290E-05
   47.3400002       1.15745706E-05
   47.4700012       1.16212714E-05
   47.5999985       1.16637912E-05
   47.7299995       1.17020936E-05
   47.8600006       1.17361451E-05
   47.9900017       1.17659138E-05
   48.1199989       1.17913723E-05
   48.2500000       1.18124954E-05
   48.3800011       1.18292610E-05
   48.5099983       1.18416465E-05
   48.6399994       1.18496373E-05
   48.7700005       1.18532153E-05
   48.9000015       1.18523694E-05
   49.0299988       1.18470916E-05
   49.1599998       1.18373746E-05
   49.2900009       1.18232165E-05
   49.4199982       1.18046200E-05
   49.5499992       1.17815907E-05
   49.6800003       1.17541367E-05
   49.8100014       1.17222726E-05
   49.9399986       1.16860137E-05
   50.0699997       1.16453803E-05
   50.2000008       1.16003921E-05
   50.3300018       1.15510766E-05
   50.4599991       1.14974591E-05
   50.5900002       1.14395689E-05
   50.7200012       1.13774367E-05
   50.8499985       1.13110955E-05
   50.9799995       1.12405805E-05
   51.1100006       1.11659292E-05
   51.2400017       1.10871797E-05
   51.3699989       1.10043757E-05
   51.5000000       1.09175598E-05
   51.6300011       1.08267786E-05
   51.7599983       1.07320802E-05
   51.8899994       1.06335146E-05
   52.0200005       1.05311337E-05
   52.1500015       1.04249930E-05
   52.2799988       1.03151515E-05
   52.4099998       1.02016693E-05
   52.5400009       1.00846082E-05
   52.6699982       9.96403196E-06
   52.7999992       9.84001053E-06
   52.9300003       9.71261125E-06
   53.0600014       9.58190321E-06
   53.1899986       9.44796193E-06
   53.3199997       9.31085833E-06
   53.4500008       9.17066791E-06
   53.5800018       9.02746706E-06
   53.7099991       8.88132945E-06
   53.8400002       8.73233421E-06
   53.9700012       8.58056046E-06
   54.0999985       8.42608461E-06
   54.2299995       8.26898849E-06
   54.3600006       8.10935126E-06
   54.4900017       7.94725565E-06
   54.6199989       7.78278263E-06
   54.7500000       7.61601677E-06
   54.8800011       7.44704084E-06
   55.0099983       7.27593761E-06
   55.1399994       7.10279164E-06
   55.2700005       6.92768754E-06
   55.4000015       6.75070942E-06
   55.5299988       6.57194232E-06
   55.6599998       6.39147129E-06
   55.7900009       6.20938272E-06
   55.9199982       6.02576256E-06
   56.0499992       5.84069767E-06
   56.1800003       5.65427581E-06
   56.3100014       5.46658475E-06
   56.4399986       5.27771272E-06
   56.5699997       5.08774656E-06
   56.7000008       4.89677313E-06
   56.8300018       4.70488021E-06
   56.9599991       4.51215328E-06
   57.0900002       4.31867829E-06
   57.2200012       4.12454028E-06
   57.3499985       3.92982611E-06
   57.4799995       3.73462103E-06
   57.6100006       3.53901078E-06
   57.7400017       3.34307902E-06
   57.8699989       3.14691306E-06
   58.0000000       2.95059658E-06
   58.1300011       2.75421371E-06
   58.2599983       2.55784903E-06
   58.3899994       2.36158439E-06
   58.5200005       2.16549893E-06
   58.6500015       1.96967130E-06
   58.7799988       1.77417837E-06
   58.9099998       1.57909597E-06
   59.0400009       1.38449855E-06
   59.1699982       1.19045876E-06
   59.2999992       9.97048915E-07
   59.4300003       8.04339493E-07
   59.5600014       6.12398310E-07
   59.6899986       4.21292725E-07
   59.8199997       2.31092088E-07
   59.9500008       4.18609538E-08
   60.0800018      -1.46334457E-07
   60.2099991      -3.33427579E-07
   60.3400002      -5.19352341E-07
   60.4700012      -7.04042577E-07
   60.5999985      -8.87430417E-07
   60.7299995      -1.06944685E-06
   60.8600006      -1.25002316E-06
   60.9900017      -1.42908675E-06
   61.1199989      -1.60656566E-06
   61.2500000      -1.78238679E-06
   61.3800011      -1.95647613E-06
   61.5099983      -2.12876034E-06
   61.6399994      -2.29916554E-06
   61.7700005      -2.46762033E-06
   61.9000015      -2.63405104E-06
   62.0299988      -2.79838764E-06
   62.1599998      -2.96056032E-06
   62.2900009      -3.12050202E-06
   62.4199982      -3.27814519E-06
   62.5499992      -3.43342595E-06
   62.6800003      -3.58628017E-06
   62.8100014      -3.73664602E-06
   62.9399986      -3.88446279E-06
   63.0699997      -4.02966907E-06
   63.2000008      -4.17220690E-06
   63.3300018      -4.31201670E-06
   63.4599991      -4.44903890E-06
   63.5900002      -4.58321574E-06
   63.7200012      -4.71448584E-06
   63.8499985      -4.84279008E-06
   63.9799995      -4.96806615E-06
   64.1100006      -5.09025267E-06
   64.2399979      -5.20928688E-06
   64.3700027      -5.32510694E-06
   64.5000000      -5.43764963E-06
   64.6299973      -5.54685630E-06
   64.7600021      -5.65266873E-06
   64.8899994      -5.75503100E-06
   65.0199966      -5.85388716E-06
   65.1500015      -5.94918629E-06
   65.2799988      -6.04087973E-06
   65.4100037      -6.12891790E-06
   65.5400009      -6.21325671E-06
   65.6699982      -6.29385158E-06
   65.8000031      -6.37065932E-06
   65.9300003      -6.44363672E-06
   66.0599976      -6.51274468E-06
   66.1900024      -6.57794271E-06
   66.3199997      -6.63919309E-06
   66.4499969      -6.69645760E-06
   66.5800018      -6.74969988E-06
   66.7099991      -6.79888353E-06
   66.8399963      -6.84397446E-06
   66.9700012      -6.88493719E-06
   67.0999985      -6.92173853E-06
   67.2300034      -6.95434574E-06
   67.3600006      -6.98272743E-06
   67.4899979      -7.00685678E-06
   67.6200027      -7.02670786E-06
   67.7500000      -7.04225840E-06
   67.8799973      -7.05348930E-06
   68.0100021      -7.06038418E-06
   68.1399994      -7.06293213E-06
   68.2699966      -7.06112633E-06
   68.4000015      -7.05496223E-06
   68.5299988      -7.04443846E-06
   68.6600037      -7.02955913E-06
   68.7900009      -7.01033014E-06
   68.9199982      -6.98676149E-06
   69.0500031      -6.95886229E-06
   69.1800003      -6.92664753E-06
   69.3099976      -6.89013268E-06
   69.4400024      -6.84933639E-06
   69.5699997      -6.80428002E-06
   69.6999969      -6.75498904E-06
   69.8300018      -6.70149211E-06
   69.9599991      -6.64381741E-06
   70.0899963      -6.58200042E-06
   70.2200012      -6.51607934E-06
   70.3499985      -6.44609599E-06
   70.4800034      -6.37209450E-06
   70.6100006      -6.29412216E-06
   70.7399979      -6.21222944E-06
   70.8700027      -6.12647318E-06
   71.0000000      -6.03690978E-06
   71.1299973      -5.94360154E-06
   71.2600021      -5.84661393E-06
   71.3899994      -5.74601245E-06
   71.5199966      -5.64186939E-06
   71.6500015      -5.53425662E-06
   71.7799988      -5.42325051E-06
   71.9100037      -5.30892930E-06
   72.0400009      -5.19137529E-06
   72.1699982      -5.07067261E-06
   72.3000031      -4.94690812E-06
   72.4300003      -4.82017367E-06
   72.5599976      -4.69056295E-06
   72.6900024      -4.55817553E-06
   72.8199997      -4.42311466E-06
   72.9499969      -4.28548992E-06
   73.0800018      -4.14541319E-06
   73.2099991      -4.00300360E-06
   73.3399963      -3.85838302E-06
   73.4700012      -3.71167812E-06
   73.5999985      -3.56301939E-06
   73.7300034      -3.41254076E-06
   73.8600006      -3.26037707E-06
   73.9899979      -3.10666746E-06
   74.1200027      -2.95155155E-06
   74.2500000      -2.79517099E-06
   74.3799973      -2.63766856E-06
   74.5100021      -2.47918865E-06
   74.6399994      -2.31987610E-06
   74.7699966      -2.15987711E-06
   74.9000015      -1.99933879E-06
   75.0299988      -1.83840814E-06
   75.1600037      -1.67723317E-06
   75.2900009      -1.51596157E-06
   75.4199982      -1.35474136E-06
   75.5500031      -1.19372066E-06
   75.6800003      -1.03304808E-06
   75.8099976      -8.72872533E-07
   75.9400024      -7.13343979E-07
   76.0699997      -5.54613280E-07
   76.1999969      -3.96833173E-07
   76.3300018      -2.40156766E-07
   76.4599991      -8.47387724E-08
   76.5899963       6.92647717E-08
   76.7200012       2.21697647E-07
   76.8499985       3.72403605E-07
   76.9800034       5.21226639E-07
   77.1100006       6.68012092E-07
   77.2399979       8.12605776E-07
   77.3700027       9.54854613E-07
   77.5000000       1.09460802E-06
   77.6299973       1.23171515E-06
   77.7600021       1.36602716E-06
   77.8899994       1.49739560E-06
   78.0199966       1.62567437E-06
   78.1500015       1.75071784E-06
   78.2799988       1.87238163E-06
   78.4100037       1.99052602E-06
   78.5400009       2.10501003E-06
   78.6699982       2.21569667E-06
   78.8000031       2.32245202E-06
   78.9300003       2.42514170E-06
   79.0599976       2.52363770E-06
   79.1900024       2.61781020E-06
   79.3199997       2.70753480E-06
   79.4499969       2.79268966E-06
   79.5800018       2.87315333E-06
   79.7099991       2.94880874E-06
   79.8399963       3.01954219E-06
   79.9700012       3.08524295E-06
   80.0999985       3.14580575E-06
   80.2300034       3.20112736E-06
   80.3600006       3.25111228E-06
   80.4899979       3.29566410E-06
   80.6200027       3.33469598E-06
   80.7500000       3.36812286E-06
   80.8799973       3.39586472E-06
   81.0100021       3.41784516E-06
   81.1399994       3.43399029E-06
   81.2699966       3.44423165E-06
   81.4000015       3.44850173E-06
   81.5299988       3.44673776E-06
   81.6600037       3.43888337E-06
   81.7900009       3.42488511E-06
   81.9199982       3.40469251E-06
   82.0500031       3.37826054E-06
   82.1800003       3.34554807E-06
   82.3099976       3.30651778E-06
   82.4400024       3.26113627E-06
   82.5699997       3.20937511E-06
   82.6999969       3.15121065E-06
   82.8300018       3.08662220E-06
   82.9599991       3.01559430E-06
   83.0899963       2.93811718E-06
   83.2200012       2.85418901E-06
   83.3499985       2.76381070E-06
   83.4800034       2.66699112E-06
   83.6100006       2.56374574E-06
   83.7399979       2.45409478E-06
   83.8700027       2.33806395E-06
   84.0000000       2.21568598E-06
   84.1299973       2.08699862E-06
   84.2600021       1.95204279E-06
   84.3899994       1.81086534E-06
   84.5199966       1.66351560E-06
   84.6500015       1.51004906E-06
   84.7799988       1.35052460E-06
   84.9100037       1.18500429E-06
   85.0400009       1.01355977E-06
   85.1699982       8.36264860E-07
   85.3000031       6.53201425E-07
   85.4300003       4.64454473E-07
   85.5599976       2.70114214E-07
   85.6900024       7.02754477E-08
   85.8199997      -1.34960757E-07
   85.9499969      -3.45490321E-07
   86.0800018      -5.61202398E-07
   86.2099991      -7.81980248E-07
   86.3399963      -1.00770001E-06
   86.4700012      -1.23823418E-06
   86.5999985      -1.47345133E-06
   86.7300034      -1.71321142E-06
   86.8600006      -1.95737130E-06