  -24.4200001       0.00000000    
  -24.2900009       0.00000000    
  -24.1599998       9.94574374E-17
  -24.0300007       4.87141671E-16
  -23.8999996       1.41602077E-15
  -23.7700005       3.16666931E-15
  -23.6399994       6.00444716E-15
  -23.5100002       1.01368151E-14
  -23.3799992       1.56774753E-14
  -23.2500000       2.26234911E-14
  -23.1200008       3.08501563E-14
  -22.9899998       4.01263563E-14
  -22.8600006       5.01506016E-14
  -22.7299995       6.06052006E-14
  -22.6000004       7.12234837E-14
  -22.4699993       8.18628951E-14
  -22.3400002       9.25753682E-14
  -22.2099991       1.03666153E-13
  -22.0799999       1.15732958E-13
  -21.9500008       1.29678860E-13
  -21.8199997       1.46695481E-13
  -21.6900005       1.68215390E-13
  -21.5599995       1.95836687E-13
  -21.4300003       2.31225493E-13
  -21.2999992       2.76004642E-13
  -21.1700001       3.31638688E-13
  -21.0400009       3.99326351E-13
  -20.9099998       4.79910979E-13
  -20.7800007       5.73819096E-13
  -20.6499996       6.81034385E-13
  -20.5200005       8.01113516E-13
  -20.3899994       9.33244584E-13
  -20.2600002       1.07634843E-12
  -20.1299992       1.22921725E-12
  -20.0000000       1.39068152E-12
  -19.8700008       1.55979439E-12
  -19.7399998       1.73601574E-12
  -19.6100006       1.91938306E-12
  -19.4799995       2.11064781E-12
  -19.3500004       2.31136421E-12
  -19.2199993       2.52391792E-12
  -19.0900002       2.75148437E-12
  -18.9599991       2.99791984E-12
  -18.8299999       3.26758867E-12
  -18.7000008       3.56513885E-12
  -18.5699997       3.89524871E-12
  -18.4400005       4.26236520E-12
  -18.3099995       4.67045413E-12
  -18.1800003       5.12279802E-12
  -18.0499992       5.62184977E-12
  -17.9200001       6.16916587E-12
  -17.7900009       6.76542416E-12
  -17.6599998       7.41052619E-12
  -17.5300007       8.10378674E-12
  -17.3999996       8.84417713E-12
  -17.2700005       9.63063049E-12
  -17.1399994       1.04623601E-11
  -17.0100002       1.13391848E-11
  -16.8799992       1.22618218E-11
  -16.7500000       1.32321324E-11
  -16.6200008       1.42532895E-11
  -16.4899998       1.53298624E-11
  -16.3600006       1.64677941E-11
  -16.2299995       1.76742770E-11
  -16.1000004       1.89575335E-11
  -15.9700003       2.03265009E-11
  -15.8400002       2.17904583E-11
  -15.7100000       2.33586171E-11
  -15.5799999       2.50397047E-11
  -15.4499998       2.68415845E-11
  -15.3199997       2.87709457E-11
  -15.1899996       3.08330965E-11
  -15.0600004       3.30318793E-11
  -14.9300003       3.53697384E-11
  -14.8000002       3.78479297E-11
  -14.6700001       4.04668452E-11
  -14.5400000       4.32264780E-11
  -14.4099998       4.61269321E-11
  -14.2799997       4.91689502E-11
  -14.1499996       5.23544263E-11
  -14.0200005       5.56868267E-11
  -13.8900003       5.91714941E-11
  -13.7600002       6.28158081E-11
  -13.6300001       6.66291605E-11
  -13.5000000       7.06227646E-11
  -13.3699999       7.48093809E-11
  -13.2399998       7.92028526E-11
  -13.1099997       8.38176473E-11
  -12.9799995       8.86683504E-11
  -12.8500004       9.37692216E-11
  -12.7200003       9.91337706E-11
  -12.5900002       1.04774460E-10
  -12.4600000       1.10702524E-10
  -12.3299999       1.16927842E-10
  -12.1999998       1.23458868E-10
  -12.0699997       1.30302755E-10
  -11.9399996       1.37465359E-10
  -11.8100004       1.44951370E-10
  -11.6800003       1.52764565E-10
  -11.5500002       1.60907954E-10
  -11.4200001       1.69384118E-10
  -11.2900000       1.78195625E-10
  -11.1599998       1.87345528E-10
  -11.0299997       1.96838074E-10
  -10.8999996       2.06679382E-10
  -10.7700005       2.16878321E-10
  -10.6400003       2.27447186E-10
  -10.5100002       2.38402409E-10
  -10.3800001       2.49764820E-10
  -10.2500000       2.61559607E-10
  -10.1199999       2.73815914E-10
  -9.98999977       2.86565466E-10
  -9.85999966       2.99841096E-10
  -9.72999954       3.13674475E-10
  -9.60000038       3.28093747E-10
  -9.47000027       3.43121032E-10
  -9.34000015       3.58770152E-10
  -9.21000004       3.75044856E-10
  -9.07999992       3.91938398E-10
  -8.94999981       4.09433515E-10
  -8.81999969       4.27504337E-10
  -8.68999958       4.46119336E-10
  -8.56000042       4.65245203E-10
  -8.43000031       4.84851825E-10
  -8.30000019       5.04917497E-10
  -8.17000008       5.25433808E-10
  -8.03999996       5.46410084E-10
  -7.90999985       5.67875968E-10
  -7.78000021       5.89883031E-10
  -7.65000010       6.12503659E-10
  -7.51999998       6.35828612E-10
  -7.38999987       6.59962140E-10
  -7.26000023       6.85016488E-10
  -7.13000011       7.11105064E-10
  -7.00000000       7.38336281E-10
  -6.86999989       7.66807839E-10
  -6.73999977       7.96602895E-10
  -6.61000013       8.27788504E-10
  -6.48000002       8.60416516E-10
  -6.34999990       8.94526619E-10
  -6.21999979       9.30151844E-10
  -6.09000015       9.67324887E-10
  -5.96000004       1.00608522E-09
  -5.82999992       1.04648401E-09
  -5.69999981       1.08858766E-09
  -5.57000017       1.13247756E-09
  -5.44000006       1.17824472E-09
  -5.30999994       1.22598032E-09
  -5.17999983       1.27576150E-09
  -5.05000019       1.32763311E-09
  -4.92000008       1.38158684E-09
  -4.78999996       1.43754042E-09
  -4.65999985       1.49531743E-09
  -4.53000021       1.55463309E-09
  -4.40000010       1.61508507E-09
  -4.26999998       1.67615322E-09
  -4.13999987       1.73720938E-09
  -4.01000023       1.79753756E-09
  -3.88000011       1.85636240E-09
  -3.75000000       1.91288696E-09
  -3.61999989       1.96633532E-09
  -3.49000001       2.01599648E-09
  -3.35999990       2.06126516E-09
  -3.23000002       2.10167905E-09
  -3.09999990       2.13694218E-09
  -2.97000003       2.16693663E-09
  -2.83999991       2.19171636E-09
  -2.71000004       2.21148699E-09
  -2.57999992       2.22656515E-09
  -2.45000005       2.23732632E-09
  -2.31999993       2.24414154E-09
  -2.19000006       2.24730545E-09
  -2.05999994       2.24696817E-09
  -1.92999995       2.24306884E-09
  -1.79999995       2.23528285E-09
  -1.66999996       2.22298402E-09
  -1.53999996       2.20522933E-09
  -1.40999997       2.18076246E-09
  -1.27999997       2.14804285E-09
  -1.14999998       2.10529372E-09
  -1.01999998       2.05056772E-09
 -0.889999986       1.98182359E-09
 -0.759999990       1.89700589E-09
 -0.629999995       1.79412407E-09
 -0.500000000       1.67132119E-09
 -0.370000005       1.52692337E-09
 -0.239999995       1.35947054E-09
 -0.109999999       1.16771981E-09
   1.99999996E-02   9.50623469E-10
  0.150000006       7.07283787E-10
  0.280000001       4.36885500E-10
  0.409999996       1.38614398E-10
  0.540000021      -1.88429702E-10
  0.670000017      -5.45319734E-10
  0.800000012      -9.33376376E-10
  0.930000007      -1.35422351E-09
   1.05999994      -1.80981985E-09
   1.19000006      -2.30246089E-09
   1.32000005      -2.83474733E-09
   1.45000005      -3.40952599E-09
   1.58000004      -4.02980183E-09
   1.71000004      -4.69863171E-09
   1.84000003      -5.41900791E-09
   1.97000003      -6.19373886E-09
   2.09999990      -7.02533987E-09
   2.23000002      -7.91594612E-09
   2.35999990      -8.86725093E-09
   2.49000001      -9.88048132E-09
   2.61999989      -1.09564073E-08
   2.75000000      -1.20953976E-08
   2.88000011      -1.32975035E-08
   3.00999999      -1.45625760E-08
   3.14000010      -1.58904072E-08
   3.26999998      -1.72808736E-08
   3.40000010      -1.87340881E-08
   3.52999997      -2.02505372E-08
   3.66000009      -2.18311840E-08
   3.78999996      -2.34775612E-08
   3.92000008      -2.51918060E-08
   4.05000019      -2.69766609E-08
   4.17999983      -2.88354425E-08
   4.30999994      -3.07719610E-08
   4.44000006      -3.27904175E-08
   4.57000017      -3.48952796E-08
   4.69999981      -3.70911373E-08
   4.82999992      -3.93825772E-08
   4.96000004      -4.17740580E-08
   5.09000015      -4.42698003E-08
   5.21999979      -4.68737262E-08
   5.34999990      -4.95894099E-08
   5.48000002      -5.24200878E-08
   5.61000013      -5.53686981E-08
   5.73999977      -5.84379336E-08
   5.86999989      -6.16303666E-08
   6.00000000      -6.49485159E-08
   6.13000011      -6.83950248E-08
   6.26000023      -7.19727353E-08
   6.38999987      -7.56848237E-08
   6.51999998      -7.95348782E-08
   6.65000010      -8.35269560E-08
   6.78000021      -8.76656401E-08
   6.90999985      -9.19559824E-08
   7.03999996      -9.64035110E-08
   7.17000008      -1.01014130E-07
   7.30000019      -1.05794051E-07
   7.42999983      -1.10749660E-07
   7.55999994      -1.15887381E-07
   7.69000006      -1.21213588E-07
   7.82000017      -1.26734449E-07
   7.94999981      -1.32455853E-07
   8.07999992      -1.38383314E-07
   8.21000004      -1.44521920E-07
   8.34000015      -1.50876318E-07
   8.47000027      -1.57450714E-07
   8.60000038      -1.64248931E-07
   8.72999954      -1.71274465E-07
   8.85999966      -1.78530556E-07
   8.98999977      -1.86020316E-07
   9.11999989      -1.93746857E-07
   9.25000000      -2.01713348E-07
   9.38000011      -2.09923130E-07
   9.51000023      -2.18379853E-07
   9.64000034      -2.27087412E-07
   9.77000046      -2.36050113E-07
   9.89999962      -2.45272560E-07
   10.0299997      -2.54759613E-07
   10.1599998      -2.64516416E-07
   10.2900000      -2.74548171E-07
   10.4200001      -2.84860107E-07
   10.5500002      -2.95457198E-07
   10.6800003      -3.06344191E-07
   10.8100004      -3.17525320E-07
   10.9399996      -3.29004138E-07
   11.0699997      -3.40783600E-07
   11.1999998      -3.52865811E-07
   11.3299999      -3.65252021E-07
   11.4600000      -3.77942627E-07
   11.5900002      -3.90937174E-07
   11.7200003      -4.04234612E-07
   11.8500004      -4.17833149E-07
   11.9799995      -4.31730626E-07
   12.1099997      -4.45924570E-07
   12.2399998      -4.60412224E-07
   12.3699999      -4.75190973E-07
   12.5000000      -4.90258287E-07
   12.6300001      -5.05611695E-07
   12.7600002      -5.21249035E-07
   12.8900003      -5.37168262E-07
   13.0200005      -5.53367499E-07
   13.1499996      -5.69844644E-07
   13.2799997      -5.86597366E-07
   13.4099998      -6.03622993E-07
   13.5400000      -6.20917945E-07
   13.6700001      -6.38477673E-07
   13.8000002      -6.56296436E-07
   13.9300003      -6.74367129E-07
   14.0600004      -6.92680885E-07
   14.1899996      -7.11227585E-07
   14.3199997      -7.29995236E-07
   14.4499998      -7.48970422E-07
   14.5799999      -7.68138477E-07
   14.7100000      -7.87483430E-07
   14.8400002      -8.06988794E-07
   14.9700003      -8.26637404E-07
   15.1000004      -8.46411979E-07
   15.2299995      -8.66295352E-07
   15.3599997      -8.86270641E-07
   15.4899998      -9.06321532E-07
   15.6199999      -9.26432449E-07
   15.7500000      -9.46588273E-07
   15.8800001      -9.66774337E-07
   16.0100002      -9.86976488E-07
   16.1399994      -1.00718046E-06
   16.2700005      -1.02737170E-06
   16.3999996      -1.04753497E-06
   16.5300007      -1.06765435E-06
   16.6599998      -1.08771235E-06
   16.7900009      -1.10769020E-06
   16.9200001      -1.12756709E-06
   17.0499992      -1.14732086E-06
   17.1800003      -1.16692729E-06
   17.3099995      -1.18636103E-06
   17.4400005      -1.20559480E-06
   17.5699997      -1.22460119E-06
   17.7000008      -1.24335156E-06
   17.8299999      -1.26181715E-06
   17.9599991      -1.27996964E-06
   18.0900002      -1.29778084E-06
   18.2199993      -1.31522404E-06
   18.3500004      -1.33227297E-06
   18.4799995      -1.34890263E-06
   18.6100006      -1.36508936E-06
   18.7399998      -1.38080998E-06
   18.8700008      -1.39604253E-06
   19.0000000      -1.41076532E-06
   19.1299992      -1.42495685E-06
   19.2600002      -1.43859529E-06
   19.3899994      -1.45165859E-06
   19.5200005      -1.46412356E-06
   19.6499996      -1.47596654E-06
   19.7800007      -1.48716254E-06
   19.9099998      -1.49768584E-06
   20.0400009      -1.50750975E-06
   20.1700001      -1.51660697E-06
   20.2999992      -1.52495011E-06
   20.4300003      -1.53251199E-06
   20.5599995      -1.53926567E-06
   20.6900005      -1.54518534E-06
   20.8199997      -1.55024668E-06
   20.9500008      -1.55442660E-06
   21.0799999      -1.55770408E-06
   21.2099991      -1.56006001E-06
   21.3400002      -1.56147712E-06
   21.4699993      -1.56194039E-06
   21.6000004      -1.56143585E-06
   21.7299995      -1.55995144E-06
   21.8600006      -1.55747614E-06
   21.9899998      -1.55399982E-06
   22.1200008      -1.54951260E-06
   22.2500000      -1.54400527E-06
   22.3799992      -1.53746839E-06
   22.5100002      -1.52989276E-06
   22.6399994      -1.52126904E-06
   22.7700005      -1.51158827E-06
   22.8999996      -1.50084168E-06
   23.0300007      -1.48902086E-06
   23.1599998      -1.47611854E-06
   23.2900009      -1.46212881E-06
   23.4200001      -1.44704723E-06
   23.5499992      -1.43087073E-06
   23.6800003      -1.41359874E-06
   23.8099995      -1.39523297E-06
   23.9400005      -1.37577695E-06
   24.0699997      -1.35523680E-06
   24.2000008      -1.33362062E-06
   24.3299999      -1.31093839E-06
   24.4599991      -1.28720148E-06
   24.5900002      -1.26242298E-06
   24.7199993      -1.23661687E-06
   24.8500004      -1.20979769E-06
   24.9799995      -1.18198079E-06
   25.1100006      -1.15318198E-06
   25.2399998      -1.12341706E-06
   25.3700008      -1.09270229E-06
   25.5000000      -1.06105449E-06
   25.6299992      -1.02849083E-06
   25.7600002      -9.95029154E-07
   25.8899994      -9.60688681E-07
   26.0200005      -9.25489815E-07
   26.1499996      -8.89454384E-07
   26.2800007      -8.52606377E-07
   26.4099998      -8.14971315E-07
   26.5400009      -7.76576769E-07
   26.6700001      -7.37452694E-07
   26.7999992      -6.97630298E-07
   26.9300003      -6.57143005E-07
   27.0599995      -6.16025204E-07
   27.1900005      -5.74312537E-07
   27.3199997      -5.32041042E-07
   27.4500008      -4.89247157E-07
   27.5799999      -4.45967146E-07
   27.7099991      -4.02236850E-07
   27.8400002      -3.58091313E-07
   27.9699993      -3.13564868E-07
   28.1000004      -2.68690542E-07
   28.2299995      -2.23500578E-07
   28.3600006      -1.78026127E-07
   28.4899998      -1.32297828E-07
   28.6200008      -8.63454019E-08
   28.7500000      -4.01983300E-08
   28.8799992       6.11401552E-09
   29.0100002       5.25624486E-08
   29.1399994       9.91175568E-08
   29.2700005       1.45749809E-07
   29.3999996       1.92429496E-07
   29.5300007       2.39126905E-07
   29.6599998       2.85812433E-07
   29.7900009       3.32456835E-07
   29.9200001       3.79031633E-07
   30.0499992       4.25509285E-07
   30.1800003       4.71863586E-07
   30.3099995       5.18070181E-07
   30.4400005       5.64106529E-07
   30.5699997       6.09952224E-07
   30.7000008       6.55589247E-07
   30.8299999       7.01001852E-07
   30.9599991       7.46176340E-07
   31.0900002       7.91101399E-07
   31.2199993       8.35767366E-07
   31.3500004       8.80166226E-07
   31.4799995       9.24291214E-07
   31.6100006       9.68136646E-07
   31.7399998       1.01169735E-06
   31.8700008       1.05496918E-06
   32.0000000       1.09794814E-06
   32.1300011       1.14063050E-06
   32.2599983       1.18301318E-06
   32.3899994       1.22509380E-06
   32.5200005       1.26687053E-06
   32.6500015       1.30834292E-06
   32.7799988       1.34951188E-06
   32.9099998       1.39038048E-06
   33.0400009       1.43095383E-06
   33.1699982       1.47123944E-06
   33.2999992       1.51124789E-06
   33.4300003       1.55099269E-06
   33.5600014       1.59049011E-06
   33.6899986       1.62975982E-06
   33.8199997       1.66882376E-06
   33.9500008       1.70770693E-06
   34.0800018       1.74643594E-06
   34.2099991       1.78503979E-06
   34.3400002       1.82354813E-06
   34.4700012       1.86199225E-06
   34.5999985       1.90040339E-06
   34.7299995       1.93881306E-06
   34.8600006       1.97725285E-06
   34.9900017       2.01575403E-06
   35.1199989       2.05434708E-06
   35.2500000       2.09306313E-06
   35.3800011       2.13193221E-06
   35.5099983       2.17098454E-06
   35.6399994       2.21025130E-06
   35.7700005       2.24976384E-06
   35.9000015       2.28955400E-06
   36.0299988       2.32965522E-06
   36.1599998       2.37010181E-06
   36.2900009       2.41092948E-06
   36.4199982       2.45217552E-06
   36.5499992       2.49387745E-06
   36.6800003       2.53607436E-06
   36.8100014       2.57880583E-06
   36.9399986       2.62211142E-06
   37.0699997       2.66603001E-06
   37.2000008       2.71060094E-06
   37.3300018       2.75586058E-06
   37.4599991       2.80184531E-06
   37.5900002       2.84858857E-06
   37.7200012       2.89612262E-06
   37.8499985       2.94447682E-06
   37.9799995       2.99367866E-06
   38.1100006       3.04375362E-06
   38.2400017       3.09472557E-06
   38.3699989       3.14661634E-06
   38.5000000       3.19944729E-06
   38.6300011       3.25323890E-06
   38.7599983       3.30801026E-06
   38.8899994       3.36378093E-06
   39.0200005       3.42057001E-06
   39.1500015       3.47839659E-06
   39.2799988       3.53727910E-06
   39.4099998       3.59723595E-06
   39.5400009       3.65828464E-06
   39.6699982       3.72044087E-06
   39.7999992       3.78371942E-06
   39.9300003       3.84813211E-06
   40.0600014       3.91368940E-06
   40.1899986       3.98039674E-06
   40.3199997       4.04825732E-06
   40.4500008       4.11726978E-06
   40.5800018       4.18743002E-06
   40.7099991       4.25872850E-06
   40.8400002       4.33115292E-06
   40.9700012       4.40468739E-06
   41.0999985       4.47931188E-06
   41.2299995       4.55500549E-06
   41.3600006       4.63174274E-06
   41.4900017       4.70949863E-06
   41.6199989       4.78824450E-06
   41.7500000       4.86795216E-06
   41.8800011       4.94859069E-06
   42.0099983       5.03012961E-06
   42.1399994       5.11253666E-06
   42.2700005       5.19577770E-06
   42.4000015       5.27981729E-06
   42.5299988       5.36461721E-06
   42.6599998       5.45013700E-06
   42.7900009       5.53633299E-06
   42.9199982       5.62315836E-06
   43.0499992       5.71056080E-06
   43.1800003       5.79848529E-06
   43.3100014       5.88687271E-06
   43.4399986       5.97565941E-06
   43.5699997       6.06477806E-06
   43.7000008       6.15415820E-06
   43.8300018       6.24372706E-06
   43.9599991       6.33341051E-06
   44.0900002       6.42313171E-06
   44.2200012       6.51281516E-06
   44.3499985       6.60238402E-06
   44.4799995       6.69176234E-06
   44.6100006       6.78087508E-06
   44.7400017       6.86964859E-06
   44.8699989       6.95800964E-06
   45.0000000       7.04588683E-06
   45.1300011       7.13320787E-06
   45.2599983       7.21990136E-06
   45.3899994       7.30589545E-06
   45.5200005       7.39111556E-06
   45.6500015       7.47548665E-06
   45.7799988       7.55893097E-06
   45.9099998       7.64136712E-06
   46.0400009       7.72271324E-06
   46.1699982       7.80288246E-06
   46.2999992       7.88178659E-06
   46.4300003       7.95933283E-06
   46.5600014       8.03543207E-06
   46.6899986       8.10998790E-06
   46.8199997       8.18291028E-06
   46.9500008       8.25410552E-06
   47.0800018       8.32348269E-06
   47.2099991       8.39095355E-06
   47.3400002       8.45643171E-06
   47.4700012       8.51983350E-06
   47.5999985       8.58107705E-06
   47.7299995       8.64008598E-06
   47.8600006       8.69678206E-06
   47.9900017       8.75109345E-06
   48.1199989       8.80294556E-06
   48.2500000       8.85226564E-06
   48.3800011       8.89898001E-06
   48.5099983       8.94301593E-06
   48.6399994       8.98429880E-06
   48.7700005       9.02275224E-06
   48.9000015       9.05829984E-06
   49.0299988       9.09086248E-06
   49.1599998       9.12036285E-06
   49.2900009       9.14672091E-06
   49.4199982       9.16986119E-06
   49.5499992       9.18970727E-06
   49.6800003       9.20618641E-06
   49.8100014       9.21923038E-06
   49.9399986       9.22877462E-06
   50.0699997       9.23476000E-06
   50.2000008       9.23713105E-06
   50.3300018       9.23584048E-06
   50.4599991       9.23084463E-06
   50.5900002       9.22210347E-06
   50.7200012       9.20958246E-06
   50.8499985       9.19325157E-06
   50.9799995       9.17308171E-06
   51.1100006       9.14904649E-06
   51.2400017       9.12112046E-06
   51.3699989       9.08927814E-06
   51.5000000       9.05349589E-06
   51.6300011       9.01374824E-06
   51.7599983       8.97001246E-06
   51.8899994       8.92226399E-06
   52.0200005       8.87048009E-06
   52.1500015       8.81463893E-06
   52.2799988       8.75472233E-06
   52.4099998       8.69071573E-06
   52.5400009       8.62260731E-06
   52.6699982       8.55039161E-06
   52.7999992       8.47406864E-06
   52.9300003       8.39364384E-06
   53.0600014       8.30912904E-06
   53.1899986       8.22054153E-06
   53.3199997       8.12790404E-06
   53.4500008       8.03124658E-06
   53.5800018       7.93060099E-06
   53.7099991       7.82600273E-06
   53.8400002       7.71749183E-06
   53.9700012       7.60510829E-06
   54.0999985       7.48889533E-06
   54.2299995       7.36889479E-06
   54.3600006       7.24515075E-06
   54.4900017       7.11770690E-06
   54.6199989       6.98660733E-06
   54.7500000       6.85189843E-06
   54.8800011       6.71362750E-06
   55.0099983       6.57184501E-06
   55.1399994       6.42660325E-06
   55.2700005       6.27796180E-06
   55.4000015       6.12598160E-06
   55.5299988       5.97073040E-06
   55.6599998       5.81228369E-06
   55.7900009       5.65072105E-06
   55.9199982       5.48612843E-06
   56.0499992       5.31859723E-06
   56.1800003       5.14822386E-06
   56.3100014       4.97510973E-06
   56.4399986       4.79935898E-06
   56.5699997       4.62107755E-06
   56.7000008       4.44037232E-06
   56.8300018       4.25735152E-06
   56.9599991       4.07212156E-06
   57.0900002       3.88478929E-06
   57.2200012       3.69545910E-06
   57.3499985       3.50423397E-06
   57.4799995       3.31121646E-06
   57.6100006       3.11650751E-06
   57.7400017       2.92020832E-06
   57.8699989       2.72242050E-06
   58.0000000       2.52324730E-06
   58.1300011       2.32279399E-06
   58.2599983       2.12116788E-06
   58.3899994       1.91848039E-06
   58.5200005       1.71484578E-06
   58.6500015       1.51038216E-06
   58.7799988       1.30520993E-06
   58.9099998       1.09945279E-06
   59.0400009       8.93236120E-07
   59.1699982       6.86685894E-07
   59.2999992       4.79928133E-07
   59.4300003       2.73088318E-07
   59.5600014       6.62892674E-08
   59.6899986      -1.40349016E-07
   59.8199997      -3.46709555E-07
   59.9500008      -5.52679126E-07
   60.0800018      -7.58149099E-07
   60.2099991      -9.63013917E-07
   60.3400002      -1.16717126E-06
   60.4700012      -1.37052200E-06
   60.5999985      -1.57296904E-06
   60.7299995      -1.77441575E-06
   60.8600006      -1.97476697E-06
   60.9900017      -2.17392699E-06
   61.1199989      -2.37179893E-06
   61.2500000      -2.56828571E-06
   61.3800011      -2.76328933E-06
   61.5099983      -2.95671043E-06
   61.6399994      -3.14845079E-06
   61.7700005      -3.33841240E-06
   61.9000015      -3.52649931E-06
   62.0299988      -3.71261876E-06
   62.1599998      -3.89668185E-06
   62.2900009      -4.07860534E-06
   62.4199982      -4.25831240E-06
   62.5499992      -4.43573254E-06
   62.6800003      -4.61080344E-06
   62.8100014      -4.78346965E-06
   62.9399986      -4.95368340E-06
   63.0699997      -5.12140377E-06
   63.2000008      -5.28659575E-06
   63.3300018      -5.44922841E-06
   63.4599991      -5.60927629E-06
   63.5900002      -5.76671573E-06
   63.7200012      -5.92152492E-06
   63.8499985      -6.07368202E-06
   63.9799995      -6.22316657E-06
   64.1100006      -6.36995628E-06
   64.2399979      -6.51403025E-06
   64.3700027      -6.65536663E-06
   64.5000000      -6.79394407E-06
   64.6299973      -6.92974299E-06
   64.7600021      -7.06274795E-06
   64.8899994      -7.19294530E-06
   65.0199966      -7.32032686E-06
   65.1500015      -7.44489080E-06
   65.2799988      -7.56664258E-06
   65.4100037      -7.68559403E-06
   65.5400009      -7.80176470E-06
   65.6699982      -7.91518232E-06
   65.8000031      -8.02587965E-06
   65.9300003      -8.13389670E-06
   66.0599976      -8.23927530E-06
   66.1900024      -8.34206367E-06
   66.3199997      -8.44230999E-06
   66.4499969      -8.54006248E-06
   66.5800018      -8.63537025E-06
   66.7099991      -8.72827786E-06
   66.8399963      -8.81882988E-06
   66.9700012      -8.90706542E-06
   67.0999985      -8.99302358E-06
   67.2300034      -9.07673984E-06
   67.3600006      -9.15824785E-06
   67.4899979      -9.23758307E-06
   67.6200027      -9.31478007E-06
   67.7500000      -9.38987705E-06
   67.8799973      -9.46291584E-06
   68.0100021      -9.53394010E-06
   68.1399994      -9.60300258E-06
   68.2699966      -9.67015876E-06
   68.4000015      -9.73547139E-06
   68.5299988      -9.79900597E-06
   68.6600037      -9.86083251E-06
   68.7900009      -9.92102468E-06
   68.9199982      -9.97965526E-06
   69.0500031      -1.00367988E-05
   69.1800003      -1.00925245E-05
   69.3099976      -1.01468995E-05
   69.4400024      -1.01999858E-05
   69.5699997      -1.02518388E-05
   69.6999969      -1.03025077E-05
   69.8300018      -1.03520342E-05
   69.9599991      -1.04004548E-05
   70.0899963      -1.04477976E-05
   70.2200012      -1.04940918E-05
   70.3499985      -1.05393574E-05
   70.4800034      -1.05836161E-05
   70.6100006      -1.06268872E-05
   70.7399979      -1.06691914E-05
   70.8700027      -1.07105516E-05
   71.0000000      -1.07509932E-05
   71.1299973      -1.07905407E-05
   71.2600021      -1.08292243E-05
   71.3899994      -1.08670738E-05
   71.5199966      -1.09041184E-05
   71.6500015      -1.09403863E-05
   71.7799988      -1.09759021E-05
   71.9100037      -1.10106876E-05
   72.0400009      -1.10447581E-05
   72.1699982      -1.10781193E-05
   72.3000031      -1.11107711E-05
   72.4300003      -1.11427044E-05
   72.5599976      -1.11739009E-05
   72.6900024      -1.12043326E-05
   72.8199997      -1.12339685E-05
   72.9499969      -1.12627695E-05
   73.0800018      -1.12906901E-05
   73.2099991      -1.13176875E-05
   73.3399963      -1.13437145E-05
   73.4700012      -1.13687274E-05
   73.5999985      -1.13926826E-05
   73.7300034      -1.14155418E-05
   73.8600006      -1.14372697E-05
   73.9899979      -1.14578361E-05
   74.1200027      -1.14772147E-05
   74.2500000      -1.14953791E-05
   74.3799973      -1.15123075E-05
   74.5100021      -1.15279763E-05
   74.6399994      -1.15423627E-05
   74.7699966      -1.15554385E-05
   74.9000015      -1.15671719E-05
   75.0299988      -1.15775256E-05
   75.1600037      -1.15864568E-05
   75.2900009      -1.15939174E-05
   75.4199982      -1.15998519E-05
   75.5500031      -1.16042020E-05
   75.6800003      -1.16069050E-05
   75.8099976      -1.16078963E-05
   75.9400024      -1.16071114E-05
   76.0699997      -1.16044894E-05
   76.1999969      -1.15999692E-05
   76.3300018      -1.15935009E-05
   76.4599991      -1.15850371E-05
   76.5899963      -1.15745397E-05
   76.7200012      -1.15619760E-05
   76.8499985      -1.15473240E-05
   76.9800034      -1.15305684E-05
   77.1100006      -1.15116964E-05
   77.2399979      -1.14907052E-05
   77.3700027      -1.14675895E-05
   77.5000000      -1.14423483E-05
   77.6299973      -1.14149825E-05
   77.7600021      -1.13854894E-05
   77.8899994      -1.13538654E-05
   78.0199966      -1.13201022E-05
   78.1500015      -1.12841917E-05
   78.2799988      -1.12461239E-05
   78.4100037      -1.12058897E-05
   78.5400009      -1.11634781E-05
   78.6699982      -1.11188810E-05
   78.8000031      -1.10720948E-05
   78.9300003      -1.10231222E-05
   79.0599976      -1.09719749E-05
   79.1900024      -1.09186731E-05
   79.3199997      -1.08632430E-05
   79.4499969      -1.08057257E-05
   79.5800018      -1.07461710E-05
   79.7099991      -1.06846373E-05
   79.8399963      -1.06211919E-05
   79.9700012      -1.05559075E-05
   80.0999985      -1.04888650E-05
   80.2300034      -1.04201445E-05
   80.3600006      -1.03498305E-05
   80.4899979      -1.02780059E-05
   80.6200027      -1.02047525E-05
   80.7500000      -1.01301512E-05
   80.8799973      -1.00542811E-05
   81.0100021      -9.97721691E-06
   81.1399994      -9.89903492E-06
   81.2699966      -9.81980429E-06
   81.4000015      -9.73960414E-06
   81.5299988      -9.65850813E-06
   81.6600037      -9.57659904E-06
   81.7900009      -9.49396235E-06
   81.9199982      -9.41069084E-06
   82.0500031      -9.32688727E-06
   82.1800003      -9.24266078E-06
   82.3099976      -9.15812598E-06
   82.4400024      -9.07340836E-06
   82.5699997      -8.98863891E-06
   82.6999969      -8.90395040E-06
   82.8300018      -8.81948199E-06
   82.9599991      -8.73537283E-06
   83.0899963      -8.65175934E-06
   83.2200012      -8.56877432E-06
   83.3499985      -8.48654781E-06
   83.4800034      -8.40520261E-06
   83.6100006      -8.32485603E-06
   83.7399979      -8.24561994E-06
   83.8700027      -8.16759803E-06
   84.0000000      -8.09088669E-06
   84.1299973      -8.01558326E-06
   84.2600021      -7.94177868E-06
   84.3899994      -7.86956298E-06
   84.5199966      -7.79902803E-06
   84.6500015      -7.73026750E-06
   84.7799988      -7.66337598E-06
   84.9100037      -7.59845534E-06
   85.0400009      -7.53560607E-06
   85.1699982      -7.47493732E-06
   85.3000031      -7.41655776E-06
   85.4300003      -7.36057746E-06
   85.5599976      -7.30710508E-06
   85.6900024      -7.25624795E-06
   85.8199997      -7.20810613E-06
   85.9499969      -7.16277464E-06
   86.0800018      -7.12033670E-06
   86.2099991      -7.08086873E-06
   86.3399963      -7.04443346E-06
   86.4700012      -7.01108320E-06
   86.5999985      -6.98085933E-06
   86.7300034      -6.95379140E-06
   86.8600006      -6.92989988E-06