  -24.4200001        -2.86901454E-18
  -24.2870007        -2.87264524E-18
  -24.1539993        -8.03907324E-17
  -24.0209999        -3.89094352E-16
  -23.8880005        -1.15109808E-15
  -23.7549992        -2.64337235E-15
  -23.6219997        -5.17993258E-15
  -23.4890003        -9.09290377E-15
  -23.3560009        -1.47167909E-14
  -23.2229996        -2.23805265E-14
  -23.0900002        -3.24106485E-14
  -22.9570007        -4.51458769E-14
  -22.8239994        -6.09592129E-14
  -22.6910000        -8.02792891E-14
  -22.5580006        -1.03599854E-13
  -22.4249992        -1.31466398E-13
  -22.2919998        -1.64432798E-13
  -22.1590004        -2.02988518E-13
  -22.0259991        -2.47466842E-13
  -21.8929996        -2.97953990E-13
  -21.7600002        -3.54225546E-13
  -21.6270008        -4.15736401E-13
  -21.4939995        -4.81683161E-13
  -21.3610001        -5.51143820E-13
  -21.2280006        -6.23281049E-13
  -21.0949993        -6.97575840E-13
  -20.9619999        -7.74046680E-13
  -20.8290005        -8.53403665E-13
  -20.6959991        -9.37096971E-13
  -20.5629997        -1.02723624E-12
  -20.4300003        -1.12638653E-12
  -20.2970009        -1.23727320E-12
  -20.1639996        -1.36245160E-12
  -20.0310001        -1.50400699E-12
  -19.8980007        -1.66334557E-12
  -19.7649994        -1.84111862E-12
  -19.6320000        -2.03729351E-12
  -19.4990005        -2.25134039E-12
  -19.3659992        -2.48249836E-12
  -19.2329998        -2.73004145E-12
  -19.1000004        -2.99348914E-12
  -18.9669991        -3.27271522E-12
  -18.8339996        -3.56793891E-12
  -18.7010002        -3.87962102E-12
  -18.5680008        -4.20831469E-12
  -18.4349995        -4.55453297E-12
  -18.3020000        -4.91869176E-12
  -18.1690006        -5.30117009E-12
  -18.0359993        -5.70248189E-12
  -17.9029999        -6.12352400E-12
  -17.7700005        -6.56583425E-12
  -17.6369991        -7.03177881E-12
  -17.5039997        -7.52458599E-12
  -17.3710003        -8.04819406E-12
  -17.2380009        -8.60691726E-12
  -17.1049995        -9.20496145E-12
  -16.9720001        -9.84592182E-12
  -16.8390007        -1.05323163E-11
  -16.7059994        -1.12653246E-11
  -16.5730000        -1.20447463E-11
  -16.4400005        -1.28692300E-11
  -16.3069992        -1.37367166E-11
  -16.1739998        -1.46450178E-11
  -16.0410004        -1.55924006E-11
  -15.9080000        -1.65780757E-11
  -15.7749996        -1.76025011E-11
  -15.6420002        -1.86674703E-11
  -15.5089998        -1.97760211E-11
  -15.3760004        -2.09321952E-11
  -15.2430000        -2.21407875E-11
  -15.1099997        -2.34071148E-11
  -14.9770002        -2.47368619E-11
  -14.8439999        -2.61360083E-11
  -14.7110004        -2.76107349E-11
  -14.5780001        -2.91672970E-11
  -14.4449997        -3.08117525E-11
  -14.3120003        -3.25495499E-11
  -14.1789999        -3.43850365E-11
  -14.0459995        -3.63210156E-11
  -13.9130001        -3.83585420E-11
  -13.7799997        -4.04970675E-11
  -13.6470003        -4.27351661E-11
  -13.5139999        -4.50717311E-11
  -13.3809996        -4.75075014E-11
  -13.2480001        -5.00466821E-11
  -13.1149998        -5.26981098E-11
  -12.9820004        -5.54756484E-11
  -12.8490000        -5.83974050E-11
  -12.7159996        -6.14837209E-11
  -12.5830002        -6.47539383E-11
  -12.4499998        -6.82225595E-11
  -12.3170004        -7.18954202E-11
  -12.1840000        -7.57668095E-11
  -12.0509996        -7.98184574E-11
  -11.9180002        -8.40209985E-11
  -11.7849998        -8.83382811E-11
  -11.6520004        -9.27342786E-11
  -11.5190001        -9.71818737E-11
  -11.3859997        -1.01672240E-10
  -11.2530003        -1.06223190E-10
  -11.1199999        -1.10884767E-10
  -10.9870005        -1.15740764E-10
  -10.8540001        -1.20904703E-10
  -10.7209997        -1.26510330E-10
  -10.5880003        -1.32696687E-10
  -10.4549999        -1.39589201E-10
  -10.3219995        -1.47278828E-10
  -10.1890001        -1.55801677E-10
  -10.0559998        -1.65122027E-10
  -9.92300034        -1.75121348E-10
  -9.78999996        -1.85595983E-10
  -9.65699959        -1.96265434E-10
  -9.52400017        -2.06791501E-10
  -9.39099979        -2.16809085E-10
  -9.25800037        -2.25966981E-10
  -9.12500000        -2.33975811E-10
  -8.99199963        -2.40660214E-10
  -8.85900021        -2.46010268E-10
  -8.72599983        -2.50226034E-10
  -8.59300041        -2.53750410E-10
  -8.46000004        -2.57283223E-10
  -8.32699966        -2.61772604E-10
  -8.19400024        -2.68378625E-10
  -8.06099987        -2.78408602E-10
  -7.92799997        -2.93224917E-10
  -7.79500008        -3.14128640E-10
  -7.66200018        -3.42227746E-10
  -7.52899981        -3.78298309E-10
  -7.39599991        -4.22651969E-10
  -7.26300001        -4.75022577E-10
  -7.13000011        -5.34484956E-10
  -6.99700022        -5.99417183E-10
  -6.86399984        -6.67516487E-10
  -6.73099995        -7.35870920E-10
  -6.59800005        -8.01089861E-10
  -6.46500015        -8.59486315E-10
  -6.33199978        -9.07302067E-10
  -6.19899988        -9.40962197E-10
  -6.06599998        -9.57340873E-10
  -5.93300009        -9.54020418E-10
  -5.80000019        -9.29522959E-10
  -5.66699982        -8.83498219E-10
  -5.53399992        -8.16847978E-10
  -5.40100002        -7.31779137E-10
  -5.26800013        -6.31774022E-10
  -5.13500023        -5.21477916E-10
  -5.00199986        -4.06507689E-10
  -4.86899996        -2.93190777E-10
  -4.73600006        -1.88249652E-10
  -4.60300016        -9.84536688E-11
  -4.46999979        -3.02592881E-11
  -4.33699989         1.05319893E-11
  -4.20400000         1.90784385E-11
  -4.07100010        -8.26219648E-12
  -3.93799996        -7.37733138E-11
  -3.80500007        -1.78312309E-10
  -3.67199993        -3.21339566E-10
  -3.53900003        -5.01042263E-10
  -3.40599990        -7.14538650E-10
  -3.27300000        -9.58146007E-10
  -3.14000010        -1.22768951E-09
  -3.00699997        -1.51882384E-09
  -2.87400007        -1.82734816E-09
  -2.74099994        -2.14948104E-09
  -2.60800004        -2.48208631E-09
  -2.47499990        -2.82282975E-09
  -2.34200001        -3.17026250E-09
  -2.20900011        -3.52383522E-09
  -2.07599998        -3.88383992E-09
  -1.94299996        -4.25130420E-09
  -1.80999994        -4.62784255E-09
  -1.67700005        -5.01548847E-09
  -1.54400003        -5.41652145E-09
  -1.41100001        -5.83331028E-09
  -1.27800000        -6.26817975E-09
  -1.14499998        -6.72331879E-09
  -1.01199996        -7.20072713E-09
 -0.879000008        -7.70221220E-09
 -0.745999992        -8.22942248E-09
 -0.612999976        -8.78391582E-09
 -0.479999989        -9.36725275E-09
 -0.347000003        -9.98109684E-09
 -0.214000002        -1.06273079E-08
  -8.10000002E-02    -1.13080230E-08
   5.20000011E-02    -1.20256978E-08
  0.185000002        -1.27831212E-08
  0.317999989        -1.35833798E-08
  0.451000005        -1.44297863E-08
  0.583999991        -1.53257709E-08
  0.717000008        -1.62747611E-08
  0.850000024        -1.72800370E-08
  0.982999980        -1.83445987E-08
   1.11600006        -1.94710612E-08
   1.24899995        -2.06615685E-08
   1.38199997        -2.19177512E-08
   1.51499999        -2.32407409E-08
   1.64800000        -2.46312037E-08
   1.78100002        -2.60894470E-08
   1.91400003        -2.76155347E-08
   2.04699993        -2.92094402E-08
   2.18000007        -3.08712025E-08
   2.31299996        -3.26011040E-08
   2.44600010        -3.43998146E-08
   2.57900000        -3.62685384E-08
   2.71199989        -3.82091336E-08
   2.84500003        -4.02242009E-08
   2.97799993        -4.23171151E-08
   3.11100006        -4.44920687E-08
   3.24399996        -4.67540389E-08
   3.37700009        -4.91087455E-08
   3.50999999        -5.15625764E-08
   3.64299989        -5.41224878E-08
   3.77600002        -5.67959013E-08
   3.90899992        -5.95905902E-08
   4.04199982        -6.25145589E-08
   4.17500019        -6.55759393E-08
   4.30800009        -6.87829171E-08
   4.44099998        -7.21435995E-08
   4.57399988        -7.56659801E-08
   4.70699978        -7.93578820E-08
   4.84000015        -8.32268654E-08
   4.97300005        -8.72802204E-08
   5.10599995        -9.15249103E-08
   5.23899984        -9.59675148E-08
   5.37200022        -1.00614201E-07
   5.50500011        -1.05470733E-07
   5.63800001        -1.10542423E-07
   5.77099991        -1.15834162E-07
   5.90399981        -1.21350439E-07
   6.03700018        -1.27095419E-07
   6.17000008        -1.33073002E-07
   6.30299997        -1.39286954E-07
   6.43599987        -1.45741026E-07
   6.56899977        -1.52439057E-07
   6.70200014        -1.59385124E-07
   6.83500004        -1.66583661E-07
   6.96799994        -1.74039570E-07
   7.10099983        -1.81758296E-07
   7.23400021        -1.89745833E-07
   7.36700010        -1.98008806E-07
   7.50000000        -2.06554446E-07
   7.63299990        -2.15390529E-07
   7.76599979        -2.24525380E-07
   7.89900017        -2.33967697E-07
   8.03199959        -2.43726532E-07
   8.16499996        -2.53811180E-07
   8.29800034        -2.64230977E-07
   8.43099976        -2.74995358E-07
   8.56400013        -2.86113590E-07
   8.69699955        -2.97594738E-07
   8.82999992        -3.09447557E-07
   8.96300030        -3.21680517E-07
   9.09599972        -3.34301632E-07
   9.22900009        -3.47318547E-07
   9.36200047        -3.60738397E-07
   9.49499989        -3.74567946E-07
   9.62800026        -3.88813618E-07
   9.76099968        -4.03481295E-07
   9.89400005        -4.18576604E-07
   10.0270004        -4.34104720E-07
   10.1599998        -4.50070530E-07
   10.2930002        -4.66478753E-07
   10.4259996        -4.83333793E-07
   10.5590000        -5.00639885E-07
   10.6920004        -5.18401180E-07
   10.8249998        -5.36622053E-07
   10.9580002        -5.55306769E-07
   11.0909996        -5.74459932E-07
   11.2240000        -5.94086544E-07
   11.3570004        -6.14191890E-07
   11.4899998        -6.34781884E-07
   11.6230001        -6.55862777E-07
   11.7559996        -6.77441164E-07
   11.8889999        -6.99523980E-07
   12.0220003        -7.22118216E-07
   12.1549997        -7.45230864E-07
   12.2880001        -7.68868460E-07
   12.4209995        -7.93036691E-07
   12.5539999        -8.17740727E-07
   12.6870003        -8.42984321E-07
   12.8199997        -8.68769632E-07
   12.9530001        -8.95097514E-07
   13.0860004        -9.21966659E-07
   13.2189999        -9.49374169E-07
   13.3520002        -9.77315267E-07
   13.4849997        -1.00578336E-06
   13.6180000        -1.03477032E-06
   13.7510004        -1.06426683E-06
   13.8839998        -1.09426242E-06
   14.0170002        -1.12474618E-06
   14.1499996        -1.15570697E-06
   14.2830000        -1.18713422E-06
   14.4160004        -1.21901769E-06
   14.5489998        -1.25134852E-06
   14.6820002        -1.28411875E-06
   14.8149996        -1.31732236E-06
   14.9480000        -1.35095422E-06
   15.0810003        -1.38501116E-06
   15.2139997        -1.41949090E-06
   15.3470001        -1.45439219E-06
   15.4799995        -1.48971469E-06
   15.6129999        -1.52545772E-06
   15.7460003        -1.56162071E-06
   15.8789997        -1.59820286E-06
   16.0119991        -1.63520212E-06
   16.1450005        -1.67261555E-06
   16.2779999        -1.71043871E-06
   16.4109993        -1.74866580E-06
   16.5440006        -1.78728897E-06
   16.6770000        -1.82629947E-06
   16.8099995        -1.86568650E-06
   16.9430008        -1.90543801E-06
   17.0760002        -1.94554036E-06
   17.2089996        -1.98597877E-06
   17.3419991        -2.02673777E-06
   17.4750004        -2.06780055E-06
   17.6079998        -2.10914936E-06
   17.7409992        -2.15076602E-06
   17.8740005        -2.19263188E-06
   18.0070000        -2.23472739E-06
   18.1399994        -2.27703299E-06
   18.2730007        -2.31952845E-06
   18.4060001        -2.36219375E-06
   18.5389996        -2.40500822E-06
   18.6720009        -2.44795183E-06
   18.8050003        -2.49100435E-06
   18.9379997        -2.53414578E-06
   19.0709991        -2.57735678E-06
   19.2040005        -2.62061826E-06
   19.3369999        -2.66391203E-06
   19.4699993        -2.70722057E-06
   19.6030006        -2.75052662E-06
   19.7360001        -2.79381356E-06
   19.8689995        -2.83706527E-06
   20.0020008        -2.88026581E-06
   20.1350002        -2.92339928E-06
   20.2679996        -2.96644976E-06
   20.4009991        -3.00939973E-06
   20.5340004        -3.05223148E-06
   20.6669998        -3.09492634E-06
   20.7999992        -3.13746318E-06
   20.9330006        -3.17982017E-06
   21.0660000        -3.22197366E-06
   21.1989994        -3.26389841E-06
   21.3320007        -3.30556713E-06
   21.4650002        -3.34695187E-06
   21.5979996        -3.38802329E-06
   21.7310009        -3.42875092E-06
   21.8640003        -3.46910474E-06
   21.9969997        -3.50905407E-06
   22.1299992        -3.54856820E-06
   22.2630005        -3.58761736E-06
   22.3959999        -3.62617243E-06
   22.5289993        -3.66420500E-06
   22.6620007        -3.70168846E-06
   22.7950001        -3.73859643E-06
   22.9279995        -3.77490346E-06
   23.0610008        -3.81058521E-06
   23.1940002        -3.84561736E-06
   23.3269997        -3.87997534E-06
   23.4599991        -3.91363619E-06
   23.5930004        -3.94657400E-06
   23.7259998        -3.97876511E-06
   23.8589993        -4.01018360E-06
   23.9920006        -4.04080356E-06
   24.1250000        -4.07059906E-06
   24.2579994        -4.09954328E-06
   24.3910007        -4.12760892E-06
   24.5240002        -4.15477007E-06
   24.6569996        -4.18099944E-06
   24.7900009        -4.20627066E-06
   24.9230003        -4.23055826E-06
   25.0559998        -4.25383678E-06
   25.1889992        -4.27608165E-06
   25.3220005        -4.29726879E-06
   25.4549999        -4.31737453E-06
   25.5879993        -4.33637570E-06
   25.7210007        -4.35425000E-06
   25.8540001        -4.37097378E-06
   25.9869995        -4.38652341E-06
   26.1200008        -4.40087524E-06
   26.2530003        -4.41400289E-06
   26.3859997        -4.42588089E-06
   26.5189991        -4.43648105E-06
   26.6520004        -4.44577609E-06
   26.7849998        -4.45373507E-06
   26.9179993        -4.46032891E-06
   27.0510006        -4.46552531E-06
   27.1840000        -4.46929380E-06
   27.3169994        -4.47160210E-06
   27.4500008        -4.47241973E-06
   27.5830002        -4.47171533E-06
   27.7159996        -4.46946024E-06
   27.8490009        -4.46562399E-06
   27.9820004        -4.46017975E-06
   28.1149998        -4.45310070E-06
   28.2479992        -4.44436137E-06
   28.3810005        -4.43393765E-06
   28.5139999        -4.42180590E-06
   28.6469994        -4.40794292E-06
   28.7800007        -4.39232690E-06
   28.9130001        -4.37493600E-06
   29.0459995        -4.35574839E-06
   29.1790009        -4.33474179E-06
   29.3120003        -4.31189528E-06
   29.4449997        -4.28718613E-06
   29.5779991        -4.26059160E-06
   29.7110004        -4.23208894E-06
   29.8439999        -4.20165497E-06
   29.9769993        -4.16926650E-06
   30.1100006        -4.13490125E-06
   30.2430000        -4.09853601E-06
   30.3759995        -4.06014897E-06
   30.5090008        -4.01971920E-06
   30.6420002        -3.97722715E-06
   30.7749996        -3.93265418E-06
   30.9080009        -3.88598301E-06
   31.0410004        -3.83719816E-06
   31.1739998        -3.78628442E-06
   31.3069992        -3.73322837E-06
   31.4400005        -3.67801749E-06
   31.5730000        -3.62063975E-06
   31.7059994        -3.56108421E-06
   31.8390007        -3.49933998E-06
   31.9720001        -3.43539728E-06
   32.1049995        -3.36924677E-06
   32.2379990        -3.30087960E-06
   32.3709984        -3.23028803E-06
   32.5040016        -3.15746593E-06
   32.6370010        -3.08240715E-06
   32.7700005        -3.00510783E-06
   32.9029999        -2.92556547E-06
   33.0359993        -2.84377893E-06
   33.1689987        -2.75974890E-06
   33.3019981        -2.67347764E-06
   33.4350014        -2.58496902E-06
   33.5680008        -2.49422942E-06
   33.7010002        -2.40126656E-06
   33.8339996        -2.30608975E-06
   33.9669991        -2.20870947E-06
   34.0999985        -2.10913845E-06
   34.2330017        -2.00738941E-06
   34.3660011        -1.90347680E-06
   34.4990005        -1.79741573E-06
   34.6320000        -1.68922213E-06
   34.7649994        -1.57891259E-06
   34.8979988        -1.46650450E-06
   35.0309982        -1.35201594E-06
   35.1640015        -1.23546647E-06
   35.2970009        -1.11687666E-06
   35.4300003        -9.96269023E-07
   35.5629997        -8.73667432E-07
   35.6959991        -7.49097921E-07
   35.8289986        -6.22588118E-07
   35.9620018        -4.94168091E-07
   36.0950012        -3.63870413E-07
   36.2280006        -2.31729302E-07
   36.3610001        -9.77809478E-08
   36.4939995         3.79356031E-08
   36.6269989         1.75379370E-07
   36.7599983         3.14506821E-07
   36.8930016         4.55273010E-07
   37.0260010         5.97630276E-07
   37.1590004         7.41529163E-07
   37.2919998         8.86918997E-07
   37.4249992         1.03374646E-06
   37.5579987         1.18195749E-06
   37.6910019         1.33149570E-06
   37.8240013         1.48230311E-06
   37.9570007         1.63432003E-06
   38.0900002         1.78748496E-06
   38.2229996         1.94173413E-06
   38.3559990         2.09700238E-06
   38.4889984         2.25322196E-06
   38.6220016         2.41032217E-06
   38.7550011         2.56823091E-06
   38.8880005         2.72687453E-06
   39.0209999         2.88617662E-06
   39.1539993         3.04605874E-06
   39.2869987         3.20644199E-06
   39.4199982         3.36724611E-06
   39.5530014         3.52838856E-06
   39.6860008         3.68978885E-06
   39.8190002         3.85136491E-06
   39.9519997         4.01303487E-06
   40.0849991         4.17471665E-06
   40.2179985         4.33632931E-06
   40.3510017         4.49779191E-06
   40.4840012         4.65902349E-06
   40.6170006         4.81994311E-06
   40.7500000         4.98047211E-06
   40.8829994         5.14052954E-06
   41.0159988         5.30003535E-06
   41.1489983         5.45890953E-06
   41.2820015         5.61707157E-06
   41.4150009         5.77444098E-06
   41.5480003         5.93093591E-06
   41.6809998         6.08647406E-06
   41.8139992         6.24097356E-06
   41.9469986         6.39434893E-06
   42.0800018         6.54651512E-06
   42.2130013         6.69738438E-06
   42.3460007         6.84686802E-06
   42.4790001         6.99487737E-06
   42.6119995         7.14132148E-06
   42.7449989         7.28611030E-06
   42.8779984         7.42915199E-06
   43.0110016         7.57035787E-06
   43.1440010         7.70963743E-06
   43.2770004         7.84690292E-06
   43.4099998         7.98206747E-06
   43.5429993         8.11504469E-06
   43.6759987         8.24575272E-06
   43.8089981         8.37410789E-06
   43.9420013         8.50003016E-06
   44.0750008         8.62344132E-06
   44.2080002         8.74426769E-06
   44.3409996         8.86243561E-06
   44.4739990         8.97787413E-06
   44.6069984         9.09051323E-06
   44.7400017         9.20028469E-06
   44.8730011         9.30712213E-06
   45.0060005         9.41096187E-06
   45.1389999         9.51173661E-06
   45.2719994         9.60938269E-06
   45.4049988         9.70383553E-06
   45.5379982         9.79503238E-06
   45.6710014         9.88291231E-06
   45.8040009         9.96741437E-06
   45.9370003         1.00484804E-05
   46.0699997         1.01260557E-05
   46.2029991         1.02000840E-05
   46.3359985         1.02705171E-05
   46.4690018         1.03373059E-05
   46.6020012         1.04004039E-05
   46.7350006         1.04597693E-05
   46.8680000         1.05153631E-05
   47.0009995         1.05671479E-05
   47.1339989         1.06150919E-05
   47.2669983         1.06591633E-05
   47.4000015         1.06993348E-05
   47.5330009         1.07355800E-05
   47.6660004         1.07678788E-05
   47.7989998         1.07962105E-05
   47.9319992         1.08205577E-05
   48.0649986         1.08409067E-05
   48.1980019         1.08572449E-05
   48.3310013         1.08695640E-05
   48.4640007         1.08778540E-05
   48.5970001         1.08821132E-05
   48.7299995         1.08823388E-05
   48.8629990         1.08785325E-05
   48.9959984         1.08707000E-05
   49.1290016         1.08588483E-05
   49.2620010         1.08429904E-05
   49.3950005         1.08231407E-05
   49.5279999         1.07993146E-05
   49.6609993         1.07715350E-05
   49.7939987         1.07398237E-05
   49.9269981         1.07042060E-05
   50.0600014         1.06647094E-05
   50.1930008         1.06213638E-05
   50.3260002         1.05741983E-05
   50.4589996         1.05232475E-05
   50.5919991         1.04685441E-05
   50.7249985         1.04101246E-05
   50.8580017         1.03480252E-05
   50.9910011         1.02822869E-05
   51.1240005         1.02129488E-05
   51.2570000         1.01400556E-05
   51.3899994         1.00636535E-05
   51.5229988         9.98379346E-06
   51.6559982         9.90052740E-06
   51.7890015         9.81391167E-06
   51.9220009         9.72400449E-06
   52.0550003         9.63086768E-06
   52.1879997         9.53456583E-06
   52.3209991         9.43516352E-06
   52.4539986         9.33272986E-06
   52.5870018         9.22733216E-06
   52.7200012         9.11903862E-06
   52.8530006         9.00791838E-06
   52.9860001         8.89403782E-06
   53.1189995         8.77746334E-06
   53.2519989         8.65826132E-06
   53.3849983         8.53649362E-06
   53.5180016         8.41222482E-06
   53.6510010         8.28551674E-06
   53.7840004         8.15643034E-06
   53.9169998         8.02502836E-06
   54.0499992         7.89137357E-06
   54.1829987         7.75552962E-06
   54.3160019         7.61755973E-06
   54.4490013         7.47753029E-06
   54.5820007         7.33550860E-06
   54.7150002         7.19156469E-06
   54.8479996         7.04577133E-06
   54.9809990         6.89820172E-06
   55.1139984         6.74893181E-06
   55.2470016         6.59803754E-06
   55.3800011         6.44559714E-06
   55.5130005         6.29168881E-06
   55.6459999         6.13638940E-06
   55.7789993         5.97977714E-06
   55.9119987         5.82192934E-06
   56.0449982         5.66292056E-06
   56.1780014         5.50282493E-06
   56.3110008         5.34171704E-06
   56.4440002         5.17966782E-06
   56.5769997         5.01674822E-06
   56.7099991         4.85302689E-06
   56.8429985         4.68857297E-06
   56.9760017         4.52345694E-06
   57.1090012         4.35774473E-06
   57.2420006         4.19150774E-06
   57.3750000         4.02481328E-06
   57.5079994         3.85773183E-06
   57.6409988         3.69033273E-06
   57.7739983         3.52268603E-06
   57.9070015         3.35486038E-06
   58.0400009         3.18692560E-06
   58.1730003         3.01894875E-06
   58.3059998         2.85099736E-06
   58.4389992         2.68313670E-06
   58.5719986         2.51542906E-06
   58.7050018         2.34793561E-06
   58.8380013         2.18071659E-06
   58.9710007         2.01382863E-06
   59.1040001         1.84732812E-06
   59.2369995         1.68127087E-06
   59.3699989         1.51570976E-06
   59.5029984         1.35069786E-06
   59.6360016         1.18628918E-06
   59.7690010         1.02253853E-06
   59.9020004         8.59499835E-07
   60.0349998         6.97229666E-07
   60.1679993         5.35785205E-07
   60.3009987         3.75226392E-07
   60.4339981         2.15614477E-07
   60.5670013         5.70108796E-08
   60.7000008        -1.00521085E-07
   60.8330002        -2.56916593E-07
   60.9659996        -4.12110239E-07
   61.0989990        -5.66035510E-07
   61.2319984        -7.18625472E-07
   61.3650017        -8.69812936E-07
   61.4980011        -1.01953083E-06
   61.6310005        -1.16771355E-06
   61.7639999        -1.31429385E-06
   61.8969994        -1.45920740E-06
   62.0299988        -1.60239017E-06
   62.1629982        -1.74377737E-06
   62.2960014        -1.88330648E-06
   62.4290009        -2.02091451E-06
   62.5620003        -2.15654063E-06
   62.6949997        -2.29012426E-06
   62.8279991        -2.42160468E-06
   62.9609985        -2.55092345E-06
   63.0940018        -2.67802329E-06
   63.2270012        -2.80284598E-06
   63.3600006        -2.92533173E-06
   63.4930000        -3.04542368E-06
   63.6259995        -3.16306546E-06
   63.7589989        -3.27819794E-06
   63.8919983        -3.39076337E-06
   64.0250015        -3.50070468E-06
   64.1579971        -3.60796366E-06
   64.2910004        -3.71248120E-06
   64.4240036        -3.81420045E-06
   64.5569992        -3.91306412E-06
   64.6900024        -4.00901581E-06
   64.8229980        -4.10200073E-06
   64.9560013        -4.19196476E-06
   65.0889969        -4.27885470E-06
   65.2220001        -4.36262053E-06
   65.3550034        -4.44321313E-06
   65.4879990        -4.52058384E-06
   65.6210022        -4.59468856E-06
   65.7539978        -4.66548181E-06
   65.8870010        -4.73292403E-06
   66.0199966        -4.79697383E-06
   66.1529999        -4.85759347E-06
   66.2860031        -4.91474793E-06
   66.4189987        -4.96840585E-06
   66.5520020        -5.01853992E-06
   66.6849976        -5.06512333E-06
   66.8180008        -5.10813425E-06
   66.9509964        -5.14755266E-06
   67.0839996        -5.18336083E-06
   67.2170029        -5.21554239E-06
   67.3499985        -5.24408506E-06
   67.4830017        -5.26897838E-06
   67.6159973        -5.29021281E-06
   67.7490005        -5.30778334E-06
   67.8820038        -5.32168633E-06
   68.0149994        -5.33191997E-06
   68.1480026        -5.33848970E-06
   68.2809982        -5.34140145E-06
   68.4140015        -5.34066521E-06
   68.5469971        -5.33629282E-06
   68.6800003        -5.32829972E-06
   68.8130035        -5.31670639E-06
   68.9459991        -5.30153284E-06
   69.0790024        -5.28280634E-06
   69.2119980        -5.26055328E-06
   69.3450012        -5.23480685E-06
   69.4779968        -5.20560252E-06
   69.6110001        -5.17298167E-06
   69.7440033        -5.13698888E-06
   69.8769989        -5.09767369E-06
   70.0100021        -5.05508797E-06
   70.1429977        -5.00928718E-06
   70.2760010        -4.96032999E-06
   70.4089966        -4.90827779E-06
   70.5419998        -4.85319606E-06
   70.6750031        -4.79514938E-06
   70.8079987        -4.73420596E-06
   70.9410019        -4.67043537E-06
   71.0739975        -4.60390947E-06
   71.2070007        -4.53470193E-06
   71.3399963        -4.46288823E-06
   71.4729996        -4.38854613E-06
   71.6060028        -4.31175522E-06
   71.7389984        -4.23259507E-06
   71.8720016        -4.15114937E-06
   72.0049973        -4.06750223E-06
   72.1380005        -3.98174052E-06
   72.2710037        -3.89395427E-06
   72.4039993        -3.80423535E-06
   72.5370026        -3.71267970E-06
   72.6699982        -3.61938692E-06
   72.8030014        -3.52446136E-06
   72.9359970        -3.42801172E-06
   73.0690002        -3.33015009E-06
   73.2020035        -3.23099312E-06
   73.3349991        -3.13066039E-06
   73.4680023        -3.02927288E-06
   73.6009979        -2.92695404E-06
   73.7340012        -2.82382734E-06
   73.8669968        -2.72001648E-06
   74.0000000        -2.61564583E-06
   74.1330032        -2.51083793E-06
   74.2659988        -2.40571649E-06
   74.3990021        -2.30040337E-06
   74.5319977        -2.19502044E-06
   74.6650009        -2.08968845E-06
   74.7979965        -1.98452722E-06
   74.9309998        -1.87965520E-06
   75.0640030        -1.77518950E-06
   75.1969986        -1.67124574E-06
   75.3300018        -1.56793783E-06
   75.4629974        -1.46537809E-06
   75.5960007        -1.36367805E-06
   75.7289963        -1.26294799E-06
   75.8619995        -1.16329852E-06
   75.9950027        -1.06483958E-06
   76.1279984        -9.67682013E-07
   76.2610016        -8.71936095E-07
   76.3939972        -7.77711023E-07
   76.5270004        -6.85116618E-07
   76.6600037        -5.94261223E-07
   76.7929993        -5.05251080E-07
   76.9260025        -4.18192201E-07
   77.0589981        -3.33187472E-07
   77.1920013        -2.50338871E-07
   77.3249969        -1.69746087E-07
   77.4580002        -9.15077081E-08
   77.5910034        -1.57221720E-08
   77.7239990         5.75147681E-08
   77.8570023         1.28107430E-07
   77.9899979         1.95961974E-07
   78.1230011         2.60986127E-07
   78.2559967         3.23089665E-07
   78.3889999         3.82185334E-07
   78.5220032         4.38188067E-07
   78.6549988         4.91015214E-07
   78.7880020         5.40587564E-07
   78.9209976         5.86829174E-07
   79.0540009         6.29665863E-07
   79.1869965         6.69026974E-07
   79.3199997         7.04843956E-07
   79.4530029         7.37051153E-07
   79.5859985         7.65585639E-07
   79.7190018         7.90388356E-07
   79.8519974         8.11400696E-07
   79.9850006         8.28568432E-07
   80.1179962         8.41840858E-07
   80.2509995         8.51169489E-07
   80.3840027         8.56506688E-07
   80.5169983         8.57808914E-07
   80.6500015         8.55032226E-07
   80.7829971         8.48136835E-07
   80.9160004         8.37085054E-07
   81.0490036         8.21842434E-07
   81.1819992         8.02374302E-07
   81.3150024         7.78651781E-07
   81.4479980         7.50649008E-07
   81.5810013         7.18343358E-07
   81.7139969         6.81718063E-07
   81.8470001         6.40757833E-07
   81.9800034         5.95453002E-07
   82.1129990         5.45795729E-07
   82.2460022         4.91783112E-07
   82.3789978         4.33413476E-07
   82.5120010         3.70690060E-07
   82.6449966         3.03617099E-07
   82.7779999         2.32201458E-07
   82.9110031         1.56453339E-07
   83.0439987         7.63821433E-08
   83.1770020        -7.99929545E-09