  -24.4200001       0.00000000    
  -24.2900009       0.00000000    
  -24.1599998       0.00000000    
  -24.0300007       0.00000000    
  -23.8999996       6.43890892E-30
  -23.7700005       6.80030998E-29
  -23.6399994       3.96084249E-28
  -23.5100002       1.67227014E-27
  -23.3799992       5.69862564E-27
  -23.2500000       1.65923980E-26
  -23.1200008       4.27501258E-26
  -22.9899998       9.97948735E-26
  -22.8600006       2.14668305E-25
  -22.7299995       4.30936519E-25
  -22.6000004       8.15251655E-25
  -22.4699993       1.46475703E-24
  -22.3400002       2.51505225E-24
  -22.2099991       4.14816078E-24
  -22.0799999       6.59976811E-24
  -21.9500008       1.01648719E-23
  -21.8199997       1.52009016E-23
  -21.6900005       2.21274143E-23
  -21.5599995       3.14216993E-23
  -21.4300003       4.36099884E-23
  -21.2999992       5.92547000E-23
  -21.1700001       7.89389947E-23
  -21.0400009       1.03250981E-22
  -20.9099998       1.32770958E-22
  -20.7800007       1.68066122E-22
  -20.6499996       2.09697631E-22
  -20.5200005       2.58245141E-22
  -20.3899994       3.14352942E-22
  -20.2600002       3.78800859E-22
  -20.1299992       4.52600223E-22
  -20.0000000       5.37113302E-22
  -19.8700008       6.34190803E-22
  -19.7399998       7.46319972E-22
  -19.6100006       8.76773180E-22
  -19.4799995       1.02974353E-21
  -19.3500004       1.21045847E-21
  -19.2199993       1.42525350E-21
  -19.0900002       1.68160063E-21
  -18.9599991       1.98807993E-21
  -18.8299999       2.35429496E-21
  -18.7000008       2.79073230E-21
  -18.5699997       3.30857543E-21
  -18.4400005       3.91948749E-21
  -18.3099995       4.63537879E-21
  -18.1800003       5.46816872E-21
  -18.0499992       6.42956666E-21
  -17.9200001       7.53089463E-21
  -17.7900009       8.78296982E-21
  -17.6599998       1.01960988E-20
  -17.5300007       1.17802248E-20
  -17.3999996       1.35452619E-20
  -17.2700005       1.55016377E-20
  -17.1399994       1.76610573E-20
  -17.0100002       2.00373954E-20
  -16.8799992       2.26477043E-20
  -16.7500000       2.55132179E-20
  -16.6200008       2.86602702E-20
  -16.4899998       3.21210162E-20
  -16.3600006       3.59338955E-20
  -16.2299995       4.01436729E-20
  -16.1000004       4.48009841E-20
  -15.9700003       4.99614311E-20
  -15.8400002       5.56843448E-20
  -15.7100000       6.20315925E-20
  -15.5799999       6.90670608E-20
  -15.4499998       7.68569632E-20
  -15.3199997       8.54713125E-20
  -15.1899996       9.49855504E-20
  -15.0600004       1.05481122E-19
  -14.9300003       1.17042916E-19
  -14.8000002       1.29752171E-19
  -14.6700001       1.43675004E-19
  -14.5400000       1.58848766E-19
  -14.4099998       1.75271882E-19
  -14.2799997       1.92903999E-19
  -14.1499996       2.11683532E-19
  -14.0200005       2.31565878E-19
  -13.8900003       2.52579057E-19
  -13.7600002       2.74884991E-19
  -13.6300001       2.98826389E-19
  -13.5000000       3.24934794E-19
  -13.3699999       3.53877560E-19
  -13.2399998       3.86332094E-19
  -13.1099997       4.22794888E-19
  -12.9799995       4.63358352E-19
  -12.8500004       5.07513615E-19
  -12.7200003       5.54060567E-19
  -12.5900002       6.01207846E-19
  -12.4600000       6.46932632E-19
  -12.3299999       6.89618409E-19
  -12.1999998       7.28912590E-19
  -12.0699997       7.66638178E-19
  -11.9399996       8.07487355E-19
  -11.8100004       8.59143027E-19
  -11.6800003       9.31469269E-19
  -11.5500002       1.03452501E-18
  -11.4200001       1.17541920E-18
  -11.2900000       1.35442171E-18
  -11.1599998       1.56122637E-18
  -11.0299997       1.77267535E-18
  -10.8999996       1.95345464E-18
  -10.7700005       2.06105016E-18
  -10.6400003       2.05550494E-18
  -10.5100002       1.91322988E-18
  -10.3800001       1.64248281E-18
  -10.2500000       1.29650759E-18
  -10.1199999       9.79260250E-19
  -9.98999977       8.38691968E-19
  -9.85999966       1.04414854E-18
  -9.72999954       1.74770876E-18
  -9.60000038       3.03385612E-18
  -9.47000027       4.86691897E-18
  -9.34000015       7.04994704E-18
  -9.21000004       9.21060980E-18
  -9.07999992       1.08280763E-17
  -8.94999981       1.13088618E-17
  -8.81999969       1.01096526E-17
  -8.68999958       6.89239477E-18
  -8.56000042       1.68407355E-18
  -8.43000031      -4.99635826E-18
  -8.30000019      -1.20850881E-17
  -8.17000008      -1.80305223E-17
  -8.03999996      -2.09810888E-17
  -7.90999985      -1.91003183E-17
  -7.78000021      -1.09758902E-17
  -7.65000010       3.94054864E-18
  -7.51999998       2.49494746E-17
  -7.38999987       4.98722081E-17
  -7.26000023       7.50605327E-17
  -7.13000011       9.57063983E-17
  -7.00000000       1.06462850E-16
  -6.86999989       1.02326953E-16
  -6.73999977       7.96726271E-17
  -6.61000013       3.72690195E-17
  -6.48000002      -2.29099929E-17
  -6.34999990      -9.52760592E-17
  -6.21999979      -1.70767586E-16
  -6.09000015      -2.37617438E-16
  -5.96000004      -2.82721890E-16
  -5.82999992      -2.93475952E-16
  -5.69999981      -2.59840247E-16
  -5.57000017      -1.76335954E-16
  -5.44000006      -4.36410830E-17
  -5.30999994       1.30506548E-16
  -5.17999983       3.31308441E-16
  -5.05000019       5.37890062E-16
  -4.92000008       7.25205787E-16
  -4.78999996       8.66655842E-16
  -4.65999985       9.37092667E-16
  -4.53000021       9.15833410E-16
  -4.40000010       7.89289441E-16
  -4.26999998       5.52892021E-16
  -4.13999987       2.12097765E-16
  -4.01000023      -2.17595564E-16
  -3.88000011      -7.11551033E-16
  -3.75000000      -1.23761583E-15
  -3.61999989      -1.75819592E-15
  -3.49000001      -2.23248747E-15
  -3.35999990      -2.61860850E-15
  -3.23000002      -2.87545620E-15
  -3.09999990      -2.96422674E-15
  -2.97000003      -2.84964584E-15
  -2.83999991      -2.50104964E-15
  -2.71000004      -1.89351526E-15
  -2.57999992      -1.00922652E-15
  -2.45000005       1.60765596E-16
  -2.31999993       1.61435035E-15
  -2.19000006       3.33579087E-15
  -2.05999994       5.29298099E-15
  -1.92999995       7.43482915E-15
  -1.79999995       9.68915144E-15
  -1.66999996       1.19614757E-14
  -1.53999996       1.41351613E-14
  -1.40999997       1.60731210E-14
  -1.27999997       1.76213753E-14
  -1.14999998       1.86144553E-14
  -1.01999998       1.88825667E-14
 -0.889999986       1.82602414E-14
 -0.759999990       1.65960436E-14
 -0.629999995       1.37628319E-14
 -0.500000000       9.66790870E-15
 -0.370000005       4.26250061E-15
 -0.239999995      -2.45012390E-15
 -0.109999999      -1.04084145E-14
   1.99999996E-02  -1.94886611E-14
  0.150000006      -2.95037568E-14
  0.280000001      -4.02047848E-14
  0.409999996      -5.12854224E-14
  0.540000021      -6.23890249E-14
  0.670000017      -7.31181202E-14
  0.800000012      -8.30459833E-14
  0.930000007      -9.17298870E-14
   1.05999994      -9.87256744E-14
   1.19000006      -1.03603175E-13
   1.32000005      -1.05962243E-13
   1.45000005      -1.05448907E-13
   1.58000004      -1.01771341E-13
   1.71000004      -9.47151293E-14
   1.84000003      -8.41573989E-14
   1.97000003      -7.00790473E-14
   2.09999990      -5.25745083E-14
   2.23000002      -3.18581255E-14
   2.35999990      -8.26648676E-15
   2.49000001       1.77440104E-14
   2.61999989       4.56047248E-14
   2.75000000       7.46476652E-14
   2.88000011       1.04123524E-13
   3.00999999       1.33224296E-13
   3.14000010       1.61109394E-13
   3.26999998       1.86934357E-13
   3.40000010       2.09880466E-13
   3.52999997       2.29184103E-13
   3.66000009       2.44164443E-13
   3.78999996       2.54248174E-13
   3.92000008       2.58990881E-13
   4.05000019       2.58093731E-13
   4.17999983       2.51415994E-13
   4.30999994       2.38982337E-13
   4.44000006       2.20985895E-13
   4.57000017       1.97786096E-13
   4.69999981       1.69902165E-13
   4.82999992       1.38001833E-13
   4.96000004       1.02885223E-13
   5.09000015       6.54641136E-14
   5.21999979       2.67366441E-14
   5.34999990      -1.22424348E-14
   5.48000002      -5.03952958E-14
   5.61000013      -8.66575759E-14
   5.73999977      -1.20016789E-13
   5.86999989      -1.49551094E-13
   6.00000000      -1.74466724E-13
   6.13000011      -1.94132091E-13
   6.26000023      -2.08106617E-13
   6.38999987      -2.16162402E-13
   6.51999998      -2.18296979E-13
   6.65000010      -2.14736161E-13
   6.78000021      -2.05926069E-13
   6.90999985      -1.92514529E-13
   7.03999996      -1.75322593E-13
   7.17000008      -1.55307719E-13
   7.30000019      -1.33520663E-13
   7.42999983      -1.11058888E-13
   7.55999994      -8.90192461E-14
   7.69000006      -6.84529202E-14
   7.82000017      -5.03252564E-14
   7.94999981      -3.54823897E-14
   8.07999992      -2.46261294E-14
   8.21000004      -1.82976193E-14
   8.34000015      -1.68692693E-14
   8.47000027      -2.05440489E-14
   8.60000038      -2.93606556E-14
   8.72999954      -4.32025055E-14
   8.85999966      -6.18090648E-14
   8.98999977      -8.47880861E-14
   9.11999989      -1.11627511E-13
   9.25000000      -1.41707406E-13
   9.38000011      -1.74311371E-13
   9.51000023      -2.08639028E-13
   9.64000034      -2.43820426E-13
   9.77000046      -2.78933127E-13
   9.89999962      -3.13023885E-13
   10.0299997      -3.45134186E-13
   10.1599998      -3.74330721E-13
   10.2900000      -3.99738917E-13
   10.4200001      -4.20579289E-13
   10.5500002      -4.36203482E-13
   10.6800003      -4.46129136E-13
   10.8100004      -4.50070320E-13
   10.9399996      -4.47961844E-13
   11.0699997      -4.39975991E-13
   11.1999998      -4.26529743E-13
   11.3299999      -4.08282457E-13
   11.4600000      -3.86122801E-13
   11.5900002      -3.61145738E-13
   11.7200003      -3.34619648E-13
   11.8500004      -3.07945238E-13
   11.9799995      -2.82606891E-13
   12.1099997      -2.60118831E-13
   12.2399998      -2.41968012E-13
   12.3699999      -2.29556310E-13
   12.5000000      -2.24145436E-13
   12.6300001      -2.26806231E-13
   12.7600002      -2.38376322E-13
   12.8900003      -2.59427869E-13
   13.0200005      -2.90247345E-13
   13.1499996      -3.30828355E-13
   13.2799997      -3.80877702E-13
   13.4099998      -4.39833066E-13
   13.5400000      -5.06892596E-13
   13.6700001      -5.81052079E-13
   13.8000002      -6.61148382E-13
   13.9300003      -7.45905779E-13
   14.0600004      -8.33983653E-13
   14.1899996      -9.24023336E-13
   14.3199997      -1.01469072E-12
   14.4499998      -1.10471658E-12
   14.5799999      -1.19292998E-12
   14.7100000      -1.27828835E-12
   14.8400002      -1.35990112E-12
   14.9700003      -1.43704796E-12
   15.1000004      -1.50919132E-12
   15.2299995      -1.57598403E-12
   15.3599997      -1.63727105E-12
   15.4899998      -1.69308686E-12
   15.6199999      -1.74364711E-12
   15.7500000      -1.78933496E-12
   15.8800001      -1.83068534E-12
   16.0100002      -1.86836354E-12
   16.1399994      -1.90314019E-12
   16.2700005      -1.93586661E-12
   16.3999996      -1.96744487E-12
   16.5300007      -1.99879978E-12
   16.6599998      -2.03084598E-12
   16.7900009      -2.06446167E-12
   16.9200001      -2.10045913E-12
   17.0499992      -2.13955568E-12
   17.1800003      -2.18235347E-12
   17.3099995      -2.22931569E-12
   17.4400005      -2.28075328E-12
   17.5699997      -2.33681303E-12
   17.7000008      -2.39747154E-12
   17.8299999      -2.46253777E-12
   17.9599991      -2.53165913E-12
   18.0900002      -2.60433211E-12
   18.2199993      -2.67992312E-12
   18.3500004      -2.75768796E-12
   18.4799995      -2.83679612E-12
   18.6100006      -2.91636073E-12
   18.7399998      -2.99546737E-12
   18.8700008      -3.07320358E-12
   19.0000000      -3.14868726E-12
   19.1299992      -3.22109527E-12
   19.2600002      -3.28968840E-12
   19.3899994      -3.35383240E-12
   19.5200005      -3.41301401E-12
   19.6499996      -3.46684985E-12
   19.7800007      -3.51509143E-12
   19.9099998      -3.55761666E-12
   20.0400009      -3.59441947E-12
   20.1700001      -3.62559093E-12
   20.2999992      -3.65128761E-12
   20.4300003      -3.67170227E-12
   20.5599995      -3.68702985E-12
   20.6900005      -3.69742128E-12
   20.8199997      -3.70295678E-12
   20.9500008      -3.70360990E-12
   21.0799999      -3.69921671E-12
   21.2099991      -3.68946540E-12
   21.3400002      -3.67387717E-12
   21.4699993      -3.65181626E-12
   21.6000004      -3.62249445E-12
   21.7299995      -3.58499515E-12
   21.8600006      -3.53829791E-12
   21.9899998      -3.48131875E-12
   22.1200008      -3.41294332E-12
   22.2500000      -3.33207008E-12
   22.3799992      -3.23765537E-12
   22.5100002      -3.12875073E-12
   22.6399994      -3.00453911E-12
   22.7700005      -2.86436716E-12
   22.8999996      -2.70777259E-12
   23.0300007      -2.53449974E-12
   23.1599998      -2.34450458E-12
   23.2900009      -2.13795474E-12
   23.4200001      -1.91521300E-12
   23.5499992      -1.67681537E-12
   23.6800003      -1.42343244E-12
   23.8099995      -1.15582793E-12
   23.9400005      -8.74805870E-13
   24.0699997      -5.81157301E-13
   24.2000008      -2.75603298E-13
   24.3299999       4.12515074E-14
   24.4599991       3.68965709E-13
   24.5900002       7.07286822E-13
   24.7199993       1.05617620E-12
   24.8500004       1.41580215E-12
   24.9799995       1.78652254E-12
   25.1100006       2.16885255E-12
   25.2399998       2.56341758E-12
   25.3700008       2.97089436E-12
   25.5000000       3.39195577E-12
   25.6299992       3.82720852E-12
   25.7600002       4.27714721E-12
   25.8899994       4.74211729E-12
   26.0200005       5.22229482E-12
   26.1499996       5.71768284E-12
   26.2800007       6.22812435E-12
   26.4099998       6.75332359E-12
   26.5400009       7.29287984E-12
   26.6700001       7.84631821E-12
   26.7999992       8.41312003E-12
   26.9300003       8.99273971E-12
   27.0599995       9.58461262E-12
   27.1900005       1.01881507E-11
   27.3199997       1.08027155E-11
   27.4500008       1.14276037E-11
   27.5799999       1.20620042E-11
   27.7099991       1.27049725E-11
   27.8400002       1.33554019E-11
   27.9699993       1.40120216E-11
   28.1000004       1.46733927E-11
   28.2299995       1.53379375E-11
   28.3600006       1.60039725E-11
   28.4899998       1.66697611E-11
   28.6200008       1.73335929E-11
   28.7500000       1.79938304E-11
   28.8799992       1.86489973E-11
   29.0100002       1.92978203E-11
   29.1399994       1.99392985E-11
   29.2700005       2.05727171E-11
   29.3999996       2.11976704E-11
   29.5300007       2.18140558E-11
   29.6599998       2.24220451E-11
   29.7900009       2.30220530E-11
   29.9200001       2.36146727E-11
   30.0499992       2.42006137E-11
   30.1800003       2.47806341E-11
   30.3099995       2.53554625E-11
   30.4400005       2.59257303E-11
   30.5699997       2.64918937E-11
   30.7000008       2.70541801E-11
   30.8299999       2.76125164E-11
   30.9599991       2.81664848E-11
   31.0900002       2.87152749E-11
   31.2199993       2.92576449E-11
   31.3500004       2.97918981E-11
   31.4799995       3.03158644E-11
   31.6100006       3.08269001E-11
   31.7399998       3.13219103E-11
   31.8700008       3.17973668E-11
   32.0000000       3.22493802E-11
   32.1300011       3.26737491E-11
   32.2599983       3.30660638E-11
   32.3899994       3.34217966E-11
   32.5200005       3.37363922E-11
   32.6500015       3.40053714E-11
   32.7799988       3.42244150E-11
   32.9099998       3.43894149E-11
   33.0400009       3.44965341E-11
   33.1699982       3.45422163E-11
   33.2999992       3.45231829E-11
   33.4300003       3.44364121E-11
   33.5600014       3.42790726E-11
   33.6899986       3.40485175E-11
   33.8199997       3.37422000E-11
   33.9500008       3.33576812E-11
   34.0800018       3.28925845E-11
   34.2099991       3.23446200E-11
   34.3400002       3.17116021E-11
   34.4700012       3.09915010E-11
   34.5999985       3.01825162E-11
   34.7299995       2.92831141E-11
   34.8600006       2.82921221E-11
   34.9900017       2.72087665E-11
   35.1199989       2.60326986E-11
   35.2500000       2.47639912E-11
   35.3800011       2.34031197E-11
   35.5099983       2.19508786E-11
   35.6399994       2.04083313E-11
   35.7700005       1.87766521E-11
   35.9000015       1.70570259E-11
   36.0299988       1.52505404E-11
   36.1599998       1.33579953E-11
   36.2900009       1.13798511E-11
   36.4199982       9.31609651E-12
   36.5499992       7.16619819E-12
   36.6800003       4.92909012E-12
   36.8100014       2.60315380E-12
   36.9399986       1.86264144E-13
   37.0699997      -2.32412375E-12
   37.2000008      -4.93087775E-12
   37.3300018      -7.63704811E-12
   37.4599991      -1.04457207E-11
   37.5900002      -1.33598575E-11
   37.7200012      -1.63821179E-11
   37.8499985      -1.95146885E-11
   37.9799995      -2.27591539E-11
   38.1100006      -2.61163556E-11
   38.2400017      -2.95862883E-11
   38.3699989      -3.31680135E-11
   38.5000000      -3.68596646E-11
   38.6300011      -4.06584280E-11
   38.7599983      -4.45605775E-11
   38.8899994      -4.85615853E-11
   39.0200005      -5.26562127E-11
   39.1500015      -5.68386484E-11
   39.2799988      -6.11026785E-11
   39.4099998      -6.54417978E-11
   39.5400009      -6.98494040E-11
   39.6699982      -7.43188566E-11
   39.7999992      -7.88435914E-11
   39.9300003      -8.34171759E-11
   40.0600014      -8.80332890E-11
   40.1899986      -9.26857133E-11
   40.3199997      -9.73682732E-11
   40.4500008      -1.02074758E-10
   40.5800018      -1.06798820E-10
   40.7099991      -1.11533956E-10
   40.8400002      -1.16273352E-10
   40.9700012      -1.21009910E-10
   41.0999985      -1.25736227E-10
   41.2299995      -1.30444669E-10
   41.3600006      -1.35127382E-10
   41.4900017      -1.39776440E-10
   41.6199989      -1.44383949E-10
   41.7500000      -1.48942220E-10
   41.8800011      -1.53443785E-10
   42.0099983      -1.57881527E-10
   42.1399994      -1.62248756E-10
   42.2700005      -1.66539171E-10
   42.4000015      -1.70746861E-10
   42.5299988      -1.74866177E-10
   42.6599998      -1.78891679E-10
   42.7900009      -1.82817886E-10
   42.9199982      -1.86639190E-10
   43.0499992      -1.90349680E-10
   43.1800003      -1.93942903E-10
   43.3100014      -1.97411837E-10
   43.4399986      -2.00748668E-10
   43.5699997      -2.03944847E-10
   43.7000008      -2.06991022E-10
   43.8300018      -2.09877032E-10
   43.9599991      -2.12592013E-10
   44.0900002      -2.15124557E-10
   44.2200012      -2.17462742E-10
   44.3499985      -2.19594398E-10
   44.4799995      -2.21507188E-10
   44.6100006      -2.23188856E-10
   44.7400017      -2.24627386E-10
   44.8699989      -2.25811078E-10
   45.0000000      -2.26728789E-10
   45.1300011      -2.27369928E-10
   45.2599983      -2.27724617E-10
   45.3899994      -2.27783667E-10
   45.5200005      -2.27538544E-10
   45.6500015      -2.26981392E-10
   45.7799988      -2.26104926E-10
   45.9099998      -2.24902361E-10
   46.0400009      -2.23367297E-10
   46.1699982      -2.21493615E-10
   46.2999992      -2.19275445E-10
   46.4300003      -2.16707041E-10
   46.5600014      -2.13782797E-10
   46.6899986      -2.10497189E-10
   46.8199997      -2.06844847E-10
   46.9500008      -2.02820621E-10
   47.0800018      -1.98419670E-10
   47.2099991      -1.93637481E-10
   47.3400002      -1.88470059E-10
   47.4700012      -1.82913892E-10
   47.5999985      -1.76966081E-10
   47.7299995      -1.70624390E-10
   47.8600006      -1.63887168E-10
   47.9900017      -1.56753388E-10
   48.1199989      -1.49222579E-10
   48.2500000      -1.41294712E-10
   48.3800011      -1.32970149E-10
   48.5099983      -1.24249472E-10
   48.6399994      -1.15133479E-10
   48.7700005      -1.05623010E-10
   48.9000015      -9.57189744E-11
   49.0299988      -8.54222387E-11
   49.1599998      -7.47336359E-11
   49.2900009      -6.36540473E-11
   49.4199982      -5.21844339E-11
   49.5499992      -4.03258468E-11
   49.6800003      -2.80796376E-11
   49.8100014      -1.54475339E-11
   49.9399986      -2.43180584E-12
   50.0699997       1.09646814E-11
   50.2000008       2.47382184E-11
   50.3300018       3.88842361E-11
   50.4599991       5.33971582E-11
   50.5900002       6.82702922E-11
   50.7200012       8.34957659E-11
   50.8499985       9.90647633E-11
   50.9799995       1.14967202E-10
   51.1100006       1.31192029E-10
   51.2400017       1.47727136E-10
   51.3699989       1.64559602E-10
   51.5000000       1.81675702E-10
   51.6300011       1.99061115E-10
   51.7599983       2.16701074E-10
   51.8899994       2.34580383E-10
   52.0200005       2.52683652E-10
   52.1500015       2.70995254E-10
   52.2799988       2.89499591E-10
   52.4099998       3.08181064E-10
   52.5400009       3.27023908E-10
   52.6699982       3.46012302E-10
   52.7999992       3.65130176E-10
   52.9300003       3.84361099E-10
   53.0600014       4.03687972E-10
   53.1899986       4.23092783E-10
   53.3199997       4.42556686E-10
   53.4500008       4.62059502E-10
   53.5800018       4.81579776E-10
   53.7099991       5.01094943E-10
   53.8400002       5.20581078E-10
   53.9700012       5.40013034E-10
   54.0999985       5.59364999E-10
   54.2299995       5.78610604E-10
   54.3600006       5.97723426E-10
   54.4900017       6.16677209E-10
   54.6199989       6.35446529E-10
   54.7500000       6.54007182E-10
   54.8800011       6.72335909E-10
   55.0099983       6.90411284E-10
   55.1399994       7.08213044E-10
   55.2700005       7.25722926E-10
   55.4000015       7.42923667E-10
   55.5299988       7.59799390E-10
   55.6599998       7.76334830E-10
   55.7900009       7.92515442E-10
   55.9199982       8.08326683E-10
   56.0499992       8.23753676E-10
   56.1800003       8.38780767E-10
   56.3100014       8.53391247E-10
   56.4399986       8.67566630E-10
   56.5699997       8.81287210E-10
   56.7000008       8.94531282E-10
   56.8300018       9.07275144E-10
   56.9599991       9.19493426E-10
   57.0900002       9.31158817E-10
   57.2200012       9.42242839E-10
   57.3499985       9.52715906E-10
   57.4799995       9.62547930E-10
   57.6100006       9.71708491E-10
   57.7400017       9.80167392E-10
   57.8699989       9.87895321E-10
   58.0000000       9.94863636E-10
   58.1300011       1.00104525E-09
   58.2599983       1.00641417E-09
   58.3899994       1.01094588E-09
   58.5200005       1.01461706E-09
   58.6500015       1.01740605E-09
   58.7799988       1.01929187E-09
   58.9099998       1.02025499E-09
   59.0400009       1.02027620E-09
   59.1699982       1.01933739E-09
   59.2999992       1.01742104E-09
   59.4300003       1.01451014E-09
   59.5600014       1.01058850E-09
   59.6899986       1.00564046E-09
   59.8199997       9.99651362E-10
   59.9500008       9.92607330E-10
   60.0800018       9.84495374E-10
   60.2099991       9.75303727E-10
   60.3400002       9.65021618E-10
   60.4700012       9.53639390E-10
   60.5999985       9.41148381E-10
   60.7299995       9.27540822E-10
   60.8600006       9.12809162E-10
   60.9900017       8.96946517E-10
   61.1199989       8.79945727E-10
   61.2500000       8.61799243E-10
   61.3800011       8.42498682E-10
   61.5099983       8.22034663E-10
   61.6399994       8.00396416E-10
   61.7700005       7.77572118E-10
   61.9000015       7.53548446E-10
   62.0299988       7.28311245E-10
   62.1599998       7.01845526E-10
   62.2900009       6.74136413E-10
   62.4199982       6.45168974E-10
   62.5499992       6.14929496E-10
   62.6800003       5.83405546E-10
   62.8100014       5.50586965E-10
   62.9399986       5.16465481E-10
   63.0699997       4.81035600E-10
   63.2000008       4.44294740E-10
   63.3300018       4.06243011E-10
   63.4599991       3.66883635E-10
   63.5900002       3.26222521E-10
   63.7200012       2.84268331E-10
   63.8499985       2.41031944E-10
   63.9799995       1.96526892E-10
   64.1100006       1.50768301E-10
   64.2399979       1.03773538E-10
   64.3700027       5.55612362E-11
   64.5000000       6.15130256E-12
   64.6299973      -4.44354588E-11
   64.7600021      -9.61769969E-11
   64.8899994      -1.49050966E-10
   65.0199966      -2.03034423E-10
   65.1500015      -2.58103511E-10
   65.2799988      -3.14233639E-10
   65.4100037      -3.71399633E-10
   65.5400009      -4.29575125E-10
   65.6699982      -4.88732721E-10
   65.8000031      -5.48843582E-10
   65.9300003      -6.09878037E-10
   66.0599976      -6.71804778E-10
   66.1900024      -7.34591055E-10
   66.3199997      -7.98203226E-10
   66.4499969      -8.62606986E-10
   66.5800018      -9.27767252E-10
   66.7099991      -9.93648386E-10
   66.8399963      -1.06021458E-09
   66.9700012      -1.12742982E-09
   67.0999985      -1.19525811E-09
   67.2300034      -1.26366329E-09
   67.3600006      -1.33260969E-09
   67.4899979      -1.40206080E-09
   67.6200027      -1.47197998E-09
   67.7500000      -1.54233015E-09
   67.8799973      -1.61307301E-09
   68.0100021      -1.68416925E-09
   68.1399994      -1.75557757E-09
   68.2699966      -1.82725435E-09
   68.4000015      -1.89915395E-09
   68.5299988      -1.97122674E-09
   68.6600037      -2.04342054E-09
   68.7900009      -2.11567941E-09
   68.9199982      -2.18794449E-09
   69.0500031      -2.26015295E-09
   69.1800003      -2.33223907E-09
   69.3099976      -2.40413423E-09
   69.4400024      -2.47576715E-09
   69.5699997      -2.54706456E-09
   69.6999969      -2.61795163E-09
   69.8300018      -2.68835221E-09
   69.9599991      -2.75818968E-09
   70.0899963      -2.82738699E-09
   70.2200012      -2.89586755E-09
   70.3499985      -2.96355451E-09
   70.4800034      -3.03037173E-09
   70.6100006      -3.09624459E-09
   70.7399979      -3.16109872E-09
   70.8700027      -3.22486060E-09
   71.0000000      -3.28745897E-09
   71.1299973      -3.34882189E-09
   71.2600021      -3.40887985E-09
   71.3899994      -3.46756335E-09
   71.5199966      -3.52480334E-09
   71.6500015      -3.58053098E-09
   71.7799988      -3.63467700E-09
   71.9100037      -3.68717168E-09
   72.0400009      -3.73794506E-09
   72.1699982      -3.78692633E-09
   72.3000031      -3.83404331E-09
   72.4300003      -3.87922316E-09
   72.5599976      -3.92239485E-09
   72.6900024      -3.96348465E-09
   72.8199997      -4.00242151E-09
   72.9499969      -4.03913436E-09
   73.0800018      -4.07355305E-09
   73.2099991      -4.10561007E-09
   73.3399963      -4.13523749E-09
   73.4700012      -4.16236956E-09
   73.5999985      -4.18694146E-09
   73.7300034      -4.20889013E-09
   73.8600006      -4.22815294E-09
   73.9899979      -4.24466773E-09
   74.1200027      -4.25837321E-09
   74.2500000      -4.26920854E-09
   74.3799973      -4.27711333E-09
   74.5100021      -4.28202762E-09
   74.6399994      -4.28389368E-09
   74.7699966      -4.28265290E-09
   74.9000015      -4.27824975E-09
   75.0299988      -4.27062874E-09
   75.1600037      -4.25973745E-09
   75.2900009      -4.24552615E-09
   75.4199982      -4.22794733E-09
   75.5500031      -4.20695656E-09
   75.6800003      -4.18251389E-09
   75.8099976      -4.15458201E-09
   75.9400024      -4.12312806E-09
   76.0699997      -4.08812273E-09
   76.1999969      -4.04954070E-09
   76.3300018      -4.00736022E-09
   76.4599991      -3.96156397E-09
   76.5899963      -3.91213550E-09
   76.7200012      -3.85906240E-09
   76.8499985      -3.80233356E-09
   76.9800034      -3.74193920E-09
   77.1100006      -3.67787156E-09
   77.2399979      -3.61012442E-09
   77.3700027      -3.53869223E-09
   77.5000000      -3.46357232E-09
   77.6299973      -3.38476247E-09
   77.7600021      -3.30226357E-09
   77.8899994      -3.21607807E-09
   78.0199966      -3.12621040E-09
   78.1500015      -3.03266878E-09
   78.2799988      -2.93546232E-09
   78.4100037      -2.83460388E-09
   78.5400009      -2.73010947E-09
   78.6699982      -2.62199840E-09
   78.8000031      -2.51029264E-09
   78.9300003      -2.39501774E-09
   79.0599976      -2.27620256E-09
   79.1900024      -2.15387796E-09
   79.3199997      -2.02807948E-09
   79.4499969      -1.89884397E-09
   79.5800018      -1.76621062E-09
   79.7099991      -1.63022107E-09
   79.8399963      -1.49091728E-09
   79.9700012      -1.34834277E-09
   80.0999985      -1.20254173E-09
   80.2300034      -1.05356024E-09
   80.3600006      -9.01444974E-10
   80.4899979      -7.46244788E-10
   80.6200027      -5.88010807E-10
   80.7500000      -4.26797514E-10
   80.8799973      -2.62665029E-10
   81.0100021      -9.56761961E-11
   81.1399994       7.41000664E-11
   81.2699966       2.46589638E-10
   81.4000015       4.21712082E-10
   81.5299988       5.99382100E-10
   81.6600037       7.79509290E-10
   81.7900009       9.61999147E-10
   81.9199982       1.14675314E-09
   82.0500031       1.33366851E-09
   82.1800003       1.52264079E-09
   82.3099976       1.71356274E-09
   82.4400024       1.90632665E-09
   82.5699997       2.10082307E-09
   82.6999969       2.29694330E-09
   82.8300018       2.49457721E-09
   82.9599991       2.69361666E-09
   83.0899963       2.89395263E-09
   83.2200012       3.09547787E-09
   83.3499985       3.29808425E-09
   83.4800034       3.50166407E-09
   83.6100006       3.70610964E-09
   83.7399979       3.91131172E-09
   83.8700027       4.11716039E-09
   84.0000000       4.32354375E-09
   84.1299973       4.53034810E-09
   84.2600021       4.73745665E-09
   84.3899994       4.94475216E-09
   84.5199966       5.15211340E-09
   84.6500015       5.35941824E-09
   84.7799988       5.56654278E-09
   84.9100037       5.77336356E-09
   85.0400009       5.97975491E-09
   85.1699982       6.18559115E-09
   85.3000031       6.39074704E-09
   85.4300003       6.59509647E-09
   85.5599976       6.79851420E-09
   85.6900024       7.00087499E-09
   85.8199997       7.20205140E-09
   85.9499969       7.40191863E-09
   86.0800018       7.60035235E-09
   86.2099991       7.79722598E-09
   86.3399963       7.99241118E-09
   86.4700012       8.18578272E-09
   86.5999985       8.37721092E-09
   86.7300034       8.56656790E-09
   86.8600006       8.75371953E-09