  -24.4200001         0.00000000    
  -24.2900009         0.00000000    
  -24.1599998         0.00000000    
  -24.0300007         0.00000000    
  -23.8999996         5.90238907E-29
  -23.7700005         5.15919895E-28
  -23.6399994         2.48776550E-27
  -23.5100002         8.73202000E-27
  -23.3799992         2.48929927E-26
  -23.2500000         6.10522258E-26
  -23.1200008         1.33398647E-25
  -22.9899998         2.65750205E-25
  -22.8600006         4.90629230E-25
  -22.7299995         8.49648259E-25
  -22.6000004         1.39311810E-24
  -22.4699993         2.17904602E-24
  -22.3400002         3.27202227E-24
  -22.2099991         4.74285422E-24
  -22.0799999         6.67012503E-24
  -21.9500008         9.14504675E-24
  -21.8199997         1.22809787E-23
  -21.6900005         1.62287211E-23
  -21.5599995         2.11981582E-23
  -21.4300003         2.74860596E-23
  -21.2999992         3.55088571E-23
  -21.1700001         4.58382049E-23
  -21.0400009         5.92363164E-23
  -20.9099998         7.66872196E-23
  -20.7800007         9.94201399E-23
  -20.6499996         1.28921064E-22
  -20.5200005         1.66929619E-22
  -20.3899994         2.15419662E-22
  -20.2600002         2.76563198E-22
  -20.1299992         3.52679743E-22
  -20.0000000         4.46174528E-22
  -19.8700008         5.59471059E-22
  -19.7399998         6.94945361E-22
  -19.6100006         8.54868747E-22
  -19.4799995         1.04136859E-21
  -19.3500004         1.25641313E-21
  -19.2199993         1.50182658E-21
  -19.0900002         1.77934062E-21
  -18.9599991         2.09068082E-21
  -18.8299999         2.43768996E-21
  -18.7000008         2.82247899E-21
  -18.5699997         3.24760156E-21
  -18.4400005         3.71623855E-21
  -18.3099995         4.23237300E-21
  -18.1800003         4.80094052E-21
  -18.0499992         5.42793898E-21
  -17.9200001         6.12046889E-21
  -17.7900009         6.88671965E-21
  -17.6599998         7.73586821E-21
  -17.5300007         8.67791707E-21
  -17.3999996         9.72345559E-21
  -17.2700005         1.08833526E-20
  -17.1399994         1.21683866E-20
  -17.0100002         1.35888326E-20
  -16.8799992         1.51540361E-20
  -16.7500000         1.68720643E-20
  -16.6200008         1.87494703E-20
  -16.4899998         2.07912235E-20
  -16.3600006         2.30007505E-20
  -16.2299995         2.53800031E-20
  -16.1000004         2.79294044E-20
  -15.9700003         3.06476330E-20
  -15.8400002         3.35313946E-20
  -15.7100000         3.65755421E-20
  -15.5799999         3.97740104E-20
  -15.4499998         4.31218559E-20
  -15.3199997         4.66181351E-20
  -15.1899996         5.02686156E-20
  -15.0600004         5.40864516E-20
  -14.9300003         5.80893078E-20
  -14.8000002         6.22920639E-20
  -14.6700001         6.66966520E-20
  -14.5400000         7.12832457E-20
  -14.4099998         7.60083405E-20
  -14.2799997         8.08150482E-20
  -14.1499996         8.56566915E-20
  -14.0200005         9.05283846E-20
  -13.8900003         9.54934070E-20
  -13.7600002         1.00687358E-19
  -13.6300001         1.06285199E-19
  -13.5000000         1.12427442E-19
  -13.3699999         1.19120354E-19
  -13.2399998         1.26144591E-19
  -13.1099997         1.33018785E-19
  -12.9799995         1.39060590E-19
  -12.8500004         1.43562042E-19
  -12.7200003         1.46052476E-19
  -12.5900002         1.46574905E-19
  -12.4600000         1.45865934E-19
  -12.3299999         1.45329998E-19
  -12.1999998         1.46741246E-19
  -12.0699997         1.51692775E-19
  -11.9399996         1.60915839E-19
  -11.8100004         1.73677556E-19
  -11.6800003         1.87496008E-19
  -11.5500002         1.98362719E-19
  -11.4200001         2.01528869E-19
  -11.2900000         1.92732307E-19
  -11.1599998         1.69569040E-19
  -11.0299997         1.32608232E-19
  -10.8999996         8.58696259E-20
  -10.7700005         3.64257901E-20
  -10.6400003        -6.86349721E-21
  -10.5100002        -3.52163260E-20
  -10.3800001        -4.19319114E-20
  -10.2500000        -2.40242670E-20
  -10.1199999         1.69009462E-20
  -9.98999977         7.46602752E-20
  -9.85999966         1.39235022E-19
  -9.72999954         1.97863735E-19
  -9.60000038         2.36057727E-19
  -9.47000027         2.38281757E-19
  -9.34000015         1.88364212E-19
  -9.21000004         7.00765184E-20
  -9.07999992        -1.31439413E-19
  -8.94999981        -4.26735344E-19
  -8.81999969        -8.17319275E-19
  -8.68999958        -1.28950695E-18
  -8.56000042        -1.80807620E-18
  -8.43000031        -2.31169477E-18
  -8.30000019        -2.71250080E-18
  -8.17000008        -2.90206826E-18
  -8.03999996        -2.76516346E-18
  -7.90999985        -2.20125727E-18
  -7.78000021        -1.15186999E-18
  -7.65000010         3.70156810E-19
  -7.51999998         2.25509225E-18
  -7.38999987         4.28100709E-18
  -7.26000023         6.11518290E-18
  -7.13000011         7.33723679E-18
  -7.00000000         7.48613095E-18
  -6.86999989         6.12923174E-18
  -6.73999977         2.94698603E-18
  -6.61000013        -2.17782903E-18
  -6.48000002        -9.08088472E-18
  -6.34999990        -1.72634397E-17
  -6.21999979        -2.58812257E-17
  -6.09000015        -3.37866322E-17
  -5.96000004        -3.96289493E-17
  -5.82999992        -4.20086751E-17
  -5.69999981        -3.96724491E-17
  -5.57000017        -3.17261153E-17
  -5.44000006        -1.78373542E-17
  -5.30999994         1.60329513E-18
  -5.17999983         2.53922445E-17
  -5.05000019         5.15155744E-17
  -4.92000008         7.72565384E-17
  -4.78999996         9.94060926E-17
  -4.65999985         1.14560941E-16
  -4.53000021         1.19481171E-16
  -4.40000010         1.11469959E-16
  -4.26999998         8.87329415E-17
  -4.13999987         5.06759199E-17
  -4.01000023        -1.89581235E-18
  -3.88000011        -6.67018329E-17
  -3.75000000        -1.40047991E-16
  -3.61999989        -2.17022507E-16
  -3.49000001        -2.91811215E-16
  -3.35999990        -3.58105598E-16
  -3.23000002        -4.09568806E-16
  -3.09999990        -4.40323857E-16
  -2.97000003        -4.45429375E-16
  -2.83999991        -4.21314744E-16
  -2.71000004        -3.66153179E-16
  -2.57999992        -2.80162024E-16
  -2.45000005        -1.65826141E-16
  -2.31999993        -2.80400530E-17
  -2.19000006         1.25827618E-16
  -2.05999994         2.85950197E-16
  -1.92999995         4.40147171E-16
  -1.79999995         5.74088280E-16
  -1.66999996         6.71608877E-16
  -1.53999996         7.15160664E-16
  -1.40999997         6.86401725E-16
  -1.27999997         5.66939269E-16
  -1.14999998         3.39216525E-16
  -1.01999998        -1.24784282E-17
 -0.889999986        -5.00908392E-16
 -0.759999990        -1.13476623E-15
 -0.629999995        -1.91758116E-15
 -0.500000000        -2.84675343E-15
 -0.370000005        -3.91279586E-15
 -0.239999995        -5.09887492E-15
 -0.109999999        -6.38075213E-15
   1.99999996E-02    -7.72711989E-15
  0.150000006        -9.10042881E-15
  0.280000001        -1.04582006E-14
  0.409999996        -1.17547023E-14
  0.540000021        -1.29431047E-14
  0.670000017        -1.39778097E-14
  0.800000012        -1.48169373E-14
  0.930000007        -1.54248816E-14
   1.05999994        -1.57746046E-14
   1.19000006        -1.58497517E-14
   1.32000005        -1.56462723E-14
   1.45000005        -1.51735314E-14
   1.58000004        -1.44547850E-14
   1.71000004        -1.35269781E-14
   1.84000003        -1.24398621E-14
   1.97000003        -1.12544505E-14
   2.09999990        -1.00408353E-14
   2.23000002        -8.87553309E-15
   2.35999990        -7.83843781E-15
   2.49000001        -7.00953052E-15
   2.61999989        -6.46557867E-15
   2.75000000        -6.27691521E-15
   2.88000011        -6.50454218E-15
   3.00999999        -7.19764722E-15
   3.14000010        -8.39171804E-15
   3.26999998        -1.01073028E-14
   3.40000010        -1.23494752E-14
   3.52999997        -1.51079846E-14
   3.66000009        -1.83580873E-14
   3.78999996        -2.20619048E-14
   3.92000008        -2.61702501E-14
   4.05000019        -3.06247506E-14
   4.17999983        -3.53601392E-14
   4.30999994        -4.03066354E-14
   4.44000006        -4.53922381E-14
   4.57000017        -5.05449429E-14
   4.69999981        -5.56949235E-14
   4.82999992        -6.07765520E-14
   4.96000004        -6.57303937E-14
   5.09000015        -7.05052675E-14
   5.21999979        -7.50603193E-14
   5.34999990        -7.93672176E-14
   5.48000002        -8.34122132E-14
   5.61000013        -8.71981862E-14
   5.73999977        -9.07463801E-14
   5.86999989        -9.40975610E-14
   6.00000000        -9.73124576E-14
   6.13000011        -1.00471064E-13
   6.26000023        -1.03670782E-13
   6.38999987        -1.07022931E-13
   6.51999998        -1.10648016E-13
   6.65000010        -1.14669396E-13
   6.78000021        -1.19206118E-13
   6.90999985        -1.24364725E-13
   7.03999996        -1.30231397E-13
   7.17000008        -1.36864275E-13
   7.30000019        -1.44287590E-13
   7.42999983        -1.52487398E-13
   7.55999994        -1.61410490E-13
   7.69000006        -1.70966296E-13
   7.82000017        -1.81032191E-13
   7.94999981        -1.91462487E-13
   8.07999992        -2.02100191E-13
   8.21000004        -2.12791387E-13
   8.34000015        -2.23400820E-13
   8.47000027        -2.33827579E-13
   8.60000038        -2.44019865E-13
   8.72999954        -2.53986800E-13
   8.85999966        -2.63806934E-13
   8.98999977        -2.73631513E-13
   9.11999989        -2.83682474E-13
   9.25000000        -2.94244880E-13
   9.38000011        -3.05654156E-13
   9.51000023        -3.18278444E-13
   9.64000034        -3.32498298E-13
   9.77000046        -3.48684108E-13
   9.89999962        -3.67174390E-13
   10.0299997        -3.88255102E-13
   10.1599998        -4.12143383E-13
   10.2900000        -4.38975706E-13
   10.4200001        -4.68802297E-13
   10.5500002        -5.01587595E-13
   10.6800003        -5.37217135E-13
   10.8100004        -5.75510126E-13
   10.9399996        -6.16236391E-13
   11.0699997        -6.59135886E-13
   11.1999998        -7.03939999E-13
   11.3299999        -7.50391665E-13
   11.4600000        -7.98263419E-13
   11.5900002        -8.47370839E-13
   11.7200003        -8.97582193E-13
   11.8500004        -9.48821750E-13
   11.9799995        -1.00106718E-12
   12.1099997        -1.05434162E-12
   12.2399998        -1.10870243E-12
   12.3699999        -1.16422605E-12
   12.5000000        -1.22099086E-12
   12.6300001        -1.27906160E-12
   12.7600002        -1.33847382E-12
   12.8900003        -1.39922340E-12
   13.0200005        -1.46125852E-12
   13.1499996        -1.52447781E-12
   13.2799997        -1.58873316E-12
   13.4099998        -1.65383809E-12
   13.5400000        -1.71957999E-12
   13.6700001        -1.78573508E-12
   13.8000002        -1.85208663E-12
   13.9300003        -1.91844240E-12
   14.0600004        -1.98465073E-12
   14.1899996        -2.05061532E-12
   14.3199997        -2.11630344E-12
   14.4499998        -2.18175304E-12
   14.5799999        -2.24707189E-12
   14.7100000        -2.31243323E-12
   14.8400002        -2.37806476E-12
   14.9700003        -2.44423687E-12
   15.1000004        -2.51124577E-12
   15.2299995        -2.57939590E-12
   15.3599997        -2.64898455E-12
   15.4899998        -2.72028428E-12
   15.6199999        -2.79353342E-12
   15.7500000        -2.86892732E-12
   15.8800001        -2.94661496E-12
   16.0100002        -3.02670324E-12
   16.1399994        -3.10926263E-12
   16.2700005        -3.19434214E-12
   16.3999996        -3.28198254E-12
   16.5300007        -3.37223717E-12
   16.6599998        -3.46518972E-12
   16.7900009        -3.56097313E-12
   16.9200001        -3.65978645E-12
   17.0499992        -3.76190528E-12
   17.1800003        -3.86769046E-12
   17.3099995        -3.97758649E-12
   17.4400005        -4.09211684E-12
   17.5699997        -4.21187000E-12
   17.7000008        -4.33748003E-12
   17.8299999        -4.46960264E-12
   17.9599991        -4.60888402E-12
   18.0900002        -4.75593002E-12
   18.2199993        -4.91127148E-12
   18.3500004        -5.07533252E-12
   18.4799995        -5.24840154E-12
   18.6100006        -5.43060432E-12
   18.7399998        -5.62188707E-12
   18.8700008        -5.82200477E-12
   19.0000000        -6.03051767E-12
   19.1299992        -6.24679865E-12
   19.2600002        -6.47004585E-12
   19.3899994        -6.69930691E-12
   19.5200005        -6.93350585E-12
   19.6499996        -7.17148042E-12
   19.7800007        -7.41201458E-12
   19.9099998        -7.65387840E-12
   20.0400009        -7.89586018E-12
   20.1700001        -8.13679939E-12
   20.2999992        -8.37561270E-12
   20.4300003        -8.61130698E-12
   20.5599995        -8.84298971E-12
   20.6900005        -9.06987332E-12
   20.8199997        -9.29126394E-12
   20.9500008        -9.50654659E-12
   21.0799999        -9.71517138E-12
   21.2099991        -9.91662915E-12
   21.3400002        -1.01104342E-11
   21.4699993        -1.02961060E-11
   21.6000004        -1.04731562E-11
   21.7299995        -1.06410861E-11
   21.8600006        -1.07993926E-11
   21.9899998        -1.09475796E-11
   22.1200008        -1.10851796E-11
   22.2500000        -1.12117850E-11
   22.3799992        -1.13270825E-11
   22.5100002        -1.14308884E-11
   22.6399994        -1.15231878E-11
   22.7700005        -1.16041638E-11
   22.8999996        -1.16742206E-11
   23.0300007        -1.17339957E-11
   23.1599998        -1.17843617E-11
   23.2900009        -1.18264027E-11
   23.4200001        -1.18613921E-11
   23.5499992        -1.18907419E-11
   23.6800003        -1.19159526E-11
   23.8099995        -1.19385474E-11
   23.9400005        -1.19600059E-11
   24.0699997        -1.19817030E-11
   24.2000008        -1.20048485E-11
   24.3299999        -1.20304435E-11
   24.4599991        -1.20592468E-11
   24.5900002        -1.20917625E-11
   24.7199993        -1.21282368E-11
   24.8500004        -1.21686845E-11
   24.9799995        -1.22129225E-11
   25.1100006        -1.22606127E-11
   25.2399998        -1.23113178E-11
   25.3700008        -1.23645504E-11
   25.5000000        -1.24198308E-11
   25.6299992        -1.24767150E-11
   25.7600002        -1.25348325E-11
   25.8899994        -1.25938817E-11
   26.0200005        -1.26536325E-11
   26.1499996        -1.27138933E-11
   26.2800007        -1.27744655E-11
   26.4099998        -1.28350932E-11
   26.5400009        -1.28954009E-11
   26.6700001        -1.29548264E-11
   26.7999992        -1.30125667E-11
   26.9300003        -1.30675366E-11
   27.0599995        -1.31183302E-11
   27.1900005        -1.31632214E-11
   27.3199997        -1.32001779E-11
   27.4500008        -1.32268996E-11
   27.5799999        -1.32408763E-11
   27.7099991        -1.32394729E-11
   27.8400002        -1.32200232E-11
   27.9699993        -1.31799224E-11
   28.1000004        -1.31167351E-11
   28.2299995        -1.30282781E-11
   28.3600006        -1.29127074E-11
   28.4899998        -1.27685692E-11
   28.6200008        -1.25948392E-11
   28.7500000        -1.23909312E-11
   28.8799992        -1.21566776E-11
   29.0100002        -1.18922944E-11
   29.1399994        -1.15983213E-11
   29.2700005        -1.12755517E-11
   29.3999996        -1.09249528E-11
   29.5300007        -1.05475914E-11
   29.6599998        -1.01445597E-11
   29.7900009        -9.71692084E-12
   29.9200001        -9.26567156E-12
   30.0499992        -8.79172690E-12
   30.1800003        -8.29592471E-12
   30.3099995        -7.77905518E-12
   30.4400005        -7.24191844E-12
   30.5699997        -6.68537751E-12
   30.7000008        -6.11043985E-12
   30.8299999        -5.51832711E-12
   30.9599991        -4.91054463E-12
   31.0900002        -4.28894333E-12
   31.2199993        -3.65574845E-12
   31.3500004        -3.01357507E-12
   31.4799995        -2.36541537E-12
   31.6100006        -1.71459277E-12
   31.7399998        -1.06469358E-12
   31.8700008        -4.19476004E-13
   32.0000000         2.17242226E-13
   32.1300011         8.41699757E-13
   32.2599983         1.45031155E-12
   32.3899994         2.03978067E-12
   32.5200005         2.60718964E-12
   32.6500015         3.15007677E-12
   32.7799988         3.66646730E-12
   32.9099998         4.15488694E-12
   33.0400009         4.61432672E-12
   33.1699982         5.04418599E-12
   33.2999992         5.44417853E-12
   33.4300003         5.81421846E-12
   33.5600014         6.15429496E-12
   33.6899986         6.46434035E-12
   33.8199997         6.74411785E-12
   33.9500008         6.99310011E-12
   34.0800018         7.21040588E-12
   34.2099991         7.39475668E-12
   34.3400002         7.54446245E-12
   34.4700012         7.65746667E-12
   34.5999985         7.73141186E-12
   34.7299995         7.76375145E-12
   34.8600006         7.75186946E-12
   34.9900017         7.69322973E-12
   35.1199989         7.58551902E-12
   35.2500000         7.42677881E-12
   35.3800011         7.21552288E-12
   35.5099983         6.95081709E-12
   35.6399994         6.63231319E-12
   35.7700005         6.26025317E-12
   35.9000015         5.83542849E-12
   36.0299988         5.35907646E-12
   36.1599998         4.83277264E-12
   36.2900009         4.25827646E-12
   36.4199982         3.63737361E-12
   36.5499992         2.97169559E-12
   36.6800003         2.26258964E-12
   36.8100014         1.51097852E-12
   36.9399986         7.17287612E-13
   37.0699997        -1.18631288E-13
   37.2000008        -9.97483996E-13
   37.3300018        -1.92049176E-12
   37.4599991        -2.88930967E-12
   37.5900002        -3.90590815E-12
   37.7200012        -4.97240877E-12
   37.8499985        -6.09096150E-12
   37.9799995        -7.26355738E-12
   38.1100006        -8.49190943E-12
   38.2400017        -9.77733953E-12
   38.3699989        -1.11207051E-11
   38.5000000        -1.25223712E-11
   38.6300011        -1.39822416E-11
   38.7599983        -1.54998184E-11
   38.8899994        -1.70743229E-11
   39.0200005        -1.87048016E-11
   39.1500015        -2.03903006E-11
   39.2799988        -2.21300062E-11
   39.4099998        -2.39233650E-11
   39.5400009        -2.57702037E-11
   39.6699982        -2.76707789E-11
   39.7999992        -2.96257949E-11
   39.9300003        -3.16363533E-11
   40.0600014        -3.37038522E-11
   40.1899986        -3.58298217E-11
   40.3199997        -3.80157641E-11
   40.4500008        -4.02629249E-11
   40.5800018        -4.25720882E-11
   40.7099991        -4.49433199E-11
   40.8400002        -4.73758151E-11
   40.9700012        -4.98677835E-11
   41.0999985        -5.24162901E-11
   41.2299995        -5.50172720E-11
   41.3600006        -5.76655529E-11
   41.4900017        -6.03549918E-11
   41.6199989        -6.30785146E-11
   41.7500000        -6.58284122E-11
   41.8800011        -6.85964965E-11
   42.0099983        -7.13743023E-11
   42.1399994        -7.41532946E-11
   42.2700005        -7.69250566E-11
   42.4000015        -7.96813726E-11
   42.5299988        -8.24143184E-11
   42.6599998        -8.51162682E-11
   42.7900009        -8.77798528E-11
   42.9199982        -9.03978281E-11
   43.0499992        -9.29629707E-11
   43.1800003        -9.54678905E-11
   43.3100014        -9.79048786E-11
   43.4399986        -1.00265719E-10
   43.5699997        -1.02541586E-10
   43.7000008        -1.04722946E-10
   43.8300018        -1.06799521E-10
   43.9599991        -1.08760348E-10
   44.0900002        -1.10593833E-10
   44.2200012        -1.12287929E-10
   44.3499985        -1.13830369E-10
   44.4799995        -1.15208863E-10
   44.6100006        -1.16411353E-10
   44.7400017        -1.17426291E-10
   44.8699989        -1.18242860E-10
   45.0000000        -1.18851151E-10
   45.1300011        -1.19242297E-10
   45.2599983        -1.19408608E-10
   45.3899994        -1.19343466E-10
   45.5200005        -1.19041346E-10
   45.6500015        -1.18497642E-10
   45.7799988        -1.17708482E-10
   45.9099998        -1.16670520E-10
   46.0400009        -1.15380670E-10
   46.1699982        -1.13835906E-10
   46.2999992        -1.12033015E-10
   46.4300003        -1.09968423E-10
   46.5600014        -1.07638100E-10
   46.6899986        -1.05037458E-10
   46.8199997        -1.02161446E-10
   46.9500008        -9.90045476E-11
   47.0800018        -9.55609827E-11
   47.2099991        -9.18248949E-11
   47.3400002        -8.77906081E-11
   47.4700012        -8.34528280E-11
   47.5999985        -7.88069332E-11
   47.7299995        -7.38491976E-11
   47.8600006        -6.85769636E-11
   47.9900017        -6.29887531E-11
   48.1199989        -5.70843095E-11
   48.2500000        -5.08646250E-11
   48.3800011        -4.43318542E-11
   48.5099983        -3.74890674E-11
   48.6399994        -3.03401540E-11
   48.7700005        -2.28895427E-11
   48.9000015        -1.51419120E-11
   49.0299988        -7.10199521E-12
   49.1599998         1.22569034E-12
   49.2900009         9.83698800E-12
   49.4199982         1.87282551E-11
   49.5499992         2.78963831E-11
   49.6800003         3.73387259E-11
   49.8100014         4.70530767E-11
   49.9399986         5.70374616E-11
   50.0699997         6.72898265E-11
   50.2000008         7.78078296E-11
   50.3300018         8.85885670E-11
   50.4599991         9.96281876E-11
   50.5900002         1.10921730E-10
   50.7200012         1.22462790E-10
   50.8499985         1.34243436E-10
   50.9799995         1.46254092E-10
   51.1100006         1.58483560E-10
   51.2400017         1.70919043E-10
   51.3699989         1.83546359E-10
   51.5000000         1.96350186E-10
   51.6300011         2.09314177E-10
   51.7599983         2.22421359E-10
   51.8899994         2.35654357E-10
   52.0200005         2.48995741E-10
   52.1500015         2.62428024E-10
   52.2799988         2.75933859E-10
   52.4099998         2.89496122E-10
   52.5400009         3.03097714E-10
   52.6699982         3.16721621E-10
   52.7999992         3.30350552E-10
   52.9300003         3.43966744E-10
   53.0600014         3.57551544E-10
   53.1899986         3.71085274E-10
   53.3199997         3.84546839E-10
   53.4500008         3.97913646E-10
   53.5800018         4.11161327E-10
   53.7099991         4.24263902E-10
   53.8400002         4.37193753E-10
   53.9700012         4.49921822E-10
   54.0999985         4.62417965E-10
   54.2299995         4.74651263E-10
   54.3600006         4.86590490E-10
   54.4900017         4.98204755E-10
   54.6199989         5.09463749E-10
   54.7500000         5.20337884E-10
   54.8800011         5.30799293E-10
   55.0099983         5.40821332E-10
   55.1399994         5.50378965E-10
   55.2700005         5.59448599E-10
   55.4000015         5.68007974E-10
   55.5299988         5.76035775E-10
   55.6599998         5.83511184E-10
   55.7900009         5.90413607E-10
   55.9199982         5.96722116E-10
   56.0499992         6.02415118E-10
   56.1800003         6.07470130E-10
   56.3100014         6.11863393E-10
   56.4399986         6.15570039E-10
   56.5699997         6.18564255E-10
   56.7000008         6.20819229E-10
   56.8300018         6.22307983E-10
   56.9599991         6.23003593E-10
   57.0900002         6.22880025E-10
   57.2200012         6.21912299E-10
   57.3499985         6.20077711E-10
   57.4799995         6.17355778E-10
   57.6100006         6.13728790E-10
   57.7400017         6.09181927E-10
   57.8699989         6.03703754E-10
   58.0000000         5.97285388E-10
   58.1300011         5.89920612E-10
   58.2599983         5.81605430E-10
   58.3899994         5.72337011E-10
   58.5200005         5.62113578E-10
   58.6500015         5.50933466E-10
   58.7799988         5.38794509E-10
   58.9099998         5.25693600E-10
   59.0400009         5.11626075E-10
   59.1699982         4.96586050E-10
   59.2999992         4.80565698E-10
   59.4300003         4.63556027E-10
   59.5600014         4.45546933E-10
   59.6899986         4.26528035E-10
   59.8199997         4.06488926E-10
   59.9500008         3.85420418E-10
   60.0800018         3.63314767E-10
   60.2099991         3.40166673E-10
   60.3400002         3.15973858E-10
   60.4700012         2.90737351E-10
   60.5999985         2.64461730E-10
   60.7299995         2.37155323E-10
   60.8600006         2.08829870E-10
   60.9900017         1.79500484E-10
   61.1199989         1.49184790E-10
   61.2500000         1.17902701E-10
   61.3800011         8.56757998E-11
   61.5099983         5.25264623E-11
   61.6399994         1.84775389E-11
   61.7700005        -1.64482802E-11
   61.9000015        -5.22283640E-11
   62.0299988        -8.88406917E-11
   62.1599998        -1.26263208E-10
   62.2900009        -1.64473879E-10
   62.4199982        -2.03450354E-10
   62.5499992        -2.43169096E-10
   62.6800003        -2.83605001E-10
   62.8100014        -3.24730326E-10
   62.9399986        -3.66514596E-10
   63.0699997        -4.08923784E-10
   63.2000008        -4.51919779E-10
   63.3300018        -4.95460617E-10
   63.4599991        -5.39499889E-10
   63.5900002        -5.83987247E-10
   63.7200012        -6.28868957E-10
   63.8499985        -6.74088008E-10
   63.9799995        -7.19584947E-10
   64.1100006        -7.65298602E-10
   64.2399979        -8.11167078E-10
   64.3700027        -8.57128146E-10
   64.5000000        -9.03120023E-10
   64.6299973        -9.49081813E-10
   64.7600021        -9.94953897E-10
   64.8899994        -1.04067821E-09
   65.0199966        -1.08619802E-09
   65.1500015        -1.13145748E-09
   65.2799988        -1.17640164E-09
   65.4100037        -1.22097621E-09
   65.5400009        -1.26512600E-09
   65.6699982        -1.30879563E-09
   65.8000031        -1.35192801E-09
   65.9300003        -1.39446443E-09
   66.0599976        -1.43634371E-09
   66.1900024        -1.47750323E-09
   66.3199997        -1.51787793E-09
   66.4499969        -1.55740065E-09
   66.5800018        -1.59600366E-09
   66.7099991        -1.63361780E-09
   66.8399963        -1.67017422E-09
   66.9700012        -1.70560455E-09
   67.0999985        -1.73984172E-09
   67.2300034        -1.77282056E-09
   67.3600006        -1.80447846E-09
   67.4899979        -1.83475513E-09
   67.6200027        -1.86359372E-09
   67.7500000        -1.89093985E-09
   67.8799973        -1.91674121E-09
   68.0100021        -1.94094785E-09
   68.1399994        -1.96351158E-09
   68.2699966        -1.98438355E-09
   68.4000015        -2.00351624E-09
   68.5299988        -2.02086059E-09
   68.6600037        -2.03636685E-09
   68.7900009        -2.04998329E-09
   68.9199982        -2.06165640E-09
   69.0500031        -2.07133088E-09
   69.1800003        -2.07894990E-09
   69.3099976        -2.08445616E-09
   69.4400024        -2.08779150E-09
   69.5699997        -2.08889839E-09
   69.6999969        -2.08772066E-09
   69.8300018        -2.08420414E-09
   69.9599991        -2.07829820E-09
   70.0899963        -2.06995576E-09
   70.2200012        -2.05913375E-09
   70.3499985        -2.04579442E-09
   70.4800034        -2.02990402E-09
   70.6100006        -2.01143324E-09
   70.7399979        -1.99035788E-09
   70.8700027        -1.96665595E-09
   71.0000000        -1.94030969E-09
   71.1299973        -1.91130267E-09
   71.2600021        -1.87962024E-09
   71.3899994        -1.84524873E-09
   71.5199966        -1.80817517E-09
   71.6500015        -1.76838622E-09
   71.7799988        -1.72586867E-09
   71.9100037        -1.68060998E-09
   72.0400009        -1.63259828E-09
   72.1699982        -1.58182212E-09
   72.3000031        -1.52827273E-09
   72.4300003        -1.47194434E-09
   72.5599976        -1.41283429E-09
   72.6900024        -1.35094536E-09
   72.8199997        -1.28628508E-09
   72.9499969        -1.21886745E-09
   73.0800018        -1.14871201E-09
   73.2099991        -1.07584552E-09
   73.3399963        -1.00030095E-09
   73.4700012        -9.22117327E-10
   73.5999985        -8.41339109E-10
   73.7300034        -7.58015872E-10
   73.8600006        -6.72200851E-10
   73.9899979        -5.83950999E-10
   74.1200027        -4.93325880E-10
   74.2500000        -4.00386418E-10
   74.3799973        -3.05195286E-10
   74.5100021        -2.07815737E-10
   74.6399994        -1.08312123E-10
   74.7699966        -6.75012043E-12
   74.9000015         9.68029268E-11
   75.0299988         2.02278361E-10
   75.1600037         3.09604287E-10
   75.2900009         4.18705876E-10
   75.4199982         5.29503719E-10
   75.5500031         6.41913800E-10
   75.6800003         7.55846385E-10
   75.8099976         8.71206551E-10
   75.9400024         9.87893101E-10
   76.0699997         1.10579956E-09
   76.1999969         1.22481381E-09
   76.3300018         1.34481837E-09
   76.4599991         1.46569268E-09
   76.5899963         1.58731261E-09
   76.7200012         1.70955161E-09
   76.8499985         1.83228210E-09
   76.9800034         1.95537586E-09
   77.1100006         2.07870476E-09
   77.2399979         2.20214202E-09
   77.3700027         2.32556174E-09
   77.5000000         2.44883958E-09
   77.6299973         2.57185118E-09
   77.7600021         2.69447376E-09
   77.8899994         2.81658452E-09
   78.0199966         2.93805935E-09
   78.1500015         3.05877412E-09
   78.2799988         3.17860227E-09
   78.4100037         3.29741479E-09
   78.5400009         3.41507977E-09
   78.6699982         3.53146290E-09
   78.8000031         3.64642561E-09
   78.9300003         3.75982845E-09
   79.0599976         3.87152888E-09
   79.1900024         3.98138278E-09
   79.3199997         4.08924583E-09
   79.4499969         4.19497503E-09
   79.5800018         4.29842739E-09
   79.7099991         4.39946435E-09
   79.8399963         4.49794868E-09
   79.9700012         4.59374849E-09
   80.0999985         4.68673544E-09
   80.2300034         4.77678652E-09
   80.3600006         4.86378271E-09
   80.4899979         4.94760855E-09
   80.6200027         5.02815345E-09
   80.7500000         5.10530906E-09