  -24.4200001       0.00000000    
  -24.2900009       0.00000000    
  -24.1599998       0.00000000    
  -24.0300007       0.00000000    
  -23.8999996       8.22117743E-29
  -23.7700005       7.18785992E-28
  -23.6399994       3.46612462E-27
  -23.5100002       1.21682727E-26
  -23.3799992       3.46971718E-26
  -23.2500000       8.51221469E-26
  -23.1200008       1.86055100E-25
  -22.9899998       3.70802737E-25
  -22.8600006       6.84918324E-25
  -22.7299995       1.18682358E-24
  -22.6000004       1.94739189E-24
  -22.4699993       3.04874604E-24
  -22.3400002       4.58299590E-24
  -22.2099991       6.65215478E-24
  -22.0799999       9.37092602E-24
  -21.9500008       1.28743606E-23
  -21.8199997       1.73323690E-23
  -21.6900005       2.29727434E-23
  -21.5599995       3.01136133E-23
  -21.4300003       3.92050901E-23
  -21.2999992       5.08785244E-23
  -21.1700001       6.60003442E-23
  -21.0400009       8.57260510E-23
  -20.9099998       1.11548933E-22
  -20.7800007       1.45337802E-22
  -20.6499996       1.89358008E-22
  -20.5200005       2.46271596E-22
  -20.3899994       3.19113472E-22
  -20.2600002       4.11243868E-22
  -20.1299992       5.26278923E-22
  -20.0000000       6.68005244E-22
  -19.8700008       8.40286205E-22
  -19.7399998       1.04697024E-21
  -19.6100006       1.29181307E-21
  -19.4799995       1.57842479E-21
  -19.3500004       1.91025589E-21
  -19.2199993       2.29062811E-21
  -19.0900002       2.72282089E-21
  -18.9599991       3.21021041E-21
  -18.8299999       3.75646667E-21
  -18.7000008       4.36579546E-21
  -18.5699997       5.04321720E-21
  -18.4400005       5.79486548E-21
  -18.3099995       6.62828630E-21
  -18.1800003       7.55270345E-21
  -18.0499992       8.57923135E-21
  -17.9200001       9.72100879E-21
  -17.7900009       1.09932142E-20
  -17.6599998       1.24129825E-20
  -17.5300007       1.39991950E-20
  -17.3999996       1.57721662E-20
  -17.2700005       1.77532346E-20
  -17.1399994       1.99642949E-20
  -17.0100002       2.24272672E-20
  -16.8799992       2.51635516E-20
  -16.7500000       2.81935044E-20
  -16.6200008       3.15359959E-20
  -16.4899998       3.52080445E-20
  -16.3600006       3.92246526E-20
  -16.2299995       4.35987999E-20
  -16.1000004       4.83415788E-20
  -15.9700003       5.34625215E-20
  -15.8400002       5.89700225E-20
  -15.7100000       6.48720208E-20
  -15.5799999       7.11768755E-20
  -15.4499998       7.78946548E-20
  -15.3199997       8.50387165E-20
  -15.1899996       9.26274007E-20
  -15.0600004       1.00685381E-19
  -14.9300003       1.09244037E-19
  -14.8000002       1.18340323E-19
  -14.6700001       1.28013761E-19
  -14.5400000       1.38301988E-19
  -14.4099998       1.49235739E-19
  -14.2799997       1.60834840E-19
  -14.1499996       1.73106930E-19
  -14.0200005       1.86050187E-19
  -13.8900003       1.99660333E-19
  -13.7600002       2.13940895E-19
  -13.6300001       2.28913885E-19
  -13.5000000       2.44627628E-19
  -13.3699999       2.61157256E-19
  -13.2399998       2.78594198E-19
  -13.1099997       2.97021714E-19
  -12.9799995       3.16476743E-19
  -12.8500004       3.36901073E-19
  -12.7200003       3.58092096E-19
  -12.5900002       3.79667267E-19
  -12.4600000       4.01064310E-19
  -12.3299999       4.21599198E-19
  -12.1999998       4.40601114E-19
  -12.0699997       4.57623353E-19
  -11.9399996       4.72705441E-19
  -11.8100004       4.86622651E-19
  -11.6800003       5.01028674E-19
  -11.5500002       5.18375789E-19
  -11.4200001       5.41517459E-19
  -11.2900000       5.72952131E-19
  -11.1599998       6.13776390E-19
  -11.0299997       6.62543598E-19
  -10.8999996       7.14352557E-19
  -10.7700005       7.60569309E-19
  -10.6400003       7.89559456E-19
  -10.5100002       7.88663206E-19
  -10.3800001       7.47363991E-19
  -10.2500000       6.61226623E-19
  -10.1199999       5.35807379E-19
  -9.98999977       3.89433841E-19
  -9.85999966       2.53677579E-19
  -9.72999954       1.70536712E-19
  -9.60000038       1.85860427E-19
  -9.47000027       3.39340067E-19
  -9.34000015       6.52332881E-19
  -9.21000004       1.11568156E-18
  -9.07999992       1.68036055E-18
  -8.94999981       2.25396046E-18
  -8.81999969       2.70562238E-18
  -8.68999958       2.88094062E-18
  -8.56000042       2.62667998E-18
  -8.43000031       1.82309449E-18
  -8.30000019       4.19513281E-19
  -8.17000008      -1.53295386E-18
  -8.03999996      -3.85873386E-18
  -7.90999985      -6.25218552E-18
  -7.78000021      -8.29466361E-18
  -7.65000010      -9.49705252E-18
  -7.51999998      -9.36657305E-18
  -7.38999987      -7.49217103E-18
  -7.26000023      -3.63830471E-18
  -7.13000011       2.16659179E-18
  -7.00000000       9.56267028E-18
  -6.86999989       1.78274793E-17
  -6.73999977       2.58935838E-17
  -6.61000013       3.24221581E-17
  -6.48000002       3.59326993E-17
  -6.34999990       3.49812696E-17
  -6.21999979       2.83712693E-17
  -6.09000015       1.53743991E-17
  -5.96000004      -4.06503685E-18
  -5.82999992      -2.91713548E-17
  -5.69999981      -5.82509455E-17
  -5.57000017      -8.87005689E-17
  -5.44000006      -1.17124698E-16
  -5.30999994      -1.39566188E-16
  -5.17999983      -1.51843838E-16
  -5.05000019      -1.49976884E-16
  -4.92000008      -1.30666876E-16
  -4.78999996      -9.17963155E-17
  -4.65999985      -3.28972840E-17
  -4.53000021       4.44613484E-17
  -4.40000010       1.36417144E-16
  -4.26999998       2.36734036E-16
  -4.13999987       3.36933454E-16
  -4.01000023       4.26659310E-16
  -3.88000011       4.94280518E-16
  -3.75000000       5.27717990E-16
  -3.61999989       5.15458035E-16
  -3.49000001       4.47699105E-16
  -3.35999990       3.17555722E-16
  -3.23000002       1.22230600E-16
  -3.09999990      -1.35943838E-16
  -2.97000003      -4.48696593E-16
  -2.83999991      -8.01339437E-16
  -2.71000004      -1.17270452E-15
  -2.57999992      -1.53556009E-15
  -2.45000005      -1.85753796E-15
  -2.31999993      -2.10257654E-15
  -2.19000006      -2.23283793E-15
  -2.05999994      -2.21102281E-15
  -1.92999995      -2.00297225E-15
  -1.79999995      -1.58040667E-15
  -1.66999996      -9.23638925E-16
  -1.53999996      -2.40740578E-17
  -1.40999997       1.11368686E-15
  -1.27999997       2.47030425E-15
  -1.14999998       4.01087676E-15
  -1.01999998       5.68494506E-15
 -0.889999986       7.42740491E-15
 -0.759999990       9.16031997E-15
 -0.629999995       1.07956102E-14
 -0.500000000       1.22385224E-14
 -0.370000005       1.33917103E-14
 -0.239999995       1.41597634E-14
 -0.109999999       1.44538905E-14
   1.99999996E-02   1.41966110E-14
  0.150000006       1.33260788E-14
  0.280000001       1.17999110E-14
  0.409999996       9.59824278E-15
  0.540000021       6.72585834E-15
  0.670000017       3.21328047E-15
  0.800000012      -8.83242706E-16
  0.930000007      -5.48288196E-15
   1.05999994      -1.04824317E-14
   1.19000006      -1.57594749E-14
   1.32000005      -2.11764573E-14
   1.45000005      -2.65852708E-14
   1.58000004      -3.18325044E-14
   1.71000004      -3.67648722E-14
   1.84000003      -4.12347226E-14
   1.97000003      -4.51055107E-14
   2.09999990      -4.82569273E-14
   2.23000002      -5.05896797E-14
   2.35999990      -5.20295815E-14
   2.49000001      -5.25310352E-14
   2.61999989      -5.20796310E-14
   2.75000000      -5.06938208E-14
   2.88000011      -4.84255444E-14
   3.00999999      -4.53597290E-14
   3.14000010      -4.16125671E-14
   3.26999998      -3.73285116E-14
   3.40000010      -3.26760510E-14
   3.52999997      -2.78421797E-14
   3.66000009      -2.30258182E-14
   3.78999996      -1.84302613E-14
   3.92000008      -1.42549208E-14
   4.05000019      -1.06868292E-14
   4.17999983      -7.89206347E-15
   4.30999994      -6.00786239E-15
   4.44000006      -5.13549596E-15
   4.57000017      -5.33469143E-15
   4.69999981      -6.61974248E-15
   4.82999992      -8.95767750E-15
   4.96000004      -1.22685802E-14
   5.09000015      -1.64282243E-14
   5.21999979      -2.12726582E-14
   5.34999990      -2.66047865E-14
   5.48000002      -3.22023224E-14
   5.61000013      -3.78268312E-14
   5.73999977      -4.32333138E-14
   5.86999989      -4.81798304E-14
   6.00000000      -5.24368113E-14
   6.13000011      -5.57955205E-14
   6.26000023      -5.80754927E-14
   6.38999987      -5.91306585E-14
   6.51999998      -5.88541124E-14
   6.65000010      -5.71814121E-14
   6.78000021      -5.40924015E-14
   6.90999985      -4.96117429E-14
   7.03999996      -4.38081171E-14
   7.17000008      -3.67922516E-14
   7.30000019      -2.87138918E-14
   7.42999983      -1.97577889E-14
   7.55999994      -1.01388827E-14
   7.69000006      -9.68097514E-17
   7.82000017       1.01100878E-14
   7.94999981       2.02110108E-14
   8.07999992       2.99290351E-14
   8.21000004       3.89872494E-14
   8.34000015       4.71143103E-14
   8.47000027       5.40496128E-14
   8.60000038       5.95470735E-14
   8.72999954       6.33783255E-14
   8.85999966       6.53346124E-14
   8.98999977       6.52275475E-14
   9.11999989       6.28889573E-14
   9.25000000       5.81701435E-14
   9.38000011       5.09403988E-14
   9.51000023       4.10858176E-14
   9.64000034       2.85080797E-14
   9.77000046       1.31242487E-14
   9.89999962      -5.13270838E-15
   10.0299997      -2.63121383E-14
   10.1599998      -5.04424756E-14
   10.2900000      -7.75269944E-14
   10.4200001      -1.07538517E-13
   10.5500002      -1.40413790E-13
   10.6800003      -1.76047761E-13
   10.8100004      -2.14288263E-13
   10.9399996      -2.54932550E-13
   11.0699997      -2.97725142E-13
   11.1999998      -3.42358710E-13
   11.3299999      -3.88477472E-13
   11.4600000      -4.35683851E-13
   11.5900002      -4.83548531E-13
   11.7200003      -5.31622543E-13
   11.8500004      -5.79452989E-13
   11.9799995      -6.26599196E-13
   12.1099997      -6.72650032E-13
   12.2399998      -7.17241045E-13
   12.3699999      -7.60069362E-13
   12.5000000      -8.00907084E-13
   12.6300001      -8.39609632E-13
   12.7600002      -8.76120194E-13
   12.8900003      -9.10469942E-13
   13.0200005      -9.42771577E-13
   13.1499996      -9.73209143E-13
   13.2799997      -1.00202279E-12
   13.4099998      -1.02949019E-12
   13.5400000      -1.05590721E-12
   13.6700001      -1.08156572E-12
   13.8000002      -1.10673569E-12
   13.9300003      -1.13164773E-12
   14.0600004      -1.15648149E-12
   14.1899996      -1.18135991E-12
   14.3199997      -1.20634937E-12
   14.4499998      -1.23146653E-12
   14.5799999      -1.25669256E-12
   14.7100000      -1.28199057E-12
   14.8400002      -1.30732827E-12
   14.9700003      -1.33270218E-12
   15.1000004      -1.35816109E-12
   15.2299995      -1.38382535E-12
   15.3599997      -1.40990464E-12
   15.4899998      -1.43670536E-12
   15.6199999      -1.46463321E-12
   15.7500000      -1.49418466E-12
   15.8800001      -1.52593346E-12
   16.0100002      -1.56050758E-12
   16.1399994      -1.59856286E-12
   16.2700005      -1.64075155E-12
   16.3999996      -1.68769252E-12
   16.5300007      -1.73994283E-12
   16.6599998      -1.79797334E-12
   16.7900009      -1.86215323E-12
   16.9200001      -1.93274021E-12
   17.0499992      -2.00988119E-12
   17.1800003      -2.09362323E-12
   17.3099995      -2.18392665E-12
   17.4400005      -2.28068996E-12
   17.5699997      -2.38377525E-12
   17.7000008      -2.49303226E-12
   17.8299999      -2.60832350E-12
   17.9599991      -2.72954120E-12
   18.0900002      -2.85661577E-12
   18.2199993      -2.98951770E-12
   18.3500004      -3.12824918E-12
   18.4799995      -3.27282168E-12
   18.6100006      -3.42323218E-12
   18.7399998      -3.57942430E-12
   18.8700008      -3.74125600E-12
   19.0000000      -3.90845906E-12
   19.1299992      -4.08060608E-12
   19.2600002      -4.25708297E-12
   19.3899994      -4.43707527E-12
   19.5200005      -4.61955908E-12
   19.6499996      -4.80331313E-12
   19.7800007      -4.98694142E-12
   19.9099998      -5.16890740E-12
   20.0400009      -5.34758262E-12
   20.1700001      -5.52130477E-12
   20.2999992      -5.68843453E-12
   20.4300003      -5.84742324E-12
   20.5599995      -5.99687140E-12
   20.6900005      -6.13558033E-12
   20.8199997      -6.26259851E-12
   20.9500008      -6.37725203E-12
   21.0799999      -6.47915792E-12
   21.2099991      -6.56822947E-12
   21.3400002      -6.64465661E-12
   21.4699993      -6.70888215E-12
   21.6000004      -6.76155963E-12
   21.7299995      -6.80351131E-12
   21.8600006      -6.83567265E-12
   21.9899998      -6.85904979E-12
   22.1200008      -6.87467010E-12
   22.2500000      -6.88354408E-12
   22.3799992      -6.88664360E-12
   22.5100002      -6.88488112E-12
   22.6399994      -6.87911447E-12
   22.7700005      -6.87014811E-12
   22.8999996      -6.85875705E-12
   23.0300007      -6.84570933E-12
   23.1599998      -6.83179555E-12
   23.2900009      -6.81785097E-12
   23.4200001      -6.80477896E-12
   23.5499992      -6.79355964E-12
   23.6800003      -6.78525552E-12
   23.8099995      -6.78098766E-12
   23.9400005      -6.78191748E-12
   24.0699997      -6.78919724E-12
   24.2000008      -6.80392548E-12
   24.3299999      -6.82708143E-12
   24.4599991      -6.85946222E-12
   24.5900002      -6.90162207E-12
   24.7199993      -6.95380906E-12
   24.8500004      -7.01591823E-12
   24.9799995      -7.08745345E-12
   25.1100006      -7.16750661E-12
   25.2399998      -7.25475496E-12
   25.3700008      -7.34747159E-12
   25.5000000      -7.44355792E-12
   25.6299992      -7.54058187E-12
   25.7600002      -7.63584074E-12
   25.8899994      -7.72642020E-12
   26.0200005      -7.80926365E-12
   26.1499996      -7.88123733E-12
   26.2800007      -7.93919097E-12
   26.4099998      -7.98002116E-12
   26.5400009      -8.00070947E-12
   26.6700001      -7.99836412E-12
   26.7999992      -7.97023818E-12
   26.9300003      -7.91374345E-12
   27.0599995      -7.82645129E-12
   27.1900005      -7.70608750E-12
   27.3199997      -7.55052184E-12
   27.4500008      -7.35774983E-12
   27.5799999      -7.12587888E-12
   27.7099991      -6.85312614E-12
   27.8400002      -6.53780589E-12
   27.9699993      -6.17833952E-12
   28.1000004      -5.77327205E-12
   28.2299995      -5.32129245E-12
   28.3600006      -4.82127402E-12
   28.4899998      -4.27231167E-12
   28.6200008      -3.67377179E-12
   28.7500000      -3.02534430E-12
   28.8799992      -2.32708536E-12
   29.0100002      -1.57945868E-12
   29.1399994      -7.83370276E-13
   29.2700005       5.98199265E-14
   29.3999996       9.48292443E-13
   29.5300007       1.87978366E-12
   29.6599998       2.85162128E-12
   29.7900009       3.86077411E-12
   29.9200001       4.90390888E-12
   30.0499992       5.97746462E-12
   30.1800003       7.07772643E-12
   30.3099995       8.20089482E-12
   30.4400005       9.34315819E-12
   30.5699997       1.05007487E-11
   30.7000008       1.16699818E-11
   30.8299999       1.28472866E-11
   30.9599991       1.40292144E-11
   31.0900002       1.52124303E-11
   31.2199993       1.63937006E-11
   31.3500004       1.75698466E-11
   31.4799995       1.87377249E-11
   31.6100006       1.98941766E-11
   31.7399998       2.10360028E-11
   31.8700008       2.21599353E-11
   32.0000000       2.32626245E-11
   32.1300011       2.43406441E-11
   32.2599983       2.53905057E-11
   32.3899994       2.64086929E-11
   32.5200005       2.73917122E-11
   32.6500015       2.83361355E-11
   32.7799988       2.92386740E-11
   32.9099998       3.00962137E-11
   33.0400009       3.09058855E-11
   33.1699982       3.16650907E-11
   33.2999992       3.23715117E-11
   33.4300003       3.30231432E-11
   33.5600014       3.36182332E-11
   33.6899986       3.41552724E-11
   33.8199997       3.46329250E-11
   33.9500008       3.50499491E-11
   34.0800018       3.54051198E-11
   34.2099991       3.56971432E-11
   34.3400002       3.59245758E-11
   34.4700012       3.60857420E-11
   34.5999985       3.61786816E-11
   34.7299995       3.62011046E-11
   34.8600006       3.61503952E-11
   34.9900017       3.60236146E-11
   35.1199989       3.58175399E-11
   35.2500000       3.55287293E-11
   35.3800011       3.51536196E-11
   35.5099983       3.46885992E-11
   35.6399994       3.41301605E-11
   35.7700005       3.34749728E-11
   35.9000015       3.27199864E-11
   36.0299988       3.18625473E-11
   36.1599998       3.09004072E-11
   36.2900009       2.98318072E-11
   36.4199982       2.86554183E-11
   36.5499992       2.73703490E-11
   36.6800003       2.59760616E-11
   36.8100014       2.44722784E-11
   36.9399986       2.28588537E-11
   37.0699997       2.11356575E-11
   37.2000008       1.93024537E-11
   37.3300018       1.73587568E-11
   37.4599991       1.53037392E-11
   37.5900002       1.31361528E-11
   37.7200012       1.08542888E-11
   37.8499985       8.45597897E-12
   37.9799995       5.93862372E-12
   38.1100006       3.29924694E-12
   38.2400017       5.34625024E-13
   38.3699989      -2.35857666E-12
   38.5000000      -5.38369566E-12
   38.6300011      -8.54387568E-12
   38.7599983      -1.18419302E-11
   38.8899994      -1.52802111E-11
   39.0200005      -1.88604739E-11
   39.1500015      -2.25837907E-11
   39.2799988      -2.64504876E-11
   39.4099998      -3.04601171E-11
   39.5400009      -3.46114561E-11
   39.6699982      -3.89025305E-11
   39.7999992      -4.33306724E-11
   39.9300003      -4.78925788E-11
   40.0600014      -5.25843570E-11
   40.1899986      -5.74016286E-11
   40.3199997      -6.23395086E-11
   40.4500008      -6.73927372E-11
   40.5800018      -7.25555796E-11
   40.7099991      -7.78219295E-11
   40.8400002      -8.31851671E-11
   40.9700012      -8.86381593E-11
   41.0999985      -9.41731415E-11
   41.2299995      -9.97817107E-11
   41.3600006      -1.05454673E-10
   41.4900017      -1.11181932E-10
   41.6199989      -1.16952545E-10
   41.7500000      -1.22754626E-10
   41.8800011      -1.28575303E-10
   42.0099983      -1.34400838E-10
   42.1399994      -1.40216616E-10
   42.2700005      -1.46007248E-10
   42.4000015      -1.51756774E-10
   42.5299988      -1.57448693E-10
   42.6599998      -1.63066227E-10
   42.7900009      -1.68592446E-10
   42.9199982      -1.74010445E-10
   43.0499992      -1.79303503E-10
   43.1800003      -1.84455146E-10
   43.3100014      -1.89449317E-10
   43.4399986      -1.94270419E-10
   43.5699997      -1.98903297E-10
   43.7000008      -2.03333295E-10
   43.8300018      -2.07546202E-10
   43.9599991      -2.11528212E-10
   44.0900002      -2.15265777E-10
   44.2200012      -2.18745688E-10
   44.3499985      -2.21954913E-10
   44.4799995      -2.24880545E-10
   44.6100006      -2.27509844E-10
   44.7400017      -2.29830224E-10
   44.8699989      -2.31829222E-10
   45.0000000      -2.33494640E-10
   45.1300011      -2.34814640E-10
   45.2599983      -2.35777703E-10
   45.3899994      -2.36373005E-10
   45.5200005      -2.36590247E-10
   45.6500015      -2.36419911E-10
   45.7799988      -2.35853281E-10
   45.9099998      -2.34882558E-10
   46.0400009      -2.33500774E-10
   46.1699982      -2.31701811E-10
   46.2999992      -2.29480449E-10
   46.4300003      -2.26832067E-10
   46.5600014      -2.23752752E-10
   46.6899986      -2.20239035E-10
   46.8199997      -2.16287765E-10
   46.9500008      -2.11896112E-10
   47.0800018      -2.07061257E-10
   47.2099991      -2.01780495E-10
   47.3400002      -1.96051092E-10
   47.4700012      -1.89870231E-10
   47.5999985      -1.83235122E-10
   47.7299995      -1.76143058E-10
   47.8600006      -1.68591474E-10
   47.9900017      -1.60578176E-10
   48.1199989      -1.52101401E-10
   48.2500000      -1.43160123E-10
   48.3800011      -1.33754036E-10
   48.5099983      -1.23883889E-10
   48.6399994      -1.13551446E-10
   48.7700005      -1.02759731E-10
   48.9000015      -9.15129431E-11
   49.0299988      -7.98165145E-11
   49.1599998      -6.76770168E-11
   49.2900009      -5.51020791E-11
   49.4199982      -4.21002747E-11
   49.5499992      -2.86809014E-11
   49.6800003      -1.48538907E-11
   49.8100014      -6.29631113E-13
   49.9399986       1.39811973E-11
   50.0699997       2.89676685E-11
   50.2000008       4.43187050E-11
   50.3300018       6.00230490E-11
   50.4599991       7.60692065E-11
   50.5900002       9.24453222E-11
   50.7200012       1.09139003E-10
   50.8499985       1.26137267E-10
   50.9799995       1.43426118E-10
   51.1100006       1.60990485E-10
   51.2400017       1.78813866E-10
   51.3699989       1.96878347E-10
   51.5000000       2.15164317E-10
   51.6300011       2.33650432E-10
   51.7599983       2.52313781E-10
   51.8899994       2.71129563E-10
   52.0200005       2.90071578E-10
   52.1500015       3.09112153E-10
   52.2799988       3.28222421E-10
   52.4099998       3.47372575E-10
   52.5400009       3.66531944E-10
   52.6699982       3.85669330E-10
   52.7999992       4.04753203E-10
   52.9300003       4.23751673E-10
   53.0600014       4.42632764E-10
   53.1899986       4.61364308E-10
   53.3199997       4.79914053E-10
   53.4500008       4.98249608E-10
   53.5800018       5.16338361E-10
   53.7099991       5.34147448E-10
   53.8400002       5.51643731E-10
   53.9700012       5.68793401E-10
   54.0999985       5.85562265E-10
   54.2299995       6.01915795E-10
   54.3600006       6.17818907E-10
   54.4900017       6.33236241E-10
   54.6199989       6.48132326E-10
   54.7500000       6.62471744E-10
   54.8800011       6.76219192E-10
   55.0099983       6.89340085E-10
   55.1399994       7.01800229E-10
   55.2700005       7.13566928E-10
   55.4000015       7.24608540E-10
   55.5299988       7.34894701E-10
   55.6599998       7.44396877E-10
   55.7900009       7.53088147E-10
   55.9199982       7.60943419E-10
   56.0499992       7.67939157E-10
   56.1800003       7.74053543E-10
   56.3100014       7.79266263E-10
   56.4399986       7.83558107E-10
   56.5699997       7.86911314E-10
   56.7000008       7.89308952E-10
   56.8300018       7.90734977E-10
   56.9599991       7.91173849E-10
   57.0900002       7.90610577E-10
   57.2200012       7.89030785E-10
   57.3499985       7.86420318E-10
   57.4799995       7.82765741E-10
   57.6100006       7.78053844E-10
   57.7400017       7.72272357E-10
   57.8699989       7.65409680E-10
   58.0000000       7.57455210E-10
   58.1300011       7.48399509E-10
   58.2599983       7.38234140E-10
   58.3899994       7.26952221E-10
   58.5200005       7.14548087E-10
   58.6500015       7.01017577E-10
   58.7799988       6.86357859E-10
   58.9099998       6.70567268E-10
   59.0400009       6.53645416E-10
   59.1699982       6.35592967E-10
   59.2999992       6.16411255E-10
   59.4300003       5.96102556E-10
   59.5600014       5.74669701E-10
   59.6899986       5.52116020E-10
   59.8199997       5.28445454E-10
   59.9500008       5.03662667E-10
   60.0800018       4.77772655E-10
   60.2099991       4.50781551E-10
   60.3400002       4.22696295E-10
   60.4700012       3.93525490E-10
   60.5999985       3.63279157E-10
   60.7299995       3.31969313E-10
   60.8600006       2.99610198E-10
   60.9900017       2.66218603E-10
   61.1199989       2.31813901E-10
   61.2500000       1.96418604E-10
   61.3800011       1.60057967E-10
   61.5099983       1.22760288E-10
   61.6399994       8.45568407E-11
   61.7700005       4.54818336E-11
   61.9000015       5.57194351E-12
   62.0299988      -3.51338091E-11
   62.1599998      -7.65943073E-11
   62.2900009      -1.18766594E-10
   62.4199982      -1.61606228E-10
   62.5499992      -2.05067630E-10
   62.6800003      -2.49104071E-10
   62.8100014      -2.93667896E-10
   62.9399986      -3.38710865E-10
   63.0699997      -3.84183907E-10
   63.2000008      -4.30037145E-10
   63.3300018      -4.76219786E-10
   63.4599991      -5.22680121E-10
   63.5900002      -5.69365222E-10
   63.7200012      -6.16220908E-10
   63.8499985      -6.63191668E-10
   63.9799995      -7.10220438E-10
   64.1100006      -7.57248764E-10
   64.2399979      -8.04216471E-10
   64.3700027      -8.51062332E-10
   64.5000000      -8.97723840E-10
   64.6299973      -9.44137879E-10
   64.7600021      -9.90240334E-10
   64.8899994      -1.03596753E-09
   65.0199966      -1.08125597E-09
   65.1500015      -1.12604259E-09
   65.2799988      -1.17026533E-09
   65.4100037      -1.21386345E-09
   65.5400009      -1.25677790E-09
   65.6699982      -1.29895095E-09
   65.8000031      -1.34032652E-09
   65.9300003      -1.38085010E-09
   66.0599976      -1.42046896E-09
   66.1900024      -1.45913071E-09
   66.3199997      -1.49678447E-09
   66.4499969      -1.53337953E-09
   66.5800018      -1.56886593E-09
   66.7099991      -1.60319302E-09
   66.8399963      -1.63631064E-09
   66.9700012      -1.66816749E-09
   67.0999985      -1.69871239E-09
   67.2300034      -1.72789283E-09
   67.3600006      -1.75565718E-09
   67.4899979      -1.78195270E-09
   67.6200027      -1.80672721E-09
   67.7500000      -1.82992888E-09
   67.8799973      -1.85150673E-09
   68.0100021      -1.87141080E-09
   68.1399994      -1.88959270E-09
   68.2699966      -1.90600535E-09
   68.4000015      -1.92060390E-09
   68.5299988      -1.93334504E-09
   68.6600037      -1.94418726E-09
   68.7900009      -1.95309102E-09
   68.9199982      -1.96001815E-09
   69.0500031      -1.96493222E-09
   69.1800003      -1.96779770E-09
   69.3099976      -1.96857974E-09
   69.4400024      -1.96724459E-09
   69.5699997      -1.96375871E-09
   69.6999969      -1.95808925E-09
   69.8300018      -1.95020378E-09
   69.9599991      -1.94007010E-09
   70.0899963      -1.92765715E-09
   70.2200012      -1.91293514E-09
   70.3499985      -1.89587590E-09
   70.4800034      -1.87645255E-09
   70.6100006      -1.85464222E-09
   70.7399979      -1.83042381E-09
   70.8700027      -1.80378013E-09
   71.0000000      -1.77469839E-09
   71.1299973      -1.74316894E-09
   71.2600021      -1.70918757E-09
   71.3899994      -1.67275360E-09
   71.5199966      -1.63387126E-09
   71.6500015      -1.59254865E-09
   71.7799988      -1.54879753E-09
   71.9100037      -1.50263313E-09
   72.0400009      -1.45407353E-09
   72.1699982      -1.40313983E-09
   72.3000031      -1.34985423E-09
   72.4300003      -1.29424171E-09
   72.5599976      -1.23632848E-09
   72.6900024      -1.17614218E-09
   72.8199997      -1.11371279E-09
   72.9499969      -1.04907139E-09
   73.0800018      -9.82251391E-10
   73.2099991      -9.13288833E-10
   73.3399963      -8.42222070E-10
   73.4700012      -7.69093844E-10
   73.5999985      -6.93949398E-10
   73.7300034      -6.16838858E-10
   73.8600006      -5.37816791E-10
   73.9899979      -4.56942234E-10
   74.1200027      -3.74278858E-10
   74.2500000      -2.89894747E-10
   74.3799973      -2.03862704E-10
   74.5100021      -1.16258940E-10
   74.6399994      -2.71632786E-11
   74.7699966       6.33410199E-11
   74.9000015       1.55168864E-10
   75.0299988       2.48233545E-10
   75.1600037       3.42446543E-10
   75.2900009       4.37718167E-10
   75.4199982       5.33958766E-10
   75.5500031       6.31078523E-10
   75.6800003       7.28986371E-10
   75.8099976       8.27591995E-10
   75.9400024       9.26803245E-10
   76.0699997       1.02652875E-09
   76.1999969       1.12667542E-09
   76.3300018       1.22714916E-09
   76.4599991       1.32785372E-09
   76.5899963       1.42869172E-09
   76.7200012       1.52956436E-09
   76.8499985       1.63037051E-09
   76.9800034       1.73100778E-09
   77.1100006       1.83137272E-09
   77.2399979       1.93136018E-09
   77.3700027       2.03086503E-09
   77.5000000       2.12978146E-09
   77.6299973       2.22800445E-09
   77.7600021       2.32542918E-09
   77.8899994       2.42195197E-09
   78.0199966       2.51747112E-09
   78.1500015       2.61188582E-09
   78.2799988       2.70509726E-09
   78.4100037       2.79700751E-09
   78.5400009       2.88752022E-09
   78.6699982       2.97654013E-09
   78.8000031       3.06397174E-09
   78.9300003       3.14972071E-09
   79.0599976       3.23369242E-09
   79.1900024       3.31579231E-09
   79.3199997       3.39592421E-09
   79.4499969       3.47399287E-09
   79.5800018       3.54990193E-09
   79.7099991       3.62355479E-09
   79.8399963       3.69485553E-09
   79.9700012       3.76370934E-09
   80.0999985       3.83002208E-09
   80.2300034       3.89370136E-09
   80.3600006       3.95465927E-09
   80.4899979       4.01281008E-09
   80.6200027       4.06807077E-09
   80.7500000       4.12036494E-09
   80.8799973       4.16961798E-09
   81.0100021       4.21576196E-09
   81.1399994       4.25873425E-09
   81.2699966       4.29847358E-09
   81.4000015       4.33492620E-09
   81.5299988       4.36804104E-09
   81.6600037       4.39776970E-09
   81.7900009       4.42406778E-09
   81.9199982       4.44689263E-09
   82.0500031       4.46620474E-09
   82.1800003       4.48196458E-09
   82.3099976       4.49413662E-09
   82.4400024       4.50268489E-09
   82.5699997       4.50757742E-09
   82.6999969       4.50878224E-09
   82.8300018       4.50627002E-09
   82.9599991       4.50001592E-09
   83.0899963       4.48999726E-09
   83.2200012       4.47619586E-09
   83.3499985       4.45859794E-09
   83.4800034       4.43719328E-09
   83.6100006       4.41198011E-09
   83.7399979       4.38295844E-09
   83.8700027       4.35013714E-09
   84.0000000       4.31352865E-09
   84.1299973       4.27315117E-09
   84.2600021       4.22902824E-09
   84.3899994       4.18118740E-09
   84.5199966       4.12966061E-09
   84.6500015       4.07448386E-09
   84.7799988       4.01569489E-09
   84.9100037       3.95333544E-09
   85.0400009       3.88744859E-09
   85.1699982       3.81808096E-09
   85.3000031       3.74528097E-09
   85.4300003       3.66909880E-09
   85.5599976       3.58958885E-09
   85.6900024       3.50680729E-09
   85.8199997       3.42081430E-09
   85.9499969       3.33167471E-09
   86.0800018       3.23945915E-09
   86.2099991       3.14424109E-09
   86.3399963       3.04610071E-09
   86.4700012       2.94512392E-09
   86.5999985       2.84140134E-09
   86.7300034       2.73502998E-09
   86.8600006       2.62611133E-09