  -24.4200001         1.82639597E-18
  -24.2870007         1.82597701E-18
  -24.1539993         1.82516947E-18
  -24.0209999         1.82402920E-18
  -23.8880005         1.82263437E-18
  -23.7549992         1.82107865E-18
  -23.6219997         1.81946213E-18
  -23.4890003         1.81788470E-18
  -23.3560009         1.81643465E-18
  -23.2229996         1.81518478E-18
  -23.0900002         1.81418348E-18
  -22.9570007         1.81345370E-18
  -22.8239994         1.81298924E-18
  -22.6910000         1.81275556E-18
  -22.5580006         1.81269580E-18
  -22.4249992         1.81273343E-18
  -22.2919998         1.81278120E-18
  -22.1590004         1.81274894E-18
  -22.0259991         1.81255187E-18
  -21.8929996         1.81211884E-18
  -21.7600002         1.81139816E-18
  -21.6270008         1.81036356E-18
  -21.4939995         1.80901712E-18
  -21.3610001         1.80738819E-18
  -21.2280006         1.80553220E-18
  -21.0949993         1.80352588E-18
  -20.9619999         1.80146020E-18
  -20.8290005         1.79943319E-18
  -20.6959991         1.79754081E-18
  -20.5629997         1.79586949E-18
  -20.4300003         1.79448790E-18
  -20.2970009         1.79344089E-18
  -20.1639996         1.79274751E-18
  -20.0310001         1.79239658E-18
  -19.8980007         1.79234901E-18
  -19.7649994         1.79254175E-18
  -19.6320000         1.79289268E-18
  -19.4990005         1.79330772E-18
  -19.3659992         1.79368884E-18
  -19.2329998         1.79394464E-18
  -19.1000004         1.79399676E-18
  -18.9669991         1.79378810E-18
  -18.8339996         1.79328766E-18
  -18.7010002         1.79249584E-18
  -18.5680008         1.79144201E-18
  -18.4349995         1.79018407E-18
  -18.3020000         1.78880496E-18
  -18.1690006         1.78740454E-18
  -18.0359993         1.78609222E-18
  -17.9029999         1.78497842E-18
  -17.7700005         1.78416344E-18
  -17.6369991         1.78373186E-18
  -17.5039997         1.78374365E-18
  -17.3710003         1.78422920E-18
  -17.2380009         1.78518894E-18
  -17.1049995         1.78659287E-18
  -16.9720001         1.78838434E-18
  -16.8390007         1.79048496E-18
  -16.7059994         1.79280314E-18
  -16.5730000         1.79524373E-18
  -16.4400005         1.79771866E-18
  -16.3069992         1.80015677E-18
  -16.1739998         1.80251196E-18
  -16.0410004         1.80477161E-18
  -15.9080000         1.80696012E-18
  -15.7749996         1.80913871E-18
  -15.6420002         1.81140188E-18
  -15.5089998         1.81387494E-18
  -15.3760004         1.81670286E-18
  -15.2430000         1.82004757E-18
  -15.1099997         1.82407656E-18
  -14.9770002         1.82895630E-18
  -14.8439999         1.83484149E-18
  -14.7110004         1.84186032E-18
  -14.5780001         1.85010008E-18
  -14.4449997         1.85958804E-18
  -14.3120003         1.87028266E-18
  -14.1789999         1.88207681E-18
  -14.0459995         1.89481622E-18
  -13.9130001         1.90834145E-18
  -13.7799997         1.92253856E-18
  -13.6470003         1.93738500E-18
  -13.5139999         1.95297653E-18
  -13.3809996         1.96951001E-18
  -13.2480001         1.98722201E-18
  -13.1149998         2.00629845E-18
  -12.9820004         2.02677800E-18
  -12.8490000         2.04849748E-18
  -12.7159996         2.07112129E-18
  -12.5830002         2.09426332E-18
  -12.4499998         2.11769114E-18
  -12.3170004         2.14155861E-18
  -12.1840000         2.16658393E-18
  -12.0509996         2.19408561E-18
  -11.9180002         2.22583570E-18
  -11.7849998         2.26370693E-18
  -11.6520004         2.30920020E-18
  -11.5190001         2.36295412E-18
  -11.3859997         2.42438862E-18
  -11.2530003         2.49159746E-18
  -11.1199999         2.56156143E-18
  -10.9870005         2.63064735E-18
  -10.8540001         2.69532150E-18
  -10.7209997         2.75290836E-18
  -10.5880003         2.80226664E-18
  -10.4549999         2.84427026E-18
  -10.3219995         2.88204739E-18
  -10.1890001         2.92099229E-18
  -10.0559998         2.96856965E-18
  -9.92300034         3.03392230E-18
  -9.78999996         3.12722351E-18
  -9.65699959         3.25865610E-18
  -9.52400017         3.43687527E-18
  -9.39099979         3.66687387E-18
  -9.25800037         3.94732739E-18
  -9.12500000         4.26773787E-18
  -8.99199963         4.60599146E-18
  -8.85900021         4.92719396E-18
  -8.72599983         5.18477097E-18
  -8.59300041         5.32473903E-18
  -8.46000004         5.29366930E-18
  -8.32699966         5.05023460E-18
  -8.19400024         4.57931571E-18
  -8.06099987         3.90668677E-18
  -7.92799997         3.11134144E-18
  -7.79500008         2.33197538E-18
  -7.66200018         1.76407598E-18
  -7.52899981         1.64477462E-18
  -7.39599991         2.22415487E-18
  -7.26300001         3.72391211E-18
  -7.13000011         6.28704539E-18
  -6.99700022         9.92496132E-18
  -6.86399984         1.44706513E-17
  -6.73099995         1.95478545E-17
  -6.59800005         2.45658050E-17
  -6.46500015         2.87472229E-17
  -6.33199978         3.11935335E-17
  -6.19899988         3.09862519E-17
  -6.06599998         2.73178763E-17
  -5.93300009         1.96397559E-17
  -5.80000019         7.80981335E-18
  -5.66699982        -7.78026728E-18
  -5.53399992        -2.61195397E-17
  -5.40100002        -4.55536635E-17
  -5.26800013        -6.38369954E-17
  -5.13500023        -7.82693913E-17
  -5.00199986        -8.59173312E-17
  -4.86899996        -8.39090227E-17
  -4.73600006        -6.97831336E-17
  -4.60300016        -4.18623667E-17
  -4.46999979         3.85655564E-19
  -4.33699989         5.60394152E-17
  -4.20400000         1.22508347E-16
  -4.07100010         1.95447942E-16
  -3.93799996         2.68834123E-16
  -3.80500007         3.35214295E-16
  -3.67199993         3.86137545E-16
  -3.53900003         4.12751479E-16
  -3.40599990         4.06536189E-16
  -3.27300000         3.60132681E-16
  -3.14000010         2.68211183E-16
  -3.00699997         1.28317696E-16
  -2.87400007        -5.83637994E-17
  -2.74099994        -2.86398992E-16
  -2.60800004        -5.45689065E-16
  -2.47499990        -8.21303686E-16
  -2.34200001        -1.09358867E-15
  -2.20900011        -1.33856098E-15
  -2.07599998        -1.52859377E-15
  -1.94299996        -1.63337238E-15
  -1.80999994        -1.62109464E-15
  -1.67700005        -1.45987293E-15
  -1.54400003        -1.11929231E-15
  -1.41100001        -5.72061806E-16
  -1.27800000         2.04295506E-16
  -1.14499998         1.22578574E-15
  -1.01199996         2.50039107E-15
 -0.879000008         4.02668875E-15
 -0.745999992         5.79271941E-15
 -0.612999976         7.77516445E-15
 -0.479999989         9.93891266E-15
 -0.347000003         1.22370469E-14
 -0.214000002         1.46113302E-14
  -8.10000002E-02     1.69932140E-14
   5.20000011E-02     1.93053445E-14
  0.185000002         2.14636150E-14
  0.317999989         2.33797289E-14
  0.451000005         2.49641972E-14
  0.583999991         2.61297264E-14
  0.717000008         2.67948725E-14
  0.850000024         2.68878683E-14
  0.982999980         2.63504327E-14
   1.11600006         2.51414253E-14
   1.24899995         2.32401107E-14
   1.38199997         2.06488879E-14
   1.51499999         1.73952260E-14
   1.64800000         1.35326676E-14
   1.78100002         9.14071200E-15
   1.91400003         4.32349121E-15
   2.04699993        -7.92847720E-16
   2.18000007        -6.06397451E-15
   2.31299996        -1.13324072E-14
   2.44600010        -1.64334793E-14
   2.57900000        -2.12020969E-14
   2.71199989        -2.54798590E-14
   2.84500003        -2.91222836E-14
   2.97799993        -3.20056956E-14
   3.11100006        -3.40334653E-14
   3.24399996        -3.51411540E-14
   3.37700009        -3.53003691E-14
   3.50999999        -3.45210717E-14
   3.64299989        -3.28521322E-14
   3.77600002        -3.03802597E-14
   3.90899992        -2.72271914E-14
   4.04199982        -2.35454221E-14
   4.17500019        -1.95126101E-14
   4.30800009        -1.53250469E-14
   4.44099998        -1.11903979E-14
   4.57399988        -7.32019426E-15
   4.70699978        -3.92218056E-15
   4.84000015        -1.19307216E-15
   4.97300005         6.88208076E-16
   5.10599995         1.56656382E-15
   5.23899984         1.31587775E-15
   5.37200022        -1.56865433E-16
   5.50500011        -2.90846550E-15
   5.63800001        -6.95757606E-15
   5.77099991        -1.22839454E-14
   5.90399981        -1.88289224E-14
   6.03700018        -2.64972269E-14
   6.17000008        -3.51601242E-14
   6.30299997        -4.46600188E-14
   6.43599987        -5.48163809E-14
   6.56899977        -6.54330580E-14
   6.70200014        -7.63065555E-14
   6.83500004        -8.72351982E-14
   6.96799994        -9.80287425E-14
   7.10099983        -1.08517633E-13
   7.23400021        -1.18561560E-13
   7.36700010        -1.28056650E-13
   7.50000000        -1.36940481E-13
   7.63299990        -1.45194539E-13
   7.76599979        -1.52843897E-13
   7.89900017        -1.59953742E-13
   8.03199959        -1.66622968E-13
   8.16499996        -1.72975593E-13
   8.29800034        -1.79150220E-13
   8.43099976        -1.85288688E-13
   8.56400013        -1.91525235E-13
   8.69699955        -1.97976740E-13
   8.82999992        -2.04735683E-13
   8.96300030        -2.11866250E-13
   9.09599972        -2.19404288E-13
   9.22900009        -2.27361559E-13
   9.36200047        -2.35733471E-13
   9.49499989        -2.44510223E-13
   9.62800026        -2.53690217E-13
   9.76099968        -2.63293890E-13
   9.89400005        -2.73377404E-13
   10.0270004        -2.84043351E-13
   10.1599998        -2.95448155E-13
   10.2930002        -3.07804672E-13
   10.4259996        -3.21378964E-13
   10.5590000        -3.36481548E-13
   10.6920004        -3.53453323E-13
   10.8249998        -3.72647171E-13
   10.9580002        -3.94406946E-13
   11.0909996        -4.19045278E-13
   11.2240000        -4.46822565E-13
   11.3570004        -4.77929870E-13
   11.4899998        -5.12475750E-13
   11.6230001        -5.50480289E-13
   11.7559996        -5.91876537E-13
   11.8889999        -6.36518670E-13
   12.0220003        -6.84197599E-13
   12.1549997        -7.34661735E-13
   12.2880001        -7.87641870E-13
   12.4209995        -8.42876604E-13
   12.5539999        -9.00137929E-13
   12.6870003        -9.59252100E-13
   12.8199997        -1.02011585E-12
   12.9530001        -1.08270521E-12
   13.0860004        -1.14707582E-12
   13.2189999        -1.21335602E-12
   13.3520002        -1.28173112E-12
   13.4849997        -1.35242327E-12
   13.6180000        -1.42566558E-12
   13.7510004        -1.50167606E-12
   13.8839998        -1.58063211E-12
   14.0170002        -1.66264918E-12
   14.1499996        -1.74776567E-12
   14.2830000        -1.83593440E-12
   14.4160004        -1.92702473E-12
   14.5489998        -2.02083250E-12
   14.6820002        -2.11709816E-12
   14.8149996        -2.21553071E-12
   14.9480000        -2.31583828E-12
   15.0810003        -2.41775740E-12
   15.2139997        -2.52108208E-12
   15.3470001        -2.62569025E-12
   15.4799995        -2.73155999E-12
   15.6129999        -2.83878194E-12
   15.7460003        -2.94755778E-12
   15.8789997        -3.05819215E-12
   16.0119991        -3.17107343E-12
   16.1450005        -3.28664851E-12
   16.2779999        -3.40539077E-12
   16.4109993        -3.52776597E-12
   16.5440006        -3.65419847E-12
   16.6770000        -3.78503739E-12
   16.8099995        -3.92053404E-12
   16.9430008        -4.06081896E-12
   17.0760002        -4.20589518E-12
   17.2089996        -4.35563391E-12
   17.3419991        -4.50978577E-12
   17.4750004        -4.66799646E-12
   17.6079998        -4.82983098E-12
   17.7409992        -4.99480275E-12
   17.8740005        -5.16240436E-12
   18.0070000        -5.33214011E-12
   18.1399994        -5.50355725E-12
   18.2730007        -5.67626978E-12
   18.4060001        -5.84998066E-12
   18.5389996        -6.02449384E-12
   18.6720009        -6.19972216E-12
   18.8050003        -6.37568557E-12
   18.9379997        -6.55250246E-12
   19.0709991        -6.73037841E-12
   19.2040005        -6.90958705E-12
   19.3369999        -7.09045019E-12
   19.4699993        -7.27331737E-12
   19.6030006        -7.45854333E-12
   19.7360001        -7.64647113E-12
   19.8689995        -7.83741735E-12
   20.0020008        -8.03165694E-12
   20.1350002        -8.22942235E-12
   20.2679996        -8.43089574E-12
   20.4009991        -8.63621240E-12
   20.5340004        -8.84546863E-12
   20.6669998        -9.05872773E-12
   20.7999992        -9.27603220E-12
   20.9330006        -9.49741327E-12
   21.0660000        -9.72290044E-12
   21.1989994        -9.95253012E-12
   21.3320007        -1.01863466E-11
   21.4650002        -1.04244044E-11
   21.5979996        -1.06667591E-11
   21.7310009        -1.09134594E-11
   21.8640003        -1.11645268E-11
   21.9969997        -1.14199440E-11
   22.1299992        -1.16796208E-11
   22.2630005        -1.19433820E-11
   22.3959999        -1.22109415E-11
   22.5289993        -1.24818818E-11
   22.6620007        -1.27556481E-11
   22.7950001        -1.30315368E-11
   22.9279995        -1.33087083E-11
   23.0610008        -1.35861938E-11
   23.1940002        -1.38629221E-11
   23.3269997        -1.41377543E-11
   23.4599991        -1.44095178E-11
   23.5930004        -1.46770547E-11
   23.7259998        -1.49392616E-11
   23.8589993        -1.51951316E-11
   23.9920006        -1.54437903E-11
   24.1250000        -1.56845231E-11
   24.2579994        -1.59167905E-11
   24.3910007        -1.61402194E-11
   24.5240002        -1.63545965E-11
   24.6569996        -1.65598403E-11
   24.7900009        -1.67559560E-11
   24.9230003        -1.69429869E-11
   25.0559998        -1.71209661E-11
   25.1889992        -1.72898536E-11
   25.3220005        -1.74494880E-11
   25.4549999        -1.75995503E-11
   25.5879993        -1.77395373E-11
   25.7210007        -1.78687464E-11
   25.8540001        -1.79862861E-11
   25.9869995        -1.80911015E-11
   26.1200008        -1.81820149E-11
   26.2530003        -1.82577859E-11
   26.3859997        -1.83171603E-11
   26.5189991        -1.83589480E-11
   26.6520004        -1.83820754E-11
   26.7849998        -1.83856402E-11
   26.9179993        -1.83689453E-11
   27.0510006        -1.83315186E-11
   27.1840000        -1.82731139E-11
   27.3169994        -1.81936809E-11
   27.4500008        -1.80933324E-11
   27.5830002        -1.79722799E-11
   27.7159996        -1.78307698E-11
   27.8490009        -1.76690138E-11
   27.9820004        -1.74871125E-11
   28.1149998        -1.72849981E-11
   28.2479992        -1.70623862E-11
   28.3810005        -1.68187478E-11
   28.5139999        -1.65533004E-11
   28.6469994        -1.62650223E-11
   28.7800007        -1.59526906E-11
   28.9130001        -1.56149295E-11
   29.0459995        -1.52502802E-11
   29.1790009        -1.48572682E-11
   29.3120003        -1.44344805E-11
   29.4449997        -1.39806213E-11
   29.5779991        -1.34945700E-11
   29.7110004        -1.29754167E-11
   29.8439999        -1.24224684E-11
   29.9769993        -1.18352515E-11
   30.1100006        -1.12134763E-11
   30.2430000        -1.05569945E-11
   30.3759995        -9.86574537E-12
   30.5090008        -9.13969074E-12
   30.6420002        -8.37874995E-12
   30.7749996        -7.58274780E-12
   30.9080009        -6.75136509E-12
   31.0410004        -5.88412001E-12
   31.1739998        -4.98035424E-12
   31.3069992        -4.03925417E-12
   31.4400005        -3.05988785E-12
   31.5730000        -2.04125692E-12
   31.7059994        -9.82368375E-13
   31.8390007         1.17686717E-13
   31.9720001         1.25965536E-12
   32.1049995         2.44404844E-12
   32.2379990         3.67107820E-12
   32.3709984         4.94061129E-12
   32.5040016         6.25214507E-12
   32.6370010         7.60480220E-12
   32.7700005         8.99735581E-12
   32.9029999         1.04282711E-11
   33.0359993         1.18957604E-11
   33.1689987         1.33978592E-11
   33.3019981         1.49324945E-11
   33.4350014         1.64975655E-11
   33.5680008         1.80910027E-11
   33.7010002         1.97108111E-11
   33.8339996         2.13551069E-11
   33.9669991         2.30221103E-11
   34.0999985         2.47101298E-11
   34.2330017         2.64175088E-11
   34.3660011         2.81425716E-11
   34.4990005         2.98835366E-11
   34.6320000         3.16384176E-11
   34.7649994         3.34049559E-11
   34.8979988         3.51805252E-11
   35.0309982         3.69620758E-11
   35.1640015         3.87460931E-11
   35.2970009         4.05285770E-11
   35.4300003         4.23050726E-11
   35.5629997         4.40707124E-11
   35.6959991         4.58202851E-11
   35.8289986         4.75483576E-11
   35.9620018         4.92493650E-11
   36.0950012         5.09177665E-11
   36.2280006         5.25481429E-11
   36.3610001         5.41353282E-11
   36.4939995         5.56744928E-11
   36.6269989         5.71612237E-11
   36.7599983         5.85915413E-11
   36.8930016         5.99618896E-11
   37.0260010         6.12691356E-11
   37.1590004         6.25104551E-11
   37.2919998         6.36832392E-11
   37.4249992         6.47850038E-11
   37.5579987         6.58132299E-11
   37.6910019         6.67652600E-11
   37.8240013         6.76381937E-11
   37.9570007         6.84287765E-11
   38.0900002         6.91333796E-11
   38.2229996         6.97479505E-11
   38.3559990         7.02680761E-11
   38.4889984         7.06890171E-11
   38.6220016         7.10058054E-11
   38.7550011         7.12134032E-11
   38.8880005         7.13068077E-11
   39.0209999         7.12812032E-11
   39.1539993         7.11321071E-11
   39.2869987         7.08554812E-11
   39.4199982         7.04478004E-11
   39.5530014         6.99061017E-11
   39.6860008         6.92279636E-11
   39.8190002         6.84115126E-11
   39.9519997         6.74552705E-11
   40.0849991         6.63580649E-11
   40.2179985         6.51189033E-11
   40.3510017         6.37368075E-11
   40.4840012         6.22106741E-11
   40.6170006         6.05391848E-11
   40.7500000         5.87206880E-11
   40.8829994         5.67532341E-11
   41.0159988         5.46345122E-11
   41.1489983         5.23619932E-11
   41.2820015         4.99330230E-11
   41.4150009         4.73449717E-11
   41.5480003         4.45954454E-11
   41.6809998         4.16824769E-11
   41.8139992         3.86047028E-11
   41.9469986         3.53615574E-11
   42.0800018         3.19533601E-11
   42.2130013         2.83814153E-11
   42.3460007         2.46480180E-11
   42.4790001         2.07563879E-11
   42.6119995         1.67105791E-11
   42.7449989         1.25152961E-11
   42.8779984         8.17570924E-12
   43.0110016         3.69724130E-12
   43.1440010        -9.14670791E-13
   43.2770004        -5.65473232E-12
   43.4099998        -1.05179658E-11
   43.5429993        -1.54998254E-11
   43.6759987        -2.05962278E-11
   43.8089981        -2.58034948E-11
   43.9420013        -3.11182885E-11
   44.0750008        -3.65374467E-11
   44.2080002        -4.20578017E-11
   44.3409996        -4.76759639E-11
   44.4739990        -5.33880821E-11
   44.6069984        -5.91896601E-11
   44.7400017        -6.50753826E-11
   44.8730011        -7.10390149E-11
   45.0060005        -7.70733546E-11
   45.1389999        -8.31702138E-11
   45.2719994        -8.93205718E-11
   45.4049988        -9.55147073E-11
   45.5379982        -1.01742371E-10
   45.6710014        -1.07993052E-10
   45.8040009        -1.14256202E-10
   45.9370003        -1.20521482E-10
   46.0699997        -1.26778948E-10
   46.2029991        -1.33019151E-10
   46.3359985        -1.39233305E-10
   46.4690018        -1.45413251E-10
   46.6020012        -1.51551355E-10
   46.7350006        -1.57640415E-10
   46.8680000        -1.63673478E-10
   47.0009995        -1.69643591E-10
   47.1339989        -1.75543594E-10
   47.2669983        -1.81365797E-10
   47.4000015        -1.87101876E-10
   47.5330009        -1.92742627E-10
   47.6660004        -1.98277963E-10
   47.7989998        -2.03696782E-10
   47.9319992        -2.08987092E-10
   48.0649986        -2.14136139E-10
   48.1980019        -2.19130616E-10
   48.3310013        -2.23956853E-10
   48.4640007        -2.28601180E-10
   48.5970001        -2.33050163E-10
   48.7299995        -2.37290854E-10
   48.8629990        -2.41311054E-10
   48.9959984        -2.45099524E-10
   49.1290016        -2.48645993E-10
   49.2620010        -2.51941246E-10
   49.3950005        -2.54977039E-10
   49.5279999        -2.57745991E-10
   49.6609993        -2.60241384E-10
   49.7939987        -2.62456973E-10
   49.9269981        -2.64386651E-10
   50.0600014        -2.66024341E-10
   50.1930008        -2.67363631E-10
   50.3260002        -2.68397804E-10
   50.4589996        -2.69119532E-10
   50.5919991        -2.69520989E-10
   50.7249985        -2.69593903E-10
   50.8580017        -2.69329642E-10
   50.9910011        -2.68719380E-10
   51.1240005        -2.67754457E-10
   51.2570000        -2.66426575E-10
   51.3899994        -2.64728017E-10
   51.5229988        -2.62652095E-10
   51.6559982        -2.60193117E-10
   51.7890015        -2.57346755E-10
   51.9220009        -2.54110039E-10
   52.0550003        -2.50481330E-10
   52.1879997        -2.46460213E-10
   52.3209991        -2.42047465E-10
   52.4539986        -2.37244696E-10
   52.5870018        -2.32054098E-10
   52.7200012        -2.26478170E-10
   52.8530006        -2.20519436E-10
   52.9860001        -2.14180160E-10
   53.1189995        -2.07462172E-10
   53.2519989        -2.00366765E-10
   53.3849983        -1.92894589E-10
   53.5180016        -1.85045701E-10
   53.6510010        -1.76819781E-10
   53.7840004        -1.68216344E-10
   53.9169998        -1.59235028E-10
   54.0499992        -1.49875945E-10
   54.1829987        -1.40140025E-10
   54.3160019        -1.30029404E-10
   54.4490013        -1.19547622E-10
   54.5820007        -1.08700056E-10
   54.7150002        -9.74938741E-11
   54.8479996        -8.59381108E-11
   54.9809990        -7.40436670E-11
   55.1139984        -6.18230120E-11
   55.2470016        -4.92899992E-11
   55.3800011        -3.64593702E-11
   55.5130005        -2.33464428E-11
   55.6459999        -9.96664036E-12
   55.7789993         3.66500667E-12
   55.9119987         1.75340662E-11
   56.0449982         3.16272321E-11
   56.1780014         4.59322996E-11
   56.3110008         6.04382586E-11
   56.4440002         7.51352869E-11
   56.5769997         9.00145652E-11
   56.7099991         1.05067878E-10
   56.8429985         1.20287294E-10
   56.9760017         1.35664799E-10
   57.1090012         1.51191684E-10
   57.2420006         1.66858222E-10
   57.3750000         1.82653379E-10
   57.5079994         1.98564457E-10
   57.6409988         2.14577078E-10
   57.7739983         2.30675049E-10
   57.9070015         2.46840659E-10
   58.0400009         2.63054911E-10
   58.1730003         2.79297890E-10
   58.3059998         2.95549307E-10
   58.4389992         3.11788956E-10
   58.5719986         3.27997268E-10
   58.7050018         3.44155732E-10
   58.8380013         3.60247304E-10
   58.9710007         3.76256581E-10
   59.1040001         3.92170102E-10
   59.2369995         4.07976042E-10
   59.3699989         4.23664159E-10
   59.5029984         4.39225434E-10
   59.6360016         4.54651788E-10
   59.7690010         4.69935257E-10
   59.9020004         4.85067764E-10
   60.0349998         5.00040509E-10
   60.1679993         5.14843668E-10
   60.3009987         5.29465805E-10
   60.4339981         5.43893985E-10
   60.5670013         5.58113833E-10
   60.7000008         5.72109360E-10
   60.8330002         5.85863580E-10
   60.9659996         5.99358674E-10
   61.0989990         6.12576934E-10
   61.2319984         6.25500873E-10
   61.3650017         6.38113951E-10
   61.4980011         6.50401122E-10
   61.6310005         6.62349231E-10
   61.7639999         6.73947231E-10
   61.8969994         6.85186241E-10
   62.0299988         6.96059488E-10
   62.1629982         7.06562087E-10
   62.2960014         7.16690707E-10
   62.4290009         7.26442795E-10
   62.5620003         7.35816630E-10
   62.6949997         7.44809880E-10
   62.8279991         7.53419882E-10
   62.9609985         7.61642693E-10
   63.0940018         7.69472985E-10
   63.2270012         7.76903597E-10
   63.3600006         7.83925980E-10
   63.4930000         7.90529975E-10
   63.6259995         7.96704314E-10
   63.7589989         8.02437172E-10
   63.8919983         8.07716449E-10
   64.0250015         8.12530709E-10
   64.1579971         8.16869516E-10
   64.2910004         8.20724044E-10
   64.4240036         8.24087631E-10
   64.5569992         8.26955837E-10
   64.6900024         8.29326829E-10
   64.8229980         8.31201163E-10
   64.9560013         8.32581615E-10
   65.0889969         8.33472791E-10
   65.2220001         8.33880742E-10
   65.3550034         8.33812352E-10
   65.4879990         8.33274727E-10
   65.6210022         8.32274749E-10
   65.7539978         8.30818414E-10
   65.8870010         8.28910496E-10
   66.0199966         8.26554436E-10
   66.1529999         8.23752289E-10
   66.2860031         8.20504498E-10
   66.4189987         8.16810564E-10
   66.5520020         8.12669154E-10
   66.6849976         8.08078660E-10
   66.8180008         8.03037858E-10
   66.9509964         7.97546251E-10
   67.0839996         7.91604504E-10
   67.2170029         7.85215226E-10
   67.3499985         7.78382969E-10
   67.4830017         7.71114339E-10
   67.6159973         7.63418051E-10
   67.7490005         7.55304375E-10
   67.8820038         7.46785134E-10
   68.0149994         7.37873096E-10
   68.1480026         7.28581029E-10
   68.2809982         7.18921367E-10
   68.4140015         7.08905157E-10
   68.5469971         6.98542002E-10
   68.6800003         6.87839063E-10
   68.8130035         6.76801115E-10
   68.9459991         6.65430044E-10
   69.0790024         6.53724963E-10
   69.2119980         6.41682429E-10
   69.3450012         6.29297336E-10
   69.4779968         6.16562579E-10
   69.6110001         6.03470385E-10
   69.7440033         5.90012539E-10
   69.8769989         5.76181436E-10
   70.0100021         5.61970193E-10
   70.1429977         5.47373480E-10
   70.2760010         5.32387634E-10
   70.4089966         5.17010934E-10
   70.5419998         5.01243047E-10
   70.6750031         4.85085250E-10
   70.8079987         4.68539429E-10
   70.9410019         4.51608168E-10
   71.0739975         4.34293657E-10
   71.2070007         4.16596951E-10
   71.3399963         3.98517525E-10
   71.4729996         3.80052712E-10
   71.6060028         3.61197378E-10
   71.7389984         3.41943585E-10
   71.8720016         3.22280924E-10
   72.0049973         3.02196435E-10
   72.1380005         2.81675405E-10
   72.2710037         2.60701627E-10
   72.4039993         2.39258169E-10
   72.5370026         2.17328516E-10
   72.6699982         1.94896654E-10
   72.8030014         1.71948344E-10
   72.9359970         1.48471138E-10
   73.0690002         1.24455043E-10
   73.2020035         9.98923375E-11
   73.3349991         7.47778714E-11
   73.4680023         4.91081412E-11
   73.6009979         2.28810547E-11
   73.7340012        -3.90453598E-12
   73.8669968        -3.12502281E-11
   74.0000000        -5.91583171E-11
   74.1330032        -8.76325193E-11
   74.2659988        -1.16679125E-10
   74.3990021        -1.46306897E-10
   74.5319977        -1.76527626E-10
   74.6650009        -2.07355813E-10
   74.7979965        -2.38808612E-10
   74.9309998        -2.70905354E-10
   75.0640030        -3.03666814E-10
   75.1969986        -3.37114558E-10
   75.3300018        -3.71269682E-10
   75.4629974        -4.06152612E-10
   75.5960007        -4.41781695E-10
   75.7289963        -4.78173112E-10
   75.8619995        -5.15340270E-10
   75.9950027        -5.53293411E-10
   76.1279984        -5.92039917E-10
   76.2610016        -6.31584729E-10
   76.3939972        -6.71930123E-10
   76.5270004        -7.13077097E-10
   76.6600037        -7.55025487E-10
   76.7929993        -7.97775068E-10
   76.9260025        -8.41326009E-10
   77.0589981        -8.85679252E-10
   77.1920013        -9.30837296E-10
   77.3249969        -9.76803527E-10
   77.4580002        -1.02358277E-09
   77.5910034        -1.07118070E-09
   77.7239990        -1.11960352E-09
   77.8570023        -1.16885668E-09
   77.9899979        -1.21894461E-09
   78.1230011        -1.26986999E-09
   78.2559967        -1.32163214E-09
   78.3889999        -1.37422751E-09
   78.5220032        -1.42764811E-09
   78.6549988        -1.48188184E-09
   78.7880020        -1.53691149E-09
   78.9209976        -1.59271585E-09
   79.0540009        -1.64926983E-09
   79.1869965        -1.70654468E-09
   79.3199997        -1.76450821E-09
   79.4530029        -1.82312654E-09
   79.5859985        -1.88236426E-09
   79.7190018        -1.94218508E-09
   79.8519974        -2.00255190E-09
   79.9850006        -2.06342832E-09
   80.1179962        -2.12477813E-09
   80.2509995        -2.18656382E-09
   80.3840027        -2.24874852E-09
   80.5169983        -2.31129538E-09
   80.6500015        -2.37416531E-09
   80.7829971        -2.43731768E-09
   80.9160004        -2.50070853E-09
   81.0490036        -2.56429122E-09
   81.1819992        -2.62801403E-09
   81.3150024        -2.69182210E-09
   81.4479980        -2.75565504E-09
   81.5810013        -2.81944756E-09
   81.7139969        -2.88313062E-09
   81.8470001        -2.94663094E-09
   81.9800034        -3.00987146E-09
   82.1129990        -3.07277292E-09
   82.2460022        -3.13525428E-09
   82.3789978        -3.19723381E-09
   82.5120010        -3.25862914E-09
   82.6449966        -3.31935923E-09
   82.7779999        -3.37934347E-09
   82.9110031        -3.43850215E-09
   83.0439987        -3.49675755E-09
   83.1770020        -3.55403285E-09