  -1.50000000        -8.83669273E-18
  -1.38125002        -7.83760057E-10
  -1.26250005        -2.87949198E-09
  -1.14374995        -6.71904310E-09
  -1.02499998        -1.21284938E-08
 -0.906250000        -1.66426002E-08
 -0.787500024        -1.10675806E-08
 -0.668749988         3.03275129E-08
 -0.550000012         1.68498303E-07
 -0.431250006         5.30563966E-07
 -0.312500000         1.35402138E-06
 -0.193749994         3.03972183E-06
  -7.50000030E-02     6.20049559E-06
   4.37499993E-02     1.16826641E-05
  0.162499994         2.05308825E-05
  0.281250000         3.38675600E-05
  0.400000006         5.26695076E-05
  0.518750012         7.74466607E-05
  0.637499988         1.07855878E-04
  0.756250024         1.42309524E-04
  0.875000000         1.77656169E-04
  0.993749976         2.09012360E-04
   1.11249995         2.29810379E-04
   1.23125005         2.32096456E-04
   1.35000002         2.07076169E-04
   1.46875000         1.45862519E-04
   1.58749998         4.03469567E-05
   1.70624995        -1.15911942E-04
   1.82500005        -3.26896639E-04
   1.94375002        -5.93543984E-04
   2.06250000        -9.13448632E-04
   2.18125010        -1.28090719E-03
   2.29999995        -1.68730749E-03
   2.41875005        -2.12182361E-03
   2.53749990        -2.57233367E-03
   2.65625000        -3.02645029E-03
   2.77500010        -3.47253005E-03
   2.89374995        -3.90054123E-03
   3.01250005        -4.30267677E-03
   3.13124990        -4.67364490E-03
   3.25000000        -5.01060672E-03
   3.36875010        -5.31278411E-03
   3.48749995        -5.58081316E-03
   3.60625005        -5.81594324E-03
   3.72499990        -6.01921650E-03
   3.84375000        -6.19076658E-03
   3.96250010        -6.32934598E-03
   4.08125019        -6.43217564E-03
   4.19999981        -6.49515120E-03
   4.31874990        -6.51338836E-03
   4.43750000        -6.48204517E-03
   4.55625010        -6.39729761E-03
   4.67500019        -6.25733379E-03
   4.79374981        -6.06320426E-03
   4.91249990        -5.81939425E-03
   5.03125000        -5.53400023E-03
   5.15000010        -5.21845836E-03
   5.26875019        -4.88681486E-03
   5.38749981        -4.55461070E-03
   5.50624990        -4.23748791E-03
   5.62500000        -3.94968735E-03
   5.74375010        -3.70261702E-03
   5.86250019        -3.50367161E-03
   5.98124981        -3.35546536E-03
   6.09999990        -3.25558148E-03
   6.21875000        -3.19689000E-03
   6.33750010        -3.16840387E-03
   6.45625019        -3.15658562E-03
   6.57499981        -3.14694550E-03
   6.69374990        -3.12574347E-03
   6.81250000        -3.08158109E-03
   6.93125010        -3.00669088E-03
   7.05000019        -2.89776013E-03
   7.16874981        -2.75618839E-03
   7.28749990        -2.58775079E-03
   7.40625000        -2.40171608E-03
   7.52500010        -2.20953557E-03
   7.64375019        -2.02327943E-03
   7.76249981        -1.85402983E-03
   7.88124990        -1.71044027E-03
   8.00000000        -1.59765687E-03
   8.11874962        -1.51674193E-03
   8.23750019        -1.46467600E-03
   8.35624981        -1.43493654E-03
   8.47500038        -1.41857483E-03
   8.59375000        -1.40564027E-03
   8.71249962        -1.38675922E-03
   8.83125019        -1.35464384E-03
   8.94999981        -1.30532298E-03
   9.06875038        -1.23891269E-03
   9.18750000        -1.15981384E-03
   9.30624962        -1.07628747E-03
   9.42500019        -9.99458251E-04
   9.54374981        -9.41860431E-04
   9.66250038        -9.15712910E-04
   9.78125000        -9.31146962E-04
   9.89999962        -9.94623522E-04
   10.0187502        -1.10775267E-03
   10.1374998        -1.26668508E-03
   10.2562504        -1.46216666E-03
   10.3750000        -1.68027240E-03
   10.4937496        -1.90373848E-03
   10.6125002        -2.11374345E-03
   10.7312498        -2.29192339E-03
   10.8500004        -2.42237770E-03
   10.9687500        -2.49342364E-03
   11.0874996        -2.49887817E-03
   11.2062502        -2.43871962E-03
   11.3249998        -2.31904187E-03
   11.4437504        -2.15131580E-03
   11.5625000        -1.95105386E-03
   11.6812496        -1.73604349E-03
   11.8000002        -1.52437633E-03
   11.9187498        -1.33251655E-03
   12.0375004        -1.17364572E-03
   12.1562500        -1.05648278E-03
   12.2749996        -9.84710758E-04
   12.3937502        -9.57066834E-04
   12.5124998        -9.68057488E-04
   12.6312504        -1.00918754E-03
   12.7500000        -1.07051933E-03
   12.8687496        -1.14234106E-03
   12.9875002        -1.21671520E-03
   13.1062498        -1.28869037E-03
   13.2250004        -1.35701662E-03
   13.3437500        -1.42426486E-03
   13.4624996        -1.49634248E-03
   13.5812502        -1.58146920E-03
   13.6999998        -1.68875942E-03
   13.8187504        -1.82660669E-03
   13.9375000        -2.00109277E-03
   14.0562496        -2.21464527E-03
   14.1750002        -2.46513216E-03
   14.2937498        -2.74552614E-03
   14.4125004        -3.04420013E-03
   14.5312500        -3.34582711E-03
   14.6499996        -3.63278412E-03
   14.7687502        -3.88689293E-03
   14.8874998        -4.09128563E-03
   15.0062504        -4.23216587E-03
   15.1250000        -4.30025905E-03
   15.2437496        -4.29176679E-03
   15.3625002        -4.20872681E-03
   15.4812498        -4.05873684E-03
   15.6000004        -3.85408686E-03
   15.7187500        -3.61041864E-03
   15.8374996        -3.34508158E-03
   15.9562502        -3.07539548E-03
   16.0750008        -2.81702308E-03
   16.1937504        -2.58265086E-03
   16.3125000        -2.38111615E-03
   16.4312496        -2.21706461E-03
   16.5499992        -2.09114864E-03
   16.6687508        -2.00070511E-03
   16.7875004        -1.94079219E-03
   16.9062500        -1.90542138E-03
   17.0249996        -1.88880251E-03
   17.1437492        -1.88642403E-03
   17.2625008        -1.89582119E-03
   17.3812504        -1.91693613E-03
   17.5000000        -1.95202837E-03
   17.6187496        -2.00516684E-03
   17.7374992        -2.08138768E-03
   17.8562508        -2.18565064E-03
   17.9750004        -2.32175319E-03
   18.0937500        -2.49136565E-03
   18.2124996        -2.69333017E-03
   18.3312492        -2.92333215E-03
   18.4500008        -3.17399600E-03
   18.5687504        -3.43539892E-03
   18.6875000        -3.69594363E-03
   18.8062496        -3.94347310E-03
   18.9249992        -4.16648900E-03
   19.0437508        -4.35531046E-03
   19.1625004        -4.50303638E-03
   19.2812500        -4.60617943E-03
   19.3999996        -4.66490770E-03
   19.5187492        -4.68286732E-03
   19.6375008        -4.66662180E-03
   19.7562504        -4.62479005E-03
   19.8750000        -4.56700101E-03
   19.9937496        -4.50280728E-03
   20.1124992        -4.44068806E-03
   20.2312508        -4.38727252E-03
   20.3500004        -4.34685545E-03
   20.4687500        -4.32125665E-03
   20.5874996        -4.31001000E-03
   20.7062492        -4.31082537E-03
   20.8250008        -4.32024384E-03
   20.9437504        -4.33436176E-03
   21.0625000        -4.34951670E-03
   21.1812496        -4.36283043E-03
   21.2999992        -4.37252410E-03
   21.4187508        -4.37797792E-03
   21.5375004        -4.37953696E-03
   21.6562500        -4.37809993E-03
   21.7749996        -4.37458651E-03
   21.8937492        -4.36936831E-03
   22.0125008        -4.36177757E-03
   22.1312504        -4.34978353E-03
   22.2500000        -4.32990398E-03
   22.3687496        -4.29738220E-03
   22.4874992        -4.24661906E-03
   22.6062508        -4.17180732E-03
   22.7250004        -4.06768033E-03
   22.8437500        -3.93027347E-03
   22.9624996        -3.75758437E-03
   23.0812492        -3.55003285E-03
   23.2000008        -3.31064523E-03
   23.3187504        -3.04493215E-03
   23.4375000        -2.76045967E-03
   23.5562496        -2.46617058E-03
   23.6749992        -2.17153947E-03
   23.7937508        -1.88567070E-03
   23.9125004        -1.61646027E-03
   24.0312500        -1.36993267E-03
   24.1499996        -1.14983926E-03
   24.2687492        -9.57567187E-04
   24.3875008        -7.92364182E-04
   24.5062504        -6.51839946E-04
   24.6250000        -5.32662030E-04
   24.7437496        -4.31337307E-04
   24.8624992        -3.44957632E-04
   24.9812508        -2.71791592E-04
   25.1000004        -2.11628096E-04
   25.2187500        -1.65815625E-04
   25.3374996        -1.36984832E-04
   25.4562492        -1.28493484E-04
   25.5750008        -1.43675235E-04
   25.6937504        -1.85008816E-04
   25.8125000        -2.53337988E-04
   25.9312496        -3.47274065E-04
   26.0499992        -4.62887809E-04
   26.1687508        -5.93761855E-04
   26.2875004        -7.31424254E-04
   26.4062500        -8.66128947E-04
   26.5249996        -9.87897394E-04
   26.6437492        -1.08769559E-03
   26.7625008        -1.15859171E-03
   26.8812504        -1.19673868E-03
   27.0000000        -1.20203872E-03
   27.1187496        -1.17838650E-03
   27.2374992        -1.13343797E-03
   27.3562508        -1.07791240E-03
   27.4750004        -1.02449825E-03
   27.5937500        -9.86488536E-04
   27.7124996        -9.76305571E-04
   27.8312492        -1.00410020E-03
   27.9500008        -1.07659737E-03
   28.0687504        -1.19633542E-03
   28.1875000        -1.36139826E-03
   28.3062496        -1.56567176E-03
   28.4249992        -1.79959240E-03
   28.5437508        -2.05129199E-03
   28.6625004        -2.30798637E-03
   28.7812500        -2.55742762E-03
   28.8999996        -2.78923172E-03
   29.0187492        -2.99590454E-03
   29.1375008        -3.17343720E-03
   29.2562504        -3.32139689E-03
   29.3750000        -3.44250607E-03
   29.4937496        -3.54177575E-03
   29.6124992        -3.62532213E-03
   29.7312508        -3.69903492E-03
   29.8500004        -3.76729574E-03
   29.9687500        -3.83193186E-03
   30.0874996        -3.89157166E-03
   30.2062492        -3.94149963E-03
   30.3250008        -3.97405727E-03
   30.4437504        -3.97954974E-03
   30.5625000        -3.94754810E-03
   30.6812496        -3.86842899E-03
   30.7999992        -3.73493927E-03
   30.9187508        -3.54358158E-03
   31.0375004        -3.29562044E-03
   31.1562500        -2.99756136E-03
   31.2749996        -2.66101607E-03
   31.3937492        -2.30194815E-03
   31.5125008        -1.93936809E-03
   31.6312504        -1.59362401E-03
   31.7500000        -1.28448429E-03
   31.8687496        -1.02923904E-03
   31.9874992        -8.41047848E-04
   32.1062508        -7.27732200E-04
   32.2249985        -6.91155321E-04
   32.3437500        -7.27261940E-04
   32.4625015        -8.26765434E-04
   32.5812492        -9.76390555E-04
   32.7000008        -1.16051047E-03
   32.8187485        -1.36297056E-03
   32.9375000        -1.56886876E-03
   33.0562515        -1.76607131E-03
   33.1749992        -1.94628327E-03
   33.2937508        -2.10555131E-03
   33.4124985        -2.24415306E-03
   33.5312500        -2.36590859E-03
   33.6500015        -2.47702911E-03
   33.7687492        -2.58467277E-03
   33.8875008        -2.69541726E-03
   34.0062485        -2.81387148E-03
   34.1250000        -2.94161751E-03
   34.2437515        -3.07664135E-03
   34.3624992        -3.21332808E-03
   34.4812508        -3.34303570E-03
   34.5999985        -3.45516554E-03
   34.7187500        -3.53859202E-03
   34.8375015        -3.58325709E-03
   34.9562492        -3.58171272E-03
   35.0750008        -3.53039848E-03
   35.1937485        -3.43047385E-03
   35.3125000        -3.28808581E-03
   35.4312515        -3.11401975E-03
   35.5499992        -2.92276451E-03
   35.6687508        -2.73110089E-03
   35.7874985        -2.55637988E-03
   35.9062500        -2.41470151E-03
   36.0250015        -2.31921626E-03
   36.1437492        -2.27875425E-03
   36.2625008        -2.29695044E-03
   36.3812485        -2.37196335E-03
   36.5000000        -2.49681761E-03
   36.6187515        -2.66031804E-03
   36.7374992        -2.84841144E-03
   36.8562508        -3.04582529E-03
   36.9749985        -3.23777017E-03
   37.0937500        -3.41150328E-03
   37.2125015        -3.55756003E-03
   37.3312492        -3.67051968E-03
   37.4500008        -3.74922459E-03
   37.5687485        -3.79645429E-03
   37.6875000        -3.81812197E-03
   37.8062515        -3.82211898E-03
   37.9249992        -3.81698273E-03
   38.0437508        -3.81057221E-03
   38.1624985        -3.80893424E-03
   38.2812500        -3.81550589E-03
   38.4000015        -3.83075769E-03
   38.5187492        -3.85230291E-03
   38.6375008        -3.87544883E-03
   38.7562485        -3.89409531E-03
   38.8750000        -3.90184205E-03
   38.9937515        -3.89314000E-03
   39.1124992        -3.86431790E-03
   39.2312508        -3.81433452E-03
   39.3499985        -3.74514749E-03
   39.4687500        -3.66164465E-03
   39.5875015        -3.57114268E-03
   39.7062492        -3.48252081E-03
   39.8250008        -3.40510276E-03
   39.9437485        -3.34744272E-03
   40.0625000        -3.31617286E-03
   40.1812515        -3.31506925E-03
   40.2999992        -3.34446249E-03
   40.4187508        -3.40106548E-03
   40.5374985        -3.47824581E-03
   40.6562500        -3.56670259E-03
   40.7750015        -3.65545810E-03
   40.8937492        -3.73303890E-03
   41.0125008        -3.78869451E-03
   41.1312485        -3.81350145E-03
   41.2500000        -3.80122405E-03
   41.3687515        -3.74883180E-03
   41.4874992        -3.65663157E-03
   41.6062508        -3.52801220E-03
   41.7249985        -3.36886104E-03
   41.8437500        -3.18674743E-03
   41.9625015        -2.98999227E-03
   42.0812492        -2.78675905E-03
   42.2000008        -2.58428394E-03
   42.3187485        -2.38833902E-03
   42.4375000        -2.20298721E-03
   42.5562515        -2.03063549E-03
   42.6749992        -1.87235360E-03
   42.7937508        -1.72838231E-03
   42.9124985        -1.59873196E-03
   43.0312500        -1.48375856E-03
   43.1500015        -1.38461322E-03
   43.2687492        -1.30348385E-03
   43.3875008        -1.24357815E-03
   43.5062485        -1.20884576E-03
   43.6250000        -1.20347354E-03
   43.7437515        -1.23123091E-03
   43.8624992        -1.29476236E-03
   43.9812508        -1.39493984E-03
   44.0999985        -1.53037719E-03
   44.2187500        -1.69719569E-03
   44.3375015        -1.88908214E-03
   44.4562492        -2.09765579E-03
   44.5750008        -2.31310283E-03
   44.6937485        -2.52500689E-03
   44.8125000        -2.72327126E-03
   44.9312515        -2.89901742E-03
   45.0499992        -3.04534496E-03
   45.1687508        -3.15785408E-03
   45.2874985        -3.23487096E-03
   45.4062500        -3.27735115E-03
   45.5250015        -3.28848255E-03
   45.6437492        -3.27305263E-03
   45.7625008        -3.23667680E-03
   45.8812485        -3.18500050E-03
