  -24.4200001       0.00000000    
  -24.2900009       0.00000000    
  -24.1599998       0.00000000    
  -24.0300007       0.00000000    
  -23.8999996       4.92353699E-29
  -23.7700005       4.21431509E-28
  -23.6399994       1.98174648E-27
  -23.5100002       6.75918441E-27
  -23.3799992       1.86611672E-26
  -23.2500000       4.41951680E-26
  -23.1200008       9.30340150E-26
  -22.9899998       1.78310606E-25
  -22.8600006       3.16674405E-25
  -22.7299995       5.28379429E-25
  -22.6000004       8.37968483E-25
  -22.4699993       1.27641156E-24
  -22.3400002       1.88576371E-24
  -22.2099991       2.72745700E-24
  -22.0799999       3.89515691E-24
  -21.9500008       5.53266768E-24
  -21.8199997       7.85667044E-24
  -21.6900005       1.11831714E-23
  -21.5599995       1.59555811E-23
  -21.4300003       2.27714009E-23
  -21.2999992       3.24038406E-23
  -21.1700001       4.58143656E-23
  -21.0400009       6.41524723E-23
  -20.9099998       8.87398278E-23
  -20.7800007       1.21037440E-22
  -20.6499996       1.62596753E-22
  -20.5200005       2.14997969E-22
  -20.3899994       2.79782129E-22
  -20.2600002       3.58385921E-22
  -20.1299992       4.52090959E-22
  -20.0000000       5.62001069E-22
  -19.8700008       6.89061645E-22
  -19.7399998       8.34133999E-22
  -19.6100006       9.98135884E-22
  -19.4799995       1.18225314E-21
  -19.3500004       1.38822384E-21
  -19.2199993       1.61868351E-21
  -19.0900002       1.87755540E-21
  -18.9599991       2.17045609E-21
  -18.8299999       2.50508276E-21
  -18.7000008       2.89153686E-21
  -18.5699997       3.34254335E-21
  -18.4400005       3.87351919E-21
  -18.3099995       4.50246161E-21
  -18.1800003       5.24962542E-21
  -18.0499992       6.13699473E-21
  -17.9200001       7.18755006E-21
  -17.7900009       8.42438783E-21
  -17.6599998       9.86974459E-21
  -17.5300007       1.15440357E-20
  -17.3999996       1.34650019E-20
  -17.2700005       1.56471052E-20
  -17.1399994       1.81012822E-20
  -17.0100002       2.08351481E-20
  -16.8799992       2.38537498E-20
  -16.7500000       2.71608664E-20
  -16.6200008       3.07608307E-20
  -16.4899998       3.46608516E-20
  -16.3600006       3.88735920E-20
  -16.2299995       4.34198930E-20
  -16.1000004       4.83313199E-20
  -15.9700003       5.36522012E-20
  -15.8400002       5.94409856E-20
  -15.7100000       6.57705975E-20
  -15.5799999       7.27278391E-20
  -15.4499998       8.04118817E-20
  -15.3199997       8.89321328E-20
  -15.1899996       9.84057225E-20
  -15.0600004       1.08954731E-19
  -14.9300003       1.20703177E-19
  -14.8000002       1.33773238E-19
  -14.6700001       1.48280500E-19
  -14.5400000       1.64327700E-19
  -14.4099998       1.81997222E-19
  -14.2799997       2.01343568E-19
  -14.1499996       2.22387637E-19
  -14.0200005       2.45115975E-19
  -13.8900003       2.69487766E-19
  -13.7600002       2.95452319E-19
  -13.6300001       3.22976935E-19
  -13.5000000       3.52083069E-19
  -13.3699999       3.82884586E-19
  -13.2399998       4.15618346E-19
  -13.1099997       4.50656218E-19
  -12.9799995       4.88486341E-19
  -12.8500004       5.29655895E-19
  -12.7200003       5.74675562E-19
  -12.5900002       6.23896376E-19
  -12.4600000       6.77385958E-19
  -12.3299999       7.34843630E-19
  -12.1999998       7.95604130E-19
  -12.0699997       8.58775345E-19
  -11.9399996       9.23538262E-19
  -11.8100004       9.89595044E-19
  -11.6800003       1.05769455E-18
  -11.5500002       1.13010201E-18
  -11.4200001       1.21082419E-18
  -11.2900000       1.30538603E-18
  -11.1599998       1.41999656E-18
  -11.0299997       1.56005788E-18
  -10.8999996       1.72815949E-18
  -10.7700005       1.92193017E-18
  -10.6400003       2.13233638E-18
  -10.5100002       2.34315514E-18
  -10.3800001       2.53231336E-18
  -10.2500000       2.67555188E-18
  -10.1199999       2.75238372E-18
  -9.98999977       2.75367144E-18
  -9.85999966       2.68941398E-18
  -9.72999954       2.59473137E-18
  -9.60000038       2.53173702E-18
  -9.47000027       2.58518860E-18
  -9.34000015       2.85062817E-18
  -9.21000004       3.41513324E-18
  -9.07999992       4.33265500E-18
  -8.94999981       5.59792163E-18
  -8.81999969       7.12454136E-18
  -8.68999958       8.73386012E-18
  -8.56000042       1.01607922E-17
  -8.43000031       1.10810480E-17
  -8.30000019       1.11608676E-17
  -8.17000008       1.01258620E-17
  -8.03999996       7.84051498E-18
  -7.90999985       4.38516980E-18
  -7.78000021       1.14072472E-19
  -7.65000010      -4.32281941E-18
  -7.51999998      -8.00919117E-18
  -7.38999987      -9.85187661E-18
  -7.26000023      -8.73056380E-18
  -7.13000011      -3.69637775E-18
  -7.00000000       5.80367826E-18
  -6.86999989       1.97097238E-17
  -6.73999977       3.71792142E-17
  -6.61000013       5.65053694E-17
  -6.48000002       7.51585437E-17
  -6.34999990       8.99729315E-17
  -6.21999979       9.74812433E-17
  -6.09000015       9.43779131E-17
  -5.96000004       7.80666923E-17
  -5.82999992       4.72275330E-17
  -5.69999981       2.32322691E-18
  -5.57000017      -5.40397855E-17
  -5.44000006      -1.16974800E-16
  -5.30999994      -1.79463359E-16
  -5.17999983      -2.32819579E-16
  -5.05000019      -2.67464232E-16
  -4.92000008      -2.73960710E-16
  -4.78999996      -2.44224454E-16
  -4.65999985      -1.72784874E-16
  -4.53000021      -5.79545104E-17
  -4.40000010       9.72438624E-17
  -4.26999998       2.84534169E-16
  -4.13999987       4.90339115E-16
  -4.01000023       6.96298034E-16
  -3.88000011       8.80364594E-16
  -3.75000000       1.01843959E-15
  -3.61999989       1.08643633E-15
  -3.49000001       1.06262454E-15
  -3.35999990       9.30060387E-16
  -3.23000002       6.78892407E-16
  -3.09999990       3.08333466E-16
  -2.97000003      -1.71892777E-16
  -2.83999991      -7.40783146E-16
  -2.71000004      -1.36606604E-15
  -2.57999992      -2.00503879E-15
  -2.45000005      -2.60621641E-15
  -2.31999993      -3.11171932E-15
  -2.19000006      -3.46028417E-15
  -2.05999994      -3.59073953E-15
  -1.92999995      -3.44577026E-15
  -1.79999995      -2.97577476E-15
  -1.66999996      -2.14261749E-15
  -1.53999996      -9.23090471E-16
  -1.40999997       6.88096056E-16
  -1.27999997       2.67596237E-15
  -1.14999998       5.00368535E-15
  -1.01999998       7.61192680E-15
 -0.889999986       1.04191575E-14
 -0.759999990       1.33230405E-14
 -0.629999995       1.62029102E-14
 -0.500000000       1.89233005E-14
 -0.370000005       2.13384862E-14
 -0.239999995       2.32979004E-14
 -0.109999999       2.46522248E-14
   1.99999996E-02   2.52599489E-14
  0.150000006       2.49940991E-14
  0.280000001       2.37488252E-14
  0.409999996       2.14455105E-14
  0.540000021       1.80380901E-14
  0.670000017       1.35172576E-14
  0.800000012       7.91329181E-15
  0.930000007       1.29735219E-15
   1.05999994      -6.21894554E-15
   1.19000006      -1.44856678E-14
   1.32000005      -2.33183647E-14
   1.45000005      -3.25035307E-14
   1.58000004      -4.18053484E-14
   1.71000004      -5.09736330E-14
   1.84000003      -5.97526247E-14
   1.97000003      -6.78902532E-14
   2.09999990      -7.51476247E-14
   2.23000002      -8.13082715E-14
   2.35999990      -8.61869034E-14
   2.49000001      -8.96371464E-14
   2.61999989      -9.15581020E-14
   2.75000000      -9.18993207E-14
   2.88000011      -9.06639333E-14
   3.00999999      -8.79097278E-14
   3.14000010      -8.37480720E-14
   3.26999998      -7.83405730E-14
   3.40000010      -7.18935274E-14
   3.52999997      -6.46504402E-14
   3.66000009      -5.68826602E-14
   3.78999996      -4.88787274E-14
   3.92000008      -4.09328536E-14
   4.05000019      -3.33329047E-14
   4.17999983      -2.63487081E-14
   4.30999994      -2.02210498E-14
   4.44000006      -1.51521235E-14
   4.57000017      -1.12975425E-14
   4.69999981      -8.76066018E-15
   4.82999992      -7.58908825E-15
   4.96000004      -7.77367198E-15
   5.09000015      -9.24973446E-15
   5.21999979      -1.19004521E-14
   5.34999990      -1.55620095E-14
   5.48000002      -2.00302319E-14
   5.61000013      -2.50682501E-14
   5.73999977      -3.04148965E-14
   5.86999989      -3.57934880E-14
   6.00000000      -4.09207648E-14
   6.13000011      -4.55158270E-14
   6.26000023      -4.93089727E-14
   6.38999987      -5.20502593E-14
   6.51999998      -5.35178625E-14
   6.65000010      -5.35259771E-14
   6.78000021      -5.19320982E-14
   6.90999985      -4.86434623E-14
   7.03999996      -4.36221731E-14
   7.17000008      -3.68886575E-14
   7.30000019      -2.85229299E-14
   7.42999983      -1.86633054E-14
   7.55999994      -7.50215049E-15
   7.69000006       4.72142348E-15
   7.82000017       1.77318927E-14
   7.94999981       3.12302877E-14
   8.07999992       4.49091617E-14
   8.21000004       5.84686311E-14
   8.34000015       7.16323024E-14
   8.47000027       8.41618577E-14
   8.60000038       9.58689237E-14
   8.72999954       1.06622881E-13
   8.85999966       1.16354151E-13
   8.98999977       1.25051526E-13
   9.11999989       1.32754281E-13
   9.25000000       1.39539246E-13
   9.38000011       1.45503089E-13
   9.51000023       1.50742510E-13
   9.64000034       1.55333049E-13
   9.77000046       1.59309049E-13
   9.89999962       1.62646575E-13
   10.0299997       1.65251547E-13
   10.1599998       1.66954124E-13
   10.2900000       1.67510577E-13
   10.4200001       1.66613048E-13
   10.5500002       1.63906337E-13
   10.6800003       1.59011191E-13
   10.8100004       1.51551907E-13
   10.9399996       1.41185715E-13
   11.0699997       1.27632158E-13
   11.1999998       1.10698702E-13
   11.3299999       9.03011254E-14
   11.4600000       6.64757759E-14
   11.5900002       3.93825665E-14
   11.7200003       9.29791116E-15
   11.8500004      -2.34015332E-14
   11.9799995      -5.82646588E-14
   12.1099997      -9.47976981E-14
   12.2399998      -1.32500429E-13
   12.3699999      -1.70903656E-13
   12.5000000      -2.09604225E-13
   12.6300001      -2.48295064E-13
   12.7600002      -2.86787141E-13
   12.8900003      -3.25021450E-13
   13.0200005      -3.63070061E-13
   13.1499996      -4.01124988E-13
   13.2799997      -4.39477746E-13
   13.4099998      -4.78488939E-13
   13.5400000      -5.18552866E-13
   13.6700001      -5.60059106E-13
   13.8000002      -6.03355473E-13
   13.9300003      -6.48715294E-13
   14.0600004      -6.96313233E-13
   14.1899996      -7.46211578E-13
   14.3199997      -7.98359100E-13
   14.4499998      -8.52602331E-13
   14.5799999      -9.08709360E-13
   14.7100000      -9.66403390E-13
   14.8400002      -1.02540318E-12
   14.9700003      -1.08546635E-12
   15.1000004      -1.14643169E-12
   15.2299995      -1.20825734E-12
   15.3599997      -1.27104653E-12
   15.4899998      -1.33506259E-12
   15.6199999      -1.40072882E-12
   15.7500000      -1.46861256E-12
   15.8800001      -1.53939329E-12
   16.0100002      -1.61382106E-12
   16.1399994      -1.69266218E-12
   16.2700005      -1.77664133E-12
   16.3999996      -1.86638465E-12
   16.5300007      -1.96236603E-12
   16.6599998      -2.06486607E-12
   16.7900009      -2.17394223E-12
   16.9200001      -2.28942017E-12
   17.0499992      -2.41089809E-12
   17.1800003      -2.53777598E-12
   17.3099995      -2.66929708E-12
   17.4400005      -2.80460594E-12
   17.5699997      -2.94281461E-12
   17.7000008      -3.08307438E-12
   17.8299999      -3.22464429E-12
   17.9599991      -3.36695385E-12
   18.0900002      -3.50965502E-12
   18.2199993      -3.65265500E-12
   18.3500004      -3.79613441E-12
   18.4799995      -3.94054364E-12
   18.6100006      -4.08657830E-12
   18.7399998      -4.23514132E-12
   18.8700008      -4.38728784E-12
   19.0000000      -4.54416496E-12
   19.1299992      -4.70694273E-12
   19.2600002      -4.87675178E-12
   19.3899994      -5.05462295E-12
   19.5200005      -5.24144356E-12
   19.6499996      -5.43792355E-12
   19.7800007      -5.64458202E-12
   19.9099998      -5.86175249E-12
   20.0400009      -6.08960105E-12
   20.1700001      -6.32816369E-12
   20.2999992      -6.57739011E-12
   20.4300003      -6.83720094E-12
   20.5599995      -7.10753548E-12
   20.6900005      -7.38841020E-12
   20.8199997      -7.67995303E-12
   20.9500008      -7.98243503E-12
   21.0799999      -8.29628380E-12
   21.2099991      -8.62207701E-12
   21.3400002      -8.96052069E-12
   21.4699993      -9.31240501E-12
   21.6000004      -9.67855483E-12
   21.7299995      -1.00597681E-11
   21.8600006      -1.04567440E-11
   21.9899998      -1.08700202E-11
   22.1200008      -1.12999141E-11
   22.2500000      -1.17464779E-11
   22.3799992      -1.22094643E-11
   22.5100002      -1.26883191E-11
   22.6399994      -1.31821906E-11
   22.7700005      -1.36899624E-11
   22.8999996      -1.42102987E-11
   23.0300007      -1.47417113E-11
   23.1599998      -1.52826380E-11
   23.2900009      -1.58315080E-11
   23.4200001      -1.63868346E-11
   23.5499992      -1.69472717E-11
   23.6800003      -1.75116675E-11
   23.8099995      -1.80790990E-11
   23.9400005      -1.86488897E-11
   24.0699997      -1.92205887E-11
   24.2000008      -1.97939373E-11
   24.3299999      -2.03688212E-11
   24.4599991      -2.09451866E-11
   24.5900002      -2.15229640E-11
   24.7199993      -2.21019817E-11
   24.8500004      -2.26818755E-11
   24.9799995      -2.32620208E-11
   25.1100006      -2.38414670E-11
   25.2399998      -2.44189131E-11
   25.3700008      -2.49926885E-11
   25.5000000      -2.55607775E-11
   25.6299992      -2.61208520E-11
   25.7600002      -2.66703586E-11
   25.8899994      -2.72065842E-11
   26.0200005      -2.77267688E-11
   26.1499996      -2.82282010E-11
   26.2800007      -2.87083170E-11
   26.4099998      -2.91647921E-11
   26.5400009      -2.95955933E-11
   26.6700001      -2.99990414E-11
   26.7999992      -3.03737868E-11
   26.9300003      -3.07188303E-11
   27.0599995      -3.10334258E-11
   27.1900005      -3.13170427E-11
   27.3199997      -3.15692403E-11
   27.4500008      -3.17895710E-11
   27.5799999      -3.19774554E-11
   27.7099991      -3.21320956E-11
   27.8400002      -3.22523570E-11
   27.9699993      -3.23367305E-11
   28.1000004      -3.23832905E-11
   28.2299995      -3.23896882E-11
   28.3600006      -3.23532069E-11
   28.4899998      -3.22708076E-11
   28.6200008      -3.21392600E-11
   28.7500000      -3.19552475E-11
   28.8799992      -3.17154948E-11
   29.0100002      -3.14169038E-11
   29.1399994      -3.10566781E-11
   29.2700005      -3.06324133E-11
   29.3999996      -3.01421665E-11
   29.5300007      -2.95844911E-11
   29.6599998      -2.89584294E-11
   29.7900009      -2.82634662E-11
   29.9200001      -2.74994506E-11
   30.0499992      -2.66664937E-11
   30.1800003      -2.57648382E-11
   30.3099995      -2.47947479E-11
   30.4400005      -2.37563684E-11
   30.5699997      -2.26496339E-11
   30.7000008      -2.14741835E-11
   30.8299999      -2.02293286E-11
   30.9599991      -1.89140422E-11
   31.0900002      -1.75270094E-11
   31.2199993      -1.60666914E-11
   31.3500004      -1.45314568E-11
   31.4799995      -1.29197026E-11
   31.6100006      -1.12300134E-11
   31.7399998      -9.46130847E-12
   31.8700008      -7.61298403E-12
   32.0000000      -5.68502970E-12
   32.1300011      -3.67811120E-12
   32.2599983      -1.59361478E-12
   32.3899994       5.66357183E-13
   32.5200005       2.79903704E-12
   32.6500015       5.10107841E-12
   32.7799988       7.46868106E-12
   32.9099998       9.89774235E-12
   33.0400009       1.23840252E-11
   33.1699982       1.49233091E-11
   33.2999992       1.75115391E-11
   33.4300003       2.01449465E-11
   33.5600014       2.28201243E-11
   33.6899986       2.55340471E-11
   33.8199997       2.82840695E-11
   33.9500008       3.10678254E-11
   34.0800018       3.38831255E-11
   34.2099991       3.67277944E-11
   34.3400002       3.95994869E-11
   34.4700012       4.24954863E-11
   34.5999985       4.54125210E-11
   34.7299995       4.83465941E-11
   34.8600006       5.12928554E-11
   34.9900017       5.42455109E-11
   35.1199989       5.71978298E-11
   35.2500000       6.01421621E-11
   35.3800011       6.30700561E-11
   35.5099983       6.59724289E-11
   35.6399994       6.88397811E-11
   35.7700005       7.16624537E-11
   35.9000015       7.44308365E-11
   36.0299988       7.71357145E-11
   36.1599998       7.97683933E-11
   36.2900009       8.23209625E-11
   36.4199982       8.47863654E-11
   36.5499992       8.71585026E-11
   36.6800003       8.94321561E-11
   36.8100014       9.16029474E-11
   36.9399986       9.36671365E-11
   37.0699997       9.56214483E-11
   37.2000008       9.74627948E-11
   37.3300018       9.91880258E-11
   37.4599991       1.00793672E-10
   37.5900002       1.02275723E-10
   37.7200012       1.03629459E-10
   37.8499985       1.04849324E-10
   37.9799995       1.05928925E-10
   38.1100006       1.06861048E-10
   38.2400017       1.07637822E-10
   38.3699989       1.08250894E-10
   38.5000000       1.08691715E-10
   38.6300011       1.08951778E-10
   38.7599983       1.09022985E-10
   38.8899994       1.08897884E-10
   39.0200005       1.08569959E-10
   39.1500015       1.08033818E-10
   39.2799988       1.07285306E-10
   39.4099998       1.06321549E-10
   39.5400009       1.05140910E-10
   39.6699982       1.03742855E-10
   39.7999992       1.02127751E-10
   39.9300003       1.00296611E-10
   40.0600014       9.82508172E-11
   40.1899986       9.59918325E-11
   40.3199997       9.35209063E-11
   40.4500008       9.08389267E-11
   40.5800018       8.79462267E-11
   40.7099991       8.48425427E-11
   40.8400002       8.15270629E-11
   40.9700012       7.79985659E-11
   41.0999985       7.42556225E-11
   41.2299995       7.02969211E-11
   41.3600006       6.61215457E-11
   41.4900017       6.17293855E-11
   41.6199989       5.71214361E-11
   41.7500000       5.23000740E-11
   41.8800011       4.72693239E-11
   42.0099983       4.20349415E-11
   42.1399994       3.66044278E-11
   42.2700005       3.09869456E-11
   42.4000015       2.51930976E-11
   42.5299988       1.92346295E-11
   42.6599998       1.31240548E-11
   42.7900009       6.87421777E-12
   42.9199982       4.97908680E-13
   43.0499992      -5.99258750E-12
   43.1800003      -1.25857840E-11
   43.3100014      -1.92712495E-11
   43.4399986      -2.60397728E-11
   43.5699997      -3.28833384E-11
   43.7000008      -3.97950388E-11
   43.8300018      -4.67688423E-11
   43.9599991      -5.37992775E-11
   44.0900002      -6.08810224E-11
   44.2200012      -6.80085085E-11
   44.3499985      -7.51754839E-11
   44.4799995      -8.23746765E-11
   44.6100006      -8.95974198E-11
   44.7400017      -9.68335134E-11
   44.8699989      -1.04071106E-10
   45.0000000      -1.11296784E-10
   45.1300011      -1.18495727E-10
   45.2599983      -1.25651961E-10
   45.3899994      -1.32748826E-10
   45.5200005      -1.39769349E-10
   45.6500015      -1.46696710E-10
   45.7799988      -1.53514729E-10
   45.9099998      -1.60208222E-10
   46.0400009      -1.66763298E-10
   46.1699982      -1.73167550E-10
   46.2999992      -1.79410112E-10
   46.4300003      -1.85481616E-10
   46.5600014      -1.91373861E-10
   46.6899986      -1.97079672E-10
   46.8199997      -2.02592318E-10
   46.9500008      -2.07905110E-10
   47.0800018      -2.13011012E-10
   47.2099991      -2.17902085E-10
   47.3400002      -2.22569171E-10
   47.4700012      -2.27001640E-10
   47.5999985      -2.31187278E-10
   47.7299995      -2.35112263E-10
   47.8600006      -2.38761316E-10
   47.9900017      -2.42118131E-10
   48.1199989      -2.45165638E-10
   48.2500000      -2.47886600E-10
   48.3800011      -2.50264059E-10
   48.5099983      -2.52282112E-10
   48.6399994      -2.53926102E-10
   48.7700005      -2.55183319E-10
   48.9000015      -2.56043048E-10
   49.0299988      -2.56496990E-10
   49.1599998      -2.56539096E-10
   49.2900009      -2.56165422E-10
   49.4199982      -2.55373889E-10
   49.5499992      -2.54163912E-10
   49.6800003      -2.52535853E-10
   49.8100014      -2.50490545E-10
   49.9399986      -2.48028764E-10
   50.0699997      -2.45150900E-10
   50.2000008      -2.41856396E-10
   50.3300018      -2.38143782E-10
   50.4599991      -2.34010339E-10
   50.5900002      -2.29452471E-10
   50.7200012      -2.24465696E-10
   50.8499985      -2.19045254E-10
   50.9799995      -2.13186413E-10
   51.1100006      -2.06885134E-10
   51.2400017      -2.00138642E-10
   51.3699989      -1.92945909E-10
   51.5000000      -1.85308116E-10
   51.6300011      -1.77229079E-10
   51.7599983      -1.68715389E-10
   51.8899994      -1.59776456E-10
   52.0200005      -1.50424409E-10
   52.1500015      -1.40673653E-10
   52.2799988      -1.30540592E-10
   52.4099998      -1.20042962E-10
   52.5400009      -1.09199171E-10
   52.6699982      -9.80277734E-11
   52.7999992      -8.65467420E-11
   52.9300003      -7.47730697E-11
   53.0600014      -6.27222024E-11
   53.1899986      -5.04080458E-11
   53.3199997      -3.78426492E-11
   53.4500008      -2.50364902E-11
   53.5800018      -1.19987761E-11
   53.7099991       1.26216659E-12
   53.8400002       1.47382315E-11
   53.9700012       2.84209895E-11
   54.0999985       4.23009475E-11
   54.2299995       5.63669632E-11
   54.3600006       7.06057574E-11
   54.4900017       8.50014711E-11
   54.6199989       9.95355603E-11
   54.7500000       1.14186688E-10
   54.8800011       1.28930977E-10
   55.0099983       1.43742421E-10
   55.1399994       1.58593347E-10
   55.2700005       1.73455236E-10
   55.4000015       1.88299418E-10
   55.5299988       2.03097789E-10
   55.6599998       2.17823551E-10
   55.7900009       2.32451877E-10
   55.9199982       2.46960341E-10
   56.0499992       2.61329236E-10
   56.1800003       2.75541534E-10
   56.3100014       2.89582830E-10
   56.4399986       3.03440884E-10
   56.5699997       3.17105203E-10
   56.7000008       3.30566297E-10
   56.8300018       3.43814893E-10
   56.9599991       3.56841390E-10
   57.0900002       3.69634989E-10
   57.2200012       3.82183257E-10
   57.3499985       3.94471622E-10
   57.4799995       4.06483291E-10
   57.6100006       4.18199309E-10
   57.7400017       4.29598801E-10
   57.8699989       4.40659315E-10
   58.0000000       4.51357896E-10
   58.1300011       4.61671423E-10
   58.2599983       4.71577721E-10
   58.3899994       4.81056361E-10
   58.5200005       4.90089358E-10
   58.6500015       4.98661890E-10
   58.7799988       5.06762465E-10
   58.9099998       5.14383536E-10
   59.0400009       5.21520938E-10
   59.1699982       5.28173894E-10
   59.2999992       5.34344125E-10
   59.4300003       5.40035516E-10
   59.5600014       5.45252898E-10
   59.6899986       5.50001322E-10
   59.8199997       5.54285062E-10
   59.9500008       5.58106950E-10
   60.0800018       5.61467706E-10
   60.2099991       5.64365277E-10
   60.3400002       5.66795388E-10
   60.4700012       5.68750824E-10
   60.5999985       5.70222813E-10
   60.7299995       5.71200753E-10
   60.8600006       5.71673819E-10
   60.9900017       5.71631520E-10
   61.1199989       5.71064640E-10
   61.2500000       5.69966629E-10
   61.3800011       5.68333880E-10
   61.5099983       5.66166836E-10
   61.6399994       5.63470048E-10
   61.7700005       5.60252456E-10
   61.9000015       5.56526991E-10
   62.0299988       5.52310420E-10
   62.1599998       5.47622225E-10
   62.2900009       5.42484058E-10
   62.4199982       5.36918343E-10
   62.5499992       5.30947730E-10
   62.6800003       5.24593591E-10
   62.8100014       5.17875853E-10
   62.9399986       5.10811837E-10
   63.0699997       5.03416198E-10
   63.2000008       4.95701091E-10
   63.3300018       4.87676177E-10
   63.4599991       4.79349171E-10
   63.5900002       4.70726791E-10
   63.7200012       4.61815558E-10
   63.8499985       4.52622800E-10
   63.9799995       4.43157622E-10
   64.1100006       4.33431874E-10
   64.2399979       4.23460517E-10
   64.3700027       4.13262563E-10
   64.5000000       4.02860550E-10
   64.6299973       3.92280902E-10
   64.7600021       3.81553344E-10
   64.8899994       3.70709963E-10
   65.0199966       3.59784535E-10
   65.1500015       3.48811202E-10
   65.2799988       3.37823630E-10
   65.4100037       3.26853877E-10
   65.5400009       3.15931420E-10
   65.6699982       3.05082487E-10
   65.8000031       2.94329727E-10
   65.9300003       2.83691987E-10
   66.0599976       2.73184642E-10
   66.1900024       2.62820071E-10
   66.3199997       2.52608129E-10
   66.4499969       2.42557474E-10
   66.5800018       2.32676475E-10
   66.7099991       2.22974153E-10
   66.8399963       2.13461165E-10
   66.9700012       2.04150391E-10
   67.0999985       1.95057789E-10
   67.2300034       1.86202179E-10
   67.3600006       1.77605361E-10
   67.4899979       1.69291817E-10
   67.6200027       1.61287317E-10
   67.7500000       1.53618424E-10
   67.8799973       1.46311185E-10
   68.0100021       1.39389833E-10
   68.1399994       1.32875391E-10
   68.2699966       1.26784833E-10
   68.4000015       1.21129939E-10
   68.5299988       1.15916977E-10
   68.6600037       1.11146217E-10
   68.7900009       1.06811768E-10
   68.9199982       1.02902672E-10
   69.0500031       9.94032148E-11
   69.1800003       9.62941046E-11
   69.3099976       9.35534705E-11
   69.4400024       9.11584350E-11
   69.5699997       8.90861829E-11
   69.6999969       8.73149539E-11
   69.8300018       8.58253191E-11
   69.9599991       8.45999312E-11
   70.0899963       8.36244546E-11
   70.2200012       8.28872179E-11
   70.3499985       8.23785623E-11
   70.4800034       8.20901333E-11
   70.6100006       8.20139026E-11
   70.7399979       8.21406970E-11
   70.8700027       8.24592755E-11
   71.0000000       8.29549554E-11
   71.1299973       8.36087866E-11
   71.2600021       8.43966633E-11
   71.3899994       8.52888524E-11
   71.5199966       8.62501667E-11
   71.6500015       8.72402359E-11
   71.7799988       8.82138945E-11
   71.9100037       8.91223761E-11
   72.0400009       8.99145203E-11
   72.1699982       9.05381048E-11
   72.3000031       9.09407688E-11
   72.4300003       9.10719347E-11
   72.5599976       9.08831344E-11
   72.6900024       9.03292927E-11
   72.8199997       8.93688387E-11
   72.9499969       8.79638237E-11
   73.0800018       8.60793936E-11
   73.2099991       8.36834005E-11
   73.3399963       8.07449038E-11
   73.4700012       7.72338027E-11
   73.5999985       7.31186223E-11
   73.7300034       6.83655285E-11
   73.8600006       6.29374122E-11
   73.9899979       5.67928933E-11
   74.1200027       4.98856269E-11
   74.2500000       4.21642582E-11
   74.3799973       3.35727175E-11
   74.5100021       2.40505827E-11
   74.6399994       1.35343447E-11
   74.7699966       1.95870230E-12
   74.9000015      -1.07417322E-11
   75.0299988      -2.46312068E-11
   75.1600037      -3.97710372E-11
   75.2900009      -5.62181482E-11
   75.4199982      -7.40241687E-11
   75.5500031      -9.32344757E-11
   75.6800003      -1.13888010E-10
   75.8099976      -1.36017336E-10
   75.9400024      -1.59649002E-10
   76.0699997      -1.84804796E-10
   76.1999969      -2.11502552E-10
   76.3300018      -2.39757991E-10
   76.4599991      -2.69585687E-10
   76.5899963      -3.01000863E-10
   76.7200012      -3.34020062E-10
   76.8499985      -3.68662184E-10
   76.9800034      -4.04949296E-10
   77.1100006      -4.42905906E-10
   77.2399979      -4.82558826E-10
   77.3700027      -5.23936394E-10
   77.5000000      -5.67066949E-10
   77.6299973      -6.11977247E-10
   77.7600021      -6.58690935E-10
   77.8899994      -7.07226833E-10
   78.0199966      -7.57596930E-10
   78.1500015      -8.09805667E-10
   78.2799988      -8.63848382E-10
   78.4100037      -9.19711085E-10
   78.5400009      -9.77370407E-10
   78.6699982      -1.03679376E-09
   78.8000031      -1.09794063E-09
   78.9300003      -1.16076315E-09
   79.0599976      -1.22520827E-09
   79.1900024      -1.29121924E-09
   79.3199997      -1.35873646E-09
   79.4499969      -1.42769974E-09
   79.5800018      -1.49804957E-09
   79.7099991      -1.56972713E-09
   79.8399963      -1.64267511E-09
   79.9700012      -1.71683734E-09
   80.0999985      -1.79215853E-09
   80.2300034      -1.86858240E-09
   80.3600006      -1.94605221E-09
   80.4899979      -2.02450590E-09
   80.6200027      -2.10387796E-09
   80.7500000      -2.18409557E-09
   80.8799973      -2.26507857E-09
   81.0100021      -2.34673814E-09
   81.1399994      -2.42897502E-09
   81.2699966      -2.51168197E-09
   81.4000015      -2.59474242E-09
   81.5299988      -2.67803246E-09
   81.6600037      -2.76142109E-09
   81.7900009      -2.84477419E-09
   81.9199982      -2.92795344E-09
   82.0500031      -3.01082137E-09
   82.1800003      -3.09324055E-09
   82.3099976      -3.17507798E-09
   82.4400024      -3.25620331E-09
   82.5699997      -3.33649175E-09
   82.6999969      -3.41582207E-09
   82.8300018      -3.49407925E-09
   82.9599991      -3.57115004E-09
   83.0899963      -3.64692432E-09
   83.2200012      -3.72129194E-09
   83.3499985      -3.79414145E-09
   83.4800034      -3.86535870E-09
   83.6100006      -3.93482402E-09
   83.7399979      -4.00241218E-09
   83.8700027      -4.06799128E-09
   84.0000000      -4.13142320E-09
   84.1299973      -4.19256097E-09
   84.2600021      -4.25125490E-09
   84.3899994      -4.30734914E-09
   84.5199966      -4.36068603E-09
   84.6500015      -4.41110837E-09
   84.7799988      -4.45845894E-09
   84.9100037      -4.50258764E-09
   85.0400009      -4.54334881E-09
   85.1699982      -4.58060478E-09
   85.3000031      -4.61422767E-09
   85.4300003      -4.64409888E-09
   85.5599976      -4.67010830E-09
   85.6900024      -4.69215600E-09
   85.8199997      -4.71014783E-09
   85.9499969      -4.72399764E-09
   86.0800018      -4.73362194E-09
   86.2099991      -4.73893946E-09
   86.3399963      -4.73986939E-09
   86.4700012      -4.73633044E-09
   86.5999985      -4.72823825E-09
   86.7300034      -4.71550621E-09
   86.8600006      -4.69804329E-09