  -1.50000000         5.38769534E-18
  -1.38125002        -2.79698709E-09
  -1.26250005        -1.15418839E-08
  -1.14374995        -3.21020011E-08
  -1.02499998        -7.51546381E-08
 -0.906250000        -1.58278908E-07
 -0.787500024        -3.05712661E-07
 -0.668749988        -5.40819542E-07
 -0.550000012        -8.63269122E-07
 -0.431250006        -1.20121172E-06
 -0.312500000        -1.33114281E-06
 -0.193749994        -7.67548045E-07
  -7.50000030E-02     1.35843629E-06
   4.37499993E-02     6.39058680E-06
  0.162499994         1.61506487E-05
  0.281250000         3.27901871E-05
  0.400000006         5.84462941E-05
  0.518750012         9.46967193E-05
  0.637499988         1.41864628E-04
  0.756250024         1.98276713E-04
  0.875000000         2.59615481E-04
  0.993749976         3.18513485E-04
   1.11249995         3.64514126E-04
   1.23125005         3.84471612E-04
   1.35000002         3.63395113E-04
   1.46875000         2.85670714E-04
   1.58749998         1.36530361E-04
   1.70624995        -9.64079372E-05
   1.82500005        -4.21724952E-04
   1.94375002        -8.43099668E-04
   2.06250000        -1.35867728E-03
   2.18125010        -1.96100329E-03
   2.29999995        -2.63754698E-03
   2.41875005        -3.37176025E-03
   2.53749990        -4.14454751E-03
   2.65625000        -4.93595982E-03
   2.77500010        -5.72690507E-03
   2.89374995        -6.50064973E-03
   3.01250005        -7.24393595E-03
   3.13124990        -7.94756413E-03
   3.25000000        -8.60640127E-03
   3.36875010        -9.21882130E-03
   3.48749995        -9.78569034E-03
   3.60625005        -1.03090694E-02
   3.72499990        -1.07908305E-02
   3.84375000        -1.12314308E-02
   3.96250010        -1.16290282E-02
   4.08125019        -1.19790994E-02
   4.19999981        -1.22746406E-02
   4.31874990        -1.25069395E-02
   4.43750000        -1.26668336E-02
   4.55625010        -1.27462652E-02
   4.67500019        -1.27399405E-02
   4.79374981        -1.26468027E-02
   4.91249990        -1.24711236E-02
   5.03125000        -1.22229820E-02
   5.15000010        -1.19180400E-02
   5.26875019        -1.15765696E-02
   5.38749981        -1.12218298E-02
   5.50624990        -1.08779334E-02
   5.62500000        -1.05674844E-02
   5.74375010        -1.03092548E-02
   5.86250019        -1.01161962E-02
   5.98124981        -9.99406166E-03
   6.09999990        -9.94081516E-03
   6.21875000        -9.94692929E-03
   6.33750010        -9.99655481E-03
   6.45625019        -1.00694345E-02
   6.57499981        -1.01433294E-02
   6.69374990        -1.01966662E-02
   6.81250000        -1.02110868E-02
   6.93125010        -1.01735676E-02
   7.05000019        -1.00778593E-02
   7.16874981        -9.92506463E-03
   7.28749990        -9.72327404E-03
   7.40625000        -9.48633067E-03
   7.52500010        -9.23187565E-03
   7.64375019        -8.97893868E-03
   7.76249981        -8.74539651E-03
   7.88124990        -8.54564086E-03
   8.00000000        -8.38875398E-03
   8.11874962        -8.27745534E-03
   8.23750019        -8.20794795E-03
   8.35624981        -8.17068201E-03
   8.47500038        -8.15194007E-03
   8.59375000        -8.13601632E-03
   8.71249962        -8.10770132E-03
   8.83125019        -8.05470441E-03
   8.94999981        -7.96970353E-03
   9.06875038        -7.85170309E-03
   9.18750000        -7.70651083E-03
   9.30624962        -7.54624326E-03
   9.42500019        -7.38790119E-03
   9.54374981        -7.25118956E-03
   9.66250038        -7.15584401E-03
   9.78125000        -7.11882953E-03
   9.89999962        -7.15175737E-03
   10.0187502        -7.25888275E-03
   10.1374998        -7.43596349E-03
   10.2562504        -7.67014408E-03
   10.3750000        -7.94091355E-03
   10.4937496        -8.22204724E-03
   10.6125002        -8.48430116E-03
   10.7312498        -8.69855098E-03
   10.8500004        -8.83898232E-03
   10.9687500        -8.88595171E-03
   11.0874996        -8.82816128E-03
   11.2062502        -8.66388995E-03
   11.3249998        -8.40111449E-03
   11.4437504        -8.05653352E-03
   11.5625000        -7.65361404E-03
   11.6812496        -7.21990084E-03
   11.8000002        -6.78394549E-03
   11.9187498        -6.37223572E-03
   12.0375004        -6.00649137E-03
   12.1562500        -5.70167368E-03
   12.2749996        -5.46491658E-03
   12.3937502        -5.29551134E-03
   12.5124998        -5.18588861E-03
   12.6312504        -5.12345554E-03
   12.7500000        -5.09300781E-03
   12.8687496        -5.07937605E-03
   12.9875002        -5.06993430E-03
   13.1062498        -5.05662896E-03
   13.2250004        -5.03724534E-03
   13.3437500        -5.01574250E-03
   13.4624996        -5.00161527E-03
   13.5812502        -5.00836177E-03
   13.6999998        -5.05128177E-03
   13.8187504        -5.14489412E-03
   13.9375000        -5.30033605E-03
   14.0562496        -5.52310143E-03
   14.1750002        -5.81143145E-03
   14.2937498        -6.15559798E-03
   14.4125004        -6.53818622E-03
   14.5312500        -6.93537947E-03
   14.6499996        -7.31908623E-03
   14.7687502        -7.65967695E-03
   14.8874998        -7.92898517E-03
   15.0062504        -8.10321700E-03
   15.1250000        -8.16541631E-03
   15.2437496        -8.10718909E-03
   15.3625002        -7.92947598E-03
   15.4812498        -7.64232129E-03
   15.6000004        -7.26364460E-03
   15.7187500        -6.81721978E-03
   15.8374996        -6.33010408E-03
   15.9562502        -5.82984788E-03
   16.0750008        -5.34183485E-03
   16.1937504        -4.88705421E-03
   16.3125000        -4.48057009E-03
   16.4312496        -4.13083099E-03
   16.5499992        -3.83985927E-03
   16.6687508        -3.60424188E-03
   16.7875004        -3.41674685E-03
   16.9062500        -3.26830545E-03
   17.0249996        -3.15006566E-03
   17.1437492        -3.05522513E-03
   17.2625008        -2.98038241E-03
   17.3812504        -2.92623485E-03
   17.5000000        -2.89752986E-03
   17.6187496        -2.90229847E-03
   17.7374992        -2.95049138E-03
   17.8562508        -3.05222673E-03
   17.9750004        -3.21590877E-03
   18.0937500        -3.44649423E-03
   18.2124996        -3.74415959E-03
   18.3312492        -4.10356512E-03
   18.4500008        -4.51383181E-03
   18.5687504        -4.95924242E-03
   18.6875000        -5.42058330E-03
   18.8062496        -5.87696023E-03
   18.9249992        -6.30785292E-03
   19.0437508        -6.69515086E-03
   19.1625004        -7.02491589E-03
   19.2812500        -7.28865014E-03
   19.3999996        -7.48393778E-03
   19.5187492        -7.61437276E-03
   19.6375008        -7.68882595E-03
   19.7562504        -7.72014726E-03
   19.8750000        -7.72349210E-03
   19.9937496        -7.71449925E-03
   20.1124992        -7.70754367E-03
   20.2312508        -7.71429623E-03
   20.3500004        -7.74274347E-03
   20.4687500        -7.79677043E-03
   20.5874996        -7.87631609E-03
   20.7062492        -7.97804166E-03
   20.8250008        -8.09637271E-03
   20.9437504        -8.22473038E-03
   21.0625000        -8.35676305E-03
   21.1812496        -8.48736893E-03
   21.2999992        -8.61338247E-03
   21.4187508        -8.73381644E-03
   21.5375004        -8.84964690E-03
   21.6562500        -8.96319281E-03
   21.7749996        -9.07721743E-03
   21.8937492        -9.19389073E-03
   22.0125008        -9.31380969E-03
   22.1312504        -9.43524111E-03
   22.2500000        -9.55371652E-03
   22.3687496        -9.66207404E-03
   22.4874992        -9.75095108E-03
   22.6062508        -9.80968215E-03
   22.7250004        -9.82748158E-03
   22.8437500        -9.79475491E-03
   22.9624996        -9.70434863E-03
   23.0812492        -9.55257379E-03
   23.2000008        -9.33983084E-03
   23.3187504        -9.07076616E-03
   23.4375000        -8.75390414E-03
   23.5562496        -8.40081740E-03
   23.6749992        -8.02493189E-03
   23.7937508        -7.64013408E-03
   23.9125004        -7.25936936E-03
   24.0312500        -6.89341780E-03
   24.1499996        -6.55001635E-03
   24.2687492        -6.23343978E-03
   24.3875008        -5.94458170E-03
   24.5062504        -5.68151474E-03
   24.6250000        -5.44042839E-03
   24.7437496        -5.21678943E-03
   24.8624992        -5.00654615E-03
   24.9812508        -4.80717560E-03
   25.1000004        -4.61841654E-03
   25.2187500        -4.44255723E-03
   25.3374996        -4.28422913E-03
   25.4562492        -4.14973078E-03
   25.5750008        -4.04596841E-03
   25.6937504        -3.97917908E-03
   25.8125000        -3.95363010E-03
   25.9312496        -3.97049915E-03
   26.0499992        -4.02713101E-03
   26.1687508        -4.11681645E-03
   26.2875004        -4.22915258E-03
   26.4062500        -4.35099425E-03
   26.5249996        -4.46788920E-03
   26.6437492        -4.56582615E-03
   26.7625008        -4.63308068E-03
   26.8812504        -4.66190837E-03
   27.0000000        -4.64984216E-03
   27.1187496        -4.60040942E-03
   27.2374992        -4.52313758E-03
   27.3562508        -4.43281699E-03
   27.4750004        -4.34809178E-03
   27.5937500        -4.28952463E-03
   27.7124996        -4.27737413E-03
   27.8312492        -4.32934845E-03
   27.9500008        -4.45862114E-03
   28.0687504        -4.67235874E-03
   28.1875000        -4.97094309E-03
   28.3062496        -5.34799695E-03
   28.4249992        -5.79119986E-03
   28.5437508        -6.28378615E-03
   28.6625004        -6.80653099E-03
   28.7812500        -7.33995857E-03
   28.8999996        -7.86647387E-03
   29.0187492        -8.37214291E-03
   29.1375008        -8.84787925E-03
   29.2562504        -9.28988401E-03
   29.3750000        -9.69929155E-03
   29.4937496        -1.00810630E-02
   29.6124992        -1.04423156E-02
   29.7312508        -1.07903033E-02
   29.8500004        -1.11303665E-02
   29.9687500        -1.14641422E-02
   30.0874996        -1.17883245E-02
   30.2062492        -1.20941615E-02
   30.3250008        -1.23678138E-02
   30.4437504        -1.25915585E-02
   30.5625000        -1.27457026E-02
   30.6812496        -1.28109958E-02
   30.7999992        -1.27712218E-02
   30.9187508        -1.26156285E-02
   31.0375004        -1.23408800E-02
   31.1562500        -1.19522428E-02
   31.2749996        -1.14638275E-02
   31.3937492        -1.08978134E-02
   31.5125008        -1.02827260E-02
   31.6312504        -9.65094753E-03
   31.7500000        -9.03573632E-03
   31.8687496        -8.46812036E-03
   31.9874992        -7.97401462E-03
   32.1062508        -7.57191796E-03
   32.2249985        -7.27145141E-03
   32.3437500        -7.07290741E-03
   32.4625015        -6.96785562E-03
   32.5812492        -6.94070244E-03
   32.7000008        -6.97101140E-03
   32.8187485        -7.03625800E-03
   32.9375000        -7.11468607E-03
   33.0562515        -7.18788151E-03
   33.1749992        -7.24275177E-03
   33.2937508        -7.27266399E-03
   33.4124985        -7.27761304E-03
   33.5312500        -7.26342341E-03
   33.6500015        -7.24012405E-03
   33.7687492        -7.21973088E-03
   33.8875008        -7.21376529E-03
   34.0062485        -7.23087229E-03
   34.1250000        -7.27486983E-03
   34.2437515        -7.34352181E-03
   34.3624992        -7.42821395E-03
   34.4812508        -7.51459971E-03
   34.5999985        -7.58413691E-03
   34.7187500        -7.61633320E-03
   34.8375015        -7.59140495E-03
   34.9562492        -7.49300094E-03
   35.0750008        -7.31063867E-03
   35.1937485        -7.04151299E-03
   35.3125000        -6.69143815E-03
   35.4312515        -6.27476955E-03
   35.5499992        -5.81330247E-03
   35.6687508        -5.33425855E-03
   35.7874985        -4.86759003E-03
   35.9062500        -4.44293907E-03
   36.0250015        -4.08659689E-03
   36.1437492        -3.81885213E-03
   36.2625008        -3.65203107E-03
   36.3812485        -3.58946854E-03
   36.5000000        -3.62551794E-03
   36.6187515        -3.74657963E-03
   36.7374992        -3.93300317E-03
   36.8562508        -4.16160375E-03
   36.9749985        -4.40846803E-03
   37.0937500        -4.65169828E-03
   37.2125015        -4.87374654E-03
   37.3312492        -5.06307324E-03
   37.4500008        -5.21494169E-03
   37.5687485        -5.33128995E-03
   37.6875000        -5.41972602E-03
   37.8062515        -5.49182855E-03
   37.9249992        -5.56099927E-03
   38.0437508        -5.64017426E-03
   38.1624985        -5.73972007E-03
   38.2812500        -5.86578809E-03
   38.4000015        -6.01935387E-03
   38.5187492        -6.19605696E-03
   38.6375008        -6.38685143E-03
   38.7562485        -6.57935953E-03
   38.8750000        -6.75973669E-03
   38.9937515        -6.91476930E-03
   39.1124992        -7.03392038E-03
   39.2312508        -7.11101759E-03
   39.3499985        -7.14536104E-03
   39.4687500        -7.14207999E-03
   39.5875015        -7.11169140E-03
   39.7062492        -7.06891157E-03
   39.8250008        -7.03087309E-03
   39.9437485        -7.01498194E-03
   40.0625000        -7.03669479E-03
   40.1812515        -7.10750185E-03
   40.2999992        -7.23337196E-03
   40.4187508        -7.41386041E-03
   40.5374985        -7.64198415E-03
   40.6562500        -7.90487137E-03
   40.7750015        -8.18509888E-03
   40.8937492        -8.46253987E-03
   41.0125008        -8.71648546E-03
   41.1312485        -8.92777368E-03
   41.2500000        -9.08067916E-03
   41.3687515        -9.16432217E-03
   41.4874992        -9.17346776E-03
   41.6062508        -9.10863839E-03
   41.7249985        -8.97556636E-03
   41.8437500        -8.78409669E-03
   41.9625015        -8.54671653E-03
   42.0812492        -8.27693660E-03
   42.2000008        -7.98773859E-03
   42.3187485        -7.69031188E-03
   42.4375000        -7.39321718E-03
   42.5562515        -7.10207224E-03
   42.6749992        -6.81976182E-03
   42.7937508        -6.54709805E-03
   42.9124985        -6.28379546E-03
   43.0312500        -6.02957513E-03
   43.1500015        -5.78521239E-03
   43.2687492        -5.55333914E-03
   43.3875008        -5.33886440E-03
   43.5062485        -5.14893513E-03
   43.6250000        -4.99243056E-03
   43.7437515        -4.87905229E-03
   43.8624992        -4.81813913E-03
   43.9812508        -4.81738010E-03
   44.0999985        -4.88160690E-03
   44.2187500        -5.01185004E-03
   44.3375015        -5.20480098E-03
   44.4562492        -5.45276748E-03
   44.5750008        -5.74414385E-03
   44.6937485        -6.06434373E-03
   44.8125000        -6.39708247E-03
   44.9312515        -6.72584726E-03
   45.0499992        -7.03537185E-03
   45.1687508        -7.31292600E-03
   45.2874985        -7.54926354E-03
   45.4062500        -7.73912622E-03
   45.5250015        -7.88125210E-03
   45.6437492        -7.97791034E-03
   45.7625008        -8.03407095E-03
   45.8812485        -8.05632118E-03
