  -24.4200001         1.07247747E-17
  -24.2870007         1.07147616E-17
  -24.1539993         1.06954544E-17
  -24.0209999         1.06682079E-17
  -23.8880005         1.06348932E-17
  -23.7549992         1.05977437E-17
  -23.6219997         1.05591590E-17
  -23.4890003         1.05215066E-17
  -23.3560009         1.04869164E-17
  -23.2229996         1.04571098E-17
  -23.0900002         1.04332531E-17
  -22.9570007         1.04158665E-17
  -22.8239994         1.04047923E-17
  -22.6910000         1.03992220E-17
  -22.5580006         1.03977745E-17
  -22.4249992         1.03986322E-17
  -22.2919998         1.03997183E-17
  -22.1590004         1.03988829E-17
  -22.0259991         1.03941092E-17
  -21.8929996         1.03836991E-17
  -21.7600002         1.03664351E-17
  -21.6270008         1.03416924E-17
  -21.4939995         1.03095060E-17
  -21.3610001         1.02705723E-17
  -21.2280006         1.02261949E-17
  -21.0949993         1.01781762E-17
  -20.9619999         1.01286628E-17
  -20.8290005         1.00799601E-17
  -20.6959991         1.00343320E-17
  -20.5629997         9.99380591E-18
  -20.4300003         9.95999407E-18
  -20.2970009         9.93395195E-18
  -20.1639996         9.91608650E-18
  -20.0310001         9.90611897E-18
  -19.8980007         9.90310804E-18
  -19.7649994         9.90552837E-18
  -19.6320000         9.91140631E-18
  -19.4990005         9.91848863E-18
  -19.3659992         9.92443689E-18
  -19.2329998         9.92703093E-18
  -19.1000004         9.92436244E-18
  -18.9669991         9.91499793E-18
  -18.8339996         9.89810359E-18
  -18.7010002         9.87351317E-18
  -18.5680008         9.84174612E-18
  -18.4349995         9.80395224E-18
  -18.3020000         9.76181566E-18
  -18.1690006         9.71739772E-18
  -18.0359993         9.67296157E-18
  -17.9029999         9.63076709E-18
  -17.7700005         9.59287395E-18
  -17.6369991         9.56096132E-18
  -17.5039997         9.53617568E-18
  -17.3710003         9.51903650E-18
  -17.2380009         9.50938578E-18
  -17.1049995         9.50640710E-18
  -16.9720001         9.50869674E-18
  -16.8390007         9.51438774E-18
  -16.7059994         9.52131538E-18
  -16.5730000         9.52721318E-18
  -16.4400005         9.52990648E-18
  -16.3069992         9.52751427E-18
  -16.1739998         9.51860967E-18
  -16.0410004         9.50235309E-18
  -15.9080000         9.47856172E-18
  -15.7749996         9.44773270E-18
  -15.6420002         9.41099761E-18
  -15.5089998         9.37002901E-18
  -15.3760004         9.32689485E-18
  -15.2430000         9.28388311E-18
  -15.1099997         9.24330411E-18
  -14.9770002         9.20728701E-18
  -14.8439999         9.17759040E-18
  -14.7110004         9.15543520E-18
  -14.5780001         9.14139463E-18
  -14.4449997         9.13533057E-18
  -14.3120003         9.13641501E-18
  -14.1789999         9.14322270E-18
  -14.0459995         9.15388506E-18
  -13.9130001         9.16628863E-18
  -13.7799997         9.17827779E-18
  -13.6470003         9.18782263E-18
  -13.5139999         9.19313478E-18
  -13.3809996         9.19272864E-18
  -13.2480001         9.18544200E-18
  -13.1149998         9.17047417E-18
  -12.9820004         9.14747689E-18
  -12.8490000         9.11672066E-18
  -12.7159996         9.07930646E-18
  -12.5830002         9.03733779E-18
  -12.4499998         8.99393645E-18
  -12.3170004         8.95298936E-18
  -12.1840000         8.91856045E-18
  -12.0509996         8.89405191E-18
  -11.9180002         8.88125957E-18
  -11.7849998         8.87963250E-18
  -11.6520004         8.88600014E-18
  -11.5190001         8.89498746E-18
  -11.3859997         8.90012756E-18
  -11.2530003         8.89545978E-18
  -11.1199999         8.87719563E-18
  -10.9870005         8.84497281E-18
  -10.8540001         8.80224479E-18
  -10.7209997         8.75562903E-18
  -10.5880003         8.71332949E-18
  -10.4549999         8.68303152E-18
  -10.3219995         8.66987356E-18
  -10.1890001         8.67503020E-18
  -10.0559998         8.69522334E-18
  -9.92300034         8.72313655E-18
  -9.78999996         8.74837879E-18
  -9.65699959         8.75849935E-18
  -9.52400017         8.73965452E-18
  -9.39099979         8.67685496E-18
  -9.25800037         8.55420311E-18
  -9.12500000         8.35586505E-18
  -8.99199963         8.06866711E-18
  -8.85900021         7.68683806E-18
  -8.72599983         7.21873159E-18
  -8.59300041         6.69432844E-18
  -8.46000004         6.17138196E-18
  -8.32699966         5.73740662E-18
  -8.19400024         5.50474884E-18
  -8.06099987         5.59679791E-18
  -7.92799997         6.12502139E-18
  -7.79500008         7.15874279E-18
  -7.66200018         8.69199072E-18
  -7.52899981         1.06138837E-17
  -7.39599991         1.26902906E-17
  -7.26300001         1.45644536E-17
  -7.13000011         1.57826061E-17
  -6.99700022         1.58472139E-17
  -6.86399984         1.42956431E-17
  -6.73099995         1.07964325E-17
  -6.59800005         5.24988829E-18
  -6.46500015        -2.12465580E-18
  -6.33199978        -1.07341309E-17
  -6.19899988        -1.96075141E-17
  -6.06599998        -2.74546043E-17
  -5.93300009        -3.27917688E-17
  -5.80000019        -3.41276953E-17
  -5.66699982        -3.01906299E-17
  -5.53399992        -2.01686734E-17
  -5.40100002        -3.92785804E-18
  -5.26800013         1.78284520E-17
  -5.13500023         4.34909762E-17
  -5.00199986         7.05892443E-17
  -4.86899996         9.59579340E-17
  -4.73600006         1.16016237E-16
  -4.60300016         1.27135926E-16
  -4.46999979         1.26059705E-16
  -4.33699989         1.10322594E-16
  -4.20400000         7.86262502E-17
  -4.07100010         3.11200302E-17
  -3.93799996        -3.04483728E-17
  -3.80500007        -1.02734303E-16
  -3.67199993        -1.80954732E-16
  -3.53900003        -2.59192373E-16
  -3.40599990        -3.30818167E-16
  -3.27300000        -3.88994534E-16
  -3.14000010        -4.27216737E-16
  -3.00699997        -4.39852113E-16
  -2.87400007        -4.22642044E-16
  -2.74099994        -3.73136807E-16
  -2.60800004        -2.91052564E-16
  -2.47499990        -1.78539815E-16
  -2.34200001        -4.03628074E-17
  -2.20900011         1.16010254E-16
  -2.07599998         2.80408960E-16
  -1.94299996         4.40059662E-16
  -1.80999994         5.79797441E-16
  -1.67700005         6.82408812E-16
  -1.54400003         7.29122149E-16
  -1.41100001         7.00267496E-16
  -1.27800000         5.76102842E-16
  -1.14499998         3.37818286E-16
  -1.01199996        -3.13248103E-17
 -0.879000008        -5.44752035E-16
 -0.745999992        -1.21131080E-15
 -0.612999976        -2.03405243E-15
 -0.479999989        -3.00916544E-15
 -0.347000003        -4.12517836E-15
 -0.214000002        -5.36250249E-15
  -8.10000002E-02    -6.69345467E-15
   5.20000011E-02    -8.08275430E-15
  0.185000002        -9.48857742E-15
  0.317999989        -1.08641691E-14
  0.451000005        -1.21598779E-14
  0.583999991        -1.33256409E-14
  0.717000008        -1.43136811E-14
  0.850000024        -1.50813505E-14
  0.982999980        -1.55938867E-14
   1.11600006        -1.58269478E-14
   1.24899995        -1.57687347E-14
   1.38199997        -1.54215782E-14
   1.51499999        -1.48028562E-14
   1.64800000        -1.39451456E-14
   1.78100002        -1.28956175E-14
   1.91400003        -1.17146122E-14
   2.04699993        -1.04735048E-14
   2.18000007        -9.25191811E-15
   2.31299996        -8.13446905E-15
   2.44600010        -7.20715686E-15
   2.57900000        -6.55364511E-15
   2.71199989        -6.25158765E-15
   2.84500003        -6.36928415E-15
   2.97799993        -6.96275143E-15
   3.11100006        -8.07342847E-15
   3.24399996        -9.72663688E-15
   3.37700009        -1.19308089E-14
   3.50999999        -1.46775478E-14
   3.64299989        -1.79424245E-14
   3.77600002        -2.16864609E-14
   3.90899992        -2.58580829E-14
   4.04199982        -3.03954961E-14
   4.17500019        -3.52292387E-14
   4.30800009        -4.02847853E-14
   4.44099998        -4.54851339E-14
   4.57399988        -5.07533062E-14
   4.70699978        -5.60146818E-14
   4.84000015        -6.11993298E-14
   4.97300005        -6.62442106E-14
   5.10599995        -7.10955342E-14
   5.23899984        -7.57110778E-14
   5.37200022        -8.00626655E-14
   5.50500011        -8.41385609E-14
   5.63800001        -8.79457233E-14
   5.77099991        -9.15116168E-14
   5.90399981        -9.48854507E-14
   6.03700018        -9.81383689E-14
   6.17000008        -1.01362264E-13
   6.30299997        -1.04667163E-13
   6.43599987        -1.08176861E-13
   6.56899977        -1.12022845E-13
   6.70200014        -1.16336750E-13
   6.83500004        -1.21241789E-13
   6.96799994        -1.26843550E-13
   7.10099983        -1.33221139E-13
   7.23400021        -1.40419374E-13
   7.36700010        -1.48443012E-13
   7.50000000        -1.57253794E-13
   7.63299990        -1.66770813E-13
   7.76599979        -1.76875130E-13
   7.89900017        -1.87418020E-13
   8.03199959        -1.98233330E-13
   8.16499996        -2.09152479E-13
   8.29800034        -2.20021836E-13
   8.43099976        -2.30720499E-13
   8.56400013        -2.41177223E-13
   8.69699955        -2.51384905E-13
   8.82999992        -2.61410956E-13
   8.96300030        -2.71402313E-13
   9.09599972        -2.81584407E-13
   9.22900009        -2.92253580E-13
   9.36200047        -3.03763687E-13
   9.49499989        -3.16506587E-13
   9.62800026        -3.30889965E-13
   9.76099968        -3.47311779E-13
   9.89400005        -3.66135778E-13
   10.0270004        -3.87668792E-13
   10.1599998        -4.12141892E-13
   10.2930002        -4.39697513E-13
   10.4259996        -4.70383335E-13
   10.5590000        -5.04153739E-13
   10.6920004        -5.40877889E-13
   10.8249998        -5.80354341E-13
   10.9580002        -6.22330746E-13
   11.0909996        -6.66526242E-13
   11.2240000        -7.12654816E-13
   11.3570004        -7.60447911E-13
   11.4899998        -8.09673346E-13
   11.6230001        -8.60149625E-13
   11.7559996        -9.11754396E-13
   11.8889999        -9.64426130E-13
   12.0220003        -1.01815908E-12
   12.1549997        -1.07299402E-12
   12.2880001        -1.12900227E-12
   12.4209995        -1.18626875E-12
   12.5539999        -1.24487259E-12
   12.6870003        -1.30487017E-12
   12.8199997        -1.36627949E-12
   12.9530001        -1.42907030E-12
   13.0860004        -1.49315792E-12
   13.2189999        -1.55840477E-12
   13.3520002        -1.62462676E-12
   13.4849997        -1.69160454E-12
   13.6180000        -1.75910079E-12
   13.7510004        -1.82687806E-12
   13.8839998        -1.89471941E-12
   14.0170002        -1.96244735E-12
   14.1499996        -2.02994024E-12
   14.2830000        -2.09714429E-12
   14.4160004        -2.16408206E-12
   14.5489998        -2.23085266E-12
   14.6820002        -2.29762802E-12
   14.8149996        -2.36464364E-12
   14.9480000        -2.43218184E-12
   15.0810003        -2.50055705E-12
   15.2139997        -2.57009496E-12
   15.3470001        -2.64111302E-12
   15.4799995        -2.71390462E-12
   15.6129999        -2.78872455E-12
   15.7460003        -2.86578118E-12
   15.8789997        -2.94523238E-12
   16.0119991        -3.02718874E-12
   16.1450005        -3.11172377E-12
   16.2779999        -3.19888582E-12
   16.4109993        -3.28871891E-12
   16.5440006        -3.38128223E-12
   16.6770000        -3.47667077E-12
   16.8099995        -3.57503849E-12
   16.9430008        -3.67661327E-12
   17.0760002        -3.78170975E-12
   17.2089996        -3.89073712E-12
   17.3419991        -4.00419498E-12
   17.4750004        -4.12266749E-12
   17.6079998        -4.24680343E-12
   17.7409992        -4.37729453E-12
   17.8740005        -4.51484466E-12
   18.0070000        -4.66013599E-12
   18.1399994        -4.81379129E-12
   18.2730007        -4.97633748E-12
   18.4060001        -5.14816792E-12
   18.5389996        -5.32951591E-12
   18.6720009        -5.52042526E-12
   18.8050003        -5.72073465E-12
   18.9379997        -5.93007197E-12
   19.0709991        -6.14785349E-12
   19.2040005        -6.37329729E-12
   19.3369999        -6.60544579E-12
   19.4699993        -6.84319355E-12
   19.6030006        -7.08532625E-12
   19.7360001        -7.33055890E-12
   19.8689995        -7.57757659E-12
   20.0020008        -7.82507652E-12
   20.1350002        -8.07180364E-12
   20.2679996        -8.31657833E-12
   20.4009991        -8.55831898E-12
   20.5340004        -8.79605243E-12
   20.6669998        -9.02891997E-12
   20.7999992        -9.25616441E-12
   20.9330006        -9.47711961E-12
   21.0660000        -9.69119056E-12
   21.1989994        -9.89782735E-12
   21.3320007        -1.00965052E-11
   21.4650002        -1.02867055E-11
   21.5979996        -1.04679009E-11
   21.7310009        -1.06395517E-11
   21.8640003        -1.08011117E-11
   21.9969997        -1.09520448E-11
   22.1299992        -1.10918497E-11
   22.2630005        -1.12200934E-11
   22.3959999        -1.13364517E-11
   22.5289993        -1.14407529E-11
   22.6620007        -1.15330141E-11
   22.7950001        -1.16134793E-11
   22.9279995        -1.16826375E-11
   23.0610008        -1.17412373E-11
   23.1940002        -1.17902797E-11
   23.3269997        -1.18309937E-11
   23.4599991        -1.18647982E-11
   23.5930004        -1.18932459E-11
   23.7259998        -1.19179605E-11
   23.8589993        -1.19405623E-11
   23.9920006        -1.19625967E-11
   24.1250000        -1.19854595E-11
   24.2579994        -1.20103450E-11
   24.3910007        -1.20381994E-11
   24.5240002        -1.20696916E-11
   24.6569996        -1.21052092E-11
   24.7900009        -1.21448763E-11
   24.9230003        -1.21885783E-11
   25.0559998        -1.22360143E-11
   25.1889992        -1.22867523E-11
   25.3220005        -1.23402929E-11
   25.4549999        -1.23961215E-11
   25.5879993        -1.24537576E-11
   25.7210007        -1.25127894E-11
   25.8540001        -1.25728898E-11
   25.9869995        -1.26338063E-11
   26.1200008        -1.26953387E-11
   26.2530003        -1.27572874E-11
   26.3859997        -1.28194001E-11
   26.5189991        -1.28813011E-11
   26.6520004        -1.29424171E-11
   26.7849998        -1.30019146E-11
   26.9179993        -1.30586496E-11
   27.0510006        -1.31111311E-11
   27.1840000        -1.31575167E-11
   27.3169994        -1.31956251E-11
   27.4500008        -1.32229791E-11
   27.5830002        -1.32368829E-11
   27.7159996        -1.32345098E-11
   27.8490009        -1.32129993E-11
   27.9820004        -1.31695843E-11
   28.1149998        -1.31016881E-11
   28.2479992        -1.30070312E-11
   28.3810005        -1.28837149E-11
   28.5139999        -1.27302786E-11
   28.6469994        -1.25457388E-11
   28.7800007        -1.23295818E-11
   28.9130001        -1.20817453E-11
   29.0459995        -1.18025685E-11
   29.1790009        -1.14927165E-11
   29.3120003        -1.11531053E-11
   29.4449997        -1.07848027E-11
   29.5779991        -1.03889553E-11
   29.7110004        -9.96670801E-12
   29.8439999        -9.51915456E-12
   29.9769993        -9.04730370E-12
   30.1100006        -8.55207485E-12
   30.2430000        -8.03432060E-12
   30.3759995        -7.49487018E-12
   30.5090008        -6.93459960E-12
   30.6420002        -6.35450460E-12
   30.7749996        -5.75578907E-12
   30.9080009        -5.13994533E-12
   31.0410004        -4.50881997E-12
   31.1739998        -3.86466466E-12
   31.3069992        -3.21015935E-12
   31.4400005        -2.54840224E-12
   31.5730000        -1.88287211E-12
   31.7059994        -1.21735619E-12
   31.8390007        -5.55850559E-13
   31.9720001         9.75574059E-14
   32.1049995         7.38820192E-13
   32.2379990         1.36406923E-12
   32.3709984         1.96973405E-12
   32.5040016         2.55265600E-12
   32.6370010         3.11016620E-12
   32.7700005         3.64013203E-12
   32.9029999         4.14096708E-12
   33.0359993         4.61159583E-12
   33.1689987         5.05138509E-12
   33.3019981         5.46004127E-12
   33.4350014         5.83747764E-12
   33.5680008         6.18367770E-12
   33.7010002         6.49854736E-12
   33.8339996         6.78177826E-12
   33.9669991         7.03274288E-12
   34.0999985         7.25040340E-12
   34.2330017         7.43328402E-12
   34.3660011         7.57946223E-12
   34.4990005         7.68663865E-12
   34.6320000         7.75220426E-12
   34.7649994         7.77339217E-12
   34.8979988         7.74740948E-12
   35.0309982         7.67159947E-12
   35.1640015         7.54361677E-12
   35.2970009         7.36155581E-12
   35.4300003         7.12407043E-12
   35.5629997         6.83043379E-12
   35.6959991         6.48057953E-12
   35.8289986         6.07506059E-12
   35.9620018         5.61498894E-12
   36.0950012         5.10189330E-12
   36.2280006         4.53759339E-12
   36.3610001         3.92399394E-12
   36.4939995         3.26291793E-12
   36.6269989         2.55592487E-12
   36.7599983         1.80416337E-12
   36.8930016         1.00825435E-12
   37.0260010         1.68208370E-13
   37.1590004        -7.16568298E-13
   37.2919998        -1.64726642E-12
   37.4249992        -2.62556036E-12
   37.5579987        -3.65349244E-12
   37.6910019        -4.73332528E-12
   37.8240013        -5.86734784E-12
   37.9570007        -7.05772376E-12
   38.0900002        -8.30631310E-12
   38.2229996        -9.61454787E-12
   38.3559990        -1.09833757E-11
   38.4889984        -1.24132041E-11
   38.6220016        -1.39039292E-11
   38.7550011        -1.54550123E-11
   38.8880005        -1.70656163E-11
   39.0209999        -1.87347221E-11
   39.1539993        -2.04613236E-11
   39.2869987        -2.22445916E-11
   39.4199982        -2.40839969E-11
   39.5530014        -2.59794478E-11
   39.6860008        -2.79313413E-11
   39.8190002        -2.99405362E-11
   39.9519997        -3.20083231E-11
   40.0849991        -3.41362702E-11
   40.2179985        -3.63260637E-11
   40.3510017        -3.85792752E-11
   40.4840012        -4.08971329E-11
   40.6170006        -4.32802544E-11
   40.7500000        -4.57284037E-11
   40.8829994        -4.82403562E-11
   41.0159988        -5.08137109E-11
   41.1489983        -5.34448354E-11
   41.2820015        -5.61288550E-11
   41.4150009        -5.88597296E-11
   41.5480003        -6.16304022E-11
   41.6809998        -6.44329590E-11
   41.8139992        -6.72588721E-11
   41.9469986        -7.00992112E-11
   42.0800018        -7.29449209E-11
   42.2130013        -7.57869462E-11
   42.3460007        -7.86164606E-11
   42.4790001        -8.14249085E-11
   42.6119995        -8.42040812E-11
   42.7449989        -8.69460476E-11
   42.8779984        -8.96430430E-11
   43.0110016        -9.22873930E-11
   43.1440010        -9.48712428E-11
   43.2770004        -9.73864184E-11
   43.4099998        -9.98242253E-11
   43.5429993        -1.02175324E-10
   43.6759987        -1.04429576E-10
   43.8089981        -1.06576054E-10
   43.9420013        -1.08603050E-10
   44.0750008        -1.10498187E-10
   44.2080002        -1.12248558E-10
   44.3409996        -1.13840985E-10
   44.4739990        -1.15262307E-10
   44.6069984        -1.16499629E-10
   44.7400017        -1.17540602E-10
   44.8730011        -1.18373686E-10
   45.0060005        -1.18988402E-10
   45.1389999        -1.19375398E-10
   45.2719994        -1.19526569E-10
   45.4049988        -1.19435073E-10
   45.5379982        -1.19095178E-10
   45.6710014        -1.18502097E-10
   45.8040009        -1.17651819E-10
   45.9370003        -1.16540819E-10
   46.0699997        -1.15165821E-10
   46.2029991        -1.13523468E-10
   46.3359985        -1.11610166E-10
   46.4690018        -1.09421874E-10
   46.6020012        -1.06953980E-10
   46.7350006        -1.04201328E-10
   46.8680000        -1.01158221E-10
   47.0009995        -9.78185241E-11
   47.1339989        -9.41759656E-11
   47.2669983        -9.02242656E-11
   47.4000015        -8.59574772E-11
   47.5330009        -8.13702786E-11
   47.6660004        -7.64581939E-11
   47.7989998        -7.12178927E-11
   47.9319992        -6.56472168E-11
   48.0649986        -5.97454169E-11
   48.1980019        -5.35130829E-11
   48.3310013        -4.69520742E-11
   48.4640007        -4.00653954E-11
   48.5970001        -3.28569637E-11
   48.7299995        -2.53313273E-11
   48.8629990        -1.74934303E-11
   48.9959984        -9.34829297E-12
   49.1290016        -9.00735107E-13
   49.2620010         7.84479599E-12
   49.3950005         1.68843741E-11
   49.5279999         2.62146901E-11
   49.6609993         3.58329408E-11
   49.7939987         4.57368275E-11
   49.9269981         5.59243069E-11
   50.0600014         6.63932034E-11
   50.1930008         7.71411129E-11
   50.3260002         8.81649476E-11
   50.4589996         9.94605440E-11
   50.5919991         1.11022518E-10
   50.7249985         1.22843916E-10
   50.8580017         1.34916064E-10
   50.9910011         1.47228438E-10
   51.1240005         1.59768851E-10
   51.2570000         1.72523315E-10
   51.3899994         1.85476454E-10
   51.5229988         1.98611586E-10
   51.6559982         2.11911114E-10
   51.7890015         2.25356817E-10
   51.9220009         2.38930209E-10
   52.0550003         2.52612542E-10
   52.1879997         2.66385330E-10
   52.3209991         2.80230172E-10
   52.4539986         2.94128888E-10
   52.5870018         3.08063408E-10
   52.7200012         3.22015414E-10
   52.8530006         3.35966310E-10
   52.9860001         3.49896750E-10
   53.1189995         3.63786251E-10
   53.2519989         3.77612969E-10
   53.3849983         3.91353477E-10
   53.5180016         4.04982547E-10
   53.6510010         4.18472978E-10
   53.7840004         4.31795766E-10
   53.9169998         4.44920295E-10
   54.0499992         4.57814620E-10
   54.1829987         4.70445904E-10
   54.3160019         4.82780704E-10
   54.4490013         4.94785823E-10
   54.5820007         5.06428621E-10
   54.7150002         5.17677401E-10
   54.8479996         5.28502020E-10
   54.9809990         5.38873723E-10
   55.1139984         5.48765533E-10
   55.2470016         5.58152191E-10
   55.3800011         5.67009550E-10
   55.5130005         5.75314796E-10
   55.6459999         5.83045612E-10
   55.7789993         5.90179960E-10
   55.9119987         5.96695193E-10
   56.0449982         6.02568162E-10
   56.1780014         6.07774553E-10
   56.3110008         6.12288775E-10
   56.4440002         6.16083906E-10
   56.5769997         6.19132023E-10
   56.7099991         6.21404206E-10
   56.8429985         6.22871588E-10
   56.9760017         6.23505192E-10
   57.1090012         6.23277152E-10
   57.2420006         6.22161322E-10
   57.3750000         6.20133833E-10
   57.5079994         6.17173479E-10
   57.6409988         6.13262274E-10
   57.7739983         6.08385453E-10
   57.9070015         6.02531580E-10
   58.0400009         5.95692329E-10
   58.1730003         5.87861815E-10
   58.3059998         5.79036430E-10
   58.4389992         5.69213510E-10
   58.5719986         5.58391278E-10
   58.7050018         5.46567513E-10
   58.8380013         5.33739275E-10
   58.9710007         5.19902232E-10
   59.1040001         5.05050612E-10
   59.2369995         4.89176477E-10
   59.3699989         4.72270723E-10
   59.5029984         4.54322663E-10
   59.6360016         4.35320974E-10
   59.7690010         4.15254497E-10
   59.9020004         3.94112631E-10
   60.0349998         3.71886577E-10
   60.1679993         3.48569756E-10
   60.3009987         3.24158839E-10
   60.4339981         2.98654046E-10
   60.5670013         2.72059458E-10
   60.7000008         2.44383291E-10
   60.8330002         2.15637411E-10
   60.9659996         1.85837429E-10
   61.0989990         1.55001997E-10
   61.2319984         1.23152016E-10
   61.3650017         9.03101829E-11
   61.4980011         5.65002489E-11
   61.6310005         2.17464449E-11
   61.7639999        -1.39271554E-11
   61.8969994        -5.04966381E-11
   62.0299988        -8.79386494E-11
   62.1629982        -1.26229874E-10
   62.2960014        -1.65347097E-10
   62.4290009        -2.05266332E-10
   62.5620003        -2.45962473E-10
   62.6949997        -2.87408347E-10
   62.8279991        -3.29574062E-10
   62.9609985        -3.72426284E-10
   63.0940018        -4.15927515E-10
   63.2270012        -4.60036176E-10
   63.3600006        -5.04705944E-10
   63.4930000        -5.49885970E-10
   63.6259995        -5.95521132E-10
   63.7589989        -6.41552478E-10
   63.8919983        -6.87918278E-10
   64.0250015        -7.34554029E-10
   64.1579971        -7.81394061E-10
   64.2910004        -8.28371982E-10
   64.4240036        -8.75421402E-10
   64.5569992        -9.22476928E-10
   64.6900024        -9.69474168E-10
   64.8229980        -1.01635045E-09
   64.9560013        -1.06304454E-09
   65.0889969        -1.10949661E-09
   65.2220001        -1.15564758E-09
   65.3550034        -1.20143928E-09
   65.4879990        -1.24681299E-09
   65.6210022        -1.29170963E-09
   65.7539978        -1.33606826E-09
   65.8870010        -1.37982670E-09
   66.0199966        -1.42292012E-09
   66.1529999        -1.46528145E-09
   66.2860031        -1.50684143E-09
   66.4189987        -1.54752899E-09
   66.5520020        -1.58727087E-09
   66.6849976        -1.62599356E-09
   66.8180008        -1.66362313E-09
   66.9509964        -1.70008640E-09
   67.0839996        -1.73531145E-09
   67.2170029        -1.76922865E-09
   67.3499985        -1.80177073E-09
   67.4830017        -1.83287385E-09
   67.6159973        -1.86247662E-09
   67.7490005        -1.89052107E-09
   67.8820038        -1.91695149E-09
   68.0149994        -1.94171479E-09
   68.1480026        -1.96475836E-09
   68.2809982        -1.98603134E-09
   68.4140015        -2.00548156E-09
   68.5469971        -2.02305683E-09
   68.6800003        -2.03870232E-09
   68.8130035        -2.05236272E-09
   68.9459991        -2.06397965E-09
   69.0790024        -2.07349338E-09
   69.2119980        -2.08084261E-09
   69.3450012        -2.08596518E-09
   69.4779968        -2.08879891E-09
   69.6110001        -2.08928252E-09
   69.7440033        -2.08735651E-09
   69.8769989        -2.08296402E-09
   70.0100021        -2.07605289E-09
   70.1429977        -2.06657447E-09
   70.2760010        -2.05448503E-09
   70.4089966        -2.03974615E-09
   70.5419998        -2.02232453E-09
   70.6750031        -2.00219152E-09
   70.8079987        -1.97932226E-09
   70.9410019        -1.95369587E-09
   71.0739975        -1.92529392E-09
   71.2070007        -1.89409977E-09
   71.3399963        -1.86009841E-09
   71.4729996        -1.82327498E-09
   71.6060028        -1.78361492E-09
   71.7389984        -1.74110371E-09
   71.8720016        -1.69572734E-09
   72.0049973        -1.64747183E-09
   72.1380005        -1.59632496E-09
   72.2710037        -1.54227686E-09
   72.4039993        -1.48531976E-09
   72.5370026        -1.42545076E-09
   72.6699982        -1.36267142E-09
   72.8030014        -1.29698940E-09
   72.9359970        -1.22841881E-09
   73.0690002        -1.15698051E-09
   73.2020035        -1.08270282E-09
   73.3349991        -1.00562070E-09
   73.4680023        -9.25775789E-10
   73.6009979        -8.43215553E-10
   73.7340012        -7.57993168E-10
   73.8669968        -6.70165923E-10
   74.0000000        -5.79794268E-10
   74.1330032        -4.86941765E-10
   74.2659988        -3.91673416E-10
   74.3990021        -2.94056168E-10
   74.5319977        -1.94157260E-10
   74.6650009        -9.20454685E-11
   74.7979965         1.22087574E-11
   74.9309998         1.18533627E-10
   75.0640030         2.26854993E-10
   75.1969986         3.37094963E-10
   75.3300018         4.49172144E-10
   75.4629974         5.62999980E-10
   75.5960007         6.78486267E-10
   75.7289963         7.95532806E-10
   75.8619995         9.14035347E-10
   75.9950027         1.03388265E-09
   76.1279984         1.15495791E-09
   76.2610016         1.27713884E-09
   76.3939972         1.40029799E-09
   76.5270004         1.52430346E-09
   76.6600037         1.64902147E-09
   76.7929993         1.77431614E-09
   76.9260025         1.90005078E-09
   77.0589981         2.02608863E-09
   77.1920013         2.15229412E-09
   77.3249969         2.27853225E-09
   77.4580002         2.40466913E-09
   77.5910034         2.53057286E-09
   77.7239990         2.65611177E-09
   77.8570023         2.78115420E-09
   77.9899979         2.90556845E-09
   78.1230011         3.02922110E-09
   78.2559967         3.15197712E-09
   78.3889999         3.27369887E-09
   78.5220032         3.39424555E-09
   78.6549988         3.51347307E-09
   78.7880020         3.63123331E-09
   78.9209976         3.74737663E-09
   79.0540009         3.86175003E-09
   79.1869965         3.97420008E-09
   79.3199997         4.08457135E-09
   79.4530029         4.19271107E-09
   79.5859985         4.29846692E-09
   79.7190018         4.40169012E-09
   79.8519974         4.50223459E-09
   79.9850006         4.59996130E-09
   80.1179962         4.69473305E-09
   80.2509995         4.78641926E-09
   80.3840027         4.87489249E-09
   80.5169983         4.96003194E-09
   80.6500015         5.04171904E-09
   80.7829971         5.11983878E-09
   80.9160004         5.19427701E-09
   81.0490036         5.26492272E-09
   81.1819992         5.33166444E-09
   81.3150024         5.39439204E-09
   81.4479980         5.45299406E-09
   81.5810013         5.50736123E-09
   81.7139969         5.55738433E-09
   81.8470001         5.60295454E-09
   81.9800034         5.64396752E-09
   82.1129990         5.68032155E-09
   82.2460022         5.71191894E-09
   82.3789978         5.73866910E-09
   82.5120010         5.76048764E-09
   82.6449966         5.77729820E-09
   82.7779999         5.78903103E-09
   82.9110031         5.79562576E-09
   83.0439987         5.79702997E-09
   83.1770020         5.79319748E-09