  -24.4200001         0.00000000    
  -24.2900009         0.00000000    
  -24.1599998         0.00000000    
  -24.0300007         0.00000000    
  -23.8999996         0.00000000    
  -23.7700005         0.00000000    
  -23.6399994         0.00000000    
  -23.5100002         0.00000000    
  -23.3799992         0.00000000    
  -23.2500000         0.00000000    
  -23.1200008         0.00000000    
  -22.9899998         0.00000000    
  -22.8600006         0.00000000    
  -22.7299995         0.00000000    
  -22.6000004         0.00000000    
  -22.4699993         0.00000000    
  -22.3400002         0.00000000    
  -22.2099991         0.00000000    
  -22.0799999         0.00000000    
  -21.9500008         0.00000000    
  -21.8199997         0.00000000    
  -21.6900005         0.00000000    
  -21.5599995         0.00000000    
  -21.4300003         0.00000000    
  -21.2999992         0.00000000    
  -21.1700001         0.00000000    
  -21.0400009         0.00000000    
  -20.9099998         0.00000000    
  -20.7800007         0.00000000    
  -20.6499996         0.00000000    
  -20.5200005         0.00000000    
  -20.3899994         0.00000000    
  -20.2600002         0.00000000    
  -20.1299992         0.00000000    
  -20.0000000         0.00000000    
  -19.8700008         0.00000000    
  -19.7399998         0.00000000    
  -19.6100006         0.00000000    
  -19.4799995         0.00000000    
  -19.3500004         0.00000000    
  -19.2199993         0.00000000    
  -19.0900002         8.47912304E-38
  -18.9599991         2.08466778E-37
  -18.8299999         4.60516943E-37
  -18.7000008         6.52403849E-37
  -18.5699997        -9.79353282E-37
  -18.4400005        -5.40387395E-36
  -18.3099995        -1.73185201E-35
  -18.1800003        -3.57732978E-35
  -18.0499992        -4.65717201E-35
  -17.9200001        -2.63593760E-35
  -17.7900009         6.68038720E-35
  -17.6599998         2.32784524E-34
  -17.5300007         4.08415869E-34
  -17.3999996         4.92540077E-34
  -17.2700005         2.74171127E-33
  -17.1399994         1.10606099E-32
  -17.0100002         1.55850083E-32
  -16.8799992         4.28240615E-32
  -16.7500000         1.65865909E-31
  -16.6200008         2.71742814E-31
  -16.4899998         1.31508207E-31
  -16.3600006        -2.34084277E-31
  -16.2299995        -8.86190897E-31
  -16.1000004        -1.64739665E-30
  -15.9700003        -1.88021488E-30
  -15.8400002        -8.03479165E-31
  -15.7100000         2.23394614E-30
  -15.5799999         7.09307510E-30
  -15.4499998         1.24376044E-29
  -15.3199997         1.56894830E-29
  -15.1899996         1.33377856E-29
  -15.0600004         2.42230322E-30
  -14.9300003        -1.74687895E-29
  -14.8000002        -4.22671236E-29
  -14.6700001        -6.25450324E-29
  -14.5400000        -6.49487554E-29
  -14.4099998        -3.63454427E-29
  -14.2799997         2.94805587E-29
  -14.1499996         1.24784937E-28
  -14.0200005         2.23414277E-28
  -13.8900003         2.82443958E-28
  -13.7600002         2.52259099E-28
  -13.6300001         9.47812839E-29
  -13.5000000        -1.94062058E-28
  -13.3699999        -5.65878566E-28
  -13.2399998        -9.14137448E-28
  -13.1099997        -1.08953978E-27
  -12.9799995        -9.38699122E-28
  -12.8500004        -3.60200442E-28
  -12.7200003         6.36644599E-28
  -12.5900002         1.89082390E-27
  -12.4600000         3.08684431E-27
  -12.3299999         3.80271170E-27
  -12.1999998         3.60757802E-27
  -12.0699997         2.19118596E-27
  -11.9399996        -5.06151819E-28
  -11.8100004        -4.19984731E-27
  -11.6800003        -8.23526412E-27
  -11.5500002        -1.16473965E-26
  -11.4200001        -1.33044535E-26
  -11.2900000        -1.21172209E-26
  -11.1599998        -7.28590237E-27
  -11.0299997         1.44598570E-27
  -10.8999996         1.35598087E-26
  -10.7700005         2.75838528E-26
  -10.6400003         4.10127829E-26
  -10.5100002         5.03886167E-26
  -10.3800001         5.16255629E-26
  -10.2500000         4.06575059E-26
  -10.1199999         1.44408353E-26
  -9.98999977        -2.77557936E-26
  -9.85999966        -8.29903674E-26
  -9.72999954        -1.43588154E-25
  -9.60000038        -1.96866636E-25
  -9.47000027        -2.26121555E-25
  -9.34000015        -2.13179281E-25
  -9.21000004        -1.42473555E-25
  -9.07999992        -6.13320865E-27
  -8.94999981         1.90919056E-25
  -8.81999969         4.27210532E-25
  -8.68999958         6.63732035E-25
  -8.56000042         8.46847211E-25
  -8.43000031         9.15543191E-25
  -8.30000019         8.12519781E-25
  -8.17000008         4.97595512E-25
  -8.03999996        -3.89213555E-26
  -7.90999985        -7.65662281E-25
  -7.78000021        -1.60505032E-24
  -7.65000010        -2.43548498E-24
  -7.51999998        -3.10164291E-24
  -7.38999987        -3.43237285E-24
  -7.26000023        -3.26445670E-24
  -7.13000011        -2.46964128E-24
  -7.00000000        -9.81888858E-25
  -6.86999989         1.17826562E-24
  -6.73999977         3.88520543E-24
  -6.61000013         6.89832750E-24
  -6.48000002         9.86336140E-24
  -6.34999990         1.23274315E-23
  -6.21999979         1.37700783E-23
  -6.09000015         1.36516308E-23
  -5.96000004         1.14786685E-23
  -5.82999992         6.88365469E-24
  -5.69999981        -2.87576753E-25
  -5.57000017        -9.89045641E-24
  -5.44000006        -2.14114378E-23
  -5.30999994        -3.39274119E-23
  -5.17999983        -4.61085065E-23
  -5.05000019        -5.62747180E-23
  -4.92000008        -6.25112566E-23
  -4.78999996        -6.28405587E-23
  -4.65999985        -5.54416493E-23
  -4.53000021        -3.89013092E-23
  -4.40000010        -1.24765192E-23
  -4.26999998         2.36552690E-23
  -4.13999987         6.81835957E-23
  -4.01000023         1.18516607E-22
  -3.88000011         1.70724469E-22
  -3.75000000         2.19602013E-22
  -3.61999989         2.58876608E-22
  -3.49000001         2.81580858E-22
  -3.35999990         2.80598884E-22
  -3.23000002         2.49375896E-22
  -3.09999990         1.82755848E-22
  -2.97000003         7.78857960E-23
  -2.83999991        -6.49025717E-23
  -2.71000004        -2.41339006E-22
  -2.57999992        -4.42700359E-22
  -2.45000005        -6.55634138E-22
  -2.31999993        -8.62392738E-22
  -2.19000006        -1.04151147E-21
  -2.05999994        -1.16892122E-21
  -1.92999995        -1.21944376E-21
  -1.79999995        -1.16859456E-21
  -1.66999996        -9.94593204E-22
  -1.53999996        -6.80485755E-22
  -1.40999997        -2.16278700E-22
  -1.27999997         3.99010415E-22
  -1.14999998         1.15548821E-21
  -1.01999998         2.03082695E-21
 -0.889999986         2.98915406E-21
 -0.759999990         3.98056678E-21
 -0.629999995         4.94145218E-21
 -0.500000000         5.79578435E-21
 -0.370000005         6.45754095E-21
 -0.239999995         6.83427043E-21
 -0.109999999         6.83175738E-21
   1.99999996E-02     6.35958952E-21
  0.150000006         5.33731424E-21
  0.280000001         3.70078344E-21
  0.409999996         1.40823289E-21
  0.540000021        -1.55432831E-21
  0.670000017        -5.16877013E-21
  0.800000012        -9.38180173E-21
  0.930000007        -1.41032986E-20
   1.05999994        -1.92060126E-20
   1.19000006        -2.45265385E-20
   1.32000005        -2.98674175E-20
   1.45000005        -3.50002638E-20
   1.58000004        -3.96699375E-20
   1.71000004        -4.35998468E-20
   1.84000003        -4.64986398E-20
   1.97000003        -4.80685446E-20
   2.09999990        -4.80155663E-20
   2.23000002        -4.60616817E-20
   2.35999990        -4.19588981E-20
   2.49000001        -3.55047503E-20
   2.61999989        -2.65585044E-20
   2.75000000        -1.50571832E-20
   2.88000011        -1.03007806E-21
   3.00999999         1.53891848E-20
   3.14000010         3.39543747E-20
   3.26999998         5.43029273E-20
   3.40000010         7.59572944E-20
   3.52999997         9.83319290E-20
   3.66000009         1.20745570E-19
   3.78999996         1.42438692E-19
   3.92000008         1.62595662E-19
   4.05000019         1.80370662E-19
   4.17999983         1.94917033E-19
   4.30999994         2.05418841E-19
   4.44000006         2.11123479E-19
   4.57000017         2.11374903E-19
   4.69999981         2.05645540E-19
   4.82999992         1.93566131E-19
   4.96000004         1.74952086E-19
   5.09000015         1.49824795E-19
   5.21999979         1.18427280E-19
   5.34999990         8.12323027E-20
   5.48000002         3.89429653E-20
   5.61000013        -7.51574608E-21
   5.73999977        -5.70142768E-20
   5.86999989        -1.08244887E-19
   6.00000000        -1.59756623E-19
   6.13000011        -2.09998436E-19
   6.26000023        -2.57368872E-19
   6.38999987        -3.00270724E-19
   6.51999998        -3.37168951E-19
   6.65000010        -3.66648840E-19
   6.78000021        -3.87472906E-19
   6.90999985        -3.98632477E-19
   7.03999996        -3.99393405E-19
   7.17000008        -3.89331865E-19
   7.30000019        -3.68360329E-19
   7.42999983        -3.36741764E-19
   7.55999994        -2.95092031E-19
   7.69000006        -2.44370737E-19
   7.82000017        -1.85861693E-19
   7.94999981        -1.21143793E-19
   8.07999992        -5.20538846E-20
   8.21000004         1.93574674E-20
   8.34000015         9.08759297E-20
   8.47000027         1.60179933E-19
   8.60000038         2.24901956E-19
   8.72999954         2.82696755E-19
   8.85999966         3.31315562E-19
   8.98999977         3.68685566E-19
   9.11999989         3.92994052E-19
   9.25000000         4.02773343E-19
   9.38000011         3.96982562E-19
   9.51000023         3.75081507E-19
   9.64000034         3.37088947E-19
   9.77000046         2.83620457E-19
   9.89999962         2.15900344E-19
   10.0299997         1.35743311E-19
   10.1599998         4.55059908E-20
   10.2900000        -5.19910642E-20
   10.4200001        -1.53566546E-19
   10.5500002        -2.55800409E-19
   10.6800003        -3.55166979E-19
   10.8100004        -4.48171057E-19
   10.9399996        -5.31478743E-19
   11.0699997        -6.02037198E-19
   11.1999998        -6.57176592E-19
   11.3299999        -6.94692697E-19
   11.4600000        -7.12909385E-19
   11.5900002        -7.10721492E-19
   11.7200003        -6.87620509E-19
   11.8500004        -6.43707662E-19
   11.9799995        -5.79696290E-19
   12.1099997        -4.96907660E-19
   12.2399998        -3.97260210E-19
   12.3699999        -2.83253680E-19
   12.5000000        -1.57943701E-19
   12.6300001        -2.49042837E-20
   12.7600002         1.11827529E-19
   12.8900003         2.47830084E-19
   13.0200005         3.78402276E-19
   13.1499996         4.98696696E-19
   13.2799997         6.03879070E-19
   13.4099998         6.89306613E-19
   13.5400000         7.50715623E-19
   13.6700001         7.84404466E-19
   13.8000002         7.87396069E-19
   13.9300003         7.57566540E-19
   14.0600004         6.93726756E-19
   14.1899996         5.95649450E-19
   14.3199997         4.64042120E-19
   14.4499998         3.00469067E-19
   14.5799999         1.07235720E-19
   14.7100000        -1.12749047E-19
   14.8400002        -3.56113765E-19
   14.9700003        -6.19150530E-19
   15.1000004        -8.97910345E-19
   15.2299995        -1.18826046E-18
   15.3599997        -1.48590134E-18
   15.4899998        -1.78635175E-18
   15.6199999        -2.08491701E-18
   15.7500000        -2.37666216E-18
   15.8800001        -2.65641361E-18
   16.0100002        -2.91880957E-18
   16.1399994        -3.15841319E-18
   16.2700005        -3.36989390E-18
   16.3999996        -3.54826568E-18
   16.5300007        -3.68915812E-18
   16.6599998        -3.78908815E-18
   16.7900009        -3.84569295E-18
   16.9200001        -3.85787897E-18
   17.0499992        -3.82585798E-18
   17.1800003        -3.75105108E-18
   17.3099995        -3.63585543E-18
   17.4400005        -3.48329437E-18
   17.5699997        -3.29659412E-18
   17.7000008        -3.07872964E-18
   17.8299999        -2.83200937E-18
   17.9599991        -2.55775247E-18
   18.0900002        -2.25611175E-18
   18.2199993        -1.92607227E-18
   18.3500004        -1.56564197E-18
   18.4799995        -1.17221316E-18
   18.6100006        -7.43065702E-19
   18.7399998        -2.75947194E-19
   18.8700008         2.30337437E-19
   19.0000000         7.75401743E-19
   19.1299992         1.35689053E-18
   19.2600002         1.97028218E-18
   19.3899994         2.60891069E-18
   19.5200005         3.26420566E-18
   19.6499996         3.92612013E-18
   19.7800007         4.58368860E-18
   19.9099998         5.22563990E-18
   20.0400009         5.84097542E-18
   20.1700001         6.41944392E-18
   20.2999992         6.95185252E-18
   20.4300003         7.43018625E-18
   20.5599995         7.84755098E-18
   20.6900005         8.19798108E-18
   20.8199997         8.47616689E-18
   20.9500008         8.67720734E-18
   21.0799999         8.79643633E-18
   21.2099991         8.82941189E-18
   21.3400002         8.77207503E-18
   21.4699993         8.62108810E-18
   21.6000004         8.37431614E-18
   21.7299995         8.03136706E-18
   21.8600006         7.59412352E-18
   21.9899998         7.06715984E-18
   22.1200008         6.45797110E-18
   22.2500000         5.77695412E-18
   22.3799992         5.03712130E-18
   22.5100002         4.25355048E-18
   22.6399994         3.44263886E-18
   22.7700005         2.62122803E-18
   22.8999996         1.80571605E-18
   23.0300007         1.01125167E-18
   23.1599998         2.51111794E-19
   23.2900009        -4.63677437E-19
   23.4200001        -1.12445288E-18
   23.5499992        -1.72478273E-18
   23.6800003        -2.26015811E-18
   23.8099995        -2.72760532E-18
   23.9400005        -3.12532948E-18
   24.0699997        -3.45248520E-18
   24.2000008        -3.70914321E-18
   24.3299999        -3.89646281E-18
   24.4599991        -4.01702894E-18
   24.5900002        -4.07525625E-18
   24.7199993        -4.07772745E-18
   24.8500004        -4.03332233E-18
   24.9799995        -3.95301012E-18
   25.1100006        -3.84923287E-18
   25.2399998        -3.73487515E-18
   25.3700008        -3.62188889E-18
   25.5000000        -3.51972837E-18
   25.6299992        -3.43380064E-18
   25.7600002        -3.36416299E-18
   25.8899994        -3.30470607E-18
   26.0200005        -3.24299364E-18
   26.1499996        -3.16087798E-18
   26.2800007        -3.03589078E-18
   26.4099998        -2.84330245E-18
   26.5400009        -2.55864272E-18
   26.6700001        -2.16038173E-18
   26.7999992        -1.63241416E-18
   26.9300003        -9.66005818E-19
   27.0599995        -1.60875255E-19
   27.1900005         7.74783580E-19
   27.3199997         1.82541907E-18
   27.4500008         2.97027943E-18
   27.5799999         4.18636149E-18
   27.7099991         5.45174889E-18
   27.8400002         6.74885412E-18
   27.9699993         8.06706900E-18
   28.1000004         9.40436031E-18
   28.2299995         1.07675002E-17
   28.3600006         1.21707931E-17
   28.4899998         1.36333874E-17
   28.6200008         1.51754572E-17
   28.7500000         1.68137314E-17
   28.8799992         1.85569699E-17
   29.0100002         2.04019946E-17
   29.1399994         2.23308590E-17
   29.2700005         2.43096222E-17
   29.3999996         2.62889447E-17
   29.5300007         2.82065446E-17
   29.6599998         2.99913257E-17
   29.7900009         3.15687128E-17
   29.9200001         3.28666353E-17
   30.0499992         3.38214532E-17
   30.1800003         3.43831882E-17
   30.3099995         3.45193852E-17
   30.4400005         3.42172326E-17
   30.5699997         3.34836458E-17
   30.7000008         3.23434038E-17
   30.8299999         3.08355429E-17
   30.9599991         2.90085160E-17
   31.0900002         2.69147283E-17
   31.2199993         2.46051176E-17
   31.3500004         2.21243749E-17
   31.4799995         1.95073408E-17
   31.6100006         1.67769037E-17
   31.7399998         1.39434659E-17
   31.8700008         1.10059416E-17
   32.0000000         7.95401574E-18
   32.1300011         4.77126876E-18
   32.2599983         1.43877893E-18
   32.3899994        -2.06120008E-18
   32.5200005        -5.74188208E-18
   32.6500015        -9.60913549E-18
   32.7799988        -1.36594262E-17
   32.9099998        -1.78786057E-17
   33.0400009        -2.22415301E-17
   33.1699982        -2.67125340E-17
   33.2999992        -3.12466120E-17
   33.4300003        -3.57912713E-17
   33.5600014        -4.02888409E-17
   33.6899986        -4.46792542E-17
   33.8199997        -4.89030568E-17
   33.9500008        -5.29045430E-17
   34.0800018        -5.66349125E-17
   34.2099991        -6.00551786E-17
   34.3400002        -6.31386962E-17
   34.4700012        -6.58730112E-17
   34.5999985        -6.82608036E-17
   34.7299995        -7.03196430E-17
   34.8600006        -7.20804458E-17
   34.9900017        -7.35845315E-17
   35.1199989        -7.48794066E-17
   35.2500000        -7.60135837E-17
   35.3800011        -7.70310291E-17
   35.5099983        -7.79657035E-17
   35.6399994        -7.88372011E-17
   35.7700005        -7.96479639E-17
   35.9000015        -8.03827517E-17
   36.0299988        -8.10105950E-17
   36.1599998        -8.14892547E-17
   36.2900009        -8.17717071E-17
   36.4199982        -8.18140984E-17
   36.5499992        -8.15840297E-17
   36.6800003        -8.10682462E-17
   36.8100014        -8.02786064E-17
   36.9399986        -7.92553906E-17
   37.0699997        -7.80673938E-17
   37.2000008        -7.68085175E-17
   37.3300018        -7.55909474E-17
   37.4599991        -7.45356502E-17
   37.5900002        -7.37610584E-17
   37.7200012        -7.33711983E-17
   37.8499985        -7.34445659E-17
   37.9799995        -7.40251408E-17
   38.1100006        -7.51165957E-17
   38.2400017        -7.66804170E-17
   38.3699989        -7.86381616E-17
   38.5000000        -8.08776373E-17
   38.6300011        -8.32621939E-17
   38.7599983        -8.56419594E-17
   38.8899994        -8.78657386E-17
   39.0200005        -8.97922157E-17
   39.1500015        -9.12992065E-17
   39.2799988        -9.22903277E-17
   39.4099998        -9.26984850E-17
   39.5400009        -9.24865746E-17
   39.6699982        -9.16455900E-17
   39.7999992        -9.01911153E-17
   39.9300003        -8.81590369E-17
   40.0600014        -8.56012291E-17
   40.1899986        -8.25818941E-17
   40.3199997        -7.91748563E-17
   40.4500008        -7.54617748E-17
   40.5800018        -7.15308604E-17
   40.7099991        -6.74755776E-17
   40.8400002        -6.33925678E-17
   40.9700012        -5.93780816E-17
   41.0999985        -5.55225796E-17
   41.2299995        -5.19033831E-17
   41.3600006        -4.85755859E-17
   41.4900017        -4.55623655E-17
   41.6199989        -4.28456893E-17
   41.7500000        -4.03591347E-17
   41.8800011        -3.79844481E-17
   42.0099983        -3.55530665E-17
   42.1399994        -3.28536916E-17
   42.2700005        -2.96459877E-17
   42.4000015        -2.56796881E-17
   42.5299988        -2.07175789E-17
   42.6599998        -1.45600216E-17
   42.7900009        -7.06822856E-18
   42.9199982         1.81681205E-18
   43.0499992         1.20622835E-17
   43.1800003         2.35406884E-17
   43.3100014         3.60370035E-17
   43.4399986         4.92661527E-17
   43.5699997         6.28994093E-17
   43.7000008         7.65972622E-17
   43.8300018         9.00457499E-17
   43.9599991         1.02992251E-16
   44.0900002         1.15276830E-16
   44.2200012         1.26855360E-16
   44.3499985         1.37811678E-16
   44.4799995         1.48356510E-16
   44.6100006         1.58812709E-16
   44.7400017         1.69587828E-16
   44.8699989         1.81135891E-16
   45.0000000         1.93912192E-16
   45.1300011         2.08325173E-16
   45.2599983         2.24690312E-16
   45.3899994         2.43190571E-16
   45.5200005         2.63847507E-16
   45.6500015         2.86506009E-16
   45.7799988         3.10834437E-16
   45.9099998         3.36340610E-16
   46.0400009         3.62402094E-16
   46.1699982         3.88308411E-16
   46.2999992         4.13311871E-16
   46.4300003         4.36682330E-16
   46.5600014         4.57761751E-16
   46.6899986         4.76013405E-16
   46.8199997         4.91062057E-16
   46.9500008         5.02721677E-16
   47.0800018         5.11007566E-16
   47.2099991         5.16132591E-16
   47.3400002         5.18486814E-16
   47.4700012         5.18602592E-16
   47.5999985         5.17107632E-16
   47.7299995         5.14670030E-16
   47.8600006         5.11939831E-16
   47.9900017         5.09491906E-16
   48.1199989         5.07775817E-16
   48.2500000         5.07076539E-16
   48.3800011         5.07489308E-16
   48.5099983         5.08912218E-16
   48.6399994         5.11055846E-16
   48.7700005         5.13470579E-16
   48.9000015         5.15588690E-16
   49.0299988         5.16778189E-16
   49.1599998         5.16403007E-16
   49.2900009         5.13884460E-16
   49.4199982         5.08757740E-16
   49.5499992         5.00718498E-16
   49.6800003         4.89653653E-16
   49.8100014         4.75653946E-16
   49.9399986         4.59006095E-16
   50.0699997         4.40165489E-16
   50.2000008         4.19711840E-16
   50.3300018         3.98292574E-16
   50.4599991         3.76559773E-16
   50.5900002         3.55107578E-16
   50.7200012         3.34416496E-16
   50.8499985         3.14810647E-16
   50.9799995         2.96432177E-16
   51.1100006         2.79234920E-16
   51.2400017         2.62997933E-16
   51.3699989         2.47356120E-16
   51.5000000         2.31844458E-16
   51.6300011         2.15950123E-16
   51.7599983         1.99166444E-16
   51.8899994         1.81042387E-16
   52.0200005         1.61222504E-16
   52.1500015         1.39472802E-16
   52.2799988         1.15690791E-16
   52.4099998         8.98993058E-17
   52.5400009         6.22262829E-17
   52.6699982         3.28740865E-17
   52.7999992         2.08321198E-18
   52.9300003        -2.99036876E-17
   53.0600014        -6.28730653E-17
   53.1899986        -9.66623875E-17
   53.3199997        -1.31170278E-16
   53.4500008        -1.66354028E-16
   53.5800018        -2.02215881E-16
   53.7099991        -2.38780891E-16
   53.8400002        -2.76069716E-16
   53.9700012        -3.14071479E-16
   54.0999985        -3.52720666E-16
   54.2299995        -3.91881222E-16
   54.3600006        -4.31340543E-16
   54.4900017        -4.70813999E-16
   54.6199989        -5.09959733E-16
   54.7500000        -5.48401370E-16
   54.8800011        -5.85756106E-16
   55.0099983        -6.21663632E-16
   55.1399994        -6.55814412E-16
   55.2700005        -6.87971330E-16
   55.4000015        -7.17983931E-16
   55.5299988        -7.45793928E-16
   55.6599998        -7.71430757E-16
   55.7900009        -7.94998919E-16
   55.9199982        -8.16659934E-16
   56.0499992        -8.36609995E-16
   56.1800003        -8.55057684E-16
   56.3100014        -8.72204384E-16
   56.4399986        -8.88228395E-16
   56.5699997        -9.03275300E-16
   56.7000008        -9.17453572E-16
   56.8300018        -9.30835528E-16
   56.9599991        -9.43462143E-16
   57.0900002        -9.55349191E-16
   57.2200012        -9.66494239E-16
   57.3499985        -9.76883204E-16
   57.4799995        -9.86494699E-16
   57.6100006        -9.95302571E-16
   57.7400017        -1.00327696E-15
   57.8699989        -1.01038389E-15
   58.0000000        -1.01658449E-15
   58.1300011        -1.02183291E-15
   58.2599983        -1.02607570E-15
   58.3899994        -1.02925070E-15
   58.5200005        -1.03128538E-15
   58.6500015        -1.03209694E-15
   58.7799988        -1.03159052E-15
   58.9099998        -1.02965780E-15
   59.0400009        -1.02617523E-15
   59.1699982        -1.02100134E-15
   59.2999992        -1.01397425E-15
   59.4300003        -1.00490983E-15
   59.5600014        -9.93601623E-16
   59.6899986        -9.79822197E-16
   59.8199997        -9.63328453E-16
   59.9500008        -9.43870836E-16
   60.0800018        -9.21205717E-16
   60.2099991        -8.95111173E-16
   60.3400002        -8.65404615E-16
   60.4700012        -8.31960419E-16
   60.5999985        -7.94724745E-16
   60.7299995        -7.53726445E-16
   60.8600006        -7.09081350E-16
   60.9900017        -6.60990101E-16
   61.1199989        -6.09729256E-16
   61.2500000        -5.55636832E-16
   61.3800011        -4.99095000E-16
   61.5099983        -4.40511237E-16
   61.6399994        -3.80302229E-16
   61.7700005        -3.18880985E-16
   61.9000015        -2.56649130E-16
   62.0299988        -1.93995069E-16
   62.1599998        -1.31296804E-16
   62.2900009        -6.89281399E-17
   62.4199982        -7.26673950E-18
   62.5499992         5.32987012E-17
   62.6800003         1.12364042E-16
   62.8100014         1.69509014E-16
   62.9399986         2.24301577E-16
   63.0699997         2.76306700E-16
   63.2000008         3.25098207E-16
   63.3300018         3.70272168E-16
   63.4599991         4.11459092E-16
   63.5900002         4.48332263E-16
   63.7200012         4.80610147E-16
   63.8499985         5.08052268E-16
   63.9799995         5.30448825E-16
   64.1100006         5.47605212E-16
   64.2399979         5.59326348E-16
   64.3700027         5.65403333E-16
   64.5000000         5.65608898E-16
   64.6299973         5.59704496E-16
   64.7600021         5.47461534E-16
   64.8899994         5.28697637E-16
   65.0199966         5.03324606E-16
   65.1500015         4.71403164E-16
   65.2799988         4.33197160E-16
   65.4100037         3.89218627E-16
   65.5400009         3.40254458E-16
   65.6699982         2.87368289E-16
   65.8000031         2.31870849E-16
   65.9300003         1.75258581E-16
   66.0599976         1.19121817E-16
   66.1900024         6.50290355E-17
   66.3199997         1.43974640E-17
   66.4499969        -3.16379313E-17
   66.5800018        -7.23424040E-17
   66.7099991        -1.07472328E-16
   66.8399963        -1.37327109E-16
   66.9700012        -1.62752815E-16
   67.0999985        -1.85094050E-16
   67.2300034        -2.06094723E-16
   67.3600006        -2.27755433E-16
   67.4899979        -2.52159591E-16
   67.6200027        -2.81284263E-16
   67.7500000        -3.16814463E-16
   67.8799973        -3.59979023E-16
   68.0100021        -4.11424708E-16
   68.1399994        -4.71140742E-16
   68.2699966        -5.38441004E-16
   68.4000015        -6.12005074E-16
   68.5299988        -6.89973504E-16
   68.6600037        -7.70087204E-16
   68.7900009        -8.49857802E-16
   68.9199982        -9.26752088E-16
   69.0500031        -9.98375606E-16
   69.1800003        -1.06263841E-15
   69.3099976        -1.11789185E-15
   69.4400024        -1.16302515E-15
   69.5699997        -1.19751919E-15
   69.6999969        -1.22145285E-15
   69.8300018        -1.23546754E-15
   69.9599991        -1.24069511E-15
   70.0899963        -1.23865567E-15
   70.2200012        -1.23113730E-15
   70.3499985        -1.22006605E-15
   70.4800034        -1.20737474E-15
   70.6100006        -1.19488037E-15
   70.7399979        -1.18417355E-15
   70.8700027        -1.17652696E-15
   71.0000000        -1.17282363E-15
   71.1299973        -1.17350846E-15
   71.2600021        -1.17856355E-15
   71.3899994        -1.18750832E-15
   71.5199966        -1.19942417E-15
   71.6500015        -1.21300380E-15
   71.7799988        -1.22662282E-15
   71.9100037        -1.23843226E-15
   72.0400009        -1.24646647E-15
   72.1699982        -1.24876193E-15
   72.3000031        -1.24347804E-15
   72.4300003        -1.22901421E-15
   72.5599976        -1.20411483E-15
   72.6900024        -1.16795425E-15
   72.8199997        -1.12019737E-15
   72.9499969        -1.06102947E-15
   73.0800018        -9.91154650E-16
   73.2099991        -9.11761088E-16
   73.3399963        -8.24456555E-16
   73.4700012        -7.31175251E-16
   73.5999985        -6.34063136E-16
   73.7300034        -5.35347798E-16
   73.8600006        -4.37198173E-16
   73.9899979        -3.41584909E-16
   74.1200027        -2.50144420E-16
   74.2500000        -1.64058185E-16
   74.3799973        -8.39498920E-17
   74.5100021        -9.80683828E-18
   74.6399994         5.90694506E-17
   74.7699966         1.24079461E-16
   74.9000015         1.87305825E-16
   75.0299988         2.51454145E-16
   75.1600037         3.19754382E-16
   75.2900009         3.95820323E-16
   75.4199982         4.83471371E-16
   75.5500031         5.86520817E-16
   75.6800003         7.08541949E-16
   75.8099976         8.52623100E-16
   75.9400024         1.02112988E-15
   76.0699997         1.21549334E-15
   76.1999969         1.43604558E-15
   76.3300018         1.68192421E-15
   76.4599991         1.95105590E-15
   76.5899963         2.24023592E-15
   76.7200012         2.54530415E-15
   76.8499985         2.86140859E-15
   76.9800034         3.18334442E-15
   77.1100006         3.50594200E-15
   77.2399979         3.82446726E-15
   77.3700027         4.13500648E-15
   77.5000000         4.43478669E-15
   77.6299973         4.72240731E-15
   77.7600021         4.99794078E-15
   77.8899994         5.26289988E-15
   78.0199966         5.52005400E-15
   78.1500015         5.77311356E-15
   78.2799988         6.02629976E-15
   78.4100037         6.28384860E-15
   78.5400009         6.54948364E-15
   78.6699982         6.82591834E-15
   78.8000031         7.11443471E-15
   78.9300003         7.41458591E-15
   79.0599976         7.72405872E-15
   79.1900024         8.03870266E-15
   79.3199997         8.35275029E-15
   79.4499969         8.65918902E-15
   79.5800018         8.95026681E-15
   79.7099991         9.21808846E-15
   79.8399963         9.45522889E-15
   79.9700012         9.65533788E-15
   80.0999985         9.81364495E-15
   80.2300034         9.92734303E-15
   80.3600006         9.99580362E-15
   80.4899979         1.00205988E-14
   80.6200027         1.00053387E-14
   80.7500000         9.95532561E-15