  -24.4200001         1.31025502E-18
  -24.2870007         1.30359849E-18
  -24.1539993         1.29168440E-18
  -24.0209999         1.27693867E-18
  -23.8880005         1.26219438E-18
  -23.7549992         1.24997217E-18
  -23.6219997         1.24184925E-18
  -23.4890003         1.23808517E-18
  -23.3560009         1.23759186E-18
  -23.2229996         1.23826301E-18
  -23.0900002         1.23756694E-18
  -22.9570007         1.23325319E-18
  -22.8239994         1.22397791E-18
  -22.6910000         1.20968878E-18
  -22.5580006         1.19166482E-18
  -22.4249992         1.17219837E-18
  -22.2919998         1.15400960E-18
  -22.1590004         1.13953973E-18
  -22.0259991         1.13031646E-18
  -21.8929996         1.12654948E-18
  -21.7600002         1.12707370E-18
  -21.6270008         1.12964820E-18
  -21.4939995         1.13153614E-18
  -21.3610001         1.13021213E-18
  -21.2280006         1.12401686E-18
  -21.0949993         1.11258067E-18
  -20.9619999         1.09691118E-18
  -20.8290005         1.07912008E-18
  -20.6959991         1.06186240E-18
  -20.5629997         1.04763293E-18
  -20.4300003         1.03810671E-18
  -20.2970009         1.03369804E-18
  -20.1639996         1.03345020E-18
  -20.0310001         1.03528943E-18
  -19.8980007         1.03657104E-18
  -19.7649994         1.03477927E-18
  -19.6320000         1.02819284E-18
  -19.4990005         1.01634586E-18
  -19.3659992         1.00015369E-18
  -19.2329998         9.81679650E-19
  -19.1000004         9.63600170E-19
  -18.9669991         9.48503503E-19
  -18.8339996         9.38218856E-19
  -18.7010002         9.33334665E-19
  -18.5680008         9.33051046E-19
  -18.4349995         9.35390312E-19
  -18.3020000         9.37719860E-19
  -18.1690006         9.37445132E-19
  -18.0359993         9.32693187E-19
  -17.9029999         9.22801554E-19
  -17.7700005         9.08494742E-19
  -17.6369991         8.91690567E-19
  -17.5039997         8.74992686E-19
  -17.3710003         8.61008422E-19
  -17.2380009         8.51657249E-19
  -17.1049995         8.47667446E-19
  -16.9720001         8.48382751E-19
  -16.8390007         8.51932648E-19
  -16.7059994         8.55721187E-19
  -16.5730000         8.57110747E-19
  -16.4400005         8.54112476E-19
  -16.3069992         8.45905759E-19
  -16.1739998         8.33054939E-19
  -16.0410004         8.17357067E-19
  -15.9080000         8.01368493E-19
  -15.7749996         7.87733196E-19
  -15.6420002         7.78484180E-19
  -15.5089998         7.74508284E-19
  -15.3760004         7.75308013E-19
  -15.2430000         7.79130311E-19
  -15.1099997         7.83423792E-19
  -14.9770002         7.85506633E-19
  -14.8439999         7.83267041E-19
  -14.7110004         7.75719949E-19
  -14.5780001         7.63266228E-19
  -14.4449997         7.47587381E-19
  -14.3120003         7.31210342E-19
  -14.1789999         7.16848574E-19
  -14.0459995         7.06693743E-19
  -13.9130001         7.01849877E-19
  -13.7799997         7.02050261E-19
  -13.6470003         7.05736798E-19
  -13.5139999         7.10476698E-19
  -13.3809996         7.13610369E-19
  -13.2480001         7.12957258E-19
  -13.1149998         7.07394262E-19
  -12.9820004         6.97153507E-19
  -12.8490000         6.83762849E-19
  -12.7159996         6.69644065E-19
  -12.5830002         6.57473705E-19
  -12.4499998         6.49474403E-19
  -12.3170004         6.46826494E-19
  -12.1840000         6.49351980E-19
  -12.0509996         6.55553715E-19
  -11.9180002         6.63004131E-19
  -11.7849998         6.68975031E-19
  -11.6520004         6.71149379E-19
  -11.5190001         6.68223899E-19
  -11.3859997         6.60247138E-19
  -11.2530003         6.48599660E-19
  -11.1199999         6.35629829E-19
  -10.9870005         6.24031878E-19
  -10.8540001         6.16135664E-19
  -10.7209997         6.13293575E-19
  -10.5880003         6.15524067E-19
  -10.4549999         6.21503032E-19
  -10.3219995         6.28914984E-19
  -10.1890001         6.35058971E-19
  -10.0559998         6.37559021E-19
  -9.92300034         6.34987317E-19
  -9.78999996         6.27241287E-19
  -9.65699959         6.15570855E-19
  -9.52400017         6.02252575E-19
  -9.39099979         5.89992776E-19
  -9.25800037         5.81216751E-19
  -9.12500000         5.77436019E-19
  -8.99199963         5.78850446E-19
  -8.85900021         5.84297534E-19
  -8.72599983         5.91559818E-19
  -8.59300041         5.97946376E-19
  -8.46000004         6.01002601E-19
  -8.32699966         5.99154628E-19
  -8.19400024         5.92123231E-19
  -8.06099987         5.80997704E-19
  -7.92799997         5.67948826E-19
  -7.79500008         5.55657439E-19
  -7.66200018         5.46608910E-19
  -7.52899981         5.42436560E-19
  -7.39599991         5.43492559E-19
  -7.26300001         5.48751515E-19
  -7.13000011         5.56078474E-19
  -6.99700022         5.62790528E-19
  -6.86399984         5.66357331E-19
  -6.73099995         5.65068273E-19
  -6.59800005         5.58480607E-19
  -6.46500015         5.47535146E-19
  -6.33199978         5.34309097E-19
  -6.19899988         5.21471047E-19
  -6.06599998         5.11580707E-19
  -5.93300009         5.06416928E-19
  -5.80000019         5.06511382E-19
  -5.66699982         5.11009900E-19
  -5.53399992         5.17897265E-19
  -5.40100002         5.24526807E-19
  -5.26800013         5.28315863E-19
  -5.13500023         5.27421422E-19
  -5.00199986         5.21225012E-19
  -4.86899996         5.10491723E-19
  -4.73600006         4.97168325E-19
  -4.60300016         4.83869432E-19
  -4.46999979         4.73193374E-19
  -4.33699989         4.67037651E-19
  -4.20400000         4.66102627E-19
  -4.07100010         4.69709755E-19
  -3.93799996         4.75982058E-19
  -3.80500007         4.82342819E-19
  -3.67199993         4.86194275E-19
  -3.53900003         4.85607184E-19
  -3.40599990         4.79831809E-19
  -3.27300000         4.69500168E-19
  -3.14000010         4.56464577E-19
  -3.00699997         4.43316282E-19
  -2.87400007         4.32708492E-19
  -2.74099994         4.26660484E-19
  -2.60800004         4.26029371E-19
  -2.47499990         4.30284750E-19
  -2.34200001         4.37647045E-19
  -2.20900011         4.45552824E-19
  -2.07599998         4.51326596E-19
  -1.94299996         4.52876319E-19
  -1.80999994         4.49239206E-19
  -1.67700005         4.40825125E-19
  -1.54400003         4.29297174E-19
  -1.41100001         4.17118723E-19
  -1.27800000         4.06889394E-19
  -1.14499998         4.00638390E-19
  -1.01199996         3.99263926E-19
 -0.879000008         4.02264834E-19
 -0.745999992         4.07838583E-19
 -0.612999976         4.13312012E-19
 -0.479999989         4.15804514E-19
 -0.347000003         4.12937609E-19
 -0.214000002         4.03421439E-19
  -8.10000002E-02     3.87351362E-19
   5.20000011E-02     3.66154471E-19
  0.185000002         3.42192548E-19
  0.317999989         3.18135912E-19
  0.451000005         2.96276114E-19
  0.583999991         2.77959026E-19
  0.717000008         2.63289624E-19
  0.850000024         2.51194745E-19
  0.982999980         2.39822846E-19
   1.11600006         2.27180296E-19
   1.24899995         2.11836302E-19
   1.38199997         1.93508048E-19
   1.51499999         1.73370633E-19
   1.64800000         1.54008183E-19
   1.78100002         1.39001304E-19
   1.91400003         1.32261863E-19
   2.04699993         1.37266009E-19
   2.18000007         1.56382527E-19
   2.31299996         1.90452688E-19
   2.44600010         2.38717862E-19
   2.57900000         2.99102848E-19
   2.71199989         3.68760348E-19
   2.84500003         4.44729779E-19
   2.97799993         5.24521172E-19
   3.11100006         6.06470420E-19
   3.24399996         6.89765750E-19
   3.37700009         7.74146600E-19
   3.50999999         8.59352510E-19
   3.64299989         9.44484439E-19
   3.77600002         1.02746161E-18
   3.90899992         1.10473000E-18
   4.04199982         1.17133324E-18
   4.17500019         1.22134882E-18
   4.30800009         1.24860742E-18
   4.44099998         1.24754046E-18
   4.57399988         1.21397099E-18
   4.70699978         1.14566614E-18
   4.84000015         1.04254639E-18
   4.97300005         9.06524087E-19
   5.10599995         7.41040453E-19
   5.23899984         5.50439997E-19
   5.37200022         3.39362737E-19
   5.50500011         1.12314118E-19
   5.63800001        -1.26477079E-19
   5.77099991        -3.72892296E-19
   5.90399981        -6.22516483E-19
   6.03700018        -8.70134034E-19
   6.17000008        -1.10930380E-18
   6.30299997        -1.33217427E-18
   6.43599987        -1.52964669E-18
   6.56899977        -1.69190292E-18
   6.70200014        -1.80922557E-18
   6.83500004        -1.87295611E-18
   6.96799994        -1.87640049E-18
   7.10099983        -1.81550904E-18
   7.23400021        -1.68918956E-18
   7.36700010        -1.49922939E-18
   7.50000000        -1.24986939E-18
   7.63299990        -9.47168744E-19
   7.76599979        -5.98336805E-19
   7.89900017        -2.11199179E-19
   8.03199959         2.06076902E-19
   8.16499996         6.44959496E-19
   8.29800034         1.09629018E-18
   8.43099976         1.54991075E-18
   8.56400013         1.99435665E-18
   8.69699955         2.41678083E-18
   8.82999992         2.80322907E-18
   8.96300030         3.13929042E-18
   9.09599972         3.41105937E-18
   9.22900009         3.60624815E-18
   9.36200047         3.71525112E-18
   9.49499989         3.73196430E-18
   9.62800026         3.65420312E-18
   9.76099968         3.48365709E-18
   9.89400005         3.22542702E-18
   10.0270004         2.88727124E-18
   10.1599998         2.47874990E-18
   10.2930002         2.01047282E-18
   10.4259996         1.49359692E-18
   10.5590000         9.39658461E-19
   10.6920004         3.60701851E-19
   10.8249998        -2.30400949E-19
   10.9580002        -8.19624835E-19
   11.0909996        -1.39164897E-18
   11.2240000        -1.93004067E-18
   11.3570004        -2.41783818E-18
   11.4899998        -2.83849467E-18
   11.6230001        -3.17705143E-18
   11.7559996        -3.42134185E-18
   11.8889999        -3.56301431E-18
   12.0220003        -3.59818066E-18
   12.1549997        -3.52758493E-18
   12.2880001        -3.35629113E-18
   12.4209995        -3.09297203E-18
   12.5539999        -2.74896892E-18
   12.6870003        -2.33732207E-18
   12.8199997        -1.87194281E-18
   12.9530001        -1.36704293E-18
   13.0860004        -8.36862141E-19
   13.2189999        -2.95627397E-19
   13.3520002         2.42365626E-19
   13.4849997         7.62697800E-19
   13.6180000         1.25092156E-18
   13.7510004         1.69288117E-18
   13.8839998         2.07525430E-18
   14.0170002         2.38623388E-18
   14.1499996         2.61623104E-18
   14.2830000         2.75845358E-18
   14.4160004         2.80924764E-18
   14.5489998         2.76814772E-18
   14.6820002         2.63765129E-18
   14.8149996         2.42280167E-18
   14.9480000         2.13070724E-18
   15.0810003         1.77012019E-18
   15.2139997         1.35116820E-18
   15.3470001         8.85258618E-19
   15.4799995         3.85103421E-19
   15.6129999        -1.35253853E-19
   15.7460003        -6.60561053E-19
   15.8789997        -1.17475177E-18
   16.0119991        -1.66169294E-18
   16.1450005        -2.10625020E-18
   16.2779999        -2.49554869E-18
   16.4109993        -2.82021150E-18
   16.5440006        -3.07531793E-18
   16.6770000        -3.26084606E-18
   16.8099995        -3.38144341E-18
   16.9430008        -3.44548932E-18
   17.0760002        -3.46357811E-18
   17.2089996        -3.44667095E-18
   17.3419991        -3.40426119E-18
   17.4750004        -3.34291727E-18
   17.6079998        -3.26548841E-18
   17.7409992        -3.17115735E-18
   17.8740005        -3.05630932E-18
   18.0070000        -2.91604761E-18
   18.1399994        -2.74602415E-18
   18.2730007        -2.54419353E-18
   18.4060001        -2.31211188E-18
   18.5389996        -2.05551384E-18
   18.6720009        -1.78405074E-18
   18.8050003        -1.51027267E-18
   18.9379997        -1.24809354E-18
   19.0709991        -1.01108726E-18
   19.2040005        -8.10992791E-19
   19.3369999        -6.56739892E-19
   19.4699993        -5.54175959E-19
   19.6030006        -5.06509572E-19
   19.7360001        -5.15314496E-19
   19.8689995        -5.81811391E-19
   20.0020008        -7.08088370E-19
   20.1350002        -8.97926889E-19
   20.2679996        -1.15699469E-18
   20.4009991        -1.49229866E-18
   20.5340004        -1.91094024E-18
   20.6669998        -2.41835475E-18
   20.7999992        -3.01632176E-18
   20.9330006        -3.70107696E-18
   21.0660000        -4.46184738E-18
   21.1989994        -5.28007293E-18
   21.3320007        -6.12947700E-18
   21.4650002        -6.97702941E-18
   21.5979996        -7.78473571E-18
   21.7310009        -8.51205412E-18
   21.8640003        -9.11867860E-18
   21.9969997        -9.56735543E-18
   22.1299992        -9.82639862E-18
   22.2630005        -9.87158915E-18
   22.3959999        -9.68722051E-18
   22.5289993        -9.26615911E-18
   22.6620007        -8.60892193E-18
   22.7950001        -7.72193533E-18
   22.9279995        -6.61526693E-18
   23.0610008        -5.30022512E-18
   23.1940002        -3.78731923E-18
   23.3269997        -2.08500779E-18
   23.4599991        -1.99625333E-19
   23.5930004         1.86330333E-18
   23.7259998         4.09637831E-18
   23.8589993         6.48651958E-18
   23.9920006         9.01055699E-18
   24.1250000         1.16309485E-17
   24.2579994         1.42924336E-17
   24.3910007         1.69204741E-17
   24.5240002         1.94221379E-17
   24.6569996         2.16898006E-17
   24.7900009         2.36076321E-17
   24.9230003         2.50603697E-17
   25.0559998         2.59434512E-17
   25.1889992         2.61732337E-17
   25.3220005         2.56958810E-17
   25.4549999         2.44936319E-17
   25.5879993         2.25874289E-17
   25.7210007         2.00354444E-17
   25.8540001         1.69276888E-17
   25.9869995         1.33774817E-17
   26.1200008         9.51108895E-18
   26.2530003         5.45710902E-18
   26.3859997         1.33717127E-18
   26.5189991        -2.74076494E-18
   26.6520004        -6.68577622E-18
   26.7849998        -1.04238720E-17
   26.9179993        -1.38949535E-17
   27.0510006        -1.70478781E-17
   27.1840000        -1.98349507E-17
   27.3169994        -2.22071872E-17
   27.4500008        -2.41114993E-17
   27.5830002        -2.54904606E-17
   27.7159996        -2.62848452E-17
   27.8490009        -2.64385188E-17
   27.9820004        -2.59048748E-17
   28.1149998        -2.46536516E-17
   28.2479992        -2.26769712E-17
   28.3810005        -1.99934683E-17
   28.5139999        -1.66497842E-17
   28.6469994        -1.27190823E-17
   28.7800007        -8.29674314E-18
   28.9130001        -3.49388476E-18
   29.0459995         1.57031854E-18
   29.1790009         6.77633720E-18
   29.3120003         1.20108503E-17
   29.4449997         1.71712703E-17
   29.5779991         2.21677026E-17
   29.7110004         2.69223682E-17
   29.8439999         3.13670296E-17
   29.9769993         3.54393787E-17
   30.1100006         3.90795856E-17
   30.2430000         4.22282585E-17
   30.3759995         4.48267173E-17
   30.5090008         4.68200241E-17
   30.6420002         4.81627235E-17
   30.7749996         4.88264565E-17
   30.9080009         4.88082255E-17
   31.0410004         4.81377228E-17
   31.1739998         4.68821354E-17
   31.3069992         4.51469917E-17
   31.4400005         4.30722309E-17
   31.5730000         4.08232591E-17
   31.7059994         3.85775862E-17
   31.8390007         3.65083509E-17
   31.9720001         3.47667419E-17
   32.1049995         3.34656497E-17
   32.2379990         3.26669407E-17
   32.3709984         3.23745455E-17
   32.5040016         3.25347175E-17
   32.6370010         3.30439994E-17
   32.7700005         3.37641825E-17
   32.9029999         3.45423609E-17
   33.0359993         3.52333347E-17
   33.1689987         3.57209047E-17
   33.3019981         3.59347276E-17
   33.4350014         3.58598115E-17
   33.5680008         3.55369861E-17
   33.7010002         3.50539920E-17
   33.8339996         3.45284775E-17
   33.9669991         3.40855289E-17
   34.0999985         3.38333116E-17
   34.2330017         3.38407199E-17
   34.3660011         3.41206345E-17
   34.4990005         3.46214262E-17
   34.6320000         3.52280176E-17
   34.7649994         3.57723090E-17
   34.8979988         3.60513038E-17
   35.0309982         3.58502228E-17
   35.1640015         3.49671645E-17
   35.2970009         3.32358523E-17
   35.4300003         3.05434059E-17
   35.5629997         2.68409537E-17
   35.6959991         2.21461165E-17
   35.8289986         1.65376069E-17
   35.9620018         1.01434139E-17
   36.0950012         3.12496531E-18
   36.2280006        -4.33995322E-18
   36.3610001        -1.20727225E-17
   36.4939995        -1.99056283E-17
   36.6269989        -2.76885773E-17
   36.7599983        -3.52907311E-17
   36.8930016        -4.25981306E-17
   37.0260010        -4.95093471E-17
   37.1590004        -5.59315178E-17
   37.2919998        -6.17789767E-17
   37.4249992        -6.69759605E-17
   37.5579987        -7.14636139E-17
   37.6910019        -7.52103847E-17
   37.8240013        -7.82236052E-17
   37.9570007        -8.05594441E-17
   38.0900002        -8.23283070E-17
   38.2229996        -8.36931947E-17
   38.3559990        -8.48597576E-17
   38.4889984        -8.60580578E-17
   38.6220016        -8.75176808E-17
   38.7550011        -8.94390228E-17
   38.8880005        -9.19647692E-17
   39.0209999        -9.51556217E-17
   39.1539993        -9.89745955E-17
   39.2869987        -1.03282949E-16
   39.4199982        -1.07849932E-16
   39.5530014        -1.12376417E-16
   39.6860008        -1.16530822E-16
   39.8190002        -1.19993798E-16
   39.9519997        -1.22506190E-16
   40.0849991        -1.23914104E-16
   40.2179985        -1.24204451E-16
   40.3510017        -1.23525065E-16
   40.4840012        -1.22185270E-16
   40.6170006        -1.20635187E-16
   40.7500000        -1.19425266E-16
   40.8829994        -1.19150206E-16
   41.0159988        -1.20383962E-16
   41.1489983        -1.23614307E-16
   41.2820015        -1.29185058E-16
   41.4150009        -1.37253576E-16
   41.5480003        -1.47768895E-16
   41.6809998        -1.60472787E-16
   41.8139992        -1.74923169E-16
   41.9469986        -1.90536329E-16
   42.0800018        -2.06641893E-16
   42.2130013        -2.22543560E-16
   42.3460007        -2.37577945E-16
   42.4790001        -2.51164248E-16
   42.6119995        -2.62839988E-16
   42.7449989        -2.72278953E-16
   42.8779984        -2.79291327E-16
   43.0110016        -2.83807415E-16
   43.1440010        -2.85849797E-16
   43.2770004        -2.85498993E-16
   43.4099998        -2.82859268E-16
   43.5429993        -2.78030253E-16
   43.6759987        -2.71088633E-16
   43.8089981        -2.62081867E-16
   43.9420013        -2.51033461E-16
   44.0750008        -2.37957178E-16
   44.2080002        -2.22875730E-16
   44.3409996        -2.05839700E-16
   44.4739990        -1.86942064E-16
   44.6069984        -1.66326367E-16
   44.7400017        -1.44187600E-16
   44.8730011        -1.20767390E-16
   45.0060005        -9.63459479E-17
   45.1389999        -7.12340944E-17
   45.2719994        -4.57677312E-17
   45.4049988        -2.03062401E-17
   45.5379982         4.76562532E-18
   45.6710014         2.90343274E-17
   45.8040009         5.20557597E-17
   45.9370003         7.33585589E-17
   46.0699997         9.24557241E-17
   46.2029991         1.08866346E-16
   46.3359985         1.22148014E-16
   46.4690018         1.31937849E-16
   46.6020012         1.37998714E-16
   46.7350006         1.40264778E-16
   46.8680000         1.38880118E-16
   47.0009995         1.34223157E-16
   47.1339989         1.26910364E-16
   47.2669983         1.17774862E-16
   47.4000015         1.07817811E-16
   47.5330009         9.81348748E-17
   47.6660004         8.98235030E-17
   47.7989998         8.38807463E-17
   47.9319992         8.11042319E-17
   48.0649986         8.20091410E-17
   48.1980019         8.67738601E-17
   48.3310013         9.52228682E-17
   48.4640007         1.06851135E-16
   48.5970001         1.20888238E-16
   48.7299995         1.36395174E-16
   48.8629990         1.52381955E-16
   48.9959984         1.67931137E-16
   49.1290016         1.82312155E-16
   49.2620010         1.95072045E-16
   49.3950005         2.06091639E-16
   49.5279999         2.15600550E-16
   49.6609993         2.24149270E-16
   49.7939987         2.32541540E-16
   49.9269981         2.41735315E-16
   50.0600014         2.52723715E-16
   50.1930008         2.66410576E-16
   50.3260002         2.83495019E-16
   50.4589996         3.04379648E-16
   50.5919991         3.29112958E-16
   50.7249985         3.57372544E-16
   50.8580017         3.88490338E-16
   50.9910011         4.21514749E-16
   51.1240005         4.55299903E-16
   51.2570000         4.88609156E-16
   51.3899994         5.20219049E-16
   51.5229988         5.49010652E-16
   51.6559982         5.74040369E-16
   51.7890015         5.94585048E-16
   51.9220009         6.10162989E-16
   52.0550003         6.20534908E-16
   52.1879997         6.25691168E-16
   52.3209991         6.25832040E-16
   52.4539986         6.21346630E-16
   52.5870018         6.12791068E-16
   52.7200012         6.00867226E-16
   52.8530006         5.86397839E-16
   52.9860001         5.70294896E-16
   53.1189995         5.53517343E-16
   53.2519989         5.37017300E-16
   53.3849983         5.21674622E-16
   53.5180016         5.08225168E-16
   53.6510010         4.97188011E-16
   53.7840004         4.88801803E-16
   53.9169998         4.82979775E-16
   54.0499992         4.79292481E-16
   54.1829987         4.76985534E-16
   54.3160019         4.75036300E-16
   54.4490013         4.72247444E-16
   54.5820007         4.67369963E-16
   54.7150002         4.59242206E-16
   54.8479996         4.46927882E-16
   54.9809990         4.29833354E-16
   55.1139984         4.07785325E-16
   55.2470016         3.81056697E-16
   55.3800011         3.50332986E-16
   55.5130005         3.16623351E-16
   55.6459999         2.81128012E-16
   55.7789993         2.45081889E-16
   55.9119987         2.09597945E-16
   56.0449982         1.75534251E-16
   56.1780014         1.43404200E-16
   56.3110008         1.13342326E-16
   56.4440002         8.51293457E-17
   56.5769997         5.82702750E-17
   56.7099991         3.21124517E-17
   56.8429985         5.98442178E-18
   56.9760017        -2.06652150E-17
   57.1090012        -4.81492272E-17
   57.2420006        -7.64602811E-17
   57.3750000        -1.05238067E-16
   57.5079994        -1.33789330E-16
   57.6409988        -1.61158593E-16
   57.7739983        -1.86239808E-16
   57.9070015        -2.07913422E-16
   58.0400009        -2.25189982E-16
   58.1730003        -2.37339532E-16
   58.3059998        -2.43988396E-16
   58.4389992        -2.45169796E-16
   58.5719986        -2.41321592E-16
   58.7050018        -2.33233143E-16
   58.8380013        -2.21951206E-16
   58.9710007        -2.08659883E-16
   59.1040001        -1.94553899E-16
   59.2369995        -1.80721825E-16
   59.3699989        -1.68053851E-16
   59.5029984        -1.57181257E-16
   59.6360016        -1.48448864E-16
   59.7690010        -1.41915976E-16
   59.9020004        -1.37377772E-16
   60.0349998        -1.34398321E-16
   60.1679993        -1.32347667E-16
   60.3009987        -1.30438389E-16
   60.4339981        -1.27761513E-16
   60.5670013        -1.23323299E-16
   60.7000008        -1.16088526E-16
   60.8330002        -1.05034322E-16
   60.9659996        -8.92199788E-17
   61.0989990        -6.78726309E-17
   61.2319984        -4.04881683E-17
   61.3650017        -6.93966980E-18
   61.4980011         3.24177575E-17
   61.6310005         7.66609286E-17
   61.7639999         1.24249847E-16
   61.8969994         1.73033955E-16
   62.0299988         2.20328384E-16
   62.1629982         2.63067813E-16
   62.2960014         2.98035663E-16
   62.4290009         3.22153179E-16
   62.5620003         3.32800066E-16
   62.6949997         3.28130929E-16
   62.8279991         3.07344608E-16
   62.9609985         2.70865705E-16
   63.0940018         2.20408296E-16
   63.2270012         1.58903540E-16
   63.3600006         9.02931497E-17
   63.4930000         1.92090380E-17
   63.6259995        -4.94261261E-17
   63.7589989        -1.10829530E-16
   63.8919983        -1.60771499E-16
   64.0250015        -1.95924875E-16
   64.1579971        -2.14112909E-16
   64.2910004        -2.14433882E-16
   64.4240036        -1.97256358E-16
   64.5569992        -1.64093086E-16
   64.6900024        -1.17377697E-16
   64.8229980        -6.01753249E-17
   64.9560013         4.13344551E-18
   65.0889969         7.21581214E-17
   65.2220001         1.40760557E-16
   65.3550034         2.07249811E-16
   65.4879990         2.69497085E-16
   65.6210022         3.25973112E-16
   65.7539978         3.75719278E-16
   65.8870010         4.18274266E-16
   66.0199966         4.53580638E-16
   66.1529999         4.81893773E-16
   66.2860031         5.03709159E-16
   66.4189987         5.19712523E-16
   66.5520020         5.30750368E-16
   66.6849976         5.37804617E-16
   66.8180008         5.41956773E-16
   66.9509964         5.44324124E-16
   67.0839996         5.45959427E-16
   67.2170029         5.47714321E-16
   67.3499985         5.50078707E-16
   67.4830017         5.53017594E-16
   67.6159973         5.55832284E-16
   67.7490005         5.57074882E-16
   67.8820038         5.54537700E-16
   68.0149994         5.45333999E-16
   68.1480026         5.26071570E-16
   68.2809982         4.93107748E-16
   68.4140015         4.42866491E-16
   68.5469971         3.72181089E-16
   68.6800003         2.78627306E-16
   68.8130035         1.60804798E-16
   68.9459991         1.85291981E-17
   69.0790024        -1.47094577E-16
   69.2119980        -3.33733390E-16
   69.3450012        -5.38022199E-16
   69.4779968        -7.55876585E-16
   69.6110001        -9.82884432E-16
   69.7440033        -1.21473037E-15
   69.8769989        -1.44759222E-15
   70.0100021        -1.67846058E-15
   70.1429977        -1.90533476E-15
   70.2760010        -2.12727052E-15
   70.4089966        -2.34427634E-15
   70.5419998        -2.55707981E-15
   70.6750031        -2.76680538E-15
   70.8079987        -2.97460882E-15
   70.9410019        -3.18133547E-15
   71.0739975        -3.38724516E-15
   71.2070007        -3.59184702E-15
   71.3399963        -3.79386269E-15
   71.4729996        -3.99132004E-15
   71.6060028        -4.18175804E-15
   71.7389984        -4.36250767E-15
   71.8720016        -4.53100624E-15
   72.0049973        -4.68509593E-15
   72.1380005        -4.82326437E-15
   72.2710037        -4.94478734E-15
   72.4039993        -5.04975802E-15
   72.5370026        -5.13900225E-15
   72.6699982        -5.21389437E-15
   72.8030014        -5.27610597E-15
   72.9359970        -5.32733495E-15
   73.0690002        -5.36905556E-15
   73.2020035        -5.40233294E-15
   73.3349991        -5.42772106E-15
   73.4680023        -5.44525887E-15
   73.6009979        -5.45454871E-15
   73.7340012        -5.45488922E-15
   73.8669968        -5.44542955E-15
   74.0000000        -5.42530955E-15
   74.1330032        -5.39375885E-15
   74.2659988        -5.35014089E-15
   74.3990021        -5.29395296E-15
   74.5319977        -5.22479272E-15
   74.6650009        -5.14232093E-15
   74.7979965        -5.04625469E-15
   74.9309998        -4.93640934E-15
   75.0640030        -4.81279123E-15
   75.1969986        -4.67575358E-15
   75.3300018        -4.52617138E-15
   75.4629974        -4.36561543E-15
   75.5960007        -4.19647693E-15
   75.7289963        -4.02200339E-15
   75.8619995        -3.84620975E-15
   75.9950027        -3.67364796E-15
   76.1279984        -3.50903600E-15
   76.2610016        -3.35677188E-15
   76.3939972        -3.22037755E-15
   76.5270004        -3.10193672E-15
   76.6600037        -3.00160588E-15
   76.7929993        -2.91726914E-15
   76.9260025        -2.84440631E-15
   77.0589981        -2.77621740E-15
   77.1920013        -2.70401546E-15
   77.3249969        -2.61786332E-15
   77.4580002        -2.50740451E-15
   77.5910034        -2.36279481E-15
   77.7239990        -2.17563716E-15
   77.8570023        -1.93981006E-15
   77.9899979        -1.65209118E-15
   78.1230011        -1.31250667E-15
   78.2559967        -9.24358479E-16
   78.3889999        -4.93934081E-16
   78.5220032        -2.99278843E-17
   78.6549988         4.57352422E-16
   78.7880020         9.56911438E-16
   78.9209976         1.45801444E-15
   79.0540009         1.95106374E-15
   79.1869965         2.42831386E-15
   79.3199997         2.88436191E-15
   79.4530029         3.31638429E-15
   79.5859985         3.72411757E-15
   79.7190018         4.10961497E-15
   79.8519974         4.47682789E-15
   79.9850006         4.83109942E-15
   80.1179962         5.17861460E-15
   80.2509995         5.52589387E-15
   80.3840027         5.87935013E-15
   80.5169983         6.24495581E-15
   80.6500015         6.62798877E-15
   80.7829971         7.03285696E-15
   80.9160004         7.46295827E-15
   81.0490036         7.92054156E-15
   81.1819992         8.40655890E-15
   81.3150024         8.92049699E-15
   81.4479980         9.46020860E-15
   81.5810013         1.00217753E-14
   81.7139969         1.05994569E-14
   81.8470001         1.11857663E-14
   81.9800034         1.17717124E-14
   82.1129990         1.23472162E-14
   82.2460022         1.29016984E-14
   82.3789978         1.34247802E-14
   82.5120010         1.39070333E-14
   82.6449966         1.43406981E-14
   82.7779999         1.47202603E-14
   82.9110031         1.50428206E-14
   83.0439987         1.53081893E-14
   83.1770020         1.55186787E-14