  -24.4200001         9.94841355E-18
  -24.2870007         9.93972650E-18
  -24.1539993         9.92297112E-18
  -24.0209999         9.89956026E-18
  -23.8880005         9.87202838E-18
  -23.7549992         9.84435009E-18
  -23.6219997         9.82211713E-18
  -23.4890003         9.81244573E-18
  -23.3560009         9.82361433E-18
  -23.2229996         9.86449855E-18
  -23.0900002         9.94400964E-18
  -22.9570007         1.00707900E-17
  -22.8239994         1.02534265E-17
  -22.6910000         1.05013805E-17
  -22.5580006         1.08266999E-17
  -22.4249992         1.12464221E-17
  -22.2919998         1.17854179E-17
  -22.1590004         1.24792951E-17
  -22.0259991         1.33769283E-17
  -21.8929996         1.45421892E-17
  -21.7600002         1.60545533E-17
  -21.6270008         1.80083655E-17
  -21.4939995         2.05107440E-17
  -21.3610001         2.36782105E-17
  -21.2280006         2.76322959E-17
  -21.0949993         3.24944007E-17
  -20.9619999         3.83803036E-17
  -20.8290005         4.53947092E-17
  -20.6959991         5.36262779E-17
  -20.5629997         6.31436063E-17
  -20.4300003         7.39928146E-17
  -20.2970009         8.61970969E-17
  -20.1639996         9.97590804E-17
  -20.0310001         1.14666159E-16
  -19.8980007         1.30899214E-16
  -19.7649994         1.48444350E-16
  -19.6320000         1.67307192E-16
  -19.4990005         1.87528528E-16
  -19.3659992         2.09199681E-16
  -19.2329998         2.32475816E-16
  -19.1000004         2.57584996E-16
  -18.9669991         2.84831610E-16
  -18.8339996         3.14592272E-16
  -18.7010002         3.47304234E-16
  -18.5680008         3.83446124E-16
  -18.4349995         4.23512583E-16
  -18.3020000         4.67984486E-16
  -18.1690006         5.17298056E-16
  -18.0359993         5.71815108E-16
  -17.9029999         6.31798699E-16
  -17.7700005         6.97395154E-16
  -17.6369991         7.68626707E-16
  -17.5039997         8.45394521E-16
  -17.3710003         9.27492925E-16
  -17.2380009         1.01463536E-15
  -17.1049995         1.10648793E-15
  -16.9720001         1.20271161E-15
  -16.8390007         1.30300592E-15
  -16.7059994         1.40715360E-15
  -16.5730000         1.51505935E-15
  -16.4400005         1.62677993E-15
  -16.3069992         1.74254085E-15
  -16.1739998         1.86273599E-15
  -16.0410004         1.98790967E-15
  -15.9080000         2.11872078E-15
  -15.7749996         2.25588760E-15
  -15.6420002         2.40012440E-15
  -15.5089998         2.55206707E-15
  -15.3760004         2.71220140E-15
  -15.2430000         2.88079696E-15
  -15.1099997         3.05785416E-15
  -14.9770002         3.24307104E-15
  -14.8439999         3.43583287E-15
  -14.7110004         3.63522401E-15
  -14.5780001         3.84006410E-15
  -14.4449997         4.04896487E-15
  -14.3120003         4.26040251E-15
  -14.1789999         4.47280195E-15
  -14.0459995         4.68462414E-15
  -13.9130001         4.89445452E-15
  -13.7799997         5.10108101E-15
  -13.6470003         5.30355577E-15
  -13.5139999         5.50123844E-15
  -13.3809996         5.69380799E-15
  -13.2480001         5.88124283E-15
  -13.1149998         6.06375767E-15
  -12.9820004         6.24170617E-15
  -12.8490000         6.41543855E-15
  -12.7159996         6.58512975E-15
  -12.5830002         6.75058493E-15
  -12.4499998         6.91104515E-15
  -12.3170004         7.06501542E-15
  -12.1840000         7.21014435E-15
  -12.0509996         7.34318273E-15
  -11.9180002         7.46004278E-15
  -11.7849998         7.55597773E-15
  -11.6520004         7.62587743E-15
  -11.5190001         7.66464359E-15
  -11.3859997         7.66763955E-15
  -11.2530003         7.63111803E-15
  -11.1199999         7.55258452E-15
  -10.9870005         7.43101327E-15
  -10.8540001         7.26685490E-15
  -10.7209997         7.06178610E-15
  -10.5880003         6.81819129E-15
  -10.4549999         6.53838285E-15
  -10.3219995         6.22363133E-15
  -10.1890001         5.87309225E-15
  -10.0559998         5.48276888E-15
  -9.92300034         5.04465634E-15
  -9.78999996         4.54624055E-15
  -9.65699959         3.97048303E-15
  -9.52400017         3.29642819E-15
  -9.39099979         2.50049018E-15
  -9.25800037         1.55841071E-15
  -9.12500000         4.47790744E-16
  -8.99199963        -8.48991287E-16
  -8.85900021        -2.34176531E-15
  -8.72599983        -4.02982447E-15
  -8.59300041        -5.89986442E-15
  -8.46000004        -7.92504608E-15
  -8.32699966        -1.00656017E-14
  -8.19400024        -1.22712865E-14
  -8.06099987        -1.44858795E-14
  -7.92799997        -1.66537062E-14
  -7.79500008        -1.87279442E-14
  -7.66200018        -2.06802366E-14
  -7.52899981        -2.25108154E-14
  -7.39599991        -2.42582206E-14
  -7.26300001        -2.60074775E-14
  -7.13000011        -2.78955749E-14
  -6.99700022        -3.01131224E-14
  -6.86399984        -3.29013347E-14
  -6.73099995        -3.65437593E-14
  -6.59800005        -4.13525686E-14
  -6.46500015        -4.76499299E-14
  -6.33199978        -5.57453355E-14
  -6.19899988        -6.59103577E-14
  -6.06599998        -7.83528312E-14
  -5.93300009        -9.31925977E-14
  -5.80000019        -1.10441163E-13
  -5.66699982        -1.29987533E-13
  -5.53399992        -1.51592036E-13
  -5.40100002        -1.74889508E-13
  -5.26800013        -1.99402479E-13
  -5.13500023        -2.24563871E-13
  -5.00199986        -2.49748627E-13
  -4.86899996        -2.74311579E-13
  -4.73600006        -2.97629326E-13
  -4.60300016        -3.19143041E-13
  -4.46999979        -3.38397902E-13
  -4.33699989        -3.55077106E-13
  -4.20400000        -3.69026045E-13
  -4.07100010        -3.80265616E-13
  -3.93799996        -3.88992712E-13
  -3.80500007        -3.95567964E-13
  -3.67199993        -4.00491435E-13
  -3.53900003        -4.04369057E-13
  -3.40599990        -4.07871734E-13
  -3.27300000        -4.11691623E-13
  -3.14000010        -4.16498840E-13
  -3.00699997        -4.22902219E-13
  -2.87400007        -4.31417407E-13
  -2.74099994        -4.42444231E-13
  -2.60800004        -4.56254663E-13
  -2.47499990        -4.72991058E-13
  -2.34200001        -4.92673936E-13
  -2.20900011        -5.15216559E-13
  -2.07599998        -5.40444154E-13
  -1.94299996        -5.68114349E-13
  -1.80999994        -5.97936360E-13
  -1.67700005        -6.29585414E-13
  -1.54400003        -6.62712344E-13
  -1.41100001        -6.96945973E-13
  -1.27800000        -7.31889755E-13
  -1.14499998        -7.67113044E-13
  -1.01199996        -8.02139713E-13
 -0.879000008        -8.36435522E-13
 -0.745999992        -8.69397436E-13
 -0.612999976        -9.00347125E-13
 -0.479999989        -9.28529280E-13
 -0.347000003        -9.53117034E-13
 -0.214000002        -9.73222913E-13
  -8.10000002E-02    -9.87915045E-13
   5.20000011E-02    -9.96238140E-13
  0.185000002        -9.97234738E-13
  0.317999989        -9.89966464E-13
  0.451000005        -9.73533212E-13
  0.583999991        -9.47088870E-13
  0.717000008        -9.09851946E-13
  0.850000024        -8.61115378E-13
  0.982999980        -8.00253256E-13
   1.11600006        -7.26727977E-13
   1.24899995        -6.40102121E-13
   1.38199997        -5.40054113E-13
   1.51499999        -4.26402484E-13
   1.64800000        -2.99135526E-13
   1.78100002        -1.58447420E-13
   1.91400003        -4.77662335E-15
   2.04699993         1.61160243E-13
   2.18000007         3.38341226E-13
   2.31299996         5.25431315E-13
   2.44600010         7.20796253E-13
   2.57900000         9.22544918E-13
   2.71199989         1.12860524E-12
   2.84500003         1.33683006E-12
   2.97799993         1.54513327E-12
   3.11100006         1.75164527E-12
   3.24399996         1.95487983E-12
   3.37700009         2.15389208E-12
   3.50999999         2.34841942E-12
   3.64299989         2.53897988E-12
   3.77600002         2.72692177E-12
   3.90899992         2.91440635E-12
   4.04199982         3.10432062E-12
   4.17500019         3.30011756E-12
   4.30800009         3.50559078E-12
   4.44099998         3.72460309E-12
   4.57399988         3.96078222E-12
   4.70699978         4.21721078E-12
   4.84000015         4.49614608E-12
   4.97300005         4.79878854E-12
   5.10599995         5.12513686E-12
   5.23899984         5.47393901E-12
   5.37200022         5.84276074E-12
   5.50500011         6.22817379E-12
   5.63800001         6.62605040E-12
   5.77099991         7.03194881E-12
   5.90399981         7.44155952E-12
   6.03700018         7.85117457E-12
   6.17000008         8.25813203E-12
   6.30299997         8.66120457E-12
   6.43599987         9.06087358E-12
   6.56899977         9.45947487E-12
   6.70200014         9.86117611E-12
   6.83500004         1.02717938E-11
   6.96799994         1.06984456E-11
   7.10099983         1.11490721E-11
   7.23400021         1.16318500E-11
   7.36700010         1.21545682E-11
   7.50000000         1.27239998E-11
   7.63299990         1.33453457E-11
   7.76599979         1.40217967E-11
   7.89900017         1.47542638E-11
   8.03199959         1.55413026E-11
   8.16499996         1.63792608E-11
   8.29800034         1.72626184E-11
   8.43099976         1.81845285E-11
   8.56400013         1.91374763E-11
   8.69699955         2.01140285E-11
   8.82999992         2.11075827E-11
   8.96300030         2.21130475E-11
   9.09599972         2.31273889E-11
   9.22900009         2.41499806E-11
   9.36200047         2.51827118E-11
   9.49499989         2.62298325E-11
   9.62800026         2.72975566E-11
   9.76099968         2.83934282E-11
   9.89400005         2.95255383E-11
   10.0270004         3.07016218E-11
   10.1599998         3.19281789E-11
   10.2930002         3.32096503E-11
   10.4259996         3.45478125E-11
   10.5590000         3.59413506E-11
   10.6920004         3.73857993E-11
   10.8249998         3.88737861E-11
   10.9580002         4.03955515E-11
   11.0909996         4.19398197E-11
   11.2240000         4.34948258E-11
   11.3570004         4.50494746E-11
   11.4899998         4.65945234E-11
   11.6230001         4.81236266E-11
   11.7559996         4.96341891E-11
   11.8889999         5.11278693E-11
   12.0220003         5.26107422E-11
   12.1549997         5.40929870E-11
   12.2880001         5.55881903E-11
   12.4209995         5.71122663E-11
   12.5539999         5.86820662E-11
   12.6870003         6.03137817E-11
   12.8199997         6.20213464E-11
   12.9530001         6.38148284E-11
   13.0860004         6.56991683E-11
   13.2189999         6.76731310E-11
   13.3520002         6.97287991E-11
   13.4849997         7.18515109E-11
   13.6180000         7.40203385E-11
   13.7510004         7.62090252E-11
   13.8839998         7.83873452E-11
   14.0170002         8.05227413E-11
   14.1499996         8.25821009E-11
   14.2830000         8.45335538E-11
   14.4160004         8.63480745E-11
   14.5489998         8.80008080E-11
   14.6820002         8.94719368E-11
   14.8149996         9.07471112E-11
   14.9480000         9.18172829E-11
   15.0810003         9.26781082E-11
   15.2139997         9.33288585E-11
   15.3470001         9.37710604E-11
   15.4799995         9.40068787E-11
   15.6129999         9.40375902E-11
   15.7460003         9.38620778E-11
   15.8789997         9.34757410E-11
   16.0119991         9.28697189E-11
   16.1450005         9.20306886E-11
   16.2779999         9.09411851E-11
   16.4109993         8.95804195E-11
   16.5440006         8.79255418E-11
   16.6770000         8.59533070E-11
   16.8099995         8.36418157E-11
   16.9430008         8.09723330E-11
   17.0760002         7.79309117E-11
   17.2089996         7.45096485E-11
   17.3419991         7.07075093E-11
   17.4750004         6.65304895E-11
   17.6079998         6.19912177E-11
   17.7409992         5.71079226E-11
   17.8740005         5.19028397E-11
   18.0070000         4.64002066E-11
   18.1399994         4.06240527E-11
   18.2730007         3.45958227E-11
   18.4060001         2.83323365E-11
   18.5389996         2.18439346E-11
   18.6720009         1.51332193E-11
   18.8050003         8.19443732E-12
   18.9379997         1.01359773E-12
   19.0709991        -6.43072054E-12
   19.2040005        -1.41658742E-11
   19.3369999        -2.22231643E-11
   19.4699993        -3.06354317E-11
   19.6030006        -3.94345702E-11
   19.7360001        -4.86490986E-11
   19.8689995        -5.83020646E-11
   20.0020008        -6.84093962E-11
   20.1350002        -7.89791288E-11
   20.2679996        -9.00111236E-11
   20.4009991        -1.01497796E-10
   20.5340004        -1.13425658E-10
   20.6669998        -1.25777222E-10
   20.7999992        -1.38533685E-10
   20.9330006        -1.51677670E-10
   21.0660000        -1.65195926E-10
   21.1989994        -1.79081791E-10
   21.3320007        -1.93337291E-10
   21.4650002        -2.07974304E-10
   21.5979996        -2.23014995E-10
   21.7310009        -2.38491310E-10
   21.8640003        -2.54443716E-10
   21.9969997        -2.70918982E-10
   22.1299992        -2.87967594E-10
   22.2630005        -3.05640735E-10
   22.3959999        -3.23987087E-10
   22.5289993        -3.43049839E-10
   22.6620007        -3.62864405E-10
   22.7950001        -3.83456655E-10
   22.9279995        -4.04841882E-10
   23.0610008        -4.27025026E-10
   23.1940002        -4.50001703E-10
   23.3269997        -4.73760087E-10
   23.4599991        -4.98283581E-10
   23.5930004        -5.23553756E-10
   23.7259998        -5.49553958E-10
   23.8589993        -5.76272086E-10
   23.9920006        -6.03703587E-10
   24.1250000        -6.31853236E-10
   24.2579994        -6.60736410E-10
   24.3910007        -6.90379143E-10
   24.5240002        -7.20817073E-10
   24.6569996        -7.52093443E-10
   24.7900009        -7.84255993E-10
   24.9230003        -8.17353685E-10
   25.0559998        -8.51432702E-10
   25.1889992        -8.86532237E-10
   25.3220005        -9.22681320E-10
   25.4549999        -9.59895496E-10
   25.5879993        -9.98174765E-10
   25.7210007        -1.03750286E-09
   25.8540001        -1.07784681E-09
   25.9869995        -1.11915877E-09
   26.1200008        -1.16137822E-09
   26.2530003        -1.20443466E-09
   26.3859997        -1.24825195E-09
   26.5189991        -1.29275179E-09
   26.6520004        -1.33785749E-09
   26.7849998        -1.38349776E-09
   26.9179993        -1.42960865E-09
   27.0510006        -1.47613577E-09
   27.1840000        -1.52303403E-09
   27.3169994        -1.57026803E-09
   27.4500008        -1.61780955E-09
   27.5830002        -1.66563507E-09
   27.7159996        -1.71372327E-09
   27.8490009        -1.76205095E-09
   27.9820004        -1.81059012E-09
   28.1149998        -1.85930493E-09
   28.2479992        -1.90814942E-09
   28.3810005        -1.95706651E-09
   28.5139999        -2.00598804E-09
   28.6469994        -2.05483475E-09
   28.7800007        -2.10352047E-09
   28.9130001        -2.15195306E-09
   29.0459995        -2.20003971E-09
   29.1790009        -2.24768981E-09
   29.3120003        -2.29482033E-09
   29.4449997        -2.34135822E-09
   29.5779991        -2.38724374E-09
   29.7110004        -2.43243226E-09
   29.8439999        -2.47689513E-09
   29.9769993        -2.52061882E-09
   30.1100006        -2.56360266E-09
   30.2430000        -2.60585686E-09
   30.3759995        -2.64739697E-09
   30.5090008        -2.68824074E-09
   30.6420002        -2.72840306E-09
   30.7749996        -2.76789125E-09
   30.9080009        -2.80670176E-09
   31.0410004        -2.84481616E-09
   31.1739998        -2.88220048E-09
   31.3069992        -2.91880364E-09
   31.4400005        -2.95455838E-09
   31.5730000        -2.98938363E-09
   31.7059994        -3.02318548E-09
   31.8390007        -3.05586356E-09
   31.9720001        -3.08731218E-09
   32.1049995        -3.11742610E-09
   32.2379990        -3.14610227E-09
   32.3709984        -3.17324456E-09
   32.5040016        -3.19876481E-09
   32.6370010        -3.22258265E-09
   32.7700005        -3.24462635E-09
   32.9029999        -3.26483063E-09
   33.0359993        -3.28313465E-09
   33.1689987        -3.29947825E-09
   33.3019981        -3.31379879E-09
   33.4350014        -3.32602701E-09
   33.5680008        -3.33608408E-09
   33.7010002        -3.34387917E-09
   33.8339996        -3.34930705E-09
   33.9669991        -3.35224803E-09
   34.0999985        -3.35256867E-09
   34.2330017        -3.35012285E-09
   34.3660011        -3.34475603E-09
   34.4990005        -3.33630812E-09
   34.6320000        -3.32461836E-09
   34.7649994        -3.30952932E-09
   34.8979988        -3.29089178E-09
   35.0309982        -3.26856853E-09
   35.1640015        -3.24243654E-09
   35.2970009        -3.21239013E-09
   35.4300003        -3.17834004E-09
   35.5629997        -3.14021364E-09
   35.6959991        -3.09795167E-09
   35.8289986        -3.05150660E-09
   35.9620018        -3.00083647E-09
   36.0950012        -2.94590263E-09
   36.2280006        -2.88666380E-09
   36.3610001        -2.82307178E-09
   36.4939995        -2.75506906E-09
   36.6269989        -2.68258460E-09
   36.7599983        -2.60553423E-09
   36.8930016        -2.52382026E-09
   37.0260010        -2.43733234E-09
   37.1590004        -2.34595054E-09
   37.2919998        -2.24954988E-09
   37.4249992        -2.14800333E-09
   37.5579987        -2.04118789E-09
   37.6910019        -1.92898852E-09
   37.8240013        -1.81130300E-09
   37.9570007        -1.68804526E-09
   38.0900002        -1.55914770E-09
   38.2229996        -1.42456158E-09
   38.3559990        -1.28425814E-09
   38.4889984        -1.13822529E-09
   38.6220016        -9.86465798E-10
   38.7550011        -8.28993429E-10
   38.8880005        -6.65828059E-10
   39.0209999        -4.96991559E-10
   39.1539993        -3.22502219E-10
   39.2869987        -1.42372392E-10
   39.4199982         4.33959639E-11
   39.5530014         2.34811892E-10
   39.6860008         4.31897101E-10
   39.8190002         6.34684139E-10
   39.9519997         8.43214887E-10
   40.0849991         1.05753761E-09
   40.2179985         1.27770217E-09
   40.3510017         1.50375579E-09
   40.4840012         1.73573922E-09
   40.6170006         1.97368077E-09
   40.7500000         2.21759411E-09
   40.8829994         2.46747489E-09
   41.0159988         2.72330114E-09
   41.1489983         2.98503067E-09
   41.2820015         3.25260441E-09
   41.4150009         3.52594842E-09
   41.5480003         3.80497767E-09
   41.6809998         4.08960021E-09
   41.8139992         4.37972281E-09
   41.9469986         4.67525441E-09
   42.0800018         4.97611197E-09
   42.2130013         5.28222088E-09
   42.3460007         5.59352165E-09
   42.4790001         5.90996629E-09
   42.6119995         6.23151841E-09
   42.7449989         6.55815269E-09
   42.8779984         6.88985136E-09
   43.0110016         7.22659799E-09
   43.1440010         7.56837348E-09
   43.2770004         7.91514942E-09
   43.4099998         8.26688584E-09
   43.5429993         8.62352323E-09
   43.6759987         8.98497987E-09
   43.8089981         9.35115096E-09
   43.9420013         9.72190950E-09
   44.0750008         1.00971018E-08
   44.2080002         1.04765556E-08
   44.3409996         1.08600817E-08
   44.4739990         1.12474767E-08
   44.6069984         1.16385337E-08
   44.7400017         1.20330448E-08
   44.8730011         1.24308066E-08
   45.0060005         1.28316264E-08
   45.1389999         1.32353239E-08
   45.2719994         1.36417340E-08
   45.4049988         1.40507108E-08
   45.5379982         1.44621213E-08
   45.6710014         1.48758490E-08
   45.8040009         1.52917856E-08
   45.9370003         1.57098263E-08
   46.0699997         1.61298743E-08
   46.2029991         1.65518195E-08
   46.3359985         1.69755445E-08
   46.4690018         1.74009216E-08
   46.6020012         1.78278050E-08
   46.7350006         1.82560314E-08
   46.8680000         1.86854159E-08
   47.0009995         1.91157650E-08
   47.1339989         1.95468566E-08
   47.2669983         1.99784687E-08
   47.4000015         2.04103667E-08
   47.5330009         2.08423074E-08
   47.6660004         2.12740510E-08
   47.7989998         2.17053593E-08
   47.9319992         2.21359926E-08
   48.0649986         2.25657182E-08
   48.1980019         2.29943051E-08
   48.3310013         2.34215225E-08
   48.4640007         2.38471358E-08
   48.5970001         2.42708964E-08
   48.7299995         2.46925538E-08
   48.8629990         2.51118291E-08
   48.9959984         2.55284220E-08
   49.1290016         2.59420059E-08
   49.2620010         2.63522200E-08
   49.3950005         2.67586699E-08
   49.5279999         2.71609331E-08
   49.6609993         2.75585421E-08
   49.7939987         2.79510104E-08
   49.9269981         2.83378210E-08
   50.0600014         2.87184321E-08
   50.1930008         2.90922895E-08
   50.3260002         2.94588300E-08
   50.4589996         2.98174783E-08
   50.5919991         3.01676621E-08
   50.7249985         3.05088115E-08
   50.8580017         3.08403507E-08
   50.9910011         3.11617150E-08
   51.1240005         3.14723465E-08
   51.2570000         3.17716804E-08
   51.3899994         3.20591518E-08
   51.5229988         3.23341922E-08
   51.6559982         3.25962226E-08
   51.7890015         3.28446532E-08
   51.9220009         3.30788836E-08
   52.0550003         3.32982921E-08
   52.1879997         3.35022463E-08
   52.3209991         3.36901067E-08
   52.4539986         3.38612125E-08
   52.5870018         3.40149136E-08
   52.7200012         3.41505491E-08
   52.8530006         3.42674760E-08
   52.9860001         3.43650619E-08
   53.1189995         3.44426887E-08
   53.2519989         3.44997808E-08
   53.3849983         3.45357734E-08
   53.5180016         3.45501476E-08
   53.6510010         3.45424098E-08
   53.7840004         3.45121052E-08
   53.9169998         3.44588038E-08
   54.0499992         3.43821043E-08
   54.1829987         3.42816158E-08
   54.3160019         3.41569759E-08
   54.4490013         3.40078152E-08
   54.5820007         3.38337713E-08
   54.7150002         3.36344748E-08
   54.8479996         3.34095489E-08
   54.9809990         3.31585994E-08
   55.1139984         3.28812177E-08
   55.2470016         3.25769882E-08
   55.3800011         3.22454703E-08
   55.5130005         3.18862163E-08
   55.6459999         3.14987645E-08
   55.7789993         3.10826600E-08
   55.9119987         3.06374304E-08
   56.0449982         3.01626173E-08
   56.1780014         2.96577571E-08
   56.3110008         2.91224005E-08
   56.4440002         2.85560997E-08
   56.5769997         2.79584143E-08
   56.7099991         2.73289142E-08
   56.8429985         2.66671698E-08
   56.9760017         2.59727582E-08
   57.1090012         2.52452512E-08
   57.2420006         2.44842244E-08
   57.3750000         2.36892443E-08
   57.5079994         2.28598758E-08
   57.6409988         2.19956799E-08
   57.7739983         2.10962074E-08
   57.9070015         2.01610142E-08
   58.0400009         1.91896508E-08
   58.1730003         1.81816731E-08
   58.3059998         1.71366459E-08
   58.4389992         1.60541411E-08
   58.5719986         1.49337538E-08
   58.7050018         1.37750940E-08
   58.8380013         1.25777939E-08
   58.9710007         1.13415162E-08
   59.1040001         1.00659472E-08
   59.2369995         8.75080008E-09
   59.3699989         7.39582262E-09
   59.5029984         6.00078343E-09
   59.6360016         4.56547911E-09
   59.7690010         3.08973136E-09
   59.9020004         1.57338476E-09
   60.0349998         1.63047995E-11
   60.1679993        -1.58162228E-09
   60.3009987        -3.22049387E-09
   60.4339981        -4.90038854E-09
   60.5670013        -6.62137056E-09
   60.7000008        -8.38348235E-09
   60.8330002        -1.01867519E-08
   60.9659996        -1.20311894E-08
   61.0989990        -1.39167851E-08
   61.2319984        -1.58435096E-08
   61.3650017        -1.78113133E-08
   61.4980011        -1.98201171E-08
   61.6310005        -2.18698304E-08
   61.7639999        -2.39603395E-08
   61.8969994        -2.60914987E-08
   62.0299988        -2.82631465E-08
   62.1629982        -3.04750962E-08
   62.2960014        -3.27271259E-08
   62.4290009        -3.50190099E-08
   62.5620003        -3.73504641E-08
   62.6949997        -3.97212077E-08
   62.8279991        -4.21309068E-08
   62.9609985        -4.45791990E-08
   63.0940018        -4.70656971E-08
   63.2270012        -4.95899641E-08
   63.3600006        -5.21515275E-08
   63.4930000        -5.47498793E-08
   63.6259995        -5.73844652E-08
   63.7589989        -6.00546812E-08
   63.8919983        -6.27598951E-08
   64.0250015        -6.54994139E-08
   64.1579971        -6.82725201E-08
   64.2910004        -7.10784605E-08
   64.4240036        -7.39164179E-08
   64.5569992        -7.67855468E-08
   64.6900024        -7.96849733E-08
   64.8229980        -8.26137736E-08
   64.9560013        -8.55709956E-08
   65.0889969        -8.85556588E-08
   65.2220001        -9.15667258E-08
   65.3550034        -9.46031165E-08
   65.4879990        -9.76637438E-08
   65.6210022        -1.00747442E-07
   65.7539978        -1.03853012E-07
   65.8870010        -1.06979201E-07
   66.0199966        -1.10124731E-07
   66.1529999        -1.13288245E-07
   66.2860031        -1.16468371E-07
   66.4189987        -1.19663667E-07
   66.5520020        -1.22872663E-07
   66.6849976        -1.26093823E-07
   66.8180008        -1.29325613E-07
   66.9509964        -1.32566427E-07
   67.0839996        -1.35814631E-07
   67.2170029        -1.39068590E-07
   67.3499985        -1.42326599E-07
   67.4830017        -1.45586952E-07
   67.6159973        -1.48847860E-07
   67.7490005        -1.52107532E-07
   67.8820038        -1.55364162E-07
   68.0149994        -1.58615833E-07
   68.1480026        -1.61860584E-07
   68.2809982        -1.65096424E-07
   68.4140015        -1.68321250E-07
   68.5469971        -1.71532903E-07
   68.6800003        -1.74729152E-07
   68.8130035        -1.77907623E-07
   68.9459991        -1.81065928E-07
   69.0790024        -1.84201525E-07
   69.2119980        -1.87311826E-07
   69.3450012        -1.90394118E-07
   69.4779968        -1.93445644E-07
   69.6110001        -1.96463560E-07
   69.7440033        -1.99444926E-07
   69.8769989        -2.02386786E-07
   70.0100021        -2.05286085E-07
   70.1429977        -2.08139738E-07
   70.2760010        -2.10944563E-07
   70.4089966        -2.13697376E-07
   70.5419998        -2.16394895E-07
   70.6750031        -2.19033836E-07
   70.8079987        -2.21610804E-07
   70.9410019        -2.24122374E-07
   71.0739975        -2.26565064E-07
   71.2070007        -2.28935306E-07
   71.3399963        -2.31229464E-07
   71.4729996        -2.33443870E-07
   71.6060028        -2.35574760E-07
   71.7389984        -2.37618309E-07
   71.8720016        -2.39570682E-07
   72.0049973        -2.41427955E-07
   72.1380005        -2.43186236E-07
   72.2710037        -2.44841516E-07
   72.4039993        -2.46389845E-07
   72.5370026        -2.47827245E-07
   72.6699982        -2.49149736E-07
   72.8030014        -2.50353338E-07
   72.9359970        -2.51434130E-07
   73.0690002        -2.52388162E-07
   73.2020035        -2.53211454E-07
   73.3349991        -2.53900140E-07
   73.4680023        -2.54450242E-07
   73.6009979        -2.54857895E-07
   73.7340012        -2.55119147E-07
   73.8669968        -2.55230020E-07
   74.0000000        -2.55186563E-07
   74.1330032        -2.54984826E-07
   74.2659988        -2.54620801E-07
   74.3990021        -2.54090509E-07
   74.5319977        -2.53389942E-07
   74.6650009        -2.52515179E-07
   74.7979965        -2.51462239E-07
   74.9309998        -2.50227259E-07
   75.0640030        -2.48806430E-07
   75.1969986        -2.47196027E-07
   75.3300018        -2.45392386E-07
   75.4629974        -2.43391980E-07
   75.5960007        -2.41191429E-07
   75.7289963        -2.38787436E-07
   75.8619995        -2.36176859E-07
   75.9950027        -2.33356673E-07
   76.1279984        -2.30323963E-07
   76.2610016        -2.27075944E-07
   76.3939972        -2.23609945E-07
   76.5270004        -2.19923393E-07
   76.6600037        -2.16013802E-07
   76.7929993        -2.11878813E-07
   76.9260025        -2.07516123E-07
   77.0589981        -2.02923587E-07
   77.1920013        -1.98099087E-07
   77.3249969        -1.93040691E-07
   77.4580002        -1.87746551E-07
   77.5910034        -1.82215004E-07
   77.7239990        -1.76444516E-07
   77.8570023        -1.70433765E-07
   77.9899979        -1.64181628E-07
   78.1230011        -1.57687197E-07
   78.2559967        -1.50949774E-07
   78.3889999        -1.43968947E-07
   78.5220032        -1.36744518E-07
   78.6549988        -1.29276543E-07
   78.7880020        -1.21565321E-07
   78.9209976        -1.13611421E-07
   79.0540009        -1.05415616E-07
   79.1869965        -9.69789298E-08
   79.3199997        -8.83025848E-08
   79.4530029        -7.93880304E-08
   79.5859985        -7.02369150E-08
   79.7190018        -6.08510788E-08
   79.8519974        -5.12325862E-08
   79.9850006        -4.13836823E-08
   80.1179962        -3.13068504E-08
   80.2509995        -2.10047588E-08
   80.3840027        -1.04803481E-08
   80.5169983         2.63210786E-10
   80.6500015         1.12224958E-08
   80.7829971         2.23937917E-08
   80.9160004         3.37731265E-08
   81.0490036         4.53562343E-08
   81.1819992         5.71385605E-08
   81.3150024         6.91152664E-08
   81.4479980         8.12812360E-08
   81.5810013         9.36310940E-08
   81.7139969         1.06159177E-07
   81.8470001         1.18859603E-07
   81.9800034         1.31726253E-07
   82.1129990         1.44752789E-07
   82.2460022         1.57932703E-07
   82.3789978         1.71259231E-07
   82.5120010         1.84725479E-07
   82.6449966         1.98324358E-07
   82.7779999         2.12048576E-07
   82.9110031         2.25890659E-07
   83.0439987         2.39842990E-07
   83.1770020         2.53897582E-07