  -24.4200001       0.00000000    
  -24.2900009       0.00000000    
  -24.1599998       0.00000000    
  -24.0300007      -5.75250625E-23
  -23.8999996      -3.90411225E-22
  -23.7700005      -1.49908563E-21
  -23.6399994      -4.27432455E-21
  -23.5100002      -1.00555646E-20
  -23.3799992      -2.06121114E-20
  -23.2500000      -3.80344528E-20
  -23.1200008      -6.45432424E-20
  -22.9899998      -1.02246089E-19
  -22.8600006      -1.52893131E-19
  -22.7299995      -2.17696670E-19
  -22.6000004      -2.97285584E-19
  -22.4699993      -3.91856265E-19
  -22.3400002      -5.01562205E-19
  -22.2099991      -6.27150504E-19
  -22.0799999      -7.70812080E-19
  -21.9500008      -9.37169474E-19
  -21.8199997      -1.13428341E-18
  -21.6900005      -1.37453243E-18
  -21.5599995      -1.67520514E-18
  -21.4300003      -2.05865299E-18
  -21.2999992      -2.55188755E-18
  -21.1700001      -3.18555091E-18
  -21.0400009      -3.99226977E-18
  -20.9099998      -5.00447166E-18
  -20.7800007      -6.25182942E-18
  -20.6499996      -7.75856703E-18
  -20.5200005      -9.54091708E-18
  -20.3899994      -1.16050247E-17
  -20.2600002      -1.39456216E-17
  -20.1299992      -1.65457050E-17
  -20.0000000      -1.93774090E-17
  -19.8700008      -2.24041356E-17
  -19.7399998      -2.55838890E-17
  -19.6100006      -2.88735896E-17
  -19.4799995      -3.22340539E-17
  -19.3500004      -3.56351294E-17
  -19.2199993      -3.90604645E-17
  -19.0900002      -4.25113098E-17
  -18.9599991      -4.60087353E-17
  -18.8299999      -4.95938121E-17
  -18.7000008      -5.33253595E-17
  -18.5699997      -5.72751900E-17
  -18.4400005      -6.15208434E-17
  -18.3099995      -6.61363127E-17
  -18.1800003      -7.11813071E-17
  -18.0499992      -7.66899395E-17
  -17.9200001      -8.26598277E-17
  -17.7900009      -8.90427438E-17
  -17.6599998      -9.57377451E-17
  -17.5300007      -1.02587734E-16
  -17.3999996      -1.09379998E-16
  -17.2700005      -1.15851039E-16
  -17.1399994      -1.21695579E-16
  -17.0100002      -1.26579174E-16
  -16.8799992      -1.30153322E-16
  -16.7500000      -1.32072051E-16
  -16.6200008      -1.32008126E-16
  -16.4899998      -1.29667298E-16
  -16.3600006      -1.24798896E-16
  -16.2299995      -1.17201262E-16
  -16.1000004      -1.06720910E-16
  -15.9700003      -9.32447419E-17
  -15.8400002      -7.66854794E-17
  -15.7100000      -5.69608547E-17
  -15.5799999      -3.39680428E-17
  -15.4499998      -7.55529235E-18
  -15.3199997       2.25067308E-17
  -15.1899996       5.65512945E-17
  -15.0600004       9.50369048E-17
  -14.9300003       1.38561289E-16
  -14.8000002       1.87866243E-16
  -14.6700001       2.43832622E-16
  -14.5400000       3.07465310E-16
  -14.4099998       3.79869633E-16
  -14.2799997       4.62220744E-16
  -14.1499996       5.55729211E-16
  -14.0200005       6.61605047E-16
  -13.8900003       7.81023246E-16
  -13.7600002       9.15093315E-16
  -13.6300001       1.06483371E-15
  -13.5000000       1.23115371E-15
  -13.3699999       1.41484180E-15
  -13.2399998       1.61656354E-15
  -13.1099997       1.83686887E-15
  -12.9799995       2.07621180E-15
  -12.8500004       2.33498502E-15
  -12.7200003       2.61357140E-15
  -12.5900002       2.91240992E-15
  -12.4600000       3.23207656E-15
  -12.3299999       3.57337197E-15
  -12.1999998       3.93740640E-15
  -12.0699997       4.32566131E-15
  -11.9399996       4.74002305E-15
  -11.8100004       5.18275998E-15
  -11.6800003       5.65645087E-15
  -11.5500002       6.16383843E-15
  -11.4200001       6.70763951E-15
  -11.2900000       7.29030924E-15
  -11.1599998       7.91379749E-15
  -11.0299997       8.57932483E-15
  -10.8999996       9.28720974E-15
  -10.7700005       1.00367856E-14
  -10.6400003       1.08264270E-14
  -10.5100002       1.16537021E-14
  -10.3800001       1.25156546E-14
  -10.2500000       1.34092058E-14
  -10.1199999       1.43316450E-14
  -9.98999977       1.52811960E-14
  -9.85999966       1.62575845E-14
  -9.72999954       1.72625721E-14
  -9.60000038       1.83003874E-14
  -9.47000027       1.93779708E-14
  -9.34000015       2.05049854E-14
  -9.21000004       2.16934692E-14
  -9.07999992       2.29571086E-14
  -8.94999981       2.43100438E-14
  -8.81999969       2.57652345E-14
  -8.68999958       2.73323624E-14
  -8.56000042       2.90154490E-14
  -8.43000031       3.08103051E-14
  -8.30000019       3.27021701E-14
  -8.17000008       3.46638544E-14
  -8.03999996       3.66548189E-14
  -7.90999985       3.86216937E-14
  -7.78000021       4.05006161E-14
  -7.65000010       4.22217396E-14
  -7.51999998       4.37160616E-14
  -7.38999987       4.49244286E-14
  -7.26000023       4.58082973E-14
  -7.13000011       4.63614607E-14
  -7.00000000       4.66215743E-14
  -6.86999989       4.66800196E-14
  -6.73999977       4.66885069E-14
  -6.61000013       4.68606646E-14
  -6.48000002       4.74672385E-14
  -6.34999990       4.88237448E-14
  -6.21999979       5.12701454E-14
  -6.09000015       5.51430104E-14
  -5.96000004       6.07414238E-14
  -5.82999992       6.82891244E-14
  -5.69999981       7.78961653E-14
  -5.57000017       8.95240913E-14
  -5.44000006       1.02959240E-13
  -5.30999994       1.17798363E-13
  -5.17999983       1.33450624E-13
  -5.05000019       1.49158694E-13
  -4.92000008       1.64039870E-13
  -4.78999996       1.77146736E-13
  -4.65999985       1.87543896E-13
  -4.53000021       1.94395769E-13
  -4.40000010       1.97057702E-13
  -4.26999998       1.95161988E-13
  -4.13999987       1.88688800E-13
  -4.01000023       1.78012891E-13
  -3.88000011       1.63917911E-13
  -3.75000000       1.47572303E-13
  -3.61999989       1.30464297E-13
  -3.49000001       1.14297189E-13
  -3.35999990       1.00850284E-13
  -3.23000002       9.18152883E-14
  -3.09999990       8.86209441E-14
  -2.97000003       9.22621558E-14
  -2.83999991       1.03150154E-13
  -2.71000004       1.21000418E-13
  -2.57999992       1.44772825E-13
  -2.45000005       1.72674226E-13
  -2.31999993       2.02228940E-13
  -2.19000006       2.30415974E-13
  -2.05999994       2.53865098E-13
  -1.92999995       2.69097841E-13
  -1.79999995       2.72793290E-13
  -1.66999996       2.62055812E-13
  -1.53999996       2.34658782E-13
  -1.40999997       1.89240279E-13
  -1.27999997       1.25429669E-13
  -1.14999998       4.38889783E-14
  -1.01999998      -5.37372135E-14
 -0.889999986      -1.64963610E-13
 -0.759999990      -2.86685904E-13
 -0.629999995      -4.15463101E-13
 -0.500000000      -5.47833534E-13
 -0.370000005      -6.80632579E-13
 -0.239999995      -8.11278833E-13
 -0.109999999      -9.37995883E-13
   1.99999996E-02  -1.05994445E-12
  0.150000006      -1.17724472E-12
  0.280000001      -1.29088266E-12
  0.409999996      -1.40250593E-12
  0.540000021      -1.51412433E-12
  0.670000017      -1.62774774E-12
  0.800000012      -1.74499673E-12
  0.930000007      -1.86673116E-12
   1.05999994      -1.99274256E-12
   1.19000006      -2.12154946E-12
   1.32000005      -2.25033252E-12
   1.45000005      -2.37502661E-12
   1.58000004      -2.49057676E-12
   1.71000004      -2.59134554E-12
   1.84000003      -2.67164199E-12
   1.97000003      -2.72632676E-12
   2.09999990      -2.75143710E-12
   2.23000002      -2.74476839E-12
   2.35999990      -2.70634665E-12
   2.49000001      -2.63873407E-12
   2.61999989      -2.54712180E-12
   2.75000000      -2.43918145E-12
   2.88000011      -2.32466715E-12
   3.00999999      -2.21478998E-12
   3.14000010      -2.12140136E-12
   3.26999998      -2.05605108E-12
   3.40000010      -2.02900327E-12
   3.52999997      -2.04829101E-12
   3.66000009      -2.11891073E-12
   3.78999996      -2.24223374E-12
   3.92000008      -2.41570782E-12
   4.05000019      -2.63288935E-12
   4.17999983      -2.88382989E-12
   4.30999994      -3.15579247E-12
   4.44000006      -3.43425939E-12
   4.57000017      -3.70414636E-12
   4.69999981      -3.95112805E-12
   4.82999992      -4.16295340E-12
   4.96000004      -4.33063915E-12
   5.09000015      -4.44941479E-12
   5.21999979      -4.51933196E-12
   5.34999990      -4.54546210E-12
   5.48000002      -4.53764977E-12
   5.61000013      -4.50982264E-12
   5.73999977      -4.47890813E-12
   5.86999989      -4.46343917E-12
   6.00000000      -4.48195734E-12
   6.13000011      -4.55136449E-12
   6.26000023      -4.68536147E-12
   6.38999987      -4.89312453E-12
   6.51999998      -5.17834300E-12
   6.65000010      -5.53872790E-12
   6.78000021      -5.96604103E-12
   6.90999985      -6.44666482E-12
   7.03999996      -6.96267436E-12
   7.17000008      -7.49332974E-12
   7.30000019      -8.01686148E-12
   7.42999983      -8.51239565E-12
   7.55999994      -8.96184255E-12
   7.69000006      -9.35156987E-12
   7.82000017      -9.67371148E-12
   7.94999981      -9.92695856E-12
   8.07999992      -1.01167685E-11
   8.21000004      -1.02549349E-11
   8.34000015      -1.03585595E-11
   8.47000027      -1.04484893E-11
   8.60000038      -1.05473607E-11
   8.72999954      -1.06774190E-11
   8.85999966      -1.08583186E-11
   8.98999977      -1.11050925E-11
   9.11999989      -1.14265134E-11
   9.25000000      -1.18239862E-11
   9.38000011      -1.22911030E-11
   9.51000023      -1.28139296E-11
   9.64000034      -1.33719971E-11
   9.77000046      -1.39399343E-11
   9.89999962      -1.44896135E-11
   10.0299997      -1.49926026E-11
   10.1599998      -1.54227100E-11
   10.2900000      -1.57583807E-11
   10.4200001      -1.59847031E-11
   10.5500002      -1.60948321E-11
   10.6800003      -1.60906687E-11
   10.8100004      -1.59826995E-11
   10.9399996      -1.57889899E-11
   11.0699997      -1.55334010E-11
   11.1999998      -1.52431592E-11
   11.3299999      -1.49460114E-11
   11.4600000      -1.46671772E-11
   11.5900002      -1.44264383E-11
   11.7200003      -1.42356023E-11
   11.8500004      -1.40966145E-11
   11.9799995      -1.40005169E-11
   12.1099997      -1.39273922E-11
   12.2399998      -1.38473417E-11
   12.3699999      -1.37224338E-11
   12.5000000      -1.35095025E-11
   12.6300001      -1.31635562E-11
   12.7600002      -1.26415224E-11
   12.8900003      -1.19059996E-11
   13.0200005      -1.09286642E-11
   13.1499996      -9.69302503E-12
   13.2799997      -8.19626225E-12
   13.4099998      -6.44993694E-12
   13.5400000      -4.47948579E-12
   13.6700001      -2.32251046E-12
   13.8000002      -2.59622171E-14
   13.9300003       2.35752520E-12
   14.0600004       4.77388485E-12
   14.1899996       7.17205852E-12
   14.3199997       9.50824228E-12
   14.4499998       1.17495380E-11
   14.5799999       1.38767045E-11
   14.7100000       1.58856695E-11
   14.8400002       1.77876967E-11
   14.9700003       1.96080981E-11
   15.1000004       2.13836188E-11
   15.2299995       2.31586555E-11
   15.3599997       2.49806269E-11
   15.4899998       2.68948995E-11
   15.6199999       2.89396996E-11
   15.7500000       3.11414956E-11
   15.8800001       3.35112424E-11
   16.0100002       3.60418917E-11
   16.1399994       3.87074227E-11
   16.2700005       4.14635201E-11
   16.3999996       4.42499405E-11
   16.5300007       4.69943043E-11
   16.6599998       4.96172062E-11
   16.7900009       5.20380752E-11
   16.9200001       5.41813608E-11
   17.0499992       5.59825623E-11
   17.1800003       5.73935240E-11
   17.3099995       5.83864762E-11
   17.4400005       5.89566035E-11
   17.5699997       5.91226582E-11
   17.7000008       5.89257740E-11
   17.8299999       5.84262499E-11
   17.9599991       5.76988284E-11
   18.0900002       5.68266580E-11
   18.2199993       5.58944731E-11
   18.3500004       5.49816304E-11
   18.4799995       5.41555065E-11
   18.6100006       5.34658984E-11
   18.7399998       5.29409572E-11
   18.8700008       5.25849156E-11
   19.0000000       5.23779770E-11
   19.1299992       5.22783553E-11
   19.2600002       5.22262580E-11
   19.3899994       5.21495035E-11
   19.5200005       5.19704349E-11
   19.6499996       5.16133594E-11
   19.7800007       5.10118510E-11
   19.9099998       5.01154188E-11
   20.0400009       4.88947251E-11
   20.1700001       4.73449370E-11
   20.2999992       4.54868955E-11
   20.4300003       4.33658456E-11
   20.5599995       4.10477659E-11
   20.6900005       3.86137580E-11
   20.8199997       3.61525948E-11
   20.9500008       3.37524453E-11
   21.0799999       3.14920486E-11
   21.2099991       2.94325571E-11
   21.3400002       2.76103879E-11
   21.4699993       2.60319717E-11
   21.6000004       2.46708348E-11
   21.7299995       2.34673652E-11
   21.8600006       2.23313000E-11
   21.9899998       2.11468256E-11
   22.1200008       1.97799017E-11
   22.2500000       1.80872262E-11
   22.3799992       1.59260626E-11
   22.5100002       1.31642058E-11
   22.6399994       9.68918001E-12
   22.7700005       5.41569480E-12
   22.8999996       2.91048571E-13
   23.0300007      -5.70240122E-12
   23.1599998      -1.25477250E-11
   23.2900009      -2.01970038E-11
   23.4200001      -2.85777513E-11
   23.5499992      -3.76015122E-11
   23.6800003      -4.71742194E-11
   23.8099995      -5.72071453E-11
   23.9400005      -6.76278478E-11
   24.0699997      -7.83898155E-11
   24.2000008      -8.94801941E-11
   24.3299999      -1.00924963E-10
   24.4599991      -1.12790659E-10
   24.5900002      -1.25183114E-10
   24.7199993      -1.38242431E-10
   24.8500004      -1.52135346E-10
   24.9799995      -1.67044850E-10
   25.1100006      -1.83158752E-10
   25.2399998      -2.00657060E-10
   25.3700008      -2.19700133E-10
   25.5000000      -2.40418102E-10
   25.6299992      -2.62902450E-10
   25.7600002      -2.87200846E-10
   25.8899994      -3.13315179E-10
   26.0200005      -3.41203343E-10
   26.1499996      -3.70784015E-10
   26.2800007      -4.01945421E-10
   26.4099998      -4.34555475E-10
   26.5400009      -4.68473815E-10
   26.6700001      -5.03564523E-10
   26.7999992      -5.39707612E-10
   26.9300003      -5.76809378E-10
   27.0599995      -6.14809981E-10
   27.1900005      -6.53688048E-10
   27.3199997      -6.93461455E-10
   27.4500008      -7.34184602E-10
   27.5799999      -7.75942421E-10
   27.7099991      -8.18841051E-10
   27.8400002      -8.62996841E-10
   27.9699993      -9.08523812E-10
   28.1000004      -9.55521551E-10
   28.2299995      -1.00406328E-09
   28.3600006      -1.05418696E-09
   28.4899998      -1.10588894E-09
   28.6200008      -1.15912036E-09
   28.7500000      -1.21378863E-09
   28.8799992      -1.26976107E-09
   29.0100002      -1.32687394E-09
   29.1399994      -1.38494238E-09
   29.2700005      -1.44377310E-09
   29.3999996      -1.50317792E-09
   29.5300007      -1.56298652E-09
   29.6599998      -1.62305835E-09
   29.7900009      -1.68329062E-09
   29.9200001      -1.74362524E-09
   30.0499992      -1.80404980E-09
   30.1800003      -1.86459559E-09
   30.3099995      -1.92533167E-09
   30.4400005      -1.98635530E-09
   30.5699997      -2.04777972E-09
   30.7000008      -2.10972062E-09
   30.8299999      -2.17228235E-09
   30.9599991      -2.23554419E-09
   31.0900002      -2.29954900E-09
   31.2199993      -2.36429476E-09
   31.3500004      -2.42973019E-09
   31.4799995      -2.49575360E-09
   31.6100006      -2.56221622E-09
   31.7399998      -2.62892996E-09
   31.8700008      -2.69567768E-09
   32.0000000      -2.76222623E-09
   32.1300011      -2.82833978E-09
   32.2599983      -2.89379476E-09
   32.3899994      -2.95839153E-09
   32.5200005      -3.02196468E-09
   32.6500015      -3.08439008E-09
   32.7799988      -3.14558646E-09
   32.9099998      -3.20551385E-09
   33.0400009      -3.26416782E-09
   33.1699982      -3.32156858E-09
   33.2999992      -3.37774875E-09
   33.4300003      -3.43273809E-09
   33.5600014      -3.48654794E-09
   33.6899986      -3.53915675E-09
   33.8199997      -3.59049768E-09
   33.9500008      -3.64044861E-09
   34.0800018      -3.68882835E-09
   34.2099991      -3.73539599E-09
   34.3400002      -3.77985465E-09
   34.4700012      -3.82186238E-09
   34.5999985      -3.86104437E-09
   34.7299995      -3.89700938E-09
   34.8600006      -3.92936794E-09
   34.9900017      -3.95775057E-09
   35.1199989      -3.98182420E-09
   35.2500000      -4.00130595E-09
   35.3800011      -4.01597422E-09
   35.5099983      -4.02567224E-09
   35.6399994      -4.03030986E-09
   35.7700005      -4.02985556E-09
   35.9000015      -4.02433065E-09
   36.0299988      -4.01379019E-09
   36.1599998      -3.99830835E-09
   36.2900009      -3.97796018E-09
   36.4199982      -3.95280297E-09
   36.5499992      -3.92285804E-09
   36.6800003      -3.88810140E-09
   36.8100014      -3.84845134E-09
   36.9399986      -3.80376664E-09
   37.0699997      -3.75384923E-09
   37.2000008      -3.69844999E-09
   37.3300018      -3.63728248E-09
   37.4599991      -3.57003804E-09
   37.5900002      -3.49640517E-09
   37.7200012      -3.41608719E-09
   37.8499985      -3.32882211E-09
   37.9799995      -3.23439719E-09
   38.1100006      -3.13266169E-09
   38.2400017      -3.02353298E-09
   38.3699989      -2.90699775E-09
   38.5000000      -2.78310797E-09
   38.6300011      -2.65196998E-09
   38.7599983      -2.51373078E-09
   38.8899994      -2.36855913E-09
   39.0200005      -2.21662622E-09
   39.1500015      -2.05808770E-09
   39.2799988      -1.89306415E-09
   39.4099998      -1.72162717E-09
   39.5400009      -1.54378998E-09
   39.6699982      -1.35950418E-09
   39.7999992      -1.16866317E-09
   39.9300003      -9.71107750E-10
   40.0600014      -7.66642860E-10
   40.1899986      -5.55053725E-10
   40.3199997      -3.36128542E-10
   40.4500008      -1.09677926E-10
   40.5800018       1.24442401E-10
   40.7099991       3.66314867E-10
   40.8400002       6.15946683E-10
   40.9700012       8.73262240E-10
   41.0999985       1.13810183E-09
   41.2299995       1.41022760E-09
   41.3600006       1.68933512E-09
   41.4900017       1.97507255E-09
   41.6199989       2.26705765E-09
   41.7500000       2.56490562E-09
   41.8800011       2.86824831E-09
   42.0099983       3.17675752E-09
   42.1399994       3.49016349E-09
   42.2700005       3.80826215E-09
   42.4000015       4.13092405E-09
   42.5299988       4.45809079E-09
   42.6599998       4.78976503E-09
   42.7900009       5.12599607E-09
   42.9199982       5.46685763E-09
   43.0499992       5.81242476E-09
   43.1800003       6.16274676E-09
   43.3100014       6.51782583E-09
   43.4399986       6.87759139E-09
   43.5699997       7.24188842E-09
   43.7000008       7.61046248E-09
   43.8300018       7.98296185E-09
   43.9599991       8.35894021E-09
   44.0900002       8.73787176E-09
   44.2200012       9.11917120E-09
   44.3499985       9.50221235E-09
   44.4799995       9.88636373E-09
   44.6100006       1.02710080E-08
   44.7400017       1.06555724E-08
   44.8699989       1.10395479E-08
   45.0000000       1.14225056E-08
   45.1300011       1.18041026E-08
   45.2599983       1.21840857E-08
   45.3899994       1.25622774E-08
   45.5200005       1.29385676E-08
   45.6500015       1.33128841E-08
   45.7799988       1.36851721E-08
   45.9099998       1.40553666E-08
   46.0400009       1.44233603E-08
   46.1699982       1.47889869E-08
   46.2999992       1.51519970E-08
   46.4300003       1.55120485E-08
   46.5600014       1.58687072E-08
   46.6899986       1.62214491E-08
   46.8199997       1.65696719E-08
   46.9500008       1.69127237E-08
   47.0800018       1.72499242E-08
   47.2099991       1.75805948E-08
   47.3400002       1.79040942E-08
   47.4700012       1.82198470E-08
   47.5999985       1.85273645E-08
   47.7299995       1.88262614E-08
   47.8600006       1.91162766E-08
   47.9900017       1.93972660E-08
   48.1199989       1.96691925E-08
   48.2500000       1.99321182E-08
   48.3800011       2.01861710E-08
   48.5099983       2.04315196E-08
   48.6399994       2.06683453E-08
   48.7700005       2.08968007E-08
   48.9000015       2.11169944E-08
   49.0299988       2.13289564E-08
   49.1599998       2.15326228E-08
   49.2900009       2.17278320E-08
   49.4199982       2.19143299E-08
   49.5499992       2.20917684E-08
   49.6800003       2.22597372E-08
   49.8100014       2.24177832E-08
   49.9399986       2.25654428E-08
   50.0699997       2.27022685E-08
   50.2000008       2.28278747E-08
   50.3300018       2.29419435E-08
   50.4599991       2.30442634E-08
   50.5900002       2.31347297E-08
   50.7200012       2.32133566E-08
   50.8499985       2.32802631E-08
   50.9799995       2.33356641E-08
   51.1100006       2.33798438E-08
   51.2400017       2.34131274E-08
   51.3699989       2.34358470E-08
   51.5000000       2.34483135E-08
   51.6300011       2.34507809E-08
   51.7599983       2.34434250E-08
   51.8899994       2.34263240E-08
   52.0200005       2.33994530E-08
   52.1500015       2.33626807E-08
   52.2799988       2.33157866E-08
   52.4099998       2.32584778E-08
   52.5400009       2.31904167E-08
   52.6699982       2.31112569E-08
   52.7999992       2.30206805E-08
   52.9300003       2.29184298E-08
   53.0600014       2.28043380E-08
   53.1899986       2.26783587E-08
   53.3199997       2.25405792E-08
   53.4500008       2.23912284E-08
   53.5800018       2.22306706E-08
   53.7099991       2.20593943E-08
   53.8400002       2.18779839E-08
   53.9700012       2.16870983E-08
   54.0999985       2.14874252E-08
   54.2299995       2.12796465E-08
   54.3600006       2.10644018E-08
   54.4900017       2.08422595E-08
   54.6199989       2.06136885E-08
   54.7500000       2.03790478E-08
   54.8800011       2.01385699E-08
   55.0099983       1.98923740E-08
   55.1399994       1.96404795E-08
   55.2700005       1.93828225E-08
   55.4000015       1.91192981E-08
   55.5299988       1.88497715E-08
   55.6599998       1.85741378E-08
   55.7900009       1.82923277E-08
   55.9199982       1.80043553E-08
   56.0499992       1.77103150E-08
   56.1800003       1.74104073E-08
   56.3100014       1.71049273E-08
   56.4399986       1.67942513E-08
   56.5699997       1.64788201E-08
   56.7000008       1.61591114E-08
   56.8300018       1.58355888E-08
   56.9599991       1.55086877E-08
   57.0900002       1.51787596E-08
   57.2200012       1.48460471E-08
   57.3499985       1.45106611E-08
   57.4799995       1.41725520E-08
   57.6100006       1.38315164E-08
   57.7400017       1.34871891E-08
   57.8699989       1.31390658E-08
   58.0000000       1.27865167E-08
   58.1300011       1.24288277E-08
   58.2599983       1.20652208E-08
   58.3899994       1.16949099E-08
   58.5200005       1.13171206E-08
   58.6500015       1.09311245E-08
   58.7799988       1.05362661E-08
   58.9099998       1.01319690E-08
   59.0400009       9.71774483E-09
   59.1699982       9.29318134E-09
   59.2999992       8.85792595E-09
   59.4300003       8.41165981E-09
   59.5600014       7.95406940E-09
   59.6899986       7.48480389E-09
   59.8199997       7.00344494E-09
   59.9500008       6.50947252E-09
   60.0800018       6.00224359E-09
   60.2099991       5.48097168E-09
   60.3400002       4.94472152E-09
   60.4700012       4.39241710E-09
   60.5999985       3.82285581E-09
   60.7299995       3.23473737E-09
   60.8600006       2.62669397E-09
   60.9900017       1.99733430E-09
   61.1199989       1.34527645E-09
   61.2500000       6.69194256E-10
   61.3800011      -3.21545846E-11
   61.5099983      -7.59899754E-10
   61.6399994      -1.51504642E-09
   61.7700005      -2.29847252E-09
   61.9000015      -3.11093573E-09
   62.0299988      -3.95310273E-09
   62.1599998      -4.82556395E-09
   62.2900009      -5.72889070E-09
   62.4199982      -6.66366562E-09
   62.5499992      -7.63052732E-09
   62.6800003      -8.63021032E-09
   62.8100014      -9.66356861E-09
   62.9399986      -1.07316112E-08
   63.0699997      -1.18355015E-08
   63.2000008      -1.29765514E-08
   63.3300018      -1.41562113E-08
   63.4599991      -1.53760347E-08
   63.5900002      -1.66376477E-08
   63.7200012      -1.79426785E-08
   63.8499985      -1.92927416E-08
   63.9799995      -2.06893684E-08
   64.1100006      -2.21339533E-08
   64.2399979      -2.36277540E-08
   64.3700027      -2.51718344E-08
   64.5000000      -2.67670668E-08
   64.6299973      -2.84141333E-08
   64.7600021      -3.01135437E-08
   64.8899994      -3.18656568E-08
   65.0199966      -3.36707231E-08
   65.1500015      -3.55289380E-08
   65.2799988      -3.74404543E-08
   65.4100037      -3.94054673E-08
   65.5400009      -4.14242152E-08
   65.6699982      -4.34970211E-08
   65.8000031      -4.56242972E-08
   65.9300003      -4.78065445E-08
   66.0599976      -5.00443456E-08
   66.1900024      -5.23383115E-08
   66.3199997      -5.46890568E-08
   66.4499969      -5.70971537E-08
   66.5800018      -5.95630496E-08
   66.7099991      -6.20870395E-08
   66.8399963      -6.46692158E-08
   66.9700012      -6.73093936E-08
   67.0999985      -7.00071396E-08
   67.2300034      -7.27617078E-08
   67.3600006      -7.55720606E-08
   67.4899979      -7.84368979E-08
   67.6200027      -8.13546706E-08
   67.7500000      -8.43236521E-08
   67.8799973      -8.73419452E-08
   68.0100021      -9.04076103E-08
   68.1399994      -9.35186293E-08
   68.2699966      -9.66730269E-08
   68.4000015      -9.98688634E-08
   68.5299988      -1.03104291E-07
   68.6600037      -1.06377527E-07
   68.7900009      -1.09686866E-07
   68.9199982      -1.13030652E-07
   69.0500031      -1.16407229E-07
   69.1800003      -1.19814871E-07
   69.3099976      -1.23251795E-07
   69.4400024      -1.26715989E-07
   69.5699997      -1.30205294E-07
   69.6999969      -1.33717222E-07
   69.8300018      -1.37249032E-07
   69.9599991      -1.40797653E-07
   70.0899963      -1.44359689E-07
   70.2200012      -1.47931459E-07
   70.3499985      -1.51509042E-07
   70.4800034      -1.55088287E-07
   70.6100006      -1.58664903E-07
   70.7399979      -1.62234528E-07
   70.8700027      -1.65792798E-07
   71.0000000      -1.69335351E-07
   71.1299973      -1.72857995E-07
   71.2600021      -1.76356579E-07
   71.3899994      -1.79827154E-07
   71.5199966      -1.83265897E-07
   71.6500015      -1.86669098E-07
   71.7799988      -1.90033120E-07
   71.9100037      -1.93354325E-07
   72.0400009      -1.96629060E-07
   72.1699982      -1.99853545E-07
   72.3000031      -2.03023831E-07
   72.4300003      -2.06135709E-07
   72.5599976      -2.09184734E-07
   72.6900024      -2.12166128E-07
   72.8199997      -2.15074834E-07
   72.9499969      -2.17905523E-07
   73.0800018      -2.20652581E-07
   73.2099991      -2.23310252E-07
   73.3399963      -2.25872654E-07
   73.4700012      -2.28333860E-07
   73.5999985      -2.30688030E-07
   73.7300034      -2.32929409E-07
   73.8600006      -2.35052468E-07
   73.9899979      -2.37051921E-07
   74.1200027      -2.38922752E-07
   74.2500000      -2.40660228E-07
   74.3799973      -2.42259858E-07
   74.5100021      -2.43717494E-07
   74.6399994      -2.45029071E-07
   74.7699966      -2.46190666E-07
   74.9000015      -2.47198443E-07
   75.0299988      -2.48048480E-07
   75.1600037      -2.48736768E-07
   75.2900009      -2.49259188E-07
   75.4199982      -2.49611418E-07
   75.5500031      -2.49788968E-07
   75.6800003      -2.49787064E-07
   75.8099976      -2.49600959E-07
   75.9400024      -2.49225621E-07
   76.0699997      -2.48656164E-07
   76.1999969      -2.47887641E-07
   76.3300018      -2.46915363E-07
   76.4599991      -2.45734810E-07
   76.5899963      -2.44341862E-07
   76.7200012      -2.42732710E-07
   76.8499985      -2.40904029E-07
   76.9800034      -2.38852920E-07
   77.1100006      -2.36576867E-07
   77.2399979      -2.34073866E-07
   77.3700027      -2.31342170E-07
   77.5000000      -2.28380316E-07
   77.6299973      -2.25187051E-07
   77.7600021      -2.21761269E-07
   77.8899994      -2.18101846E-07
   78.0199966      -2.14207674E-07
   78.1500015      -2.10077545E-07
   78.2799988      -2.05710180E-07
   78.4100037      -2.01104228E-07
   78.5400009      -1.96258213E-07
   78.6699982      -1.91170741E-07
   78.8000031      -1.85840463E-07
   78.9300003      -1.80266213E-07
   79.0599976      -1.74447052E-07
   79.1900024      -1.68382428E-07
   79.3199997      -1.62072240E-07
   79.4499969      -1.55516901E-07
   79.5800018      -1.48717362E-07
   79.7099991      -1.41675173E-07
   79.8399963      -1.34392437E-07
   79.9700012      -1.26871797E-07
   80.0999985      -1.19116351E-07
   80.2300034      -1.11129594E-07
   80.3600006      -1.02915301E-07
   80.4899979      -9.44774143E-08
   80.6200027      -8.58199627E-08
   80.7500000      -7.69469821E-08
   80.8799973      -6.78624303E-08
   81.0100021      -5.85701407E-08
   81.1399994      -4.90738614E-08
   81.2699966      -3.93771948E-08
   81.4000015      -2.94837434E-08
   81.5299988      -1.93970564E-08
   81.6600037      -9.12085518E-09
   81.7900009       1.34097466E-09
   81.9199982       1.19842349E-08
   82.0500031       2.28043273E-08
   82.1800003       3.37961730E-08
   82.3099976       4.49541382E-08
   82.4400024       5.62720643E-08
   82.5699997       6.77431942E-08
   82.6999969       7.93602979E-08
   82.8300018       9.11156874E-08
   82.9599991       1.03001312E-07
   83.0899963       1.15008888E-07
   83.2200012       1.27129994E-07
   83.3499985       1.39356160E-07
   83.4800034       1.51679089E-07
   83.6100006       1.64090579E-07
   83.7399979       1.76582702E-07
   83.8700027       1.89147784E-07
   84.0000000       2.01778434E-07
   84.1299973       2.14467434E-07
   84.2600021       2.27207735E-07
   84.3899994       2.39992318E-07
   84.5199966       2.52814175E-07
   84.6500015       2.65666131E-07
   84.7799988       2.78540739E-07
   84.9100037       2.91430212E-07
   85.0400009       3.04326306E-07
   85.1699982       3.17220412E-07
   85.3000031       3.30103376E-07
   85.4300003       3.42965677E-07
   85.5599976       3.55797368E-07
   85.6900024       3.68588275E-07
   85.8199997       3.81328078E-07
   85.9499969       3.94006349E-07
   86.0800018       4.06612827E-07
   86.2099991       4.19137308E-07
   86.3399963       4.31570015E-07
   86.4700012       4.43901541E-07
   86.5999985       4.56122791E-07
   86.7300034       4.68225124E-07
   86.8600006       4.80200242E-07