  -24.4200001       0.00000000    
  -24.2900009       0.00000000    
  -24.1599998       0.00000000    
  -24.0300007       4.27793684E-23
  -23.8999996       2.90283774E-22
  -23.7700005       1.11430316E-21
  -23.6399994       3.17580890E-21
  -23.5100002       7.46640201E-21
  -23.3799992       1.52905079E-20
  -23.2500000       2.81778914E-20
  -23.1200008       4.77313393E-20
  -22.9899998       7.54316146E-20
  -22.8600006       1.12437989E-19
  -22.7299995       1.59434514E-19
  -22.6000004       2.16576835E-19
  -22.4699993       2.83589309E-19
  -22.3400002       3.60046957E-19
  -22.2099991       4.45851798E-19
  -22.0799999       5.41881521E-19
  -21.9500008       6.50753328E-19
  -21.8199997       7.77613676E-19
  -21.6900005       9.30840095E-19
  -21.5599995       1.12253103E-18
  -21.4300003       1.36866276E-18
  -21.2999992       1.68881702E-18
  -21.1700001       2.10542219E-18
  -21.0400009       2.64250519E-18
  -20.9099998       3.32400854E-18
  -20.7800007       4.17179195E-18
  -20.6499996       5.20348635E-18
  -20.5200005       6.43041399E-18
  -20.3899994       7.85580376E-18
  -20.2600002       9.47352750E-18
  -20.1299992       1.12675540E-17
  -20.0000000       1.32122606E-17
  -19.8700008       1.52736716E-17
  -19.7399998       1.74115778E-17
  -19.6100006       1.95824273E-17
  -19.4799995       2.17427170E-17
  -19.3500004       2.38525868E-17
  -19.2199993       2.58791975E-17
  -19.0900002       2.77994592E-17
  -18.9599991       2.96016905E-17
  -18.8299999       3.12858402E-17
  -18.7000008       3.28619832E-17
  -18.5699997       3.43470106E-17
  -18.4400005       3.57595241E-17
  -18.3099995       3.71132184E-17
  -18.1800003       3.84092020E-17
  -18.0499992       3.96277945E-17
  -17.9200001       4.07205994E-17
  -17.7900009       4.16035022E-17
  -17.6599998       4.21514333E-17
  -17.5300007       4.21954029E-17
  -17.3999996       4.15222863E-17
  -17.2700005       3.98775204E-17
  -17.1399994       3.69706224E-17
  -17.0100002       3.24830849E-17
  -16.8799992       2.60780037E-17
  -16.7500000       1.74104959E-17
  -16.6200008       6.13786709E-18
  -16.4899998      -8.07167226E-18
  -16.3600006      -2.55327659E-17
  -16.2299995      -4.65401624E-17
  -16.1000004      -7.13701028E-17
  -15.9700003      -1.00286239E-16
  -15.8400002      -1.33549925E-16
  -15.7100000      -1.71434585E-16
  -15.5799999      -2.14242955E-16
  -15.4499998      -2.62325998E-16
  -15.3199997      -3.16101949E-16
  -15.1899996      -3.76073576E-16
  -15.0600004      -4.42842060E-16
  -14.9300003      -5.17115573E-16
  -14.8000002      -5.99712244E-16
  -14.6700001      -6.91555656E-16
  -14.5400000      -7.93664260E-16
  -14.4099998      -9.07134276E-16
  -14.2799997      -1.03311846E-15
  -14.1499996      -1.17280150E-15
  -14.0200005      -1.32737580E-15
  -13.8900003      -1.49801705E-15
  -13.7600002      -1.68586545E-15
  -13.6300001      -1.89200966E-15
  -13.5000000      -2.11747903E-15
  -13.3699999      -2.36324162E-15
  -13.2399998      -2.63020946E-15
  -13.1099997      -2.91925014E-15
  -12.9799995      -3.23120729E-15
  -12.8500004      -3.56692308E-15
  -12.7200003      -3.92727207E-15
  -12.5900002      -4.31319087E-15
  -12.4600000      -4.72571582E-15
  -12.3299999      -5.16601795E-15
  -12.1999998      -5.63542836E-15
  -12.0699997      -6.13545859E-15
  -11.9399996      -6.66780440E-15
  -11.8100004      -7.23433053E-15
  -11.6800003      -7.83703174E-15
  -11.5500002      -8.47797310E-15
  -11.4200001      -9.15921036E-15
  -11.2900000      -9.88268491E-15
  -11.1599998      -1.06501205E-14
  -11.0299997      -1.14629104E-14
  -10.8999996      -1.23220246E-14
  -10.7700005      -1.32279348E-14
  -10.6400003      -1.41805724E-14
  -10.5100002      -1.51793488E-14
  -10.3800001      -1.62232136E-14
  -10.2500000      -1.73107785E-14
  -10.1199999      -1.84405053E-14
  -9.98999977      -1.96109388E-14
  -9.85999966      -2.08209982E-14
  -9.72999954      -2.20702752E-14
  -9.60000038      -2.33593323E-14
  -9.47000027      -2.46899415E-14
  -9.34000015      -2.60652434E-14
  -9.21000004      -2.74897225E-14
  -9.07999992      -2.89689977E-14
  -8.94999981      -3.05093272E-14
  -8.81999969      -3.21168703E-14
  -8.68999958      -3.37966010E-14
  -8.56000042      -3.55510706E-14
  -8.43000031      -3.73789643E-14
  -8.30000019      -3.92737532E-14
  -8.17000008      -4.12225762E-14
  -8.03999996      -4.32055921E-14
  -7.90999985      -4.51961263E-14
  -7.78000021      -4.71617815E-14
  -7.65000010      -4.90666705E-14
  -7.51999998      -5.08748080E-14
  -7.38999987      -5.25545556E-14
  -7.26000023      -5.40837720E-14
  -7.13000011      -5.54552369E-14
  -7.00000000      -5.66816593E-14
  -6.86999989      -5.77995497E-14
  -6.73999977      -5.88712022E-14
  -6.61000013      -5.99840747E-14
  -6.48000002      -6.12470889E-14
  -6.34999990      -6.27836203E-14
  -6.21999979      -6.47212318E-14
  -6.09000015      -6.71789081E-14
  -5.96000004      -7.02525467E-14
  -5.82999992      -7.40002135E-14
  -5.69999981      -7.84287593E-14
  -5.57000017      -8.34834792E-14
  -5.44000006      -8.90426445E-14
  -5.30999994      -9.49181529E-14
  -5.17999983      -1.00863348E-13
  -5.05000019      -1.06588099E-13
  -4.92000008      -1.11780627E-13
  -4.78999996      -1.16134478E-13
  -4.65999985      -1.19378452E-13
  -4.53000021      -1.21306272E-13
  -4.40000010      -1.21802769E-13
  -4.26999998      -1.20862914E-13
  -4.13999987      -1.18600645E-13
  -4.01000023      -1.15244890E-13
  -3.88000011      -1.11121954E-13
  -3.75000000      -1.06624087E-13
  -3.61999989      -1.02166417E-13
  -3.49000001      -9.81356448E-14
  -3.35999990      -9.48354147E-14
  -3.23000002      -9.24342458E-14
  -3.09999990      -9.09224749E-14
  -2.97000003      -9.00841562E-14
  -2.83999991      -8.94891122E-14
  -2.71000004      -8.85084107E-14
  -2.57999992      -8.63544872E-14
  -2.45000005      -8.21441981E-14
  -2.31999993      -7.49805898E-14
  -2.19000006      -6.40462821E-14
  -2.05999994      -4.86995257E-14
  -1.92999995      -2.85623948E-14
  -1.79999995      -3.59057648E-15
  -1.66999996       2.58852371E-14
  -1.53999996       5.91541180E-14
  -1.40999997       9.51606347E-14
  -1.27999997       1.32582191E-13
  -1.14999998       1.69944679E-13
  -1.01999998       2.05767952E-13
 -0.889999986       2.38729202E-13
 -0.759999990       2.67829053E-13
 -0.629999995       2.92542737E-13
 -0.500000000       3.12939453E-13
 -0.370000005       3.29754344E-13
 -0.239999995       3.44400073E-13
 -0.109999999       3.58911739E-13
   1.99999996E-02   3.75823640E-13
  0.150000006       3.97983567E-13
  0.280000001       4.28318053E-13
  0.409999996       4.69566768E-13
  0.540000021       5.24009709E-13
  0.670000017       5.93213358E-13
  0.800000012       6.77822165E-13
  0.930000007       7.77418603E-13
   1.05999994       8.90471562E-13
   1.19000006       1.01438335E-12
   1.32000005       1.14563881E-12
   1.45000005       1.28004931E-12
   1.58000004       1.41307365E-12
   1.71000004       1.54019256E-12
   1.84000003       1.65730244E-12
   1.97000003       1.76109333E-12
   2.09999990       1.84937439E-12
   2.23000002       1.92131163E-12
   2.35999990       1.97755397E-12
   2.49000001       2.02022383E-12
   2.61999989       2.05277050E-12
   2.75000000       2.07969080E-12
   2.88000011       2.10613645E-12
   3.00999999       2.13743866E-12
   3.14000010       2.17859259E-12
   3.26999998       2.23374509E-12
   3.40000010       2.30573872E-12
   3.52999997       2.39575265E-12
   3.66000009       2.50308368E-12
   3.78999996       2.62509025E-12
   3.92000008       2.75731890E-12
   4.05000019       2.89380282E-12
   4.17999983       3.02751856E-12
   4.30999994       3.15096473E-12
   4.44000006       3.25681214E-12
   4.57000017       3.33857399E-12
   4.69999981       3.39123066E-12
   4.82999992       3.41175243E-12
   4.96000004       3.39947168E-12
   5.09000015       3.35625841E-12
   5.21999979       3.28648263E-12
   5.34999990       3.19675623E-12
   5.48000002       3.09547028E-12
   5.61000013       2.99216706E-12
   5.73999977       2.89679196E-12
   5.86999989       2.81889703E-12
   6.00000000       2.76686226E-12
   6.13000011       2.74720806E-12
   6.26000023       2.76406502E-12
   6.38999987       2.81885236E-12
   6.51999998       2.91020224E-12
   6.65000010       3.03414086E-12
   6.78000021       3.18451971E-12
   6.90999985       3.35366132E-12
   7.03999996       3.53316486E-12
   7.17000008       3.71480147E-12
   7.30000019       3.89141627E-12
   7.42999983       4.05775153E-12
   7.55999994       4.21110933E-12
   7.69000006       4.35178759E-12
   7.82000017       4.48323496E-12
   7.94999981       4.61190201E-12
   8.07999992       4.74678803E-12
   8.21000004       4.89871902E-12
   8.34000015       5.07940738E-12
   8.47000027       5.30037386E-12
   8.60000038       5.57183162E-12
   8.72999954       5.90162945E-12
   8.85999966       6.29435913E-12
   8.98999977       6.75070980E-12
   9.11999989       7.26715433E-12
   9.25000000       7.83599401E-12
   9.38000011       8.44578053E-12
   9.51000023       9.08210313E-12
   9.64000034       9.72866059E-12
   9.77000046       1.03685498E-11
   9.89999962       1.09856612E-11
   10.0299997       1.15660459E-11
   10.1599998       1.20991385E-11
   10.2900000       1.25787080E-11
   10.4200001       1.30034455E-11
   10.5500002       1.33771145E-11
   10.6800003       1.37082342E-11
   10.8100004       1.40092955E-11
   10.9399996       1.42955743E-11
   11.0699997       1.45836173E-11
   11.1999998       1.48895427E-11
   11.3299999       1.52272899E-11
   11.4600000       1.56069723E-11
   11.5900002       1.60335061E-11
   11.7200003       1.65056267E-11
   11.8500004       1.70154359E-11
   11.9799995       1.75485026E-11
   12.1099997       1.80845755E-11
   12.2399998       1.85988464E-11
   12.3699999       1.90636777E-11
   12.5000000       1.94506945E-11
   12.6300001       1.97330277E-11
   12.7600002       1.98875517E-11
   12.8900003       1.98969122E-11
   13.0200005       1.97511642E-11
   13.1499996       1.94488540E-11
   13.2799997       1.89974356E-11
   13.4099998       1.84129916E-11
   13.5400000       1.77192063E-11
   13.6700001       1.69457157E-11
   13.8000002       1.61259096E-11
   13.9300003       1.52944185E-11
   14.0600004       1.44844241E-11
   14.1899996       1.37251027E-11
   14.3199997       1.30393639E-11
   14.4499998       1.24421359E-11
   14.5799999       1.19393289E-11
   14.7100000       1.15276079E-11
   14.8400002       1.11950015E-11
   14.9700003       1.09223099E-11
   15.1000004       1.06852045E-11
   15.2299995       1.04568533E-11
   15.3599997       1.02108356E-11
   15.4899998       9.92409280E-12
   15.6199999       9.57965304E-12
   15.7500000       9.16886705E-12
   15.8800001       8.69294220E-12
   16.0100002       8.16362689E-12
   16.1399994       7.60293391E-12
   16.2700005       7.04192780E-12
   16.3999996       6.51864066E-12
   16.5300007       6.07529261E-12
   16.6599998       5.75503837E-12
   16.7900009       5.59852555E-12
   16.9200001       5.64056701E-12
   17.0499992       5.90723694E-12
   17.1800003       6.41364956E-12
   17.3099995       7.16264331E-12
   17.4400005       8.14452325E-12
   17.5699997       9.33788030E-12
   17.7000008       1.07114751E-11
   17.8299999       1.22270076E-11
   17.9599991       1.38425651E-11
   18.0900002       1.55164475E-11
   18.2199993       1.72110191E-11
   18.3500004       1.88962353E-11
   18.4799995       2.05525475E-11
   18.6100006       2.21728608E-11
   18.7399998       2.37633420E-11
   18.8700008       2.53430315E-11
   19.0000000       2.69421863E-11
   19.1299992       2.85994926E-11
   19.2600002       3.03584137E-11
   19.3899994       3.22629284E-11
   19.5200005       3.43530308E-11
   19.6499996       3.66604455E-11
   19.7800007       3.92048859E-11
   19.9099998       4.19912820E-11
   20.0400009       4.50082020E-11
   20.1700001       4.82276614E-11
   20.2999992       5.16064240E-11
   20.4300003       5.50886732E-11
   20.5599995       5.86098878E-11
   20.6900005       6.21016225E-11
   20.8199997       6.54967816E-11
   20.9500008       6.87349552E-11
   21.0799999       7.17673490E-11
   21.2099991       7.45608505E-11
   21.3400002       7.71009159E-11
   21.4699993       7.93928742E-11
   21.6000004       8.14616569E-11
   21.7299995       8.33498132E-11
   21.8600006       8.51139992E-11
   21.9899998       8.68201899E-11
   22.1200008       8.85380727E-11
   22.2500000       9.03349895E-11
   22.3799992       9.22699972E-11
   22.5100002       9.43886080E-11
   22.6399994       9.67186053E-11
   22.7700005       9.92673790E-11
   22.8999996       1.02021010E-10
   23.0300007       1.04945212E-10
   23.1599998       1.07988167E-10
   23.2900009       1.11084891E-10
   23.4200001       1.14162957E-10
   23.5499992       1.17148929E-10
   23.6800003       1.19975058E-10
   23.8099995       1.22585705E-10
   23.9400005       1.24942778E-10
   24.0699997       1.27029789E-10
   24.2000008       1.28854108E-10
   24.3299999       1.30447250E-10
   24.4599991       1.31862993E-10
   24.5900002       1.33173556E-10
   24.7199993       1.34464051E-10
   24.8500004       1.35825698E-10
   24.9799995       1.37348286E-10
   25.1100006       1.39112638E-10
   25.2399998       1.41183482E-10
   25.3700008       1.43603573E-10
   25.5000000       1.46389470E-10
   25.6299992       1.49529264E-10
   25.7600002       1.52982696E-10
   25.8899994       1.56683402E-10
   26.0200005       1.60543315E-10
   26.1499996       1.64458738E-10
   26.2800007       1.68317790E-10
   26.4099998       1.72008338E-10
   26.5400009       1.75425841E-10
   26.6700001       1.78480716E-10
   26.7999992       1.81104021E-10
   26.9300003       1.83251581E-10
   27.0599995       1.84905771E-10
   27.1900005       1.86075003E-10
   27.3199997       1.86790847E-10
   27.4500008       1.87103194E-10
   27.5799999       1.87073676E-10
   27.7099991       1.86767976E-10
   27.8400002       1.86247795E-10
   27.9699993       1.85562996E-10
   28.1000004       1.84744886E-10
   28.2299995       1.83800836E-10
   28.3600006       1.82711152E-10
   28.4899998       1.81428192E-10
   28.6200008       1.79877932E-10
   28.7500000       1.77963894E-10
   28.8799992       1.75572820E-10
   29.0100002       1.72582351E-10
   29.1399994       1.68869169E-10
   29.2700005       1.64317351E-10
   29.3999996       1.58826466E-10
   29.5300007       1.52317881E-10
   29.6599998       1.44739679E-10
   29.7900009       1.36069031E-10
   29.9200001       1.26312169E-10
   30.0499992       1.15501796E-10
   30.1800003       1.03692055E-10
   30.3099995       9.09518225E-11
   30.4400005       7.73563227E-11
   30.5699997       6.29783517E-11
   30.7000008       4.78795892E-11
   30.8299999       3.21027475E-11
   30.9599991       1.56654082E-11
   31.0900002      -1.44404096E-12
   31.2199993      -1.92679952E-11
   31.3500004      -3.78782943E-11
   31.4799995      -5.73722632E-11
   31.6100006      -7.78667825E-11
   31.7399998      -9.94898747E-11
   31.8700008      -1.22371849E-10
   32.0000000      -1.46635579E-10
   32.1300011      -1.72387521E-10
   32.2599983      -1.99709624E-10
   32.3899994      -2.28653874E-10
   32.5200005      -2.59238936E-10
   32.6500015      -2.91449392E-10
   32.7799988      -3.25238669E-10
   32.9099998      -3.60534075E-10
   33.0400009      -3.97244265E-10
   33.1699982      -4.35268904E-10
   33.2999992      -4.74508655E-10
   33.4300003      -5.14875309E-10
   33.5600014      -5.56301449E-10
   33.6899986      -5.98747663E-10
   33.8199997      -6.42208453E-10
   33.9500008      -6.86713852E-10
   34.0800018      -7.32328587E-10
   34.2099991      -7.79148246E-10
   34.3400002      -8.27292346E-10
   34.4700012      -8.76894446E-10
   34.5999985      -9.28091715E-10
   34.7299995      -9.81013271E-10
   34.8600006      -1.03576880E-09
   34.9900017      -1.09243847E-09
   35.1199989      -1.15106524E-09
   35.2500000      -1.21165000E-09
   35.3800011      -1.27415001E-09
   35.5099983      -1.33848022E-09
   35.6399994      -1.40451906E-09
   35.7700005      -1.47211610E-09
   35.9000015      -1.54110313E-09
   36.0299988      -1.61130531E-09
   36.1599998      -1.68255376E-09
   36.2900009      -1.75469672E-09
   36.4199982      -1.82760918E-09
   36.5499992      -1.90119986E-09
   36.6800003      -1.97541539E-09
   36.8100014      -2.05023909E-09
   36.9399986      -2.12568851E-09
   37.0699997      -2.20180763E-09
   37.2000008      -2.27865571E-09
   37.3300018      -2.35629716E-09
   37.4599991      -2.43478615E-09
   37.5900002      -2.51415422E-09
   37.7200012      -2.59439781E-09
   37.8499985      -2.67546918E-09
   37.9799995      -2.75726886E-09
   38.1100006      -2.83964385E-09
   38.2400017      -2.92238833E-09
   38.3699989      -3.00524916E-09
   38.5000000      -3.08793502E-09
   38.6300011      -3.17012838E-09
   38.7599983      -3.25149885E-09
   38.8899994      -3.33171912E-09
   39.0200005      -3.41047901E-09
   39.1500015      -3.48749718E-09
   39.2799988      -3.56253160E-09
   39.4099998      -3.63538666E-09
   39.5400009      -3.70591446E-09
   39.6699982      -3.77401266E-09
   39.7999992      -3.83961885E-09
   39.9300003      -3.90269950E-09
   40.0600014      -3.96323907E-09
   40.1899986      -4.02122202E-09
   40.3199997      -4.07662215E-09
   40.4500008      -4.12938617E-09
   40.5800018      -4.17942081E-09
   40.7099991      -4.22658619E-09
   40.8400002      -4.27069180E-09
   40.9700012      -4.31149161E-09
   41.0999985      -4.34869474E-09
   41.2299995      -4.38196857E-09
   41.3600006      -4.41095427E-09
   41.4900017      -4.43528059E-09
   41.6199989      -4.45457760E-09
   41.7500000      -4.46849535E-09
   41.8800011      -4.47671811E-09
   42.0099983      -4.47897497E-09
   42.1399994      -4.47504744E-09
   42.2700005      -4.46477522E-09
   42.4000015      -4.44805393E-09
   42.5299988      -4.42482850E-09
   42.6599998      -4.39508652E-09
   42.7900009      -4.35884040E-09
   42.9199982      -4.31611458E-09
   43.0499992      -4.26692948E-09
   43.1800003      -4.21128510E-09
   43.3100014      -4.14914592E-09
   43.4399986      -4.08043332E-09
   43.5699997      -4.00501721E-09
   43.7000008      -3.92271371E-09
   43.8300018      -3.83328969E-09
   43.9599991      -3.73647335E-09
   44.0900002      -3.63196140E-09
   44.2200012      -3.51943896E-09
   44.3499985      -3.39859363E-09
   44.4799995      -3.26913541E-09
   44.6100006      -3.13081161E-09
   44.7400017      -2.98342084E-09
   44.8699989      -2.82682300E-09
   45.0000000      -2.66094524E-09
   45.1300011      -2.48578269E-09
   45.2599983      -2.30139241E-09
   45.3899994      -2.10788653E-09
   45.5200005      -1.90541805E-09
   45.6500015      -1.69416547E-09
   45.7799988      -1.47431678E-09
   45.9099998      -1.24605370E-09
   46.0400009      -1.00953623E-09
   46.1699982      -7.64892927E-10
   46.2999992      -5.12214660E-10
   46.4300003      -2.51550419E-10
   46.5600014       1.70849827E-11
   46.6899986       2.93705976E-10
   46.8199997       5.78341597E-10
   46.9500008       8.71020922E-10
   47.0800018       1.17175425E-09
   47.2099991       1.48051627E-09
   47.3400002       1.79722837E-09
   47.4700012       2.12174700E-09
   47.5999985       2.45385423E-09
   47.7299995       2.79325185E-09
   47.8600006       3.13956483E-09
   47.9900017       3.49234819E-09
   48.1199989       3.85110033E-09
   48.2500000       4.21527702E-09
   48.3800011       4.58431293E-09
   48.5099983       4.95764052E-09
   48.6399994       5.33470956E-09
   48.7700005       5.71500536E-09
   48.9000015       6.09806250E-09
   49.0299988       6.48347287E-09
   49.1599998       6.87088608E-09
   49.2900009       7.26001037E-09
   49.4199982       7.65059927E-09
   49.5499992       8.04243783E-09
   49.6800003       8.43532710E-09
   49.8100014       8.82905926E-09
   49.9399986       9.22339716E-09
   50.0699997       9.61805746E-09
   50.2000008       1.00126902E-08
   50.3300018       1.04068665E-08
   50.4599991       1.08000728E-08
   50.5900002       1.11917124E-08
   50.7200012       1.15811085E-08
   50.8499985       1.19675150E-08
   50.9799995       1.23501351E-08
   51.1100006       1.27281412E-08
   51.2400017       1.31007001E-08
   51.3699989       1.34669857E-08
   51.5000000       1.38262113E-08
   51.6300011       1.41776333E-08
   51.7599983       1.45205687E-08
   51.8899994       1.48543968E-08
   52.0200005       1.51785589E-08
   52.1500015       1.54925512E-08
   52.2799988       1.57959033E-08
   52.4099998       1.60881655E-08
   52.5400009       1.63688867E-08
   52.6699982       1.66375909E-08
   52.7999992       1.68937557E-08
   52.9300003       1.71367969E-08
   53.0600014       1.73660482E-08
   53.1899986       1.75807688E-08
   53.3199997       1.77801294E-08
   53.4500008       1.79632291E-08
   53.5800018       1.81291071E-08
   53.7099991       1.82767632E-08
   53.8400002       1.84051814E-08
   53.9700012       1.85133633E-08
   54.0999985       1.86003479E-08
   54.2299995       1.86652418E-08
   54.3600006       1.87072420E-08
   54.4900017       1.87256468E-08
   54.6199989       1.87198701E-08
   54.7500000       1.86894376E-08
   54.8800011       1.86339868E-08
   55.0099983       1.85532443E-08
   55.1399994       1.84470181E-08
   55.2700005       1.83151627E-08
   55.4000015       1.81575643E-08
   55.5299988       1.79741075E-08
   55.6599998       1.77646537E-08
   55.7900009       1.75290342E-08
   55.9199982       1.72670287E-08
   56.0499992       1.69783601E-08
   56.1800003       1.66627014E-08
   56.3100014       1.63196958E-08
   56.4399986       1.59489666E-08
   56.5699997       1.55501354E-08
   56.7000008       1.51228683E-08
   56.8300018       1.46668890E-08
   56.9599991       1.41820085E-08
   57.0900002       1.36681537E-08
   57.2200012       1.31253843E-08
   57.3499985       1.25539010E-08
   57.4799995       1.19540520E-08
   57.6100006       1.13263221E-08
   57.7400017       1.06713278E-08
   57.8699989       9.98978944E-09
   58.0000000       9.28250721E-09
   58.1300011       8.55033733E-09
   58.2599983       7.79415732E-09
   58.3899994       7.01484382E-09
   58.5200005       6.21324681E-09
   58.6500015       5.39017408E-09
   58.7799988       4.54638416E-09
   58.9099998       3.68258490E-09
   59.0400009       2.79944046E-09
   59.1699982       1.89758964E-09
   59.2999992       9.77667280E-10
   59.4300003       4.03335108E-11
   59.5600014      -9.13700338E-10
   59.6899986      -1.88364058E-09
   59.8199997      -2.86858381E-09
   59.9500008      -3.86750010E-09
   60.0800018      -4.87921348E-09
   60.2099991      -5.90240656E-09
   60.3400002      -6.93560898E-09
   60.4700012      -7.97722066E-09
   60.5999985      -9.02553321E-09
   60.7299995      -1.00787485E-08
   60.8600006      -1.11350156E-08
   60.9900017      -1.21924595E-08
   61.1199989      -1.32492142E-08
   61.2500000      -1.43034473E-08
   61.3800011      -1.53533843E-08
   61.5099983      -1.63973279E-08
   61.6399994      -1.74336510E-08
   61.7700005      -1.84607973E-08
   61.9000015      -1.94772856E-08
   62.0299988      -2.04816661E-08
   62.1599998      -2.14725109E-08
   62.2900009      -2.24483792E-08
   62.4199982      -2.34077948E-08
   62.5499992      -2.43492071E-08
   62.6800003      -2.52709871E-08
   62.8100014      -2.61713993E-08
   62.9399986      -2.70485980E-08
   63.0699997      -2.79006311E-08
   63.2000008      -2.87254505E-08
   63.3300018      -2.95209368E-08
   63.4599991      -3.02849159E-08
   63.5900002      -3.10152011E-08
   63.7200012      -3.17096287E-08
   63.8499985      -3.23660743E-08
   63.9799995      -3.29825127E-08
   64.1100006      -3.35570149E-08
   64.2399979      -3.40877904E-08
   64.3700027      -3.45731799E-08
   64.5000000      -3.50116593E-08
   64.6299973      -3.54018219E-08
   64.7600021      -3.57423957E-08
   64.8899994      -3.60321621E-08
   65.0199966      -3.62699843E-08
   65.1500015      -3.64547397E-08
   65.2799988      -3.65853090E-08
   65.4100037      -3.66605555E-08
   65.5400009      -3.66792925E-08
   65.6699982      -3.66402908E-08
   65.8000031      -3.65422750E-08
   65.9300003      -3.63839376E-08
   66.0599976      -3.61639536E-08
   66.1900024      -3.58810226E-08
   66.3199997      -3.55338834E-08
   66.4499969      -3.51213849E-08
   66.5800018      -3.46424720E-08
   66.7099991      -3.40962885E-08
   66.8399963      -3.34821451E-08
   66.9700012      -3.27995870E-08
   67.0999985      -3.20483799E-08
   67.2300034      -3.12285238E-08
   67.3600006      -3.03402352E-08
   67.4899979      -2.93839371E-08
   67.6200027      -2.83602315E-08
   67.7500000      -2.72698628E-08
   67.8799973      -2.61136890E-08
   68.0100021      -2.48926479E-08
   68.1399994      -2.36077202E-08
   68.2699966      -2.22599201E-08
   68.4000015      -2.08502673E-08
   68.5299988      -1.93797973E-08
   68.6600037      -1.78495494E-08
   68.7900009      -1.62606018E-08
   68.9199982      -1.46140913E-08
   69.0500031      -1.29112392E-08
   69.1800003      -1.11534098E-08
   69.3099976      -9.34212174E-09
   69.4400024      -7.47910534E-09
   69.5699997      -5.56631141E-09
   69.6999969      -3.60596042E-09
   69.8300018      -1.60051772E-09
   69.9599991       4.47283238E-10
   70.0899963       2.53446841E-09
   70.2200012       4.65784611E-09
   70.3499985       6.81404888E-09
   70.4800034       8.99957620E-09
   70.6100006       1.12108447E-08
   70.7399979       1.34442377E-08
   70.8700027       1.56961502E-08
   71.0000000       1.79630248E-08
   71.1299973       2.02413961E-08
   71.2600021       2.25278782E-08
   71.3899994       2.48192027E-08
   71.5199966       2.71121863E-08
   71.6500015       2.94037079E-08
   71.7799988       3.16906927E-08
   71.9100037       3.39700499E-08
   72.0400009       3.62386459E-08
   72.1699982       3.84932477E-08
   72.3000031       4.07304945E-08
   72.4300003       4.29468550E-08
   72.5599976       4.51386057E-08
   72.6900024       4.73018389E-08
   72.8199997       4.94324475E-08
   72.9499969       5.15261647E-08
   73.0800018       5.35785816E-08
   73.2099991       5.55852075E-08
   73.3399963       5.75415164E-08
   73.4700012       5.94429963E-08
   73.5999985       6.12852133E-08
   73.7300034       6.30638652E-08
   73.8600006       6.47748024E-08
   73.9899979       6.64140885E-08
   74.1200027       6.79780072E-08
   74.2500000       6.94630629E-08
   74.3799973       7.08659584E-08
   74.5100021       7.21835960E-08
   74.6399994       7.34130481E-08
   74.7699966       7.45514726E-08
   74.9000015       7.55961551E-08
   75.0299988       7.65443673E-08
   75.1600037       7.73934090E-08
   75.2900009       7.81405731E-08
   75.4199982       7.87831027E-08
   75.5500031       7.93182338E-08
   75.6800003       7.97431667E-08
   75.8099976       8.00551447E-08
   75.9400024       8.02514606E-08
   76.0699997       8.03295137E-08
   76.1999969       8.02868954E-08
   76.3300018       8.01213957E-08
   76.4599991       7.98310893E-08
   76.5899963       7.94143560E-08
   76.7200012       7.88699666E-08
   76.8499985       7.81970257E-08
   76.9800034       7.73950219E-08
   77.1100006       7.64638131E-08
   77.2399979       7.54036051E-08
   77.3700027       7.42148814E-08
   77.5000000       7.28983949E-08
   77.6299973       7.14551049E-08
   77.7600021       6.98861342E-08
   77.8899994       6.81927119E-08
   78.0199966       6.63761455E-08
   78.1500015       6.44378062E-08
   78.2799988       6.23791081E-08
   78.4100037       6.02015078E-08
   78.5400009       5.79065436E-08
   78.6699982       5.54958497E-08
   78.8000031       5.29712061E-08
   78.9300003       5.03345916E-08
   79.0599976       4.75882054E-08
   79.1900024       4.47345592E-08
   79.3199997       4.17764667E-08
   79.4499969       3.87171184E-08
   79.5800018       3.55600633E-08
   79.7099991       3.23092060E-08
   79.8399963       2.89688256E-08
   79.9700012       2.55435140E-08
   80.0999985       2.20381366E-08
   80.2300034       1.84577882E-08
   80.3600006       1.48077204E-08
   80.4899979       1.10932952E-08
   80.6200027       7.31993488E-09
   80.7500000       3.49305451E-09
   80.8799973      -3.81948445E-10
   81.0100021      -4.29973079E-09
   81.1399994      -8.25500379E-09
   81.2699966      -1.22425270E-08
   81.4000015      -1.62570775E-08
   81.5299988      -2.02934309E-08
   81.6600037      -2.43463045E-08
   81.7900009      -2.84103336E-08
   81.9199982      -3.24800098E-08
   82.0500031      -3.65496717E-08
   82.1800003      -4.06134610E-08
   82.3099976      -4.46653132E-08
   82.4400024      -4.86989933E-08
   82.5699997      -5.27080637E-08
   82.6999969      -5.66859732E-08
   82.8300018      -6.06260855E-08
   82.9599991      -6.45217355E-08
   83.0899963      -6.83663046E-08
   83.2200012      -7.21532700E-08
   83.3499985      -7.58762724E-08
   83.4800034      -7.95292010E-08
   83.6100006      -8.31061797E-08
   83.7399979      -8.66016237E-08
   83.8700027      -9.00102606E-08
   84.0000000      -9.33270883E-08
   84.1299973      -9.65473745E-08
   84.2600021      -9.96666287E-08
   84.3899994      -1.02680524E-07
   84.5199966      -1.05584910E-07
   84.6500015      -1.08375701E-07
   84.7799988      -1.11048877E-07
   84.9100037      -1.13600450E-07
   85.0400009      -1.16026406E-07
   85.1699982      -1.18322795E-07
   85.3000031      -1.20485637E-07
   85.4300003      -1.22511011E-07
   85.5599976      -1.24395143E-07
   85.6900024      -1.26134353E-07
   85.8199997      -1.27725230E-07
   85.9499969      -1.29164590E-07
   86.0800018      -1.30449664E-07
   86.2099991      -1.31577991E-07
   86.3399963      -1.32547626E-07
   86.4700012      -1.33357020E-07
   86.5999985      -1.34005148E-07
   86.7300034      -1.34491358E-07
   86.8600006      -1.34815465E-07