  -24.4200001        -1.14408726E-18
  -24.2870007        -1.15097964E-18
  -24.1539993        -1.16333027E-18
  -24.0209999        -1.17862267E-18
  -23.8880005        -1.19385179E-18
  -23.7549992        -1.20624461E-18
  -23.6219997        -1.21395166E-18
  -23.4890003        -1.21657837E-18
  -23.3560009        -1.21548318E-18
  -23.2229996        -1.21384340E-18
  -23.0900002        -1.21659264E-18
  -22.9570007        -1.23038194E-18
  -22.8239994        -1.26375744E-18
  -22.6910000        -1.32767720E-18
  -22.5580006        -1.43641061E-18
  -22.4249992        -1.60868276E-18
  -22.2919998        -1.86876292E-18
  -22.1590004        -2.24707977E-18
  -22.0259991        -2.77987673E-18
  -21.8929996        -3.50752621E-18
  -21.7600002        -4.47131901E-18
  -21.6270008        -5.70887220E-18
  -21.4939995        -7.24867635E-18
  -21.3610001        -9.10461570E-18
  -21.2280006        -1.12715311E-17
  -21.0949993        -1.37228660E-17
  -20.9619999        -1.64112352E-17
  -20.8290005        -1.92723090E-17
  -20.6959991        -2.22318140E-17
  -20.5629997        -2.52148854E-17
  -20.4300003        -2.81565034E-17
  -20.2970009        -3.10114776E-17
  -20.1639996        -3.37625149E-17
  -20.0310001        -3.64251795E-17
  -19.8980007        -3.90491453E-17
  -19.7649994        -4.17157870E-17
  -19.6320000        -4.45326149E-17
  -19.4990005        -4.76256881E-17
  -19.3659992        -5.11310214E-17
  -19.2329998        -5.51859369E-17
  -19.1000004        -5.99209305E-17
  -18.9669991        -6.54523137E-17
  -18.8339996        -7.18753182E-17
  -18.7010002        -7.92572832E-17
  -18.5680008        -8.76308788E-17
  -18.4349995        -9.69875753E-17
  -18.3020000        -1.07271938E-16
  -18.1690006        -1.18378400E-16
  -18.0359993        -1.30151721E-16
  -17.9029999        -1.42392750E-16
  -17.7700005        -1.54870154E-16
  -17.6369991        -1.67337751E-16
  -17.5039997        -1.79556466E-16
  -17.3710003        -1.91317744E-16
  -17.2380009        -2.02465438E-16
  -17.1049995        -2.12912068E-16
  -16.9720001        -2.22646951E-16
  -16.8390007        -2.31733444E-16
  -16.7059994        -2.40294989E-16
  -16.5730000        -2.48491806E-16
  -16.4400005        -2.56490603E-16
  -16.3069992        -2.64431219E-16
  -16.1739998        -2.72395340E-16
  -16.0410004        -2.80380902E-16
  -15.9080000        -2.88285678E-16
  -15.7749996        -2.95900663E-16
  -15.6420002        -3.02914731E-16
  -15.5089998        -3.08926760E-16
  -15.3760004        -3.13463839E-16
  -15.2430000        -3.16001602E-16
  -15.1099997        -3.15984767E-16
  -14.9770002        -3.12845505E-16
  -14.8439999        -3.06019319E-16
  -14.7110004        -2.94961039E-16
  -14.5780001        -2.79159878E-16
  -14.4449997        -2.58154943E-16
  -14.3120003        -2.31550856E-16
  -14.1789999        -1.99030614E-16
  -14.0459995        -1.60361998E-16
  -13.9130001        -1.15393972E-16
  -13.7799997        -6.40426987E-17
  -13.6470003        -6.26548286E-18
  -13.5139999         5.79698563E-17
  -13.3809996         1.28720487E-16
  -13.2480001         2.06096444E-16
  -13.1149998         2.90285550E-16
  -12.9820004         3.81575108E-16
  -12.8490000         4.80377425E-16
  -12.7159996         5.87268006E-16
  -12.5830002         7.03040840E-16
  -12.4499998         8.28771287E-16
  -12.3170004         9.65867752E-16
  -12.1840000         1.11607909E-15
  -12.0509996         1.28142014E-15
  -11.9180002         1.46397818E-15
  -11.7849998         1.66560326E-15
  -11.6520004         1.88750577E-15
  -11.5190001         2.12983745E-15
  -11.3859997         2.39136163E-15
  -11.2530003         2.66934281E-15
  -11.1199999         2.95975758E-15
  -10.9870005         3.25789221E-15
  -10.8540001         3.55929131E-15
  -10.7209997         3.86095363E-15
  -10.5880003         4.16256808E-15
  -10.4549999         4.46753467E-15
  -10.3219995         4.78351608E-15
  -10.1890001         5.12232883E-15
  -10.0559998         5.49907342E-15
  -9.92300034         5.93055624E-15
  -9.78999996         6.43318135E-15
  -9.65699959         7.02058388E-15
  -9.52400017         7.70133791E-15
  -9.39099979         8.47702696E-15
  -9.25800037         9.34090570E-15
  -9.12500000         1.02772549E-14
  -8.99199963         1.12614216E-14
  -8.85900021         1.22604826E-14
  -8.72599983         1.32344917E-14
  -8.59300041         1.41383089E-14
  -8.46000004         1.49241920E-14
  -8.32699966         1.55454788E-14
  -8.19400024         1.59617396E-14
  -8.06099987         1.61458388E-14
  -7.92799997         1.60930771E-14
  -7.79500008         1.58322740E-14
  -7.66200018         1.54380598E-14
  -7.52899981         1.50430612E-14
  -7.39599991         1.48479844E-14
  -7.26300001         1.51272021E-14
  -7.13000011         1.62272217E-14
  -6.99700022         1.85557356E-14
  -6.86399984         2.25595587E-14
  -6.73099995         2.86910930E-14
  -6.59800005         3.73643072E-14
  -6.46500015         4.89031355E-14
  -6.33199978         6.34868067E-14
  -6.19899988         8.10979837E-14
  -6.06599998         1.01480632E-13
  -5.93300009         1.24114342E-13
  -5.80000019         1.48211467E-13
  -5.66699982         1.72741365E-13
  -5.53399992         1.96483942E-13
  -5.40100002         2.18111214E-13
  -5.26800013         2.36292756E-13
  -5.13500023         2.49816877E-13
  -5.00199986         2.57717323E-13
  -4.86899996         2.59392605E-13
  -4.73600006         2.54704732E-13
  -4.60300016         2.44044639E-13
  -4.46999979         2.28353496E-13
  -4.33699989         2.09093349E-13
  -4.20400000         1.88164480E-13
  -4.07100010         1.67773144E-13
  -3.93799996         1.50258508E-13
  -3.80500007         1.37893142E-13
  -3.67199993         1.32674741E-13
  -3.53900003         1.36130067E-13
  -3.40599990         1.49150400E-13
  -3.27300000         1.71876863E-13
  -3.14000010         2.03647903E-13
  -3.00699997         2.43015433E-13
  -2.87400007         2.87827650E-13
  -2.74099994         3.35368994E-13
  -2.60800004         3.82540733E-13
  -2.47499990         4.26060229E-13
  -2.34200001         4.62654871E-13
  -2.20900011         4.89227311E-13
  -2.07599998         5.02972935E-13
  -1.94299996         5.01437216E-13
  -1.80999994         4.82509540E-13
  -1.67700005         4.44360992E-13
  -1.54400003         3.85341065E-13
  -1.41100001         3.03858338E-13
  -1.27800000         1.98273743E-13
  -1.14499998         6.68361037E-14
  -1.01199996        -9.23124356E-14
 -0.879000008        -2.81041222E-13
 -0.745999992        -5.01036495E-13
 -0.612999976        -7.53511619E-13
 -0.479999989        -1.03883839E-12
 -0.347000003        -1.35613276E-12
 -0.214000002        -1.70283470E-12
  -8.10000002E-02    -2.07433636E-12
   5.20000011E-02    -2.46370784E-12
  0.185000002        -2.86157296E-12
  0.317999989        -3.25617289E-12
  0.451000005        -3.63364850E-12
  0.583999991        -3.97854232E-12
  0.717000008        -4.27451260E-12
  0.850000024        -4.50521521E-12
  0.982999980        -4.65530522E-12
   1.11600006        -4.71147730E-12
   1.24899995        -4.66346796E-12
   1.38199997        -4.50492942E-12
   1.51499999        -4.23409615E-12
   1.64800000        -3.85418043E-12
   1.78100002        -3.37344627E-12
   1.91400003        -2.80494378E-12
   2.04699993        -2.16591393E-12
   2.18000007        -1.47690096E-12
   2.31299996        -7.60634231E-13
   2.44600010        -4.07654257E-14
   2.57900000         6.59441252E-13
   2.71199989         1.31836870E-12
   2.84500003         1.91715784E-12
   2.97799993         2.44059178E-12
   3.11100006         2.87769353E-12
   3.24399996         3.22200361E-12
   3.37700009         3.47153469E-12
   3.50999999         3.62842417E-12
   3.64299989         3.69833894E-12
   3.77600002         3.68969525E-12
   3.90899992         3.61278390E-12
   4.04199982         3.47887669E-12
   4.17500019         3.29940632E-12
   4.30800009         3.08528420E-12
   4.44099998         2.84641668E-12
   4.57399988         2.59144464E-12
   4.70699978         2.32771419E-12
   4.84000015         2.06145756E-12
   4.97300005         1.79814052E-12
   5.10599995         1.54291261E-12
   5.23899984         1.30108966E-12
   5.37200022         1.07858535E-12
   5.50500011         8.82223548E-13
   5.63800001         7.19866495E-13
   5.77099991         6.00318135E-13
   5.90399981         5.32991999E-13
   6.03700018         5.27349377E-13
   6.17000008         5.92152141E-13
   6.30299997         7.34590828E-13
   6.43599987         9.59385024E-13
   6.56899977         1.26793660E-12
   6.70200014         1.65765231E-12
   6.83500004         2.12151954E-12
   6.96799994         2.64801592E-12
   7.10099983         3.22140860E-12
   7.23400021         3.82243889E-12
   7.36700010         4.42939392E-12
   7.50000000         5.01949003E-12
   7.63299990         5.57046900E-12
   7.76599979         6.06228652E-12
   7.89900017         6.47874072E-12
   8.03199959         6.80889416E-12
   8.16499996         7.04814332E-12
   8.29800034         7.19882834E-12
   8.43099976         7.27029201E-12
   8.56400013         7.27837495E-12
   8.69699955         7.24435399E-12
   8.82999992         7.19342988E-12
   8.96300030         7.15287074E-12
   9.09599972         7.14998937E-12
   9.22900009         7.21015305E-12
   9.36200047         7.35500723E-12
   9.49499989         7.60108816E-12
   9.62800026         7.95897202E-12
   9.76099968         8.43305113E-12
   9.89400005         9.02194205E-12
   10.0270004         9.71951599E-12
   10.1599998         1.05164150E-11
   10.2930002         1.14019228E-11
   10.4259996         1.23659850E-11
   10.5590000         1.34011578E-11
   10.6920004         1.45042927E-11
   10.8249998         1.56777646E-11
   10.9580002         1.69300962E-11
   11.0909996         1.82759207E-11
   11.2240000         1.97352534E-11
   11.3570004         2.13321322E-11
   11.4899998         2.30927534E-11
   11.6230001         2.50432609E-11
   11.7559996         2.72074221E-11
   11.8889999         2.96043676E-11
   12.0220003         3.22466463E-11
   12.1549997         3.51387808E-11
   12.2880001         3.82764306E-11
   12.4209995         4.16462663E-11
   12.5539999         4.52265898E-11
   12.6870003         4.89886152E-11
   12.8199997         5.28983246E-11
   12.9530001         5.69187059E-11
   13.0860004         6.10122300E-11
   13.2189999         6.51433144E-11
   13.3520002         6.92805466E-11
   13.4849997         7.33985442E-11
   13.6180000         7.74792730E-11
   13.7510004         8.15126855E-11
   13.8839998         8.54967347E-11
   14.0170002         8.94367289E-11
   14.1499996         9.33440755E-11
   14.2830000         9.72346301E-11
   14.4160004         1.01126711E-10
   14.5489998         1.05039061E-10
   14.6820002         1.08988853E-10
   14.8149996         1.12989944E-10
   14.9480000         1.17051618E-10
   15.0810003         1.21177721E-10
   15.2139997         1.25366495E-10
   15.3470001         1.29610989E-10
   15.4799995         1.33899947E-10
   15.6129999         1.38219353E-10
   15.7460003         1.42554024E-10
   15.8789997         1.46889653E-10
   16.0119991         1.51214555E-10
   16.1450005         1.55521332E-10
   16.2779999         1.59808042E-10
   16.4109993         1.64078834E-10
   16.5440006         1.68343825E-10
   16.6770000         1.72618378E-10
   16.8099995         1.76921588E-10
   16.9430008         1.81274287E-10
   17.0760002         1.85696541E-10
   17.2089996         1.90204935E-10
   17.3419991         1.94810001E-10
   17.4750004         1.99513892E-10
   17.6079998         2.04308584E-10
   17.7409992         2.09174886E-10
   17.8740005         2.14082294E-10
   18.0070000         2.18989965E-10
   18.1399994         2.23848343E-10
   18.2730007         2.28601943E-10
   18.4060001         2.33192549E-10
   18.5389996         2.37562803E-10
   18.6720009         2.41659942E-10
   18.8050003         2.45439197E-10
   18.9379997         2.48866705E-10
   19.0709991         2.51921595E-10
   19.2040005         2.54597010E-10
   19.3369999         2.56900168E-10
   19.4699993         2.58851190E-10
   19.6030006         2.60480970E-10
   19.7360001         2.61828254E-10
   19.8689995         2.62936228E-10
   20.0020008         2.63848693E-10
   20.1350002         2.64606392E-10
   20.2679996         2.65243716E-10
   20.4009991         2.65786004E-10
   20.5340004         2.66247524E-10
   20.6669998         2.66630690E-10
   20.7999992         2.66925981E-10
   20.9330006         2.67112860E-10
   21.0660000         2.67161543E-10
   21.1989994         2.67035255E-10
   21.3320007         2.66693084E-10
   21.4650002         2.66092731E-10
   21.5979996         2.65193395E-10
   21.7310009         2.63958244E-10
   21.8640003         2.62356581E-10
   21.9969997         2.60365146E-10
   22.1299992         2.57969035E-10
   22.2630005         2.55161670E-10
   22.3959999         2.51944354E-10
   22.5289993         2.48324999E-10
   22.6620007         2.44316484E-10
   22.7950001         2.39934655E-10
   22.9279995         2.35196224E-10
   23.0610008         2.30116370E-10
   23.1940002         2.24706587E-10
   23.3269997         2.18972993E-10
   23.4599991         2.12914686E-10
   23.5930004         2.06522716E-10
   23.7259998         1.99779707E-10
   23.8589993         1.92659957E-10
   23.9920006         1.85130036E-10
   24.1250000         1.77149961E-10
   24.2579994         1.68674588E-10
   24.3910007         1.59655567E-10
   24.5240002         1.50043172E-10
   24.6569996         1.39788181E-10
   24.7900009         1.28843491E-10
   24.9230003         1.17165541E-10
   25.0559998         1.04715028E-10
   25.1889992         9.14575776E-11
   25.3220005         7.73631506E-11
   25.4549999         6.24059415E-11
   25.5879993         4.65628716E-11
   25.7210007         2.98126246E-11
   25.8540001         1.21339067E-11
   25.9869995        -6.49581344E-12
   26.1200008        -2.61016833E-11
   26.2530003        -4.67120509E-11
   26.3859997        -6.83587839E-11
   26.5189991        -9.10774373E-11
   26.6520004        -1.14906112E-10
   26.7849998        -1.39884243E-10
   26.9179993        -1.66051353E-10
   27.0510006        -1.93444691E-10
   27.1840000        -2.22097188E-10
   27.3169994        -2.52036142E-10
   27.4500008        -2.83281454E-10
   27.5830002        -3.15844323E-10
   27.7159996        -3.49727636E-10
   27.8490009        -3.84925369E-10
   27.9820004        -4.21424340E-10
   28.1149998        -4.59205396E-10
   28.2479992        -4.98245278E-10
   28.3810005        -5.38519285E-10
   28.5139999        -5.80003934E-10
   28.6469994        -6.22678242E-10
   28.7800007        -6.66526667E-10
   28.9130001        -7.11539883E-10
   29.0459995        -7.57715335E-10
   29.1790009        -8.05057021E-10
   29.3120003        -8.53574711E-10
   29.4449997        -9.03282060E-10
   29.5779991        -9.54194279E-10
   29.7110004        -1.00632502E-09
   29.8439999        -1.05968379E-09
   29.9769993        -1.11427334E-09
   30.1100006        -1.17008714E-09
   30.2430000        -1.22710742E-09
   30.3759995        -1.28530409E-09
   30.5090008        -1.34463507E-09
   30.6420002        -1.40504675E-09
   30.7749996        -1.46647583E-09
   30.9080009        -1.52885249E-09
   31.0410004        -1.59210256E-09
   31.1739998        -1.65615233E-09
   31.3069992        -1.72093118E-09
   31.4400005        -1.78637571E-09
   31.5730000        -1.85243154E-09
   31.7059994        -1.91905603E-09
   31.8390007        -1.98621897E-09
   31.9720001        -2.05390083E-09
   32.1049995        -2.12209206E-09
   32.2379990        -2.19078844E-09
   32.3709984        -2.25998775E-09
   32.5040016        -2.32968422E-09
   32.6370010        -2.39986186E-09
   32.7700005        -2.47049026E-09
   32.9029999        -2.54151944E-09
   33.0359993        -2.61287569E-09
   33.1689987        -2.68445866E-09
   33.3019981        -2.75614176E-09
   33.4350014        -2.82777335E-09
   33.5680008        -2.89917823E-09
   33.7010002        -2.97016500E-09
   33.8339996        -3.04053094E-09
   33.9669991        -3.11006976E-09
   34.0999985        -3.17857873E-09
   34.2330017        -3.24586735E-09
   34.3660011        -3.31176353E-09
   34.4990005        -3.37611894E-09
   34.6320000        -3.43881257E-09
   34.7649994        -3.49975138E-09
   34.8979988        -3.55887009E-09
   35.0309982        -3.61612718E-09
   35.1640015        -3.67150021E-09
   35.2970009        -3.72497766E-09
   35.4300003        -3.77655285E-09
   35.5629997        -3.82621534E-09
   35.6959991        -3.87394206E-09
   35.8289986        -3.91969390E-09
   35.9620018        -3.96340916E-09
   36.0950012        -4.00500166E-09
   36.2280006        -4.04436040E-09
   36.3610001        -4.08135259E-09
   36.4939995        -4.11582768E-09
   36.6269989        -4.14762136E-09
   36.7599983        -4.17656532E-09
   36.8930016        -4.20249258E-09
   37.0260010        -4.22524238E-09
   37.1590004        -4.24466817E-09
   37.2919998        -4.26063940E-09
   37.4249992        -4.27304370E-09
   37.5579987        -4.28178382E-09
   37.6910019        -4.28677804E-09
   37.8240013        -4.28795088E-09
   37.9570007        -4.28523084E-09
   38.0900002        -4.27854063E-09
   38.2229996        -4.26779012E-09
   38.3559990        -4.25287094E-09
   38.4889984        -4.23365121E-09
   38.6220016        -4.20997326E-09
   38.7550011        -4.18165369E-09
   38.8880005        -4.14848600E-09
   39.0209999        -4.11024637E-09
   39.1539993        -4.06669898E-09
   39.2869987        -4.01761024E-09
   39.4199982        -3.96275590E-09
   39.5530014        -3.90193211E-09
   39.6860008        -3.83496834E-09
   39.8190002        -3.76173404E-09
   39.9519997        -3.68214637E-09
   40.0849991        -3.59617558E-09
   40.2179985        -3.50384410E-09
   40.3510017        -3.40522699E-09
   40.4840012        -3.30044458E-09
   40.6170006        -3.18965809E-09
   40.7500000        -3.07305847E-09
   40.8829994        -2.95085645E-09
   41.0159988        -2.82327051E-09
   41.1489983        -2.69051759E-09
   41.2820015        -2.55280397E-09
   41.4150009        -2.41031750E-09
   41.5480003        -2.26322228E-09
   41.6809998        -2.11165774E-09
   41.8139992        -1.95573757E-09
   41.9469986        -1.79555482E-09
   42.0800018        -1.63118519E-09
   42.2130013        -1.46269463E-09
   42.3460007        -1.29014588E-09
   42.4790001        -1.11360665E-09
   42.6119995        -9.33155220E-10
   42.7449989        -7.48888118E-10
   42.8779984        -5.60917923E-10
   43.0110016        -3.69381359E-10
   43.1440010        -1.74433842E-10
   43.2770004         2.37545938E-11
   43.4099998         2.24997701E-10
   43.5429993         4.29105668E-10
   43.6759987         6.35886566E-10
   43.8089981         8.45153947E-10
   43.9420013         1.05673348E-09
   44.0750008         1.27046218E-09
   44.2080002         1.48619272E-09
   44.3409996         1.70379233E-09
   44.4739990         1.92313876E-09
   44.6069984         2.14411688E-09
   44.7400017         2.36661424E-09
   44.8730011         2.59051269E-09
   45.0060005         2.81568280E-09
   45.1389999         3.04197756E-09
   45.2719994         3.26922800E-09
   45.4049988         3.49724316E-09
   45.5379982         3.72580500E-09
   45.6710014         3.95467836E-09
   45.8040009         4.18360546E-09
   45.9370003         4.41231984E-09
   46.0699997         4.64055150E-09
   46.2029991         4.86803131E-09
   46.3359985         5.09449949E-09
   46.4690018         5.31971311E-09
   46.6020012         5.54345325E-09
   46.7350006         5.76552450E-09
   46.8680000         5.98575278E-09
   47.0009995         6.20399287E-09
   47.1339989         6.42011466E-09
   47.2669983         6.63400579E-09
   47.4000015         6.84555967E-09
   47.5330009         7.05466707E-09
   47.6660004         7.26121741E-09
   47.7989998         7.46508189E-09
   47.9319992         7.66611485E-09
   48.0649986         7.86414756E-09
   48.1980019         8.05899614E-09
   48.3310013         8.25045099E-09
   48.4640007         8.43828918E-09
   48.5970001         8.62227711E-09
   48.7299995         8.80218032E-09
   48.8629990         8.97777142E-09
   48.9959984         9.14883458E-09
   49.1290016         9.31517352E-09
   49.2620010         9.47662482E-09
   49.3950005         9.63305968E-09
   49.5279999         9.78438575E-09
   49.6609993         9.93055416E-09
   49.7939987         1.00715543E-08
   49.9269981         1.02074180E-08
   50.0600014         1.03382041E-08
   50.1930008         1.04640083E-08
   50.3260002         1.05849445E-08
   50.4589996         1.07011431E-08
   50.5919991         1.08127463E-08
   50.7249985         1.09198997E-08
   50.8580017         1.10227516E-08
   50.9910011         1.11214451E-08
   51.1240005         1.12161214E-08
   51.2570000         1.13069216E-08
   51.3899994         1.13939809E-08
   51.5229988         1.14774359E-08
   51.6559982         1.15574323E-08
   51.7890015         1.16341194E-08
   51.9220009         1.17076526E-08
   52.0550003         1.17782024E-08
   52.1879997         1.18459482E-08
   52.3209991         1.19110819E-08
   52.4539986         1.19738068E-08
   52.5870018         1.20343300E-08
   52.7200012         1.20928680E-08
   52.8530006         1.21496324E-08
   52.9860001         1.22048380E-08
   53.1189995         1.22586910E-08
   53.2519989         1.23113937E-08
   53.3849983         1.23631372E-08
   53.5180016         1.24141053E-08
   53.6510010         1.24644757E-08
   53.7840004         1.25144206E-08
   53.9169998         1.25641115E-08
   54.0499992         1.26137172E-08
   54.1829987         1.26634161E-08
   54.3160019         1.27133930E-08
   54.4490013         1.27638469E-08
   54.5820007         1.28149926E-08
   54.7150002         1.28670550E-08
   54.8479996         1.29202791E-08
   54.9809990         1.29749198E-08
   55.1139984         1.30312454E-08
   55.2470016         1.30895250E-08
   55.3800011         1.31500304E-08
   55.5130005         1.32130245E-08
   55.6459999         1.32787621E-08
   55.7789993         1.33474787E-08
   55.9119987         1.34193909E-08
   56.0449982         1.34946854E-08
   56.1780014         1.35735263E-08
   56.3110008         1.36560434E-08
   56.4440002         1.37423388E-08
   56.5769997         1.38324836E-08
   56.7099991         1.39265204E-08
   56.8429985         1.40244687E-08
   56.9760017         1.41263214E-08
   57.1090012         1.42320555E-08
   57.2420006         1.43416328E-08
   57.3750000         1.44550061E-08
   57.5079994         1.45721195E-08
   57.6409988         1.46929198E-08
   57.7739983         1.48173491E-08
   57.9070015         1.49453570E-08
   58.0400009         1.50768944E-08
   58.1730003         1.52119188E-08
   58.3059998         1.53503841E-08
   58.4389992         1.54922439E-08
   58.5719986         1.56374487E-08
   58.7050018         1.57859308E-08
   58.8380013         1.59376139E-08
   58.9710007         1.60923879E-08
   59.1040001         1.62501319E-08
   59.2369995         1.64106826E-08
   59.3699989         1.65738552E-08
   59.5029984         1.67394330E-08
   59.6360016         1.69071726E-08
   59.7690010         1.70768075E-08
   59.9020004         1.72480554E-08
   60.0349998         1.74206178E-08
   60.1679993         1.75941874E-08
   60.3009987         1.77684552E-08
   60.4339981         1.79431190E-08
   60.5670013         1.81178770E-08
   60.7000008         1.82924413E-08
   60.8330002         1.84665350E-08
   60.9659996         1.86398896E-08
   61.0989990         1.88122371E-08
   61.2319984         1.89833145E-08
   61.3650017         1.91528411E-08
   61.4980011         1.93205274E-08
   61.6310005         1.94860483E-08
   61.7639999         1.96490380E-08
   61.8969994         1.98090824E-08
   62.0299988         1.99657055E-08
   62.1629982         2.01183639E-08
   62.2960014         2.02664516E-08
   62.4290009         2.04092849E-08
   62.5620003         2.05461284E-08
   62.6949997         2.06761683E-08
   62.8279991         2.07985433E-08
   62.9609985         2.09123474E-08
   63.0940018         2.10166409E-08
   63.2270012         2.11104538E-08
   63.3600006         2.11928075E-08
   63.4930000         2.12627178E-08
   63.6259995         2.13192042E-08
   63.7589989         2.13613003E-08
   63.8919983         2.13880469E-08
   64.0250015         2.13985079E-08
   64.1579971         2.13917506E-08
   64.2910004         2.13668532E-08
   64.4240036         2.13229114E-08
   64.5569992         2.12590159E-08
   64.6900024         2.11742517E-08
   64.8229980         2.10677058E-08
   64.9560013         2.09384474E-08
   65.0889969         2.07855404E-08
   65.2220001         2.06080468E-08
   65.3550034         2.04050341E-08
   65.4879990         2.01755785E-08
   65.6210022         1.99187884E-08
   65.7539978         1.96337986E-08
   65.8870010         1.93197920E-08
   66.0199966         1.89760101E-08
   66.1529999         1.86017619E-08
   66.2860031         1.81964186E-08
   66.4189987         1.77594082E-08
   66.5520020         1.72902368E-08
   66.6849976         1.67884622E-08
   66.8180008         1.62536828E-08
   66.9509964         1.56855222E-08
   67.0839996         1.50836286E-08
   67.2170029         1.44476315E-08
   67.3499985         1.37771536E-08
   67.4830017         1.30717615E-08
   67.6159973         1.23310153E-08
   67.7490005         1.15543806E-08
   67.8820038         1.07412790E-08
   68.0149994         9.89108440E-09
   68.1480026         9.00314667E-09
   68.2809982         8.07676237E-09
   68.4140015         7.11122761E-09
   68.5469971         6.10584072E-09
   68.6800003         5.05992848E-09
   68.8130035         3.97290068E-09
   68.9459991         2.84420176E-09
   69.0790024         1.67338110E-09
   69.2119980         4.60085386E-10
   69.3450012        -7.95929989E-10
   69.4779968        -2.09480744E-09
   69.6110001        -3.43661100E-09
   69.7440033        -4.82129492E-09
   69.8769989        -6.24877439E-09
   70.0100021        -7.71889042E-09
   70.1429977        -9.23146803E-09
   70.2760010        -1.07863167E-08
   70.4089966        -1.23832544E-08
   70.5419998        -1.40220910E-08
   70.6750031        -1.57026800E-08
   70.8079987        -1.74248829E-08
   70.9410019        -1.91885636E-08
   71.0739975        -2.09936175E-08
   71.2070007        -2.28399113E-08
   71.3399963        -2.47272816E-08
   71.4729996        -2.66555578E-08
   71.6060028        -2.86244752E-08
   71.7389984        -3.06337036E-08
   71.8720016        -3.26827880E-08
   72.0049973        -3.47711975E-08
   72.1380005        -3.68982569E-08
   72.2710037        -3.90631634E-08
   72.4039993        -4.12650074E-08
   72.5370026        -4.35027587E-08
   72.6699982        -4.57752947E-08
   72.8030014        -4.80814428E-08
   72.9359970        -5.04199704E-08
   73.0690002        -5.27896056E-08
   73.2020035        -5.51890551E-08
   73.3349991        -5.76170365E-08
   73.4680023        -6.00722387E-08
   73.6009979        -6.25533687E-08
   73.7340012        -6.50591403E-08
   73.8669968        -6.75882035E-08
   74.0000000        -7.01392082E-08
   74.1330032        -7.27107263E-08
   74.2659988        -7.53012799E-08
   74.3990021        -7.79093199E-08
   74.5319977        -8.05332121E-08
   74.6650009        -8.31711802E-08
   74.7979965        -8.58213696E-08
   74.9309998        -8.84818050E-08
   75.0640030        -9.11504259E-08
   75.1969986        -9.38250295E-08
   75.3300018        -9.65033351E-08
   75.4629974        -9.91830191E-08
   75.5960007        -1.01861694E-07
   75.7289963        -1.04536952E-07
   75.8619995        -1.07206368E-07
   75.9950027        -1.09867557E-07
   76.1279984        -1.12518109E-07
   76.2610016        -1.15155679E-07
   76.3939972        -1.17777944E-07
   76.5270004        -1.20382623E-07
   76.6600037        -1.22967435E-07
   76.7929993        -1.25530136E-07
   76.9260025        -1.28068436E-07
   77.0589981        -1.30580062E-07
   77.1920013        -1.33062656E-07
   77.3249969        -1.35513844E-07
   77.4580002        -1.37931167E-07
   77.5910034        -1.40312110E-07
   77.7239990        -1.42654130E-07
   77.8570023        -1.44954626E-07
   77.9899979        -1.47210983E-07
   78.1230011        -1.49420558E-07
   78.2559967        -1.51580778E-07
   78.3889999        -1.53689086E-07
   78.5220032        -1.55742967E-07
   78.6549988        -1.57740018E-07
   78.7880020        -1.59677938E-07
   78.9209976        -1.61554524E-07
   79.0540009        -1.63367702E-07
   79.1869965        -1.65115495E-07
   79.3199997        -1.66796028E-07
   79.4530029        -1.68407510E-07
   79.5859985        -1.69948223E-07
   79.7190018        -1.71416445E-07
   79.8519974        -1.72810502E-07
   79.9850006        -1.74128658E-07
   80.1179962        -1.75369166E-07
   80.2509995        -1.76530193E-07
   80.3840027        -1.77609834E-07
   80.5169983        -1.78606129E-07
   80.6500015        -1.79517073E-07
   80.7829971        -1.80340592E-07
   80.9160004        -1.81074626E-07
   81.0490036        -1.81717098E-07
   81.1819992        -1.82265993E-07
   81.3150024        -1.82719319E-07
   81.4479980        -1.83075215E-07
   81.5810013        -1.83331878E-07
   81.7139969        -1.83487629E-07
   81.8470001        -1.83540891E-07
   81.9800034        -1.83490201E-07
   82.1129990        -1.83334180E-07
   82.2460022        -1.83071535E-07
   82.3789978        -1.82701044E-07
   82.5120010        -1.82221513E-07
   82.6449966        -1.81631790E-07
   82.7779999        -1.80930840E-07
   82.9110031        -1.80117482E-07
   83.0439987        -1.79190707E-07
   83.1770020        -1.78149421E-07