  -24.4200001       0.00000000    
  -24.2900009       8.56323831E-11
  -24.1599998       2.56276611E-10
  -24.0300007       5.05668951E-10
  -23.8999996       8.22740154E-10
  -23.7700005       1.19290833E-09
  -23.6399994       1.59965030E-09
  -23.5100002       2.02615613E-09
  -23.3799992       2.45688114E-09
  -23.2500000       2.87884871E-09
  -23.1200008       3.28261529E-09
  -22.9899998       3.66286179E-09
  -22.8600006       4.01862810E-09
  -22.7299995       4.35323422E-09
  -22.6000004       4.67395189E-09
  -22.4699993       4.99146680E-09
  -22.3400002       5.31917799E-09
  -22.2099991       5.67234970E-09
  -22.0799999       6.06712591E-09
  -21.9500008       6.51943344E-09
  -21.8199997       7.04381531E-09
  -21.6900005       7.65226638E-09
  -21.5599995       8.35317593E-09
  -21.4300003       9.15050791E-09
  -21.2999992       1.00433422E-08
  -21.1700001       1.10258869E-08
  -21.0400009       1.20879990E-08
  -20.9099998       1.32162272E-08
  -20.7800007       1.43952628E-08
  -20.6499996       1.56096629E-08
  -20.5200005       1.68456218E-08
  -20.3899994       1.80926065E-08
  -20.2600002       1.93446112E-08
  -20.1299992       2.06009325E-08
  -20.0000000       2.18663576E-08
  -19.8700008       2.31507808E-08
  -19.7399998       2.44683545E-08
  -19.6100006       2.58362771E-08
  -19.4799995       2.72734315E-08
  -19.3500004       2.87989756E-08
  -19.2199993       3.04310923E-08
  -19.0900002       3.21859197E-08
  -18.9599991       3.40767734E-08
  -18.8299999       3.61135903E-08
  -18.7000008       3.83026446E-08
  -18.5699997       4.06464657E-08
  -18.4400005       4.31439737E-08
  -18.3099995       4.57907809E-08
  -18.1800003       4.85797642E-08
  -18.0499992       5.15018037E-08
  -17.9200001       5.45468097E-08
  -17.7900009       5.77049022E-08
  -17.6599998       6.09677286E-08
  -17.5300007       6.43297824E-08
  -17.3999996       6.77895429E-08
  -17.2700005       7.13503638E-08
  -17.1399994       7.50208784E-08
  -17.0100002       7.88148284E-08
  -16.8799992       8.27504536E-08
  -16.7500000       8.68492123E-08
  -16.6200008       9.11343250E-08
  -16.4899998       9.56289696E-08
  -16.3600006       1.00354654E-07
  -16.2299995       1.05329718E-07
  -16.1000004       1.10568344E-07
  -15.9700003       1.16079981E-07
  -15.8400002       1.21869363E-07
  -15.7100000       1.27936900E-07
  -15.5799999       1.34279631E-07
  -15.4499998       1.40892112E-07
  -15.3199997       1.47767778E-07
  -15.1899996       1.54899908E-07
  -15.0600004       1.62282774E-07
  -14.9300003       1.69912582E-07
  -14.8000002       1.77788081E-07
  -14.6700001       1.85911333E-07
  -14.5400000       1.94288006E-07
  -14.4099998       2.02927723E-07
  -14.2799997       2.11843997E-07
  -14.1499996       2.21054137E-07
  -14.0200005       2.30578635E-07
  -13.8900003       2.40440329E-07
  -13.7600002       2.50663419E-07
  -13.6300001       2.61271850E-07
  -13.5000000       2.72288020E-07
  -13.3699999       2.83731339E-07
  -13.2399998       2.95616957E-07
  -13.1099997       3.07954963E-07
  -12.9799995       3.20750331E-07
  -12.8500004       3.34003005E-07
  -12.7200003       3.47708891E-07
  -12.5900002       3.61861140E-07
  -12.4600000       3.76451766E-07
  -12.3299999       3.91473293E-07
  -12.1999998       4.06920179E-07
  -12.0699997       4.22790237E-07
  -11.9399996       4.39085170E-07
  -11.8100004       4.55811062E-07
  -11.6800003       4.72978371E-07
  -11.5500002       4.90601110E-07
  -11.4200001       5.08696473E-07
  -11.2900000       5.27283646E-07
  -11.1599998       5.46382921E-07
  -11.0299997       5.66014819E-07
  -10.8999996       5.86199064E-07
  -10.7700005       6.06953620E-07
  -10.6400003       6.28294003E-07
  -10.5100002       6.50232437E-07
  -10.3800001       6.72777219E-07
  -10.2500000       6.95932385E-07
  -10.1199999       7.19697312E-07
  -9.98999977       7.44067336E-07
  -9.85999966       7.69033988E-07
  -9.72999954       7.94585901E-07
  -9.60000038       8.20710341E-07
  -9.47000027       8.47394801E-07
  -9.34000015       8.74628086E-07
  -9.21000004       9.02402292E-07
  -9.07999992       9.30713441E-07
  -8.94999981       9.59562271E-07
  -8.81999969       9.88954525E-07
  -8.68999958       1.01889952E-06
  -8.56000042       1.04941000E-06
  -8.43000031       1.08050062E-06
  -8.30000019       1.11218560E-06
  -8.17000008       1.14447835E-06
  -8.03999996       1.17738864E-06
  -7.90999985       1.21092319E-06
  -7.78000021       1.24508369E-06
  -7.65000010       1.27986755E-06
  -7.51999998       1.31526690E-06
  -7.38999987       1.35127016E-06
  -7.26000023       1.38786140E-06
  -7.13000011       1.42502233E-06
  -7.00000000       1.46273180E-06
  -6.86999989       1.50096776E-06
  -6.73999977       1.53970723E-06
  -6.61000013       1.57892805E-06
  -6.48000002       1.61860942E-06
  -6.34999990       1.65873280E-06
  -6.21999979       1.69928273E-06
  -6.09000015       1.74024751E-06
  -5.96000004       1.78161872E-06
  -5.82999992       1.82339181E-06
  -5.69999981       1.86556429E-06
  -5.57000017       1.90813535E-06
  -5.44000006       1.95110306E-06
  -5.30999994       1.99446458E-06
  -5.17999983       2.03821264E-06
  -5.05000019       2.08233541E-06
  -4.92000008       2.12681493E-06
  -4.78999996       2.17162710E-06
  -4.65999985       2.21674190E-06
  -4.53000021       2.26212410E-06
  -4.40000010       2.30773412E-06
  -4.26999998       2.35353036E-06
  -4.13999987       2.39947053E-06
  -4.01000023       2.44551211E-06
  -3.88000011       2.49161485E-06
  -3.75000000       2.53774147E-06
  -3.61999989       2.58385762E-06
  -3.49000001       2.62993240E-06
  -3.35999990       2.67593873E-06
  -3.23000002       2.72185252E-06
  -3.09999990       2.76765240E-06
  -2.97000003       2.81331904E-06
  -2.83999991       2.85883402E-06
  -2.71000004       2.90417870E-06
  -2.57999992       2.94933420E-06
  -2.45000005       2.99427870E-06
  -2.31999993       3.03898719E-06
  -2.19000006       3.08342942E-06
  -2.05999994       3.12757061E-06
  -1.92999995       3.17136937E-06
  -1.79999995       3.21477842E-06
  -1.66999996       3.25774704E-06
  -1.53999996       3.30021908E-06
  -1.40999997       3.34213746E-06
  -1.27999997       3.38344375E-06
  -1.14999998       3.42408225E-06
  -1.01999998       3.46400088E-06
 -0.889999986       3.50315190E-06
 -0.759999990       3.54149370E-06
 -0.629999995       3.57899012E-06
 -0.500000000       3.61561138E-06
 -0.370000005       3.65133201E-06
 -0.239999995       3.68612950E-06
 -0.109999999       3.71998271E-06
   1.99999996E-02   3.75287163E-06
  0.150000006       3.78477353E-06
  0.280000001       3.81566497E-06
  0.409999996       3.84551777E-06
  0.540000021       3.87430009E-06
  0.670000017       3.90197556E-06
  0.800000012       3.92850234E-06
  0.930000007       3.95383586E-06
   1.05999994       3.97792519E-06
   1.19000006       4.00071667E-06
   1.32000005       4.02215483E-06
   1.45000005       4.04218281E-06
   1.58000004       4.06074423E-06
   1.71000004       4.07778452E-06
   1.84000003       4.09325321E-06
   1.97000003       4.10710481E-06
   2.09999990       4.11929977E-06
   2.23000002       4.12980535E-06
   2.35999990       4.13859607E-06
   2.49000001       4.14565147E-06
   2.61999989       4.15095610E-06
   2.75000000       4.15449767E-06
   2.88000011       4.15626528E-06
   3.00999999       4.15624618E-06
   3.14000010       4.15442491E-06
   3.26999998       4.15078466E-06
   3.40000010       4.14530268E-06
   3.52999997       4.13795169E-06
   3.66000009       4.12870077E-06
   3.78999996       4.11751716E-06
   3.92000008       4.10436496E-06
   4.05000019       4.08920778E-06
   4.17999983       4.07201014E-06
   4.30999994       4.05273840E-06
   4.44000006       4.03136119E-06
   4.57000017       4.00785211E-06
   4.69999981       3.98218799E-06
   4.82999992       3.95435200E-06
   4.96000004       3.92433185E-06
   5.09000015       3.89212255E-06
   5.21999979       3.85772364E-06
   5.34999990       3.82113922E-06
   5.48000002       3.78237678E-06
   5.61000013       3.74144770E-06
   5.73999977       3.69836334E-06
   5.86999989       3.65313417E-06
   6.00000000       3.60576814E-06
   6.13000011       3.55626912E-06
   6.26000023       3.50463688E-06
   6.38999987       3.45086460E-06
   6.51999998       3.39494204E-06
   6.65000010       3.33685466E-06
   6.78000021       3.27658449E-06
   6.90999985       3.21411494E-06
   7.03999996       3.14942918E-06
   7.17000008       3.08251379E-06
   7.30000019       3.01335854E-06
   7.42999983       2.94195956E-06
   7.55999994       2.86831892E-06
   7.69000006       2.79244227E-06
   7.82000017       2.71434260E-06
   7.94999981       2.63403786E-06
   8.07999992       2.55154805E-06
   8.21000004       2.46689797E-06
   8.34000015       2.38011307E-06
   8.47000027       2.29122043E-06
   8.60000038       2.20024594E-06
   8.72999954       2.10721396E-06
   8.85999966       2.01214698E-06
   8.98999977       1.91506433E-06
   9.11999989       1.81598068E-06
   9.25000000       1.71490728E-06
   9.38000011       1.61185130E-06
   9.51000023       1.50681683E-06
   9.64000034       1.39980614E-06
   9.77000046       1.29082082E-06
   9.89999962       1.17986406E-06
   10.0299997       1.06694222E-06
   10.1599998       9.52067353E-07
   10.2900000       8.35256401E-07
   10.4200001       7.16534487E-07
   10.5500002       5.95933727E-07
   10.6800003       4.73494168E-07
   10.8100004       3.49260318E-07
   10.9399996       2.23282456E-07
   11.0699997       9.56136290E-08
   11.1999998      -3.36920856E-08
   11.3299999      -1.64580030E-07
   11.4600000      -2.96997712E-07
   11.5900002      -4.30894090E-07
   11.7200003      -5.66220251E-07
   11.8500004      -7.02930322E-07
   11.9799995      -8.40981215E-07
   12.1099997      -9.80330697E-07
   12.2399998      -1.12093812E-06
   12.3699999      -1.26276325E-06
   12.5000000      -1.40576549E-06
   12.6300001      -1.54990130E-06
   12.7600002      -1.69512464E-06
   12.8900003      -1.84138457E-06
   13.0200005      -1.98862426E-06
   13.1499996      -2.13678027E-06
   13.2799997      -2.28578165E-06
   13.4099998      -2.43554882E-06
   13.5400000      -2.58599607E-06
   13.6700001      -2.73703040E-06
   13.8000002      -2.88855335E-06
   13.9300003      -3.04046239E-06
   14.0600004      -3.19265405E-06
   14.1899996      -3.34502511E-06
   14.3199997      -3.49747461E-06
   14.4499998      -3.64990524E-06
   14.5799999      -3.80222355E-06
   14.7100000      -3.95434108E-06
   14.8400002      -4.10617304E-06
   14.9700003      -4.25763619E-06
   15.1000004      -4.40865051E-06
   15.2299995      -4.55913460E-06
   15.3599997      -4.70900568E-06
   15.4899998      -4.85817782E-06
   15.6199999      -5.00655915E-06
   15.7500000      -5.15405600E-06
   15.8800001      -5.30056741E-06
   16.0100002      -5.44598652E-06
   16.1399994      -5.59019827E-06
   16.2700005      -5.73308625E-06
   16.3999996      -5.87452587E-06
   16.5300007      -6.01438842E-06
   16.6599998      -6.15254385E-06
   16.7900009      -6.28885891E-06
   16.9200001      -6.42320219E-06
   17.0499992      -6.55544227E-06
   17.1800003      -6.68545181E-06
   17.3099995      -6.81310848E-06
   17.4400005      -6.93829543E-06
   17.5699997      -7.06089941E-06
   17.7000008      -7.18081537E-06
   17.8299999      -7.29794056E-06
   17.9599991      -7.41217491E-06
   18.0900002      -7.52341930E-06
   18.2199993      -7.63157186E-06
   18.3500004      -7.73652755E-06
   18.4799995      -7.83817723E-06
   18.6100006      -7.93640083E-06
   18.7399998      -8.03107650E-06
   18.8700008      -8.12207145E-06
   19.0000000      -8.20924834E-06
   19.1299992      -8.29246164E-06
   19.2600002      -8.37156767E-06
   19.3899994      -8.44641636E-06
   19.5200005      -8.51685581E-06
   19.6499996      -8.58274052E-06
   19.7800007      -8.64392223E-06
   19.9099998      -8.70026088E-06
   20.0400009      -8.75162095E-06
   20.1700001      -8.79787149E-06
   20.2999992      -8.83889061E-06
   20.4300003      -8.87456099E-06
   20.5599995      -8.90477622E-06
   20.6900005      -8.92943262E-06
   20.8199997      -8.94843379E-06
   20.9500008      -8.96168513E-06
   21.0799999      -8.96909660E-06
   21.2099991      -8.97057544E-06
   21.3400002      -8.96603069E-06
   21.4699993      -8.95536687E-06
   21.6000004      -8.93848483E-06
   21.7299995      -8.91528362E-06
   21.8600006      -8.88566046E-06
   21.9899998      -8.84950987E-06
   22.1200008      -8.80672815E-06
   22.2500000      -8.75721526E-06
   22.3799992      -8.70087570E-06
   22.5100002      -8.63762398E-06
   22.6399994      -8.56738461E-06
   22.7700005      -8.49009211E-06
   22.8999996      -8.40569282E-06
   23.0300007      -8.31414673E-06
   23.1599998      -8.21542562E-06
   23.2900009      -8.10951224E-06
   23.4200001      -7.99640111E-06
   23.5499992      -7.87609315E-06
   23.6800003      -7.74860109E-06
   23.8099995      -7.61394085E-06
   23.9400005      -7.47213562E-06
   24.0699997      -7.32321178E-06
   24.2000008      -7.16719796E-06
   24.3299999      -7.00412374E-06
   24.4599991      -6.83402277E-06
   24.5900002      -6.65692642E-06
   24.7199993      -6.47286879E-06
   24.8500004      -6.28188855E-06
   24.9799995      -6.08402343E-06
   25.1100006      -5.87932163E-06
   25.2399998      -5.66783774E-06
   25.3700008      -5.44963723E-06
   25.5000000      -5.22479877E-06
   25.6299992      -4.99341240E-06
   25.7600002      -4.75558636E-06
   25.8899994      -4.51144160E-06
   26.0200005      -4.26111546E-06
   26.1499996      -4.00475574E-06
   26.2800007      -3.74252227E-06
   26.4099998      -3.47458422E-06
   26.5400009      -3.20111735E-06
   26.6700001      -2.92230220E-06
   26.7999992      -2.63832044E-06
   26.9300003      -2.34935692E-06
   27.0599995      -2.05559672E-06
   27.1900005      -1.75722596E-06
   27.3199997      -1.45443175E-06
   27.4500008      -1.14740158E-06
   27.5799999      -8.36321647E-07
   27.7099991      -5.21383356E-07
   27.8400002      -2.02783369E-07
   27.9699993       1.19279392E-07
   28.1000004       4.44597219E-07
   28.2299995       7.72954252E-07
   28.3600006       1.10412475E-06
   28.4899998       1.43786997E-06
   28.6200008       1.77394338E-06
   28.7500000       2.11208248E-06
   28.8799992       2.45201659E-06
   29.0100002       2.79346227E-06
   29.1399994       3.13613259E-06
   29.2700005       3.47973287E-06
   29.3999996       3.82396502E-06
   29.5300007       4.16853163E-06
   29.6599998       4.51313781E-06
   29.7900009       4.85749388E-06
   29.9200001       5.20131198E-06
   30.0499992       5.54431290E-06
   30.1800003       5.88622152E-06
   30.3099995       6.22676362E-06
   30.4400005       6.56567136E-06
   30.5699997       6.90267416E-06
   30.7000008       7.23750418E-06
   30.8299999       7.56988629E-06
   30.9599991       7.89954538E-06
   31.0900002       8.22619950E-06
   31.2199993       8.54955852E-06
   31.3500004       8.86933049E-06
   31.4799995       9.18521619E-06
   31.6100006       9.49691184E-06
   31.7399998       9.80410550E-06
   31.8700008       1.01064879E-05
   32.0000000       1.04037472E-05
   32.1300011       1.06955704E-05
   32.2599983       1.09816528E-05
   32.3899994       1.12616935E-05
   32.5200005       1.15353996E-05
   32.6500015       1.18024882E-05
   32.7799988       1.20626910E-05
   32.9099998       1.23157497E-05
   33.0400009       1.25614188E-05
   33.1699982       1.27994599E-05
   33.2999992       1.30296467E-05
   33.4300003       1.32517589E-05
   33.5600014       1.34655811E-05
   33.6899986       1.36708977E-05
   33.8199997       1.38674977E-05
   33.9500008       1.40551647E-05
   34.0800018       1.42336803E-05
   34.2099991       1.44028281E-05
   34.3400002       1.45623899E-05
   34.4700012       1.47121473E-05
   34.5999985       1.48518839E-05
   34.7299995       1.49813895E-05
   34.8600006       1.51004588E-05
   34.9900017       1.52088978E-05
   35.1199989       1.53065175E-05
   35.2500000       1.53931487E-05
   35.3800011       1.54686331E-05
   35.5099983       1.55328235E-05
   35.6399994       1.55855942E-05
   35.7700005       1.56268343E-05
   35.9000015       1.56564438E-05
   36.0299988       1.56743463E-05
   36.1599998       1.56804690E-05
   36.2900009       1.56747556E-05
   36.4199982       1.56571550E-05
   36.5499992       1.56276255E-05
   36.6800003       1.55861253E-05
   36.8100014       1.55326179E-05
   36.9399986       1.54670633E-05
   37.0699997       1.53894289E-05
   37.2000008       1.52996745E-05
   37.3300018       1.51977711E-05
   37.4599991       1.50836877E-05
   37.5900002       1.49574016E-05
   37.7200012       1.48189001E-05
   37.8499985       1.46681823E-05
   37.9799995       1.45052600E-05
   38.1100006       1.43301613E-05
   38.2400017       1.41429282E-05
   38.3699989       1.39436215E-05
   38.5000000       1.37323168E-05
   38.6300011       1.35091041E-05
   38.7599983       1.32740888E-05
   38.8899994       1.30273856E-05
   39.0200005       1.27691228E-05
   39.1500015       1.24994358E-05
   39.2799988       1.22184665E-05
   39.4099998       1.19263595E-05
   39.5400009       1.16232623E-05
   39.6699982       1.13093247E-05
   39.7999992       1.09846960E-05
   39.9300003       1.06495227E-05
   40.0600014       1.03039529E-05
   40.1899986       9.94813399E-06
   40.3199997       9.58221699E-06
   40.4500008       9.20635557E-06
   40.5800018       8.82070981E-06
   40.7099991       8.42545069E-06
   40.8400002       8.02076192E-06
   40.9700012       7.60683724E-06
   41.0999985       7.18388810E-06
   41.2299995       6.75213823E-06
   41.3600006       6.31182684E-06
   41.4900017       5.86320630E-06
   41.6199989       5.40654037E-06
   41.7500000       4.94209871E-06
   41.8800011       4.47015782E-06
   42.0099983       3.99099781E-06
   42.1399994       3.50490131E-06
   42.2700005       3.01214823E-06
   42.4000015       2.51302026E-06
   42.5299988       2.00779459E-06
   42.6599998       1.49674713E-06
   42.7900009       9.80151412E-07
   42.9199982       4.58279715E-07
   43.0499992      -6.85959165E-08
   43.1800003      -6.00201588E-07
   43.3100014      -1.13626072E-06
   43.4399986      -1.67649262E-06
   43.5699997      -2.22060885E-06
   43.7000008      -2.76831315E-06
   43.8300018      -3.31929527E-06
   43.9599991      -3.87323871E-06
   44.0900002      -4.42981491E-06
   44.2200012      -4.98868485E-06
   44.3499985      -5.54949975E-06
   44.4799995      -6.11190444E-06
   44.6100006      -6.67554059E-06
   44.7400017      -7.24005122E-06
   44.8699989      -7.80508253E-06
   45.0000000      -8.37028165E-06
   45.1300011      -8.93530523E-06
   45.2599983      -9.49982314E-06
   45.3899994      -1.00635098E-05
   45.5200005      -1.06260450E-05
   45.6500015      -1.11871241E-05
   45.7799988      -1.17464451E-05
   45.9099998      -1.23037089E-05
   46.0400009      -1.28586216E-05
   46.1699982      -1.34108832E-05
   46.2999992      -1.39601952E-05
   46.4300003      -1.45062559E-05
   46.5600014      -1.50487567E-05
   46.6899986      -1.55873877E-05
   46.8199997      -1.61218304E-05
   46.9500008      -1.66517621E-05
   47.0800018      -1.71768570E-05
   47.2099991      -1.76967842E-05
   47.3400002      -1.82112162E-05
   47.4700012      -1.87198275E-05
   47.5999985      -1.92222942E-05
   47.7299995      -1.97183072E-05
   47.8600006      -2.02075607E-05
   47.9900017      -2.06897676E-05
   48.1199989      -2.11646529E-05
   48.2500000      -2.16319531E-05
   48.3800011      -2.20914262E-05
   48.5099983      -2.25428357E-05
   48.6399994      -2.29859616E-05
   48.7700005      -2.34205872E-05
   48.9000015      -2.38465054E-05
   49.0299988      -2.42635069E-05
   49.1599998      -2.46713862E-05
   49.2900009      -2.50699286E-05
   49.4199982      -2.54589249E-05
   49.5499992      -2.58381569E-05
   49.6800003      -2.62074082E-05
   49.8100014      -2.65664603E-05
   49.9399986      -2.69150896E-05
   50.0699997      -2.72530833E-05
   50.2000008      -2.75802304E-05
   50.3300018      -2.78963289E-05
   50.4599991      -2.82011897E-05
   50.5900002      -2.84946309E-05
   50.7200012      -2.87764924E-05
   50.8499985      -2.90466269E-05
   50.9799995      -2.93049070E-05
   51.1100006      -2.95512218E-05
   51.2400017      -2.97854731E-05
   51.3699989      -3.00075899E-05
   51.5000000      -3.02175013E-05
   51.6300011      -3.04151563E-05
   51.7599983      -3.06005131E-05
   51.8899994      -3.07735245E-05
   52.0200005      -3.09341558E-05
   52.1500015      -3.10823671E-05
   52.2799988      -3.12181146E-05
   52.4099998      -3.13413584E-05
   52.5400009      -3.14520512E-05
   52.6699982      -3.15501384E-05
   52.7999992      -3.16355836E-05
   52.9300003      -3.17083359E-05
   53.0600014      -3.17683662E-05
   53.1899986      -3.18156453E-05
   53.3199997      -3.18501625E-05
   53.4500008      -3.18719212E-05
   53.5800018      -3.18809361E-05
   53.7099991      -3.18772400E-05
   53.8400002      -3.18608872E-05
   53.9700012      -3.18319399E-05
   54.0999985      -3.17904814E-05
   54.2299995      -3.17365993E-05
   54.3600006      -3.16704027E-05
   54.4900017      -3.15920042E-05
   54.6199989      -3.15015168E-05
   54.7500000      -3.13990640E-05
   54.8800011      -3.12847587E-05
   55.0099983      -3.11587210E-05
   55.1399994      -3.10210671E-05
   55.2700005      -3.08719027E-05
   55.4000015      -3.07113405E-05
   55.5299988      -3.05394824E-05
   55.6599998      -3.03564320E-05
   55.7900009      -3.01623004E-05
   55.9199982      -2.99571930E-05
   56.0499992      -2.97412371E-05
   56.1800003      -2.95145583E-05
   56.3100014      -2.92773057E-05
   56.4399986      -2.90296375E-05
   56.5699997      -2.87717339E-05
   56.7000008      -2.85037822E-05
   56.8300018      -2.82259880E-05
   56.9599991      -2.79385658E-05
   57.0900002      -2.76417377E-05
   57.2200012      -2.73357346E-05
   57.3499985      -2.70207820E-05
   57.4799995      -2.66971147E-05
   57.6100006      -2.63649526E-05
   57.7400017      -2.60245197E-05
   57.8699989      -2.56760268E-05
   58.0000000      -2.53196795E-05
   58.1300011      -2.49556779E-05
   58.2599983      -2.45842111E-05
   58.3899994      -2.42054666E-05
   58.5200005      -2.38196244E-05
   58.6500015      -2.34268682E-05
   58.7799988      -2.30273745E-05
   58.9099998      -2.26213360E-05
   59.0400009      -2.22089420E-05
   59.1699982      -2.17903962E-05
   59.2999992      -2.13659096E-05
   59.4300003      -2.09357077E-05
   59.5600014      -2.05000269E-05
   59.6899986      -2.00591076E-05
   59.8199997      -1.96132041E-05
   59.9500008      -1.91625713E-05
   60.0800018      -1.87074620E-05
   60.2099991      -1.82481290E-05
   60.3400002      -1.77848178E-05
   60.4700012      -1.73177632E-05
   60.5999985      -1.68471943E-05
   60.7299995      -1.63733221E-05
   60.8600006      -1.58963503E-05
   60.9900017      -1.54164663E-05
   61.1199989      -1.49338539E-05
   61.2500000      -1.44486894E-05
   61.3800011      -1.39611429E-05
   61.5099983      -1.34713855E-05
   61.6399994      -1.29795890E-05
   61.7700005      -1.24859289E-05
   61.9000015      -1.19905853E-05
   62.0299988      -1.14937493E-05
   62.1599998      -1.09956181E-05
   62.2900009      -1.04963983E-05
   62.4199982      -9.99630538E-06
   62.5499992      -9.49556124E-06
   62.6800003      -8.99439419E-06
   62.8100014      -8.49303160E-06
   62.9399986      -7.99170357E-06
   63.0699997      -7.49063247E-06
   63.2000008      -6.99003476E-06
   63.3300018      -6.49011690E-06
   63.4599991      -5.99107170E-06
   63.5900002      -5.49307970E-06
   63.7200012      -4.99630823E-06
   63.8499985      -4.50091284E-06
   63.9799995      -4.00703902E-06
   64.1100006      -3.51482754E-06
   64.2399979      -3.02441458E-06
   64.3700027      -2.53593703E-06
   64.5000000      -2.04953608E-06
   64.6299973      -1.56535896E-06
   64.7600021      -1.08356096E-06
   64.8899994      -6.04305626E-07
   65.0199966      -1.27766981E-07
   65.1500015       3.45872394E-07
   65.2799988       8.16424176E-07
   65.4100037       1.28369345E-06
   65.5400009       1.74748175E-06
   65.6699982       2.20759216E-06
   65.8000031       2.66382972E-06
   65.9300003       3.11600570E-06
   66.0599976       3.56394025E-06
   66.1900024       4.00746239E-06
   66.3199997       4.44641364E-06
   66.4499969       4.88065007E-06
   66.5800018       5.31003661E-06
   66.7099991       5.73445141E-06
   66.8399963       6.15378212E-06
   66.9700012       6.56792099E-06
   67.0999985       6.97676387E-06
   67.2300034       7.38020390E-06
   67.3600006       7.77813057E-06
   67.4899979       8.17042473E-06
   67.6200027       8.55695725E-06
   67.7500000       8.93758715E-06
   67.8799973       9.31216255E-06
   68.0100021       9.68052063E-06
   68.1399994       1.00424932E-05
   68.2699966       1.03979028E-05
   68.4000015       1.07465739E-05
   68.5299988       1.10883302E-05
   68.6600037       1.14230006E-05
   68.7900009       1.17504242E-05
   68.9199982       1.20704453E-05
   69.0500031       1.23829232E-05
   69.1800003       1.26877285E-05
   69.3099976       1.29847431E-05
   69.4400024       1.32738633E-05
   69.5699997       1.35549899E-05
   69.6999969       1.38280366E-05
   69.8300018       1.40929187E-05
   69.9599991       1.43495545E-05
   70.0899963       1.45978602E-05
   70.2200012       1.48377485E-05
   70.3499985       1.50691249E-05
   70.4800034       1.52918856E-05
   70.6100006       1.55059151E-05
   70.7399979       1.57110935E-05
   70.8700027       1.59072861E-05
   71.0000000       1.60943564E-05
   71.1299973       1.62721626E-05
   71.2600021       1.64405628E-05
   71.3899994       1.65994243E-05
   71.5199966       1.67486178E-05
   71.6500015       1.68880306E-05
   71.7799988       1.70175608E-05
   71.9100037       1.71371248E-05
   72.0400009       1.72466516E-05
   72.1699982       1.73460903E-05
   72.3000031       1.74354009E-05
   72.4300003       1.75145524E-05
   72.5599976       1.75835230E-05
   72.6900024       1.76423000E-05
   72.8199997       1.76908634E-05
   72.9499969       1.77292004E-05
   73.0800018       1.77572911E-05
   73.2099991       1.77751117E-05
   73.3399963       1.77826296E-05
   73.4700012       1.77798120E-05
   73.5999985       1.77666170E-05
   73.7300034       1.77429974E-05
   73.8600006       1.77089078E-05
   73.9899979       1.76643025E-05
   74.1200027       1.76091453E-05
   74.2500000       1.75434034E-05
   74.3799973       1.74670622E-05
   74.5100021       1.73801200E-05
   74.6399994       1.72825949E-05
   74.7699966       1.71745251E-05
   74.9000015       1.70559670E-05
   75.0299988       1.69269988E-05
   75.1600037       1.67877133E-05
   75.2900009       1.66382124E-05
   75.4199982       1.64786161E-05
   75.5500031       1.63090408E-05
   75.6800003       1.61296066E-05
   75.8099976       1.59404372E-05
   75.9400024       1.57416416E-05
   76.0699997       1.55333328E-05
   76.1999969       1.53156107E-05
   76.3300018       1.50885726E-05
   76.4599991       1.48523131E-05
   76.5899963       1.46069215E-05
   76.7200012       1.43524912E-05
   76.8499985       1.40891198E-05
   76.9800034       1.38169107E-05
   77.1100006       1.35359805E-05
   77.2399979       1.32464602E-05
   77.3700027       1.29484933E-05
   77.5000000       1.26422419E-05
   77.6299973       1.23278878E-05
   77.7600021       1.20056311E-05
   77.8899994       1.16756837E-05
   78.0199966       1.13382757E-05
   78.1500015       1.09936454E-05
   78.2799988       1.06420403E-05
   78.4100037       1.02837075E-05
   78.5400009       9.91889647E-06
   78.6699982       9.54784809E-06
   78.8000031       9.17079706E-06
   78.9300003       8.78796891E-06
   79.0599976       8.39958011E-06
   79.1900024       8.00583712E-06
   79.3199997       7.60694229E-06
   79.4499969       7.20309572E-06
   79.5800018       6.79449522E-06
   79.7099991       6.38134543E-06
   79.8399963       5.96385871E-06
   79.9700012       5.54225926E-06
   80.0999985       5.11678309E-06
   80.2300034       4.68768303E-06
   80.3600006       4.25522558E-06
   80.4899979       3.81969448E-06
   80.6200027       3.38138648E-06
   80.7500000       2.94060851E-06
   80.8799973       2.49767641E-06
   81.0100021       2.05291212E-06
   81.1399994       1.60663672E-06
   81.2699966       1.15917192E-06
   81.4000015       7.10830420E-07
   81.5299988       2.61918728E-07
   81.6600037      -1.87271255E-07
   81.7900009      -6.36458708E-07
   81.9199982      -1.08537449E-06
   82.0500031      -1.53376379E-06
   82.1800003      -1.98138105E-06
   82.3099976      -2.42798797E-06
   82.4400024      -2.87335001E-06
   82.5699997      -3.31722799E-06
   82.6999969      -3.75938066E-06
   82.8300018      -4.19956041E-06
   82.9599991      -4.63750530E-06
   83.0899963      -5.07294271E-06
   83.2200012      -5.50558616E-06
   83.3499985      -5.93514005E-06
   83.4800034      -6.36129789E-06
   83.6100006      -6.78375000E-06
   83.7399979      -7.20218304E-06
   83.8700027      -7.61628553E-06
   84.0000000      -8.02575414E-06
   84.1299973      -8.43029466E-06
   84.2600021      -8.82962377E-06
   84.3899994      -9.22347590E-06
   84.5199966      -9.61159913E-06
   84.6500015      -9.99376243E-06
   84.7799988      -1.03697466E-05
   84.9100037      -1.07393498E-05
   85.0400009      -1.11023837E-05
   85.1699982      -1.14586683E-05
   85.3000031      -1.18080316E-05
   85.4300003      -1.21503008E-05
   85.5599976      -1.24853041E-05
   85.6900024      -1.28128704E-05
   85.8199997      -1.31328106E-05
   85.9499969      -1.34449356E-05
   86.0800018      -1.37490415E-05
   86.2099991      -1.40449229E-05
   86.3399963      -1.43323650E-05
   86.4700012      -1.46111561E-05
   86.5999985      -1.48810814E-05
   86.7300034      -1.51419335E-05
   86.8600006      -1.53935198E-05