  -24.4200001         0.00000000    
  -24.2900009         3.25461325E-10
  -24.1599998         9.73778835E-10
  -24.0300007         1.92066540E-09
  -23.8999996         3.12337423E-09
  -23.7700005         4.52567228E-09
  -23.6399994         6.06388451E-09
  -23.5100002         7.67325670E-09
  -23.3799992         9.29392741E-09
  -23.2500000         1.08759330E-08
  -23.1200008         1.23829187E-08
  -22.9899998         1.37944003E-08
  -22.8600006         1.51066555E-08
  -22.7299995         1.63324057E-08
  -22.6000004         1.74995165E-08
  -22.4699993         1.86489135E-08
  -22.3400002         1.98318553E-08
  -22.2099991         2.11066240E-08
  -22.0799999         2.25347154E-08
  -21.9500008         2.41765896E-08
  -21.8199997         2.60871431E-08
  -21.6900005         2.83112165E-08
  -21.5599995         3.08795229E-08
  -21.4300003         3.38054917E-08
  -21.2999992         3.70835522E-08
  -21.1700001         4.06891658E-08
  -21.0400009         4.45809576E-08
  -20.9099998         4.87047593E-08
  -20.7800007         5.29992725E-08
  -20.6499996         5.74027830E-08
  -20.5200005         6.18600779E-08
  -20.3899994         6.63287381E-08
  -20.2600002         7.07840684E-08
  -20.1299992         7.52220686E-08
  -20.0000000         7.96601611E-08
  -19.8700008         8.41356993E-08
  -19.7399998         8.87026488E-08
  -19.6100006         9.34268627E-08
  -19.4799995         9.83807169E-08
  -19.3500004         1.03637646E-07
  -19.2199993         1.09267134E-07
  -19.0900002         1.15330558E-07
  -18.9599991         1.21877989E-07
  -18.8299999         1.28946013E-07
  -18.7000008         1.36556494E-07
  -18.5699997         1.44716282E-07
  -18.4400005         1.53417602E-07
  -18.3099995         1.62639438E-07
  -18.1800003         1.72349573E-07
  -18.0499992         1.82507847E-07
  -17.9200001         1.93070008E-07
  -17.7900009         2.03992556E-07
  -17.6599998         2.15237989E-07
  -17.5300007         2.26779946E-07
  -17.3999996         2.38607868E-07
  -17.2700005         2.50730409E-07
  -17.1399994         2.63176986E-07
  -17.0100002         2.75997223E-07
  -16.8799992         2.89258395E-07
  -16.7500000         3.03040565E-07
  -16.6200008         3.17430562E-07
  -16.4899998         3.32515071E-07
  -16.3600006         3.48374101E-07
  -16.2299995         3.65075039E-07
  -16.1000004         3.82668560E-07
  -15.9700003         4.01186469E-07
  -15.8400002         4.20641442E-07
  -15.7100000         4.41028789E-07
  -15.5799999         4.62329638E-07
  -15.4499998         4.84515056E-07
  -15.3199997         5.07550624E-07
  -15.1899996         5.31401099E-07
  -15.0600004         5.56034479E-07
  -14.9300003         5.81425752E-07
  -14.8000002         6.07560310E-07
  -14.6700001         6.34436049E-07
  -14.5400000         6.62065418E-07
  -14.4099998         6.90476440E-07
  -14.2799997         7.19713114E-07
  -14.1499996         7.49834385E-07
  -14.0200005         7.80912103E-07
  -13.8900003         8.13027725E-07
  -13.7600002         8.46267653E-07
  -13.6300001         8.80717721E-07
  -13.5000000         9.16457282E-07
  -13.3699999         9.53553467E-07
  -13.2399998         9.92056243E-07
  -13.1099997         1.03199545E-06
  -12.9799995         1.07337974E-06
  -12.8500004         1.11619704E-06
  -12.7200003         1.16041929E-06
  -12.5900002         1.20600623E-06
  -12.4600000         1.25291240E-06
  -12.3299999         1.30109368E-06
  -12.1999998         1.35051289E-06
  -12.0699997         1.40114537E-06
  -11.9399996         1.45298168E-06
  -11.8100004         1.50602989E-06
  -11.6800003         1.56031433E-06
  -11.5500002         1.61587479E-06
  -11.4200001         1.67276323E-06
  -11.2900000         1.73104036E-06
  -11.1599998         1.79077222E-06
  -11.0299997         1.85202600E-06
  -10.8999996         1.91486606E-06
  -10.7700005         1.97935083E-06
  -10.6400003         2.04552862E-06
  -10.5100002         2.11343445E-06
  -10.3800001         2.18308855E-06
  -10.2500000         2.25449253E-06
  -10.1199999         2.32763023E-06
  -9.98999977         2.40246732E-06
  -9.85999966         2.47895377E-06
  -9.72999954         2.55702798E-06
  -9.60000038         2.63662173E-06
  -9.47000027         2.71766589E-06
  -9.34000015         2.80009772E-06
  -9.21000004         2.88386514E-06
  -9.07999992         2.96893222E-06
  -8.94999981         3.05528124E-06
  -8.81999969         3.14291378E-06
  -8.68999958         3.23184759E-06
  -8.56000042         3.32211425E-06
  -8.43000031         3.41375221E-06
  -8.30000019         3.50680170E-06
  -8.17000008         3.60129889E-06
  -8.03999996         3.69726945E-06
  -7.90999985         3.79472613E-06
  -7.78000021         3.89366323E-06
  -7.65000010         3.99405917E-06
  -7.51999998         4.09587255E-06
  -7.38999987         4.19904472E-06
  -7.26000023         4.30350292E-06
  -7.13000011         4.40916119E-06
  -7.00000000         4.51592223E-06
  -6.86999989         4.62368189E-06
  -6.73999977         4.73233467E-06
  -6.61000013         4.84177235E-06
  -6.48000002         4.95189443E-06
  -6.34999990         5.06260631E-06
  -6.21999979         5.17382841E-06
  -6.09000015         5.28549253E-06
  -5.96000004         5.39754774E-06
  -5.82999992         5.50995765E-06
  -5.69999981         5.62269815E-06
  -5.57000017         5.73575244E-06
  -5.44000006         5.84910731E-06
  -5.30999994         5.96274504E-06
  -5.17999983         6.07663787E-06
  -5.05000019         6.19074171E-06
  -4.92000008         6.30499426E-06
  -4.78999996         6.41931001E-06
  -4.65999985         6.53358484E-06
  -4.53000021         6.64769414E-06
  -4.40000010         6.76149875E-06
  -4.26999998         6.87485090E-06
  -4.13999987         6.98759686E-06
  -4.01000023         7.09958249E-06
  -3.88000011         7.21066044E-06
  -3.75000000         7.32069020E-06
  -3.61999989         7.42954126E-06
  -3.49000001         7.53709628E-06
  -3.35999990         7.64324795E-06
  -3.23000002         7.74790442E-06
  -3.09999990         7.85098382E-06
  -2.97000003         7.95241249E-06
  -2.83999991         8.05212676E-06
  -2.71000004         8.15006842E-06
  -2.57999992         8.24617837E-06
  -2.45000005         8.34039474E-06
  -2.31999993         8.43265025E-06
  -2.19000006         8.52286212E-06
  -2.05999994         8.61093577E-06
  -1.92999995         8.69675750E-06
  -1.79999995         8.78019637E-06
  -1.66999996         8.86110229E-06
  -1.53999996         8.93931610E-06
  -1.40999997         9.01466592E-06
  -1.27999997         9.08698166E-06
  -1.14999998         9.15609508E-06
  -1.01999998         9.22185245E-06
 -0.889999986         9.28411009E-06
 -0.759999990         9.34274703E-06
 -0.629999995         9.39766142E-06
 -0.500000000         9.44877047E-06
 -0.370000005         9.49600962E-06
 -0.239999995         9.53932522E-06
 -0.109999999         9.57867269E-06
   1.99999996E-02     9.61401565E-06
  0.150000006         9.64531591E-06
  0.280000001         9.67253072E-06
  0.409999996         9.69561734E-06
  0.540000021         9.71452118E-06
  0.670000017         9.72917769E-06
  0.800000012         9.73951592E-06
  0.930000007         9.74545219E-06
   1.05999994         9.74689101E-06
   1.19000006         9.74372961E-06
   1.32000005         9.73585884E-06
   1.45000005         9.72316502E-06
   1.58000004         9.70553720E-06
   1.71000004         9.68286804E-06
   1.84000003         9.65506570E-06
   1.97000003         9.62205195E-06
   2.09999990         9.58377404E-06
   2.23000002         9.54019652E-06
   2.35999990         9.49131390E-06
   2.49000001         9.43713803E-06
   2.61999989         9.37770164E-06
   2.75000000         9.31304749E-06
   2.88000011         9.24322740E-06
   3.00999999         9.16829413E-06
   3.14000010         9.08829588E-06
   3.26999998         9.00327268E-06
   3.40000010         8.91325635E-06
   3.52999997         8.81826327E-06
   3.66000009         8.71830616E-06
   3.78999996         8.61338503E-06
   3.92000008         8.50349716E-06
   4.05000019         8.38863525E-06
   4.17999983         8.26879841E-06
   4.30999994         8.14398754E-06
   4.44000006         8.01421265E-06
   4.57000017         7.87949284E-06
   4.69999981         7.73986358E-06
   4.82999992         7.59537488E-06
   4.96000004         7.44609406E-06
   5.09000015         7.29210797E-06
   5.21999979         7.13352438E-06
   5.34999990         6.97046426E-06
   5.48000002         6.80306903E-06
   5.61000013         6.63148876E-06
   5.73999977         6.45588216E-06
   5.86999989         6.27640839E-06
   6.00000000         6.09321933E-06
   6.13000011         5.90645914E-06
   6.26000023         5.71625969E-06
   6.38999987         5.52273332E-06
   6.51999998         5.32598324E-06
   6.65000010         5.12609313E-06
   6.78000021         4.92314484E-06
   6.90999985         4.71721387E-06
   7.03999996         4.50837661E-06
   7.17000008         4.29672036E-06
   7.30000019         4.08233927E-06
   7.42999983         3.86534566E-06
   7.55999994         3.64586549E-06
   7.69000006         3.42404019E-06
   7.82000017         3.20002846E-06
   7.94999981         2.97400197E-06
   8.07999992         2.74614490E-06
   8.21000004         2.51665028E-06
   8.34000015         2.28571594E-06
   8.47000027         2.05354354E-06
   8.60000038         1.82033557E-06
   8.72999954         1.58628893E-06
   8.85999966         1.35159576E-06
   8.98999977         1.11643715E-06
   9.11999989         8.80979030E-07
   9.25000000         6.45375565E-07
   9.38000011         4.09761753E-07
   9.51000023         1.74258801E-07
   9.64000034        -6.10216233E-08
   9.77000046        -2.95977202E-07
   9.89999962        -5.30510135E-07
   10.0299997        -7.64514823E-07
   10.1599998        -9.97879852E-07
   10.2900000        -1.23047948E-06
   10.4200001        -1.46217167E-06
   10.5500002        -1.69279747E-06
   10.6800003        -1.92218249E-06
   10.8100004        -2.15013870E-06
   10.9399996        -2.37647191E-06
   11.0699997        -2.60098113E-06
   11.1999998        -2.82346696E-06
   11.3299999        -3.04373884E-06
   11.4600000        -3.26161080E-06
   11.5900002        -3.47691184E-06
   11.7200003        -3.68948281E-06
   11.8500004        -3.89917886E-06
   11.9799995        -4.10587018E-06
   12.1099997        -4.30943783E-06
   12.2399998        -4.50977541E-06
   12.3699999        -4.70679015E-06
   12.5000000        -4.90039383E-06
   12.6300001        -5.09050915E-06
   12.7600002        -5.27705697E-06
   12.8900003        -5.45995863E-06
   13.0200005        -5.63913090E-06
   13.1499996        -5.81447966E-06
   13.2799997        -5.98590077E-06
   13.4099998        -6.15327690E-06
   13.5400000        -6.31647708E-06
   13.6700001        -6.47535762E-06
   13.8000002        -6.62976663E-06
   13.9300003        -6.77955086E-06
   14.0600004        -6.92455887E-06
   14.1899996        -7.06464652E-06
   14.3199997        -7.19968421E-06
   14.4499998        -7.32956005E-06
   14.5799999        -7.45418220E-06
   14.7100000        -7.57347561E-06
   14.8400002        -7.68738482E-06
   14.9700003        -7.79587208E-06
   15.1000004        -7.89890601E-06
   15.2299995        -7.99646477E-06
   15.3599997        -8.08853110E-06
   15.4899998        -8.17508680E-06
   15.6199999        -8.25610914E-06
   15.7500000        -8.33157083E-06
   15.8800001        -8.40143821E-06
   16.0100002        -8.46566854E-06
   16.1399994        -8.52421090E-06
   16.2700005        -8.57700525E-06
   16.3999996        -8.62398065E-06
   16.5300007        -8.66506343E-06
   16.6599998        -8.70017084E-06
   16.7900009        -8.72921919E-06
   16.9200001        -8.75212663E-06
   17.0499992        -8.76881859E-06
   17.1800003        -8.77923139E-06
   17.3099995        -8.78332048E-06
   17.4400005        -8.78105493E-06
   17.5699997        -8.77242746E-06
   17.7000008        -8.75744990E-06
   17.8299999        -8.73615045E-06
   17.9599991        -8.70857275E-06
   18.0900002        -8.67476865E-06
   18.2199993        -8.63479090E-06
   18.3500004        -8.58868952E-06
   18.4799995        -8.53650818E-06
   18.6100006        -8.47827869E-06
   18.7399998        -8.41402380E-06
   18.8700008        -8.34374896E-06
   19.0000000        -8.26745327E-06
   19.1299992        -8.18512490E-06
   19.2600002        -8.09674930E-06
   19.3899994        -8.00230737E-06
   19.5200005        -7.90178092E-06
   19.6499996        -7.79515722E-06
   19.7800007        -7.68242808E-06
   19.9099998        -7.56359350E-06
   20.0400009        -7.43866804E-06
   20.1700001        -7.30767806E-06
   20.2999992        -7.17066450E-06
   20.4300003        -7.02768557E-06
   20.5599995        -6.87881584E-06
   20.6900005        -6.72414490E-06
   20.8199997        -6.56377370E-06
   20.9500008        -6.39781547E-06
   21.0799999        -6.22638754E-06
   21.2099991        -6.04960405E-06
   21.3400002        -5.86757642E-06
   21.4699993        -5.68040650E-06
   21.6000004        -5.48818207E-06
   21.7299995        -5.29097770E-06
   21.8600006        -5.08885660E-06
   21.9899998        -4.88187152E-06
   22.1200008        -4.67007158E-06
   22.2500000        -4.45350270E-06
   22.3799992        -4.23222036E-06
   22.5100002        -4.00628778E-06
   22.6399994        -3.77578135E-06
   22.7700005        -3.54079430E-06
   22.8999996        -3.30143575E-06
   23.0300007        -3.05783442E-06
   23.1599998        -2.81013331E-06
   23.2900009        -2.55849068E-06
   23.4200001        -2.30307683E-06
   23.5499992        -2.04407479E-06
   23.6800003        -1.78167249E-06
   23.8099995        -1.51606787E-06
   23.9400005        -1.24745668E-06
   24.0699997        -9.76038450E-07
   24.2000008        -7.02007469E-07
   24.3299999        -4.25555015E-07
   24.4599991        -1.46861197E-07
   24.5900002         1.33901253E-07
   24.7199993         4.16569236E-07
   24.8500004         7.00989006E-07
   24.9799995         9.87012186E-07
   25.1100006         1.27448925E-06
   25.2399998         1.56326905E-06
   25.3700008         1.85319118E-06
   25.5000000         2.14407942E-06
   25.6299992         2.43573845E-06
   25.7600002         2.72795455E-06
   25.8899994         3.02049193E-06
   26.0200005         3.31309911E-06
   26.1499996         3.60550621E-06
   26.2800007         3.89743445E-06
   26.4099998         4.18859690E-06
   26.5400009         4.47870707E-06
   26.6700001         4.76748119E-06
   26.7999992         5.05463731E-06
   26.9300003         5.33990442E-06
   27.0599995         5.62302057E-06
   27.1900005         5.90373293E-06
   27.3199997         6.18179729E-06
   27.4500008         6.45697764E-06
   27.5799999         6.72904798E-06
   27.7099991         6.99778911E-06
   27.8400002         7.26298595E-06
   27.9699993         7.52442611E-06
   28.1000004         7.78189860E-06
   28.2299995         8.03518651E-06
   28.3600006         8.28406519E-06
   28.4899998         8.52830453E-06
   28.6200008         8.76765807E-06
   28.7500000         9.00186660E-06
   28.8799992         9.23065545E-06
   29.0100002         9.45374268E-06
   29.1399994         9.67083906E-06
   29.2700005         9.88165448E-06
   29.3999996         1.00859006E-05
   29.5300007         1.02833046E-05
   29.6599998         1.04736055E-05
   29.7900009         1.06565622E-05
   29.9200001         1.08319537E-05
   30.0499992         1.09995808E-05
   30.1800003         1.11592644E-05
   30.3099995         1.13108390E-05
   30.4400005         1.14541535E-05
   30.5699997         1.15890643E-05
   30.7000008         1.17154395E-05
   30.8299999         1.18331427E-05
   30.9599991         1.19420429E-05
   31.0900002         1.20420054E-05
   31.2199993         1.21328958E-05
   31.3500004         1.22145775E-05
   31.4799995         1.22869069E-05
   31.6100006         1.23497412E-05
   31.7399998         1.24029339E-05
   31.8700008         1.24463386E-05
   32.0000000         1.24798125E-05
   32.1300011         1.25032166E-05
   32.2599983         1.25164233E-05
   32.3899994         1.25193219E-05
   32.5200005         1.25118167E-05
   32.6500015         1.24938406E-05
   32.7799988         1.24653498E-05
   32.9099998         1.24263288E-05
   33.0400009         1.23767886E-05
   33.1699982         1.23167656E-05
   33.2999992         1.22463152E-05
   33.4300003         1.21655075E-05
   33.5600014         1.20744189E-05
   33.6899986         1.19731312E-05
   33.8199997         1.18617254E-05
   33.9500008         1.17402797E-05
   34.0800018         1.16088650E-05
   34.2099991         1.14675531E-05
   34.3400002         1.13164087E-05
   34.4700012         1.11555000E-05
   34.5999985         1.09848952E-05
   34.7299995         1.08046697E-05
   34.8600006         1.06149082E-05
   34.9900017         1.04157061E-05
   35.1199989         1.02071754E-05
   35.2500000         9.98943869E-06
   35.3800011         9.76264164E-06
   35.5099983         9.52694791E-06
   35.6399994         9.28254121E-06
   35.7700005         9.02962984E-06
   35.9000015         8.76843842E-06
   36.0299988         8.49921798E-06
   36.1599998         8.22222682E-06
   36.2900009         7.93774143E-06
   36.4199982         7.64604465E-06
   36.5499992         7.34741707E-06
   36.6800003         7.04213699E-06
   36.8100014         6.73047361E-06
   36.9399986         6.41268480E-06
   37.0699997         6.08901701E-06
   37.2000008         5.75970262E-06
   37.3300018         5.42496764E-06
   37.4599991         5.08503581E-06
   37.5900002         4.74012950E-06
   37.7200012         4.39047562E-06
   37.8499985         4.03631338E-06
   37.9799995         3.67789130E-06
   38.1100006         3.31547540E-06
   38.2400017         2.94934694E-06
   38.3699989         2.57979764E-06
   38.5000000         2.20713423E-06
   38.6300011         1.83167447E-06
   38.7599983         1.45374372E-06
   38.8899994         1.07367248E-06
   39.0200005         6.91792366E-07
   39.1500015         3.08434551E-07
   39.2799988        -7.60750325E-08
   39.4099998        -4.61416079E-07
   39.5400009        -8.47282593E-07
   39.6699982        -1.23338509E-06
   39.7999992        -1.61944808E-06
   39.9300003        -2.00521754E-06
   40.0600014        -2.39046108E-06
   40.1899986        -2.77496088E-06
   40.3199997        -3.15851571E-06
   40.4500008        -3.54093436E-06
   40.5800018        -3.92203310E-06
   40.7099991        -4.30162527E-06
   40.8400002        -4.67952032E-06
   40.9700012        -5.05551770E-06
   41.0999985        -5.42940825E-06
   41.2299995        -5.80097276E-06
   41.3600006        -6.16998568E-06
   41.4900017        -6.53621328E-06
   41.6199989        -6.89942772E-06
   41.7500000        -7.25940390E-06
   41.8800011        -7.61592582E-06
   42.0099983        -7.96879340E-06
   42.1399994        -8.31782199E-06
   42.2700005        -8.66285154E-06
   42.4000015        -9.00373470E-06
   42.5299988        -9.34035052E-06
   42.6599998        -9.67259803E-06
   42.7900009        -1.00003908E-05
   42.9199982        -1.03236680E-05
   43.0499992        -1.06423786E-05
   43.1800003        -1.09564889E-05
   43.3100014        -1.12659718E-05
   43.4399986        -1.15708108E-05
   43.5699997        -1.18709895E-05
   43.7000008        -1.21664889E-05
   43.8300018        -1.24572834E-05
   43.9599991        -1.27433414E-05
   44.0900002        -1.30246208E-05
   44.2200012        -1.33010699E-05
   44.3499985        -1.35726268E-05
   44.4799995        -1.38392361E-05
   44.6100006        -1.41008350E-05
   44.7400017        -1.43573779E-05
   44.8699989        -1.46088269E-05
   45.0000000        -1.48551653E-05
   45.1300011        -1.50963970E-05
   45.2599983        -1.53325509E-05
   45.3899994        -1.55636772E-05
   45.5200005        -1.57898467E-05
   45.6500015        -1.60111395E-05
   45.7799988        -1.62276574E-05
   45.9099998        -1.64394987E-05
   46.0400009        -1.66467707E-05
   46.1699982        -1.68495808E-05
   46.2999992        -1.70480307E-05
   46.4300003        -1.72422169E-05
   46.5600014        -1.74322213E-05
   46.6899986        -1.76181256E-05
   46.8199997        -1.77999900E-05
   46.9500008        -1.79778726E-05
   47.0800018        -1.81518153E-05
   47.2099991        -1.83218508E-05
   47.3400002        -1.84880082E-05
   47.4700012        -1.86503094E-05
   47.5999985        -1.88087797E-05
   47.7299995        -1.89634520E-05
   47.8600006        -1.91143699E-05
   47.9900017        -1.92615880E-05
   48.1199989        -1.94051809E-05
   48.2500000        -1.95452430E-05
   48.3800011        -1.96818783E-05
   48.5099983        -1.98152102E-05
   48.6399994        -1.99453589E-05
   48.7700005        -2.00724608E-05
   48.9000015        -2.01966268E-05
   49.0299988        -2.03179734E-05
   49.1599998        -2.04365861E-05
   49.2900009        -2.05525430E-05
   49.4199982        -2.06658933E-05
   49.5499992        -2.07766734E-05
   49.6800003        -2.08848942E-05
   49.8100014        -2.09905538E-05
   49.9399986        -2.10936360E-05
   50.0699997        -2.11941169E-05
   50.2000008        -2.12919640E-05
   50.3300018        -2.13871408E-05
   50.4599991        -2.14796110E-05
   50.5900002        -2.15693453E-05
   50.7200012        -2.16563094E-05
   50.8499985        -2.17404886E-05
   50.9799995        -2.18218684E-05
   51.1100006        -2.19004469E-05
   51.2400017        -2.19762333E-05
   51.3699989        -2.20492384E-05
   51.5000000        -2.21194805E-05
   51.6300011        -2.21869777E-05
   51.7599983        -2.22517356E-05
   51.8899994        -2.23137522E-05
   52.0200005        -2.23730040E-05
   52.1500015        -2.24294454E-05
   52.2799988        -2.24830073E-05
   52.4099998        -2.25335934E-05
   52.5400009        -2.25810873E-05
   52.6699982        -2.26253524E-05
   52.7999992        -2.26662378E-05
   52.9300003        -2.27035871E-05
   53.0600014        -2.27372384E-05
   53.1899986        -2.27670371E-05
   53.3199997        -2.27928340E-05
   53.4500008        -2.28144872E-05
   53.5800018        -2.28318695E-05
   53.7099991        -2.28448607E-05
   53.8400002        -2.28533554E-05
   53.9700012        -2.28572571E-05
   54.0999985        -2.28564713E-05
   54.2299995        -2.28509125E-05
   54.3600006        -2.28404951E-05
   54.4900017        -2.28251301E-05
   54.6199989        -2.28047265E-05
   54.7500000        -2.27791825E-05
   54.8800011        -2.27483852E-05
   55.0099983        -2.27122073E-05
   55.1399994        -2.26705051E-05
   55.2700005        -2.26231168E-05
   55.4000015        -2.25698695E-05
   55.5299988        -2.25105687E-05
   55.6599998        -2.24450214E-05
   55.7900009        -2.23730258E-05
   55.9199982        -2.22943854E-05
   56.0499992        -2.22089147E-05
   56.1800003        -2.21164446E-05
   56.3100014        -2.20168313E-05
   56.4399986        -2.19099420E-05
   56.5699997        -2.17956804E-05
   56.7000008        -2.16739609E-05
   56.8300018        -2.15447217E-05
   56.9599991        -2.14079064E-05
   57.0900002        -2.12634695E-05
   57.2200012        -2.11113711E-05
   57.3499985        -2.09515674E-05
   57.4799995        -2.07840094E-05
   57.6100006        -2.06086424E-05
   57.7400017        -2.04254065E-05
   57.8699989        -2.02342326E-05
   58.0000000        -2.00350460E-05
   58.1300011        -1.98277648E-05
   58.2599983        -1.96123019E-05
   58.3899994        -1.93885717E-05
   58.5200005        -1.91564886E-05
   58.6500015        -1.89159746E-05
   58.7799988        -1.86669604E-05
   58.9099998        -1.84093951E-05
   59.0400009        -1.81432442E-05
   59.1699982        -1.78685041E-05
   59.2999992        -1.75851928E-05
   59.4300003        -1.72933596E-05
   59.5600014        -1.69930772E-05
   59.6899986        -1.66844511E-05
   59.8199997        -1.63675959E-05
   59.9500008        -1.60426443E-05
   60.0800018        -1.57097402E-05
   60.2099991        -1.53690180E-05
   60.3400002        -1.50206142E-05
   60.4700012        -1.46646571E-05
   60.5999985        -1.43012658E-05
   60.7299995        -1.39305503E-05
   60.8600006        -1.35526152E-05
   60.9900017        -1.31675624E-05
   61.1199989        -1.27754929E-05
   61.2500000        -1.23765158E-05
   61.3800011        -1.19707493E-05
   61.5099983        -1.15583289E-05
   61.6399994        -1.11394029E-05
   61.7700005        -1.07141441E-05
   61.9000015        -1.02827435E-05
   62.0299988        -9.84541566E-06
   62.1599998        -9.40240170E-06
   62.2900009        -8.95396443E-06
   62.4199982        -8.50038941E-06
   62.5499992        -8.04198135E-06
   62.6800003        -7.57906082E-06
   62.8100014        -7.11196208E-06
   62.9399986        -6.64102254E-06
   63.0699997        -6.16657871E-06
   63.2000008        -5.68896075E-06
   63.3300018        -5.20849062E-06
   63.4599991        -4.72547390E-06
   63.5900002        -4.24020118E-06
   63.7200012        -3.75295508E-06
   63.8499985        -3.26400459E-06
   63.9799995        -2.77361755E-06
   64.1100006        -2.28206204E-06
   64.2399979        -1.78961488E-06
   64.3700027        -1.29656814E-06
   64.5000000        -8.03229625E-07
   64.6299973        -3.09929135E-07
   64.7600021         1.82983200E-07
   64.8899994         6.75136164E-07
   65.0199966         1.16614024E-06
   65.1500015         1.65559322E-06
   65.2799988         2.14308216E-06
   65.4100037         2.62818753E-06
   65.5400009         3.11048734E-06
   65.6699982         3.58956277E-06
   65.8000031         4.06500158E-06
   65.9300003         4.53640132E-06
   66.0599976         5.00337455E-06
   66.1900024         5.46554838E-06
   66.3199997         5.92257175E-06
   66.4499969         6.37411313E-06
   66.5800018         6.81985739E-06
   66.7099991         7.25950849E-06
   66.8399963         7.69278358E-06
   66.9700012         8.11940663E-06
   67.0999985         8.53910387E-06
   67.2300034         8.95159701E-06
   67.3600006         9.35659955E-06
   67.4899979         9.75380863E-06
   67.6200027         1.01429086E-05
   67.7500000         1.05235667E-05
   67.8799973         1.08954391E-05
   68.0100021         1.12581756E-05
   68.1399994         1.16114215E-05
   68.2699966         1.19548295E-05
   68.4000015         1.22880620E-05
   68.5299988         1.26107971E-05
   68.6600037         1.29227374E-05
   68.7900009         1.32236082E-05
   68.9199982         1.35131595E-05
   69.0500031         1.37911675E-05
   69.1800003         1.40574348E-05
   69.3099976         1.43117868E-05
   69.4400024         1.45540698E-05
   69.5699997         1.47841492E-05
   69.6999969         1.50019041E-05
   69.8300018         1.52072262E-05
   69.9599991         1.54000136E-05
   70.0899963         1.55801681E-05
   70.2200012         1.57475879E-05
   70.3499985         1.59021693E-05
   70.4800034         1.60438012E-05
   70.6100006         1.61723638E-05
   70.7399979         1.62877350E-05
   70.8700027         1.63897839E-05
   71.0000000         1.64783869E-05
   71.1299973         1.65534293E-05
   71.2600021         1.66148075E-05
   71.3899994         1.66624468E-05
   71.5199966         1.66962964E-05
   71.6500015         1.67163398E-05
   71.7799988         1.67225953E-05
   71.9100037         1.67151120E-05
   72.0400009         1.66939717E-05
   72.1699982         1.66592818E-05
   72.3000031         1.66111713E-05
   72.4300003         1.65497877E-05
   72.5599976         1.64752819E-05
   72.6900024         1.63878158E-05
   72.8199997         1.62875513E-05
   72.9499969         1.61746484E-05
   73.0800018         1.60492636E-05
   73.2099991         1.59115480E-05
   73.3399963         1.57616523E-05
   73.4700012         1.55997186E-05
   73.5999985         1.54258923E-05
   73.7300034         1.52403181E-05
   73.8600006         1.50431442E-05
   73.9899979         1.48345307E-05
   74.1200027         1.46146485E-05
   74.2500000         1.43836896E-05
   74.3799973         1.41418695E-05
   74.5100021         1.38894356E-05
   74.6399994         1.36266599E-05
   74.7699966         1.33538479E-05
   74.9000015         1.30713333E-05
   75.0299988         1.27794729E-05
   75.1600037         1.24786420E-05
   75.2900009         1.21692265E-05
   75.4199982         1.18516118E-05
   75.5500031         1.15261855E-05
   75.6800003         1.11933186E-05
   75.8099976         1.08533741E-05
   75.9400024         1.05066956E-05
   76.0699997         1.01536143E-05
   76.1999969         9.79444849E-06
   76.3300018         9.42950646E-06
   76.4599991         9.05909019E-06
   76.5899963         8.68350344E-06
   76.7200012         8.30305180E-06
   76.8499985         7.91805087E-06
   76.9800034         7.52882397E-06
   77.1100006         7.13571262E-06
   77.2399979         6.73907243E-06
   77.3700027         6.33927584E-06
   77.5000000         5.93671439E-06
   77.6299973         5.53179552E-06
   77.7600021         5.12494171E-06
   77.8899994         4.71658768E-06
   78.0199966         4.30717591E-06
   78.1500015         3.89714842E-06
   78.2799988         3.48694266E-06
   78.4100037         3.07698292E-06
   78.5400009         2.66767734E-06
   78.6699982         2.25940835E-06
   78.8000031         1.85253225E-06
   78.9300003         1.44738101E-06
   79.0599976         1.04426169E-06
   79.1900024         6.43460680E-07
   79.3199997         2.45248003E-07
   79.4499969        -1.50110282E-07
   79.5800018        -5.42352609E-07
   79.7099991        -9.31209456E-07
   79.8399963        -1.31640570E-06
   79.9700012        -1.69765178E-06
   80.0999985        -2.07464814E-06
   80.2300034        -2.44708167E-06
   80.3600006        -2.81462962E-06
   80.4899979        -3.17696299E-06
   80.6200027        -3.53375208E-06
   80.7500000        -3.88466924E-06