  -24.4200001         0.00000000    
  -24.2900009        -3.21437457E-13
  -24.1599998        -7.08317411E-13
  -24.0300007        -6.75025032E-13
  -23.8999996         3.91357330E-13
  -23.7700005         3.09763933E-12
  -23.6399994         7.91047783E-12
  -23.5100002         1.50520447E-11
  -23.3799992         2.44487815E-11
  -23.2500000         3.57439633E-11
  -23.1200008         4.83707033E-11
  -22.9899998         6.16681428E-11
  -22.8600006         7.50155008E-11
  -22.7299995         8.79552264E-11
  -22.6000004         1.00282053E-10
  -22.4699993         1.12083842E-10
  -22.3400002         1.23730928E-10
  -22.2099991         1.35825712E-10
  -22.0799999         1.49129695E-10
  -21.9500008         1.64489436E-10
  -21.8199997         1.82780263E-10
  -21.6900005         2.04876394E-10
  -21.5599995         2.31648159E-10
  -21.4300003         2.63975702E-10
  -21.2999992         3.02761288E-10
  -21.1700001         3.48922974E-10
  -21.0400009         4.03355349E-10
  -20.9099998         4.66854111E-10
  -20.7800007         5.40013645E-10
  -20.6499996         6.23115226E-10
  -20.5200005         7.16034620E-10
  -20.3899994         8.18197787E-10
  -20.2600002         9.28603194E-10
  -20.1299992         1.04592457E-09
  -20.0000000         1.16868593E-09
  -19.8700008         1.29548883E-09
  -19.7399998         1.42525547E-09
  -19.6100006         1.55745195E-09
  -19.4799995         1.69224823E-09
  -19.3500004         1.83059523E-09
  -19.2199993         1.97419725E-09
  -19.0900002         2.12539186E-09
  -18.9599991         2.28695463E-09
  -18.8299999         2.46186094E-09
  -18.7000008         2.65304378E-09
  -18.5699997         2.86317703E-09
  -18.4400005         3.09451331E-09
  -18.3099995         3.34878369E-09
  -18.1800003         3.62716102E-09
  -18.0499992         3.93027255E-09
  -17.9200001         4.25825286E-09
  -17.7900009         4.61080552E-09
  -17.6599998         4.98728703E-09
  -17.5300007         5.38678391E-09
  -17.3999996         5.80820991E-09
  -17.2700005         6.25041485E-09
  -17.1399994         6.71232847E-09
  -17.0100002         7.19312698E-09
  -16.8799992         7.69242980E-09
  -16.7500000         8.21049717E-09
  -16.6200008         8.74840644E-09
  -16.4899998         9.30817290E-09
  -16.3600006         9.89278348E-09
  -16.2299995         1.05061311E-08
  -16.1000004         1.11528262E-08
  -15.9700003         1.18379209E-08
  -15.8400002         1.25665505E-08
  -15.7100000         1.33435609E-08
  -15.5799999         1.41731542E-08
  -15.4499998         1.50586157E-08
  -15.3199997         1.60021383E-08
  -15.1899996         1.70047940E-08
  -15.0600004         1.80666238E-08
  -14.9300003         1.91868388E-08
  -14.8000002         2.03641086E-08
  -14.6700001         2.15968896E-08
  -14.5400000         2.28837411E-08
  -14.4099998         2.42236275E-08
  -14.2799997         2.56161456E-08
  -14.1499996         2.70617146E-08
  -14.0200005         2.85616757E-08
  -13.8900003         3.01183576E-08
  -13.7600002         3.17350839E-08
  -13.6300001         3.34161392E-08
  -13.5000000         3.51666785E-08
  -13.3699999         3.69926099E-08
  -13.2399998         3.89003958E-08
  -13.1099997         4.08968077E-08
  -12.9799995         4.29886242E-08
  -12.8500004         4.51822970E-08
  -12.7200003         4.74836170E-08
  -12.5900002         4.98973840E-08
  -12.4600000         5.24272075E-08
  -12.3299999         5.50753541E-08
  -12.1999998         5.78428008E-08
  -12.0699997         6.07293984E-08
  -11.9399996         6.37342197E-08
  -11.8100004         6.68559608E-08
  -11.6800003         7.00934422E-08
  -11.5500002         7.34460954E-08
  -11.4200001         7.69143824E-08
  -11.2900000         8.05001008E-08
  -11.1599998         8.42065688E-08
  -11.0299997         8.80386679E-08
  -10.8999996         9.20026864E-08
  -10.7700005         9.61061062E-08
  -10.6400003         1.00357312E-07
  -10.5100002         1.04765164E-07
  -10.3800001         1.09338700E-07
  -10.2500000         1.14086738E-07
  -10.1199999         1.19017592E-07
  -9.98999977         1.24138793E-07
  -9.85999966         1.29456836E-07
  -9.72999954         1.34977100E-07
  -9.60000038         1.40703676E-07
  -9.47000027         1.46639437E-07
  -9.34000015         1.52786015E-07
  -9.21000004         1.59144022E-07
  -9.07999992         1.65713331E-07
  -8.94999981         1.72493458E-07
  -8.81999969         1.79483976E-07
  -8.68999958         1.86684986E-07
  -8.56000042         1.94097609E-07
  -8.43000031         2.01724305E-07
  -8.30000019         2.09569180E-07
  -8.17000008         2.17638032E-07
  -8.03999996         2.25938209E-07
  -7.90999985         2.34478435E-07
  -7.78000021         2.43268289E-07
  -7.65000010         2.52317705E-07
  -7.51999998         2.61636359E-07
  -7.38999987         2.71233262E-07
  -7.26000023         2.81116201E-07
  -7.13000011         2.91291315E-07
  -7.00000000         3.01763180E-07
  -6.86999989         3.12534638E-07
  -6.73999977         3.23606884E-07
  -6.61000013         3.34979745E-07
  -6.48000002         3.46652030E-07
  -6.34999990         3.58621776E-07
  -6.21999979         3.70886795E-07
  -6.09000015         3.83444899E-07
  -5.96000004         3.96294269E-07
  -5.82999992         4.09433994E-07
  -5.69999981         4.22864105E-07
  -5.57000017         4.36585907E-07
  -5.44000006         4.50602073E-07
  -5.30999994         4.64916639E-07
  -5.17999983         4.79534890E-07
  -5.05000019         4.94463109E-07
  -4.92000008         5.09708002E-07
  -4.78999996         5.25276505E-07
  -4.65999985         5.41174813E-07
  -4.53000021         5.57407986E-07
  -4.40000010         5.73979491E-07
  -4.26999998         5.90890465E-07
  -4.13999987         6.08139999E-07
  -4.01000023         6.25724851E-07
  -3.88000011         6.43639339E-07
  -3.75000000         6.61876356E-07
  -3.61999989         6.80427490E-07
  -3.49000001         6.99283930E-07
  -3.35999990         7.18436866E-07
  -3.23000002         7.37877997E-07
  -3.09999990         7.57600446E-07
  -2.97000003         7.77598643E-07
  -2.83999991         7.97868609E-07
  -2.71000004         8.18408068E-07
  -2.57999992         8.39216284E-07
  -2.45000005         8.60293483E-07
  -2.31999993         8.81640972E-07
  -2.19000006         9.03260229E-07
  -2.05999994         9.25152619E-07
  -1.92999995         9.47318767E-07
  -1.79999995         9.69757821E-07
  -1.66999996         9.92467449E-07
  -1.53999996         1.01544265E-06
  -1.40999997         1.03867592E-06
  -1.27999997         1.06215714E-06
  -1.14999998         1.08587290E-06
  -1.01999998         1.10980761E-06
 -0.889999986         1.13394344E-06
 -0.759999990         1.15826072E-06
 -0.629999995         1.18273908E-06
 -0.500000000         1.20735808E-06
 -0.370000005         1.23209816E-06
 -0.239999995         1.25694078E-06
 -0.109999999         1.28186946E-06
   1.99999996E-02     1.30686999E-06
  0.150000006         1.33193021E-06
  0.280000001         1.35703976E-06
  0.409999996         1.38218979E-06
  0.540000021         1.40737257E-06
  0.670000017         1.43258035E-06
  0.800000012         1.45780473E-06
  0.930000007         1.48303650E-06
   1.05999994         1.50826440E-06
   1.19000006         1.53347492E-06
   1.32000005         1.55865234E-06
   1.45000005         1.58377770E-06
   1.58000004         1.60882996E-06
   1.71000004         1.63378559E-06
   1.84000003         1.65861888E-06
   1.97000003         1.68330257E-06
   2.09999990         1.70780811E-06
   2.23000002         1.73210708E-06
   2.35999990         1.75617106E-06
   2.49000001         1.77997276E-06
   2.61999989         1.80348684E-06
   2.75000000         1.82668987E-06
   2.88000011         1.84956059E-06
   3.00999999         1.87208059E-06
   3.14000010         1.89423349E-06
   3.26999998         1.91600475E-06
   3.40000010         1.93738128E-06
   3.52999997         1.95834991E-06
   3.66000009         1.97889699E-06
   3.78999996         1.99900774E-06
   3.92000008         2.01866510E-06
   4.05000019         2.03784975E-06
   4.17999983         2.05653964E-06
   4.30999994         2.07471021E-06
   4.44000006         2.09233349E-06
   4.57000017         2.10938083E-06
   4.69999981         2.12582131E-06
   4.82999992         2.14162378E-06
   4.96000004         2.15675755E-06
   5.09000015         2.17119214E-06
   5.21999979         2.18489890E-06
   5.34999990         2.19785170E-06
   5.48000002         2.21002688E-06
   5.61000013         2.22140329E-06
   5.73999977         2.23196344E-06
   5.86999989         2.24169275E-06
   6.00000000         2.25057875E-06
   6.13000011         2.25861208E-06
   6.26000023         2.26578459E-06
   6.38999987         2.27208898E-06
   6.51999998         2.27751843E-06
   6.65000010         2.28206500E-06
   6.78000021         2.28571980E-06
   6.90999985         2.28847216E-06
   7.03999996         2.29030843E-06
   7.17000008         2.29121383E-06
   7.30000019         2.29117086E-06
   7.42999983         2.29016041E-06
   7.55999994         2.28816339E-06
   7.69000006         2.28516069E-06
   7.82000017         2.28113390E-06
   7.94999981         2.27606733E-06
   8.07999992         2.26994734E-06
   8.21000004         2.26276438E-06
   8.34000015         2.25451254E-06
   8.47000027         2.24518885E-06
   8.60000038         2.23479537E-06
   8.72999954         2.22333642E-06
   8.85999966         2.21082018E-06
   8.98999977         2.19725621E-06
   9.11999989         2.18265677E-06
   9.25000000         2.16703415E-06
   9.38000011         2.15040131E-06
   9.51000023         2.13277099E-06
   9.64000034         2.11415431E-06
   9.77000046         2.09456175E-06
   9.89999962         2.07400217E-06
   10.0299997         2.05248284E-06
   10.1599998         2.03000968E-06
   10.2900000         2.00658769E-06
   10.4200001         1.98222165E-06
   10.5500002         1.95691791E-06
   10.6800003         1.93068308E-06
   10.8100004         1.90352716E-06
   10.9399996         1.87546300E-06
   11.0699997         1.84650753E-06
   11.1999998         1.81668156E-06
   11.3299999         1.78601044E-06
   11.4600000         1.75452340E-06
   11.5900002         1.72225282E-06
   11.7200003         1.68923407E-06
   11.8500004         1.65550398E-06
   11.9799995         1.62110064E-06
   12.1099997         1.58606179E-06
   12.2399998         1.55042483E-06
   12.3699999         1.51422523E-06
   12.5000000         1.47749745E-06
   12.6300001         1.44027331E-06
   12.7600002         1.40258260E-06
   12.8900003         1.36445385E-06
   13.0200005         1.32591367E-06
   13.1499996         1.28698844E-06
   13.2799997         1.24770372E-06
   13.4099998         1.20808602E-06
   13.5400000         1.16816318E-06
   13.6700001         1.12796488E-06
   13.8000002         1.08752329E-06
   13.9300003         1.04687376E-06
   14.0600004         1.00605519E-06
   14.1899996         9.65109393E-07
   14.3199997         9.24081462E-07
   14.4499998         8.83018799E-07
   14.5799999         8.41970461E-07
   14.7100000         8.00986015E-07
   14.8400002         7.60114744E-07
   14.9700003         7.19404170E-07
   15.1000004         6.78899539E-07
   15.2299995         6.38643030E-07
   15.3599997         5.98673012E-07
   15.4899998         5.59024443E-07
   15.6199999         5.19728815E-07
   15.7500000         4.80814265E-07
   15.8800001         4.42306941E-07
   16.0100002         4.04231145E-07
   16.1399994         3.66610806E-07
   16.2700005         3.29469628E-07
   16.3999996         2.92832539E-07
   16.5300007         2.56726167E-07
   16.6599998         2.21179135E-07
   16.7900009         1.86222110E-07
   16.9200001         1.51888486E-07
   17.0499992         1.18213670E-07
   17.1800003         8.52347313E-08
   17.3099995         5.29899182E-08
   17.4400005         2.15176676E-08
   17.5699997        -9.14442211E-09
   17.7000008        -3.89604935E-08
   17.8299999        -6.78968703E-08
   17.9599991        -9.59240865E-08
   18.0900002        -1.23017031E-07
   18.2199993        -1.49155085E-07
   18.3500004        -1.74322452E-07
   18.4799995        -1.98508658E-07
   18.6100006        -2.21706344E-07
   18.7399998        -2.43912638E-07
   18.8700008        -2.65126289E-07
   19.0000000        -2.85347681E-07
   19.1299992        -3.04577014E-07
   19.2600002        -3.22813577E-07
   19.3899994        -3.40055408E-07
   19.5200005        -3.56298955E-07
   19.6499996        -3.71537709E-07
   19.7800007        -3.85763656E-07
   19.9099998        -3.98967245E-07
   20.0400009        -4.11137819E-07
   20.1700001        -4.22265259E-07
   20.2999992        -4.32339760E-07
   20.4300003        -4.41353876E-07
   20.5599995        -4.49303201E-07
   20.6900005        -4.56186143E-07
   20.8199997        -4.62006113E-07
   20.9500008        -4.66771638E-07
   21.0799999        -4.70495110E-07
   21.2099991        -4.73195371E-07
   21.3400002        -4.74894108E-07
   21.4699993        -4.75617867E-07
   21.6000004        -4.75396462E-07
   21.7299995        -4.74260446E-07
   21.8600006        -4.72242050E-07
   21.9899998        -4.69373049E-07
   22.1200008        -4.65682973E-07
   22.2500000        -4.61199505E-07
   22.3799992        -4.55946662E-07
   22.5100002        -4.49946612E-07
   22.6399994        -4.43216948E-07
   22.7700005        -4.35773558E-07
   22.8999996        -4.27630994E-07
   23.0300007        -4.18802529E-07
   23.1599998        -4.09302430E-07
   23.2900009        -3.99145819E-07
   23.4200001        -3.88351538E-07
   23.5499992        -3.76940903E-07
   23.6800003        -3.64939325E-07
   23.8099995        -3.52376560E-07
   23.9400005        -3.39286146E-07
   24.0699997        -3.25705031E-07
   24.2000008        -3.11673034E-07
   24.3299999        -2.97231878E-07
   24.4599991        -2.82424793E-07
   24.5900002        -2.67294354E-07
   24.7199993        -2.51881573E-07
   24.8500004        -2.36224977E-07
   24.9799995        -2.20360462E-07
   25.1100006        -2.04319150E-07
   25.2399998        -1.88127771E-07
   25.3700008        -1.71808253E-07
   25.5000000        -1.55378274E-07
   25.6299992        -1.38851249E-07
   25.7600002        -1.22238347E-07
   25.8899994        -1.05547173E-07
   26.0200005        -8.87852920E-08
   26.1499996        -7.19622335E-08
   26.2800007        -5.50877211E-08
   26.4099998        -3.81743028E-08
   26.5400009        -2.12376303E-08
   26.6700001        -4.29681934E-09
   26.7999992         1.26249144E-08
   26.9300003         2.95023490E-08
   27.0599995         4.63088483E-08
   27.1900005         6.30162731E-08
   27.3199997         7.95972923E-08
   27.4500008         9.60265893E-08
   27.5799999         1.12281505E-07
   27.7099991         1.28342464E-07
   27.8400002         1.44195923E-07
   27.9699993         1.59832510E-07
   28.1000004         1.75248502E-07
   28.2299995         1.90444439E-07
   28.3600006         2.05427185E-07
   28.4899998         2.20204896E-07
   28.6200008         2.34791116E-07
   28.7500000         2.49199672E-07
   28.8799992         2.63445514E-07
   29.0100002         2.77542199E-07
   29.1399994         2.91501919E-07
   29.2700005         3.05332776E-07
   29.3999996         3.19040510E-07
   29.5300007         3.32626286E-07
   29.6599998         3.46088115E-07
   29.7900009         3.59420369E-07
   29.9200001         3.72615915E-07
   30.0499992         3.85665942E-07
   30.1800003         3.98562094E-07
   30.3099995         4.11298657E-07
   30.4400005         4.23871114E-07
   30.5699997         4.36281169E-07
   30.7000008         4.48533285E-07
   30.8299999         4.60638518E-07
   30.9599991         4.72612072E-07
   31.0900002         4.84474015E-07
   31.2199993         4.96248219E-07
   31.3500004         5.07961147E-07
   31.4799995         5.19640594E-07
   31.6100006         5.31313958E-07
   31.7399998         5.43007616E-07
   31.8700008         5.54745327E-07
   32.0000000         5.66548010E-07
   32.1300011         5.78431980E-07
   32.2599983         5.90407808E-07
   32.3899994         6.02481805E-07
   32.5200005         6.14656585E-07
   32.6500015         6.26929477E-07
   32.7799988         6.39295024E-07
   32.9099998         6.51746575E-07
   33.0400009         6.64276229E-07
   33.1699982         6.76877107E-07
   33.2999992         6.89544379E-07
   33.4300003         7.02275258E-07
   33.5600014         7.15072872E-07
   33.6899986         7.27942790E-07
   33.8199997         7.40896269E-07
   33.9500008         7.53945301E-07
   34.0800018         7.67107224E-07
   34.2099991         7.80398523E-07
   34.3400002         7.93836307E-07
   34.4700012         8.07435811E-07
   34.5999985         8.21208687E-07
   34.7299995         8.35163007E-07
   34.8600006         8.49299852E-07
   34.9900017         8.63615810E-07
   35.1199989         8.78100877E-07
   35.2500000         8.92740672E-07
   35.3800011         9.07514107E-07
   35.5099983         9.22396964E-07
   35.6399994         9.37362927E-07
   35.7700005         9.52383971E-07
   35.9000015         9.67430992E-07
   36.0299988         9.82475967E-07
   36.1599998         9.97494453E-07
   36.2900009         1.01246474E-06
   36.4199982         1.02736783E-06
   36.5499992         1.04218998E-06
   36.6800003         1.05692050E-06
   36.8100014         1.07155211E-06
   36.9399986         1.08607981E-06
   37.0699997         1.10049791E-06
   37.2000008         1.11480131E-06
   37.3300018         1.12898192E-06
   37.4599991         1.14302873E-06
   37.5900002         1.15692444E-06
   37.7200012         1.17064701E-06
   37.8499985         1.18416790E-06
   37.9799995         1.19745380E-06
   38.1100006         1.21046457E-06
   38.2400017         1.22315589E-06
   38.3699989         1.23548216E-06
   38.5000000         1.24739518E-06
   38.6300011         1.25884776E-06
   38.7599983         1.26979455E-06
   38.8899994         1.28019428E-06
   39.0200005         1.29001012E-06
   39.1500015         1.29920954E-06
   39.2799988         1.30776721E-06
   39.4099998         1.31566162E-06
   39.5400009         1.32287880E-06
   39.6699982         1.32940670E-06
   39.7999992         1.33523702E-06
   39.9300003         1.34036270E-06
   40.0600014         1.34477864E-06
   40.1899986         1.34847812E-06
   40.3199997         1.35145001E-06
   40.4500008         1.35368214E-06
   40.5800018         1.35515700E-06
   40.7099991         1.35585219E-06
   40.8400002         1.35574169E-06
   40.9700012         1.35479536E-06
   41.0999985         1.35298046E-06
   41.2299995         1.35026460E-06
   41.3600006         1.34661468E-06
   41.4900017         1.34200047E-06
   41.6199989         1.33639651E-06
   41.7500000         1.32978369E-06
   41.8800011         1.32214905E-06
   42.0099983         1.31348611E-06
   42.1399994         1.30379783E-06
   42.2700005         1.29309319E-06
   42.4000015         1.28138754E-06
   42.5299988         1.26870145E-06
   42.6599998         1.25505824E-06
   42.7900009         1.24048358E-06
   42.9199982         1.22500387E-06
   43.0499992         1.20864388E-06
   43.1800003         1.19142464E-06
   43.3100014         1.17336504E-06
   43.4399986         1.15447949E-06
   43.5699997         1.13477938E-06
   43.7000008         1.11427119E-06
   43.8300018         1.09295956E-06
   43.9599991         1.07084713E-06
   44.0900002         1.04793685E-06
   44.2200012         1.02423326E-06
   44.3499985         9.99744657E-07
   44.4799995         9.74483896E-07
   44.6100006         9.48470131E-07
   44.7400017         9.21730305E-07
   44.8699989         8.94298466E-07
   45.0000000         8.66217022E-07
   45.1300011         8.37534515E-07
   45.2599983         8.08305913E-07
   45.3899994         7.78590845E-07
   45.5200005         7.48450418E-07
   45.6500015         7.17946818E-07
   45.7799988         6.87140243E-07
   45.9099998         6.56087479E-07
   46.0400009         6.24841334E-07
   46.1699982         5.93449727E-07
   46.2999992         5.61954380E-07
   46.4300003         5.30392811E-07
   46.5600014         4.98794805E-07
   46.6899986         4.67190858E-07
   46.8199997         4.35607149E-07
   46.9500008         4.04069908E-07
   47.0800018         3.72606678E-07
   47.2099991         3.41248409E-07
   47.3400002         3.10030657E-07
   47.4700012         2.78994122E-07
   47.5999985         2.48186012E-07
   47.7299995         2.17660101E-07
   47.8600006         1.87476786E-07
   47.9900017         1.57701578E-07
   48.1199989         1.28403471E-07
   48.2500000         9.96543505E-08
   48.3800011         7.15259887E-08
   48.5099983         4.40886012E-08
   48.6399994         1.74077908E-08
   48.7700005        -8.45659720E-09
   48.9000015        -3.34509913E-08
   49.0299988        -5.75313130E-08
   49.1599998        -8.06605769E-08
   49.2900009        -1.02810247E-07
   49.4199982        -1.23960049E-07
   49.5499992        -1.44093406E-07
   49.6800003        -1.63197768E-07
   49.8100014        -1.81262607E-07
   49.9399986        -1.98276780E-07
   50.0699997        -2.14228308E-07
   50.2000008        -2.29100721E-07
   50.3300018        -2.42873796E-07
   50.4599991        -2.55522309E-07
   50.5900002        -2.67016787E-07
   50.7200012        -2.77322897E-07
   50.8499985        -2.86404173E-07
   50.9799995        -2.94223582E-07
   51.1100006        -3.00743523E-07
   51.2400017        -3.05929376E-07
   51.3699989        -3.09751243E-07
   51.5000000        -3.12185307E-07
   51.6300011        -3.13215793E-07
   51.7599983        -3.12837074E-07
   51.8899994        -3.11051423E-07
   52.0200005        -3.07871602E-07
   52.1500015        -3.03320888E-07
   52.2799988        -2.97428301E-07
   52.4099998        -2.90228542E-07
   52.5400009        -2.81762851E-07
   52.6699982        -2.72070480E-07
   52.7999992        -2.61192525E-07
   52.9300003        -2.49168579E-07
   53.0600014        -2.36031426E-07
   53.1899986        -2.21809671E-07
   53.3199997        -2.06528625E-07
   53.4500008        -1.90208738E-07
   53.5800018        -1.72865711E-07
   53.7099991        -1.54514368E-07
   53.8400002        -1.35168364E-07
   53.9700012        -1.14843452E-07
   54.0999985        -9.35597058E-08
   54.2299995        -7.13414963E-08
   54.3600006        -4.82229652E-08
   54.4900017        -2.42443861E-08
   54.6199989         5.43249112E-10
   54.7500000         2.60811266E-08
   54.8800011         5.22998320E-08
   55.0099983         7.91248951E-08
   55.1399994         1.06475973E-07
   55.2700005         1.34267694E-07
   55.4000015         1.62415574E-07
   55.5299988         1.90834001E-07
   55.6599998         2.19442086E-07
   55.7900009         2.48161143E-07
   55.9199982         2.76921412E-07
   56.0499992         3.05658205E-07
   56.1800003         3.34315018E-07
   56.3100014         3.62841973E-07
   56.4399986         3.91192742E-07
   56.5699997         4.19325374E-07
   56.7000008         4.47200222E-07
   56.8300018         4.74775021E-07
   56.9599991         5.02005378E-07
   57.0900002         5.28839507E-07
   57.2200012         5.55221618E-07
   57.3499985         5.81086908E-07
   57.4799995         6.06362732E-07
   57.6100006         6.30969737E-07
   57.7400017         6.54821861E-07
   57.8699989         6.77829178E-07
   58.0000000         6.99898294E-07
   58.1300011         7.20937408E-07
   58.2599983         7.40854887E-07
   58.3899994         7.59565239E-07
   58.5200005         7.76988998E-07
   58.6500015         7.93054539E-07
   58.7799988         8.07699223E-07
   58.9099998         8.20869843E-07
   59.0400009         8.32522574E-07
   59.1699982         8.42621205E-07
   59.2999992         8.51136406E-07
   59.4300003         8.58043734E-07
   59.5600014         8.63320736E-07
   59.6899986         8.66945470E-07
   59.8199997         8.68893665E-07
   59.9500008         8.69137239E-07
   60.0800018         8.67642598E-07
   60.2099991         8.64369326E-07
   60.3400002         8.59271893E-07
   60.4700012         8.52298967E-07
   60.5999985         8.43395298E-07
   60.7299995         8.32503360E-07
   60.8600006         8.19566708E-07
   60.9900017         8.04531510E-07
   61.1199989         7.87350189E-07
   61.2500000         7.67982499E-07
   61.3800011         7.46398143E-07
   61.5099983         7.22577738E-07
   61.6399994         6.96512927E-07
   61.7700005         6.68206269E-07
   61.9000015         6.37670666E-07
   62.0299988         6.04927720E-07
   62.1599998         5.70005341E-07
   62.2900009         5.32935758E-07
   62.4199982         4.93752850E-07
   62.5499992         4.52490809E-07
   62.6800003         4.09180416E-07
   62.8100014         3.63848727E-07
   62.9399986         3.16516662E-07
   63.0699997         2.67200193E-07
   63.2000008         2.15908926E-07
   63.3300018         1.62648661E-07
   63.4599991         1.07420881E-07
   63.5900002         5.02277224E-08
   63.7200012        -8.92788599E-09
   63.8499985        -7.00381619E-08
   63.9799995        -1.33088491E-07
   64.1100006        -1.98055915E-07
   64.2399979        -2.64905879E-07
   64.3700027        -3.33593619E-07
   64.5000000        -4.04062206E-07
   64.6299973        -4.76243656E-07
   64.7600021        -5.50061031E-07
   64.8899994        -6.25430687E-07
   65.0199966        -7.02264572E-07
   65.1500015        -7.80472135E-07
   65.2799988        -8.59964132E-07
   65.4100037        -9.40654843E-07
   65.5400009        -1.02246361E-06
   65.6699982        -1.10531710E-06
   65.8000031        -1.18914863E-06
   65.9300003        -1.27389944E-06
   66.0599976        -1.35951791E-06
   66.1900024        -1.44595651E-06
   66.3199997        -1.53317160E-06
   66.4499969        -1.62112087E-06
   66.5800018        -1.70976023E-06
   66.7099991        -1.79904168E-06
   66.8399963        -1.88891067E-06
   66.9700012        -1.97930490E-06
   67.0999985        -2.07015205E-06
   67.2300034        -2.16137005E-06
   67.3600006        -2.25286794E-06
   67.4899979        -2.34454501E-06
   67.6200027        -2.43629415E-06
   67.7500000        -2.52800419E-06
   67.8799973        -2.61956188E-06
   68.0100021        -2.71085537E-06
   68.1399994        -2.80177687E-06
   68.2699966        -2.89222612E-06
   68.4000015        -2.98211171E-06
   68.5299988        -3.07135065E-06
   68.6600037        -3.15987086E-06
   68.7900009        -3.24760958E-06
   68.9199982        -3.33451248E-06
   69.0500031        -3.42053045E-06
   69.1800003        -3.50561959E-06
   69.3099976        -3.58973716E-06
   69.4400024        -3.67283860E-06
   69.5699997        -3.75487639E-06
   69.6999969        -3.83579618E-06
   69.8300018        -3.91553658E-06
   69.9599991        -3.99402916E-06
   70.0899963        -4.07119751E-06
   70.2200012        -4.14695660E-06
   70.3499985        -4.22121775E-06
   70.4800034        -4.29388683E-06
   70.6100006        -4.36487062E-06
   70.7399979        -4.43407589E-06
   70.8700027        -4.50141579E-06
   71.0000000        -4.56680846E-06
   71.1299973        -4.63018432E-06
   71.2600021        -4.69148381E-06
   71.3899994        -4.75065735E-06
   71.5199966        -4.80767039E-06
   71.6500015        -4.86249655E-06
   71.7799988        -4.91511992E-06
   71.9100037        -4.96553093E-06
   72.0400009        -5.01372324E-06
   72.1699982        -5.05969228E-06
   72.3000031        -5.10343034E-06
   72.4300003        -5.14492694E-06
   72.5599976        -5.18416300E-06
   72.6900024        -5.22111395E-06
   72.8199997        -5.25574660E-06
   72.9499969        -5.28802138E-06
   73.0800018        -5.31789192E-06
   73.2099991        -5.34530864E-06
   73.3399963        -5.37022061E-06
   73.4700012        -5.39257871E-06
   73.5999985        -5.41233840E-06
   73.7300034        -5.42946191E-06
   73.8600006        -5.44392060E-06
   73.9899979        -5.45569856E-06
   74.1200027        -5.46478805E-06
   74.2500000        -5.47119635E-06
   74.3799973        -5.47494119E-06
   74.5100021        -5.47605123E-06
   74.6399994        -5.47456102E-06
   74.7699966        -5.47051150E-06
   74.9000015        -5.46394494E-06
   75.0299988        -5.45490275E-06
   75.1600037        -5.44342220E-06
   75.2900009        -5.42953512E-06
   75.4199982        -5.41326563E-06
   75.5500031        -5.39462872E-06
   75.6800003        -5.37363030E-06
   75.8099976        -5.35027038E-06
   75.9400024        -5.32454123E-06
   76.0699997        -5.29643421E-06
   76.1999969        -5.26593976E-06
   76.3300018        -5.23305107E-06
   76.4599991        -5.19776677E-06
   76.5899963        -5.16009413E-06
   76.7200012        -5.12005090E-06
   76.8499985        -5.07766754E-06
   76.9800034        -5.03298315E-06
   77.1100006        -4.98605095E-06
   77.2399979        -4.93693233E-06
   77.3700027        -4.88569640E-06
   77.5000000        -4.83241774E-06
   77.6299973        -4.77717231E-06
   77.7600021        -4.72003512E-06
   77.8899994        -4.66107758E-06
   78.0199966        -4.60036472E-06
   78.1500015        -4.53795383E-06
   78.2799988        -4.47389175E-06
   78.4100037        -4.40821486E-06
   78.5400009        -4.34095227E-06
   78.6699982        -4.27212399E-06
   78.8000031        -4.20174410E-06
   78.9300003        -4.12982445E-06
   79.0599976        -4.05637729E-06
   79.1900024        -3.98141810E-06
   79.3199997        -3.90496780E-06
   79.4499969        -3.82705684E-06
   79.5800018        -3.74772526E-06
   79.7099991        -3.66702602E-06
   79.8399963        -3.58502166E-06
   79.9700012        -3.50178539E-06
   80.0999985        -3.41739724E-06
   80.2300034        -3.33194271E-06
   80.3600006        -3.24551115E-06
   80.4899979        -3.15819034E-06
   80.6200027        -3.07006326E-06
   80.7500000        -2.98120676E-06