  -24.4200001         9.76592096E-18
  -24.2870007         3.40655976E-10
  -24.1539993         1.01860320E-09
  -24.0209999         2.00681183E-09
  -23.8880005         3.25830540E-09
  -23.7549992         4.71184558E-09
  -23.6219997         6.29877928E-09
  -23.4890003         7.95015254E-09
  -23.3560009         9.60328084E-09
  -23.2229996         1.12071490E-08
  -23.0900002         1.27262547E-08
  -22.9570007         1.41428149E-08
  -22.8239994         1.54574273E-08
  -22.6910000         1.66884107E-08
  -22.5580006         1.78700788E-08
  -22.4249992         1.90501872E-08
  -22.2919998         2.02866648E-08
  -22.1590004         2.16436895E-08
  -22.0259991         2.31872370E-08
  -21.8929996         2.49801495E-08
  -21.7600002         2.70770393E-08
  -21.6270008         2.95193878E-08
  -21.4939995         3.23313820E-08
  -21.3610001         3.55171004E-08
  -21.2280006         3.90595432E-08
  -21.0949993         4.29219433E-08
  -20.9619999         4.70513370E-08
  -20.8290005         5.13842799E-08
  -20.6959991         5.58539774E-08
  -20.5629997         6.03980723E-08
  -20.4300003         6.49660379E-08
  -20.2970009         6.95252993E-08
  -20.1639996         7.40652553E-08
  -20.0310001         7.85987595E-08
  -19.8980007         8.31611331E-08
  -19.7649994         8.78068036E-08
  -19.6320000         9.26042958E-08
  -19.4990005         9.76303340E-08
  -19.3659992         1.02963654E-07
  -19.2329998         1.08679345E-07
  -19.1000004         1.14844070E-07
  -18.9669991         1.21512343E-07
  -18.8339996         1.28724068E-07
  -18.7010002         1.36503047E-07
  -18.5680008         1.44856656E-07
  -18.4349995         1.53776298E-07
  -18.3020000         1.63238781E-07
  -18.1690006         1.73208988E-07
  -18.0359993         1.83643223E-07
  -17.9029999         1.94493893E-07
  -17.7700005         2.05714940E-07
  -17.6369991         2.17267697E-07
  -17.5039997         2.29126741E-07
  -17.3710003         2.41284852E-07
  -17.2380009         2.53756411E-07
  -17.1049995         2.66578610E-07
  -16.9720001         2.79810365E-07
  -16.8390007         2.93528501E-07
  -16.7059994         3.07821864E-07
  -16.5730000         3.22784246E-07
  -16.4400005         3.38506482E-07
  -16.3069992         3.55069517E-07
  -16.1739998         3.72538352E-07
  -16.0410004         3.90958405E-07
  -15.9080000         4.10354033E-07
  -15.7749996         4.30729358E-07
  -15.6420002         4.52071163E-07
  -15.5089998         4.74352930E-07
  -15.3760004         4.97539872E-07
  -15.2430000         5.21594131E-07
  -15.1099997         5.46479498E-07
  -14.9770002         5.72166243E-07
  -14.8439999         5.98634188E-07
  -14.7110004         6.25876567E-07
  -14.5780001         6.53901736E-07
  -14.4449997         6.82734992E-07
  -14.3120003         7.12418853E-07
  -14.1789999         7.43013004E-07
  -14.0459995         7.74591740E-07
  -13.9130001         8.07240781E-07
  -13.7799997         8.41052270E-07
  -13.6470003         8.76118634E-07
  -13.5139999         9.12525991E-07
  -13.3809996         9.50347612E-07
  -13.2480001         9.89638465E-07
  -13.1149998         1.03043146E-06
  -12.9820004         1.07273604E-06
  -12.8490000         1.11653981E-06
  -12.7159996         1.16181161E-06
  -12.5830002         1.20850848E-06
  -12.4499998         1.25658153E-06
  -12.3170004         1.30598380E-06
  -12.1840000         1.35667744E-06
  -12.0509996         1.40863790E-06
  -11.9180002         1.46185846E-06
  -11.7849998         1.51635084E-06
  -11.6520004         1.57214481E-06
  -11.5190001         1.62928620E-06
  -11.3859997         1.68783333E-06
  -11.2530003         1.74785328E-06
  -11.1199999         1.80941731E-06
  -10.9870005         1.87259673E-06
  -10.8540001         1.93745927E-06
  -10.7209997         2.00406339E-06
  -10.5880003         2.07245625E-06
  -10.4549999         2.14266902E-06
  -10.3219995         2.21471464E-06
  -10.1890001         2.28858607E-06
  -10.0559998         2.36425672E-06
  -9.92300034         2.44168064E-06
  -9.78999996         2.52079690E-06
  -9.65699959         2.60153479E-06
  -9.52400017         2.68381973E-06
  -9.39099979         2.76758101E-06
  -9.25800037         2.85275860E-06
  -9.12500000         2.93930725E-06
  -8.99199963         3.02720173E-06
  -8.85900021         3.11643817E-06
  -8.72599983         3.20703089E-06
  -8.59300041         3.29901036E-06
  -8.46000004         3.39241637E-06
  -8.32699966         3.48729282E-06
  -8.19400024         3.58367902E-06
  -8.06099987         3.68160499E-06
  -7.92799997         3.78108621E-06
  -7.79500008         3.88211947E-06
  -7.66200018         3.98468273E-06
  -7.52899981         4.08873484E-06
  -7.39599991         4.19421303E-06
  -7.26300001         4.30104001E-06
  -7.13000011         4.40912345E-06
  -6.99700022         4.51835922E-06
  -6.86399984         4.62863591E-06
  -6.73099995         4.73983982E-06
  -6.59800005         4.85185592E-06
  -6.46500015         4.96457733E-06
  -6.33199978         5.07790492E-06
  -6.19899988         5.19175364E-06
  -6.06599998         5.30605575E-06
  -5.93300009         5.42075986E-06
  -5.80000019         5.53583050E-06
  -5.66699982         5.65124492E-06
  -5.53399992         5.76698631E-06
  -5.40100002         5.88304056E-06
  -5.26800013         5.99938585E-06
  -5.13500023         6.11598625E-06
  -5.00199986         6.23278902E-06
  -4.86899996         6.34971639E-06
  -4.73600006         6.46667013E-06
  -4.60300016         6.58352701E-06
  -4.46999979         6.70014651E-06
  -4.33699989         6.81637448E-06
  -4.20400000         6.93204811E-06
  -4.07100010         7.04700278E-06
  -3.93799996         7.16107706E-06
  -3.80500007         7.27411589E-06
  -3.67199993         7.38597691E-06
  -3.53900003         7.49652736E-06
  -3.40599990         7.60565035E-06
  -3.27300000         7.71324085E-06
  -3.14000010         7.81920880E-06
  -3.00699997         7.92347328E-06
  -2.87400007         8.02596333E-06
  -2.74099994         8.12661528E-06
  -2.60800004         8.22536640E-06
  -2.47499990         8.32215210E-06
  -2.34200001         8.41690053E-06
  -2.20900011         8.50952802E-06
  -2.07599998         8.59993270E-06
  -1.94299996         8.68799543E-06
  -1.80999994         8.77357616E-06
  -1.67700005         8.85651752E-06
  -1.54400003         8.93664583E-06
  -1.41100001         9.01378007E-06
  -1.27800000         9.08773563E-06
  -1.14499998         9.15833425E-06
  -1.01199996         9.22541130E-06
 -0.879000008         9.28881582E-06
 -0.745999992         9.34842046E-06
 -0.612999976         9.40411974E-06
 -0.479999989         9.45582724E-06
 -0.347000003         9.50347749E-06
 -0.214000002         9.54701409E-06
  -8.10000002E-02     9.58639157E-06
   5.20000011E-02     9.62156992E-06
  0.185000002         9.65250729E-06
  0.317999989         9.67915821E-06
  0.451000005         9.70147175E-06
  0.583999991         9.71938880E-06
  0.717000008         9.73283659E-06
  0.850000024         9.74173236E-06
  0.982999980         9.74598152E-06
   1.11600006         9.74547947E-06
   1.24899995         9.74010982E-06
   1.38199997         9.72975340E-06
   1.51499999         9.71429108E-06
   1.64800000         9.69360281E-06
   1.78100002         9.66758398E-06
   1.91400003         9.63614275E-06
   2.04699993         9.59921090E-06
   2.18000007         9.55674568E-06
   2.31299996         9.50872891E-06
   2.44600010         9.45516695E-06
   2.57900000         9.39608708E-06
   2.71199989         9.33153478E-06
   2.84500003         9.26156190E-06
   2.97799993         9.18622572E-06
   3.11100006         9.10557810E-06
   3.24399996         9.01966359E-06
   3.37700009         8.92851494E-06
   3.50999999         8.83215489E-06
   3.64299989         8.73059525E-06
   3.77600002         8.62383695E-06
   3.90899992         8.51187724E-06
   4.04199982         8.39471068E-06
   4.17500019         8.27233362E-06
   4.30800009         8.14474788E-06
   4.44099998         8.01196529E-06
   4.57399988         7.87400586E-06
   4.70699978         7.73090778E-06
   4.84000015         7.58272699E-06
   4.97300005         7.42953853E-06
   5.10599995         7.27143652E-06
   5.23899984         7.10853692E-06
   5.37200022         6.94097753E-06
   5.50500011         6.76890750E-06
   5.63800001         6.59249326E-06
   5.77099991         6.41190354E-06
   5.90399981         6.22730704E-06
   6.03700018         6.03886519E-06
   6.17000008         5.84672671E-06
   6.30299997         5.65102664E-06
   6.43599987         5.45187959E-06
   6.56899977         5.24938878E-06
   6.70200014         5.04364334E-06
   6.83500004         4.83472559E-06
   6.96799994         4.62271601E-06
   7.10099983         4.40770054E-06
   7.23400021         4.18977743E-06
   7.36700010         3.96905762E-06
   7.50000000         3.74566889E-06
   7.63299990         3.51975814E-06
   7.76599979         3.29148497E-06
   7.89900017         3.06103198E-06
   8.03199959         2.82858764E-06
   8.16499996         2.59435637E-06
   8.29800034         2.35854804E-06
   8.43099976         2.12137888E-06
   8.56400013         1.88306501E-06
   8.69699955         1.64382050E-06
   8.82999992         1.40385168E-06
   8.96300030         1.16335605E-06
   9.09599972         9.22514573E-07
   9.22900009         6.81491315E-07
   9.36200047         4.40435713E-07
   9.49499989         1.99478876E-07
   9.62800026        -4.12595398E-08
   9.76099968        -2.81670907E-07
   9.89400005        -5.21647905E-07
   10.0270004        -7.61078923E-07
   10.1599998        -9.99844247E-07
   10.2930002        -1.23780694E-06
   10.4259996        -1.47481364E-06
   10.5590000        -1.71069235E-06
   10.6920004        -1.94525455E-06
   10.8249998        -2.17829847E-06
   10.9580002        -2.40961276E-06
   11.0909996        -2.63898391E-06
   11.2240000        -2.86620002E-06
   11.3570004        -3.09105781E-06
   11.4899998        -3.31336264E-06
   11.6230001        -3.53293262E-06
   11.7559996        -3.74960518E-06
   11.8889999        -3.96322775E-06
   12.0220003        -4.17366346E-06
   12.1549997        -4.38079087E-06
   12.2880001        -4.58450359E-06
   12.4209995        -4.78470247E-06
   12.5539999        -4.98129748E-06
   12.6870003        -5.17420631E-06
   12.8199997        -5.36334483E-06
   12.9530001        -5.54862845E-06
   13.0860004        -5.72995987E-06
   13.2189999        -5.90723266E-06
   13.3520002        -6.08032815E-06
   13.4849997        -6.24911127E-06
   13.6180000        -6.41343149E-06
   13.7510004        -6.57312876E-06
   13.8839998        -6.72803935E-06
   14.0170002        -6.87799775E-06
   14.1499996        -7.02284888E-06
   14.2830000        -7.16244995E-06
   14.4160004        -7.29667454E-06
   14.5489998        -7.42542079E-06
   14.6820002        -7.54860503E-06
   14.8149996        -7.66616540E-06
   14.9480000        -7.77805599E-06
   15.0810003        -7.88424495E-06
   15.2139997        -7.98470501E-06
   15.3470001        -8.07941797E-06
   15.4799995        -8.16836291E-06
   15.6129999        -8.25151801E-06
   15.7460003        -8.32885053E-06
   15.8789997        -8.40032772E-06
   16.0119991        -8.46590228E-06
   16.1450005        -8.52551784E-06
   16.2779999        -8.57910982E-06
   16.4109993        -8.62660454E-06
   16.5440006        -8.66791743E-06
   16.6770000        -8.70296026E-06
   16.8099995        -8.73164481E-06
   16.9430008        -8.75388287E-06
   17.0760002        -8.76959803E-06
   17.2089996        -8.77872571E-06
   17.3419991        -8.78121955E-06
   17.4750004        -8.77705679E-06
   17.6079998        -8.76623653E-06
   17.7409992        -8.74877696E-06
   17.8740005        -8.72471719E-06
   18.0070000        -8.69410542E-06
   18.1399994        -8.65699803E-06
   18.2730007        -8.61345325E-06
   18.4060001        -8.56351926E-06
   18.5389996        -8.50723882E-06
   18.6720009        -8.44463830E-06
   18.8050003        -8.37573316E-06
   18.9379997        -8.30052704E-06
   19.0709991        -8.21900903E-06
   19.2040005        -8.13116549E-06
   19.3369999        -8.03697731E-06
   19.4699993        -7.93642630E-06
   19.6030006        -7.82949519E-06
   19.7360001        -7.71617215E-06
   19.8689995        -7.59645854E-06
   20.0020008        -7.47036165E-06
   20.1350002        -7.33790739E-06
   20.2679996        -7.19913442E-06
   20.4009991        -7.05410321E-06
   20.5340004        -6.90288880E-06
   20.6669998        -6.74558669E-06
   20.7999992        -6.58230510E-06
   20.9330006        -6.41316228E-06
   21.0660000        -6.23828555E-06
   21.1989994        -6.05779724E-06
   21.3320007        -5.87181694E-06
   21.4650002        -5.68045289E-06
   21.5979996        -5.48379694E-06
   21.7310009        -5.28193050E-06
   21.8640003        -5.07491859E-06
   21.9969997        -4.86281670E-06
   22.1299992        -4.64567802E-06
   22.2630005        -4.42355304E-06
   22.3959999        -4.19650178E-06
   22.5289993        -3.96459291E-06
   22.6620007        -3.72791305E-06
   22.7950001        -3.48656727E-06
   22.9279995        -3.24067742E-06
   23.0610008        -2.99038402E-06
   23.1940002        -2.73584487E-06
   23.3269997        -2.47723506E-06
   23.4599991        -2.21473920E-06
   23.5930004        -1.94855625E-06
   23.7259998        -1.67889175E-06
   23.8589993        -1.40595694E-06
   23.9920006        -1.12996463E-06
   24.1250000        -8.51127822E-07
   24.2579994        -5.69653139E-07
   24.3910007        -2.85738992E-07
   24.5240002         4.25209895E-10
   24.6569996         2.88661056E-07
   24.7900009         5.78800893E-07
   24.9230003         8.70684516E-07
   25.0559998         1.16415401E-06
   25.1889992         1.45904778E-06
   25.3220005         1.75519858E-06
   25.4549999         2.05242304E-06
   25.5879993         2.35051789E-06
   25.7210007         2.64925961E-06
   25.8540001         2.94840197E-06
   25.9869995         3.24767893E-06
   26.1200008         3.54680537E-06
   26.2530003         3.84548366E-06
   26.3859997         4.14340957E-06
   26.5189991         4.44027501E-06
   26.6520004         4.73577438E-06
   26.7849998         5.02960893E-06
   26.9179993         5.32148488E-06
   27.0510006         5.61112211E-06
   27.1840000         5.89824822E-06
   27.3169994         6.18260219E-06
   27.4500008         6.46393210E-06
   27.5830002         6.74199646E-06
   27.7159996         7.01655699E-06
   27.8490009         7.28738678E-06
   27.9820004         7.55425890E-06
   28.1149998         7.81694689E-06
   28.2479992         8.07521792E-06
   28.3810005         8.32883325E-06
   28.5139999         8.57753821E-06
   28.6469994         8.82106724E-06
   28.7800007         9.05913748E-06
   28.9130001         9.29145153E-06
   29.0459995         9.51770653E-06
   29.1790009         9.73758870E-06
   29.3120003         9.95078881E-06
   29.4449997         1.01570040E-05
   29.5779991         1.03559460E-05
   29.7110004         1.05473437E-05
   29.8439999         1.07309488E-05
   29.9769993         1.09065368E-05
   30.1100006         1.10739029E-05
   30.2430000         1.12328626E-05
   30.3759995         1.13832493E-05
   30.5090008         1.15249031E-05
   30.6420002         1.16576757E-05
   30.7749996         1.17814252E-05
   30.9080009         1.18960079E-05
   31.0410004         1.20012819E-05
   31.1739998         1.20971026E-05
   31.3069992         1.21833255E-05
   31.4400005         1.22597994E-05
   31.5730000         1.23263708E-05
   31.7059994         1.23828850E-05
   31.8390007         1.24291846E-05
   31.9720001         1.24651133E-05
   32.1049995         1.24905227E-05
   32.2379990         1.25052711E-05
   32.3709984         1.25092356E-05
   32.5040016         1.25023143E-05
   32.6370010         1.24844310E-05
   32.7700005         1.24555372E-05
   32.9029999         1.24156159E-05
   33.0359993         1.23646805E-05
   33.1689987         1.23027685E-05
   33.3019981         1.22299398E-05
   33.4350014         1.21462681E-05
   33.5680008         1.20518389E-05
   33.7010002         1.19467386E-05
   33.8339996         1.18310509E-05
   33.9669991         1.17048576E-05
   34.0999985         1.15682378E-05
   34.2330017         1.14212635E-05
   34.3660011         1.12640055E-05
   34.4990005         1.10965384E-05
   34.6320000         1.09189359E-05
   34.7649994         1.07312844E-05
   34.8979988         1.05336758E-05
   35.0309982         1.03262173E-05
   35.1640015         1.01090309E-05
   35.2970009         9.88225929E-06
   35.4300003         9.64606352E-06
   35.5629997         9.40062910E-06
   35.6959991         9.14616157E-06
   35.8289986         8.88289469E-06
   35.9620018         8.61108310E-06
   36.0950012         8.33100057E-06
   36.2280006         8.04293722E-06
   36.3610001         7.74719229E-06
   36.4939995         7.44406861E-06
   36.6269989         7.13386680E-06
   36.7599983         6.81687834E-06
   36.8930016         6.49338335E-06
   37.0260010         6.16364787E-06
   37.1590004         5.82792654E-06
   37.2919998         5.48646403E-06
   37.4249992         5.13949817E-06
   37.5579987         4.78726770E-06
   37.6910019         4.43001591E-06
   37.8240013         4.06799745E-06
   37.9570007         3.70147745E-06
   38.0900002         3.33073854E-06
   38.2229996         2.95607765E-06
   38.3559990         2.57781130E-06
   38.4889984         2.19626440E-06
   38.6220016         1.81177677E-06
   38.7550011         1.42469730E-06
   38.8880005         1.03537809E-06
   39.0209999         6.44175486E-07
   39.1539993         2.51446096E-07
   39.2869987        -1.42458816E-07
   39.4199982        -5.37199071E-07
   39.5530014        -9.32447961E-07
   39.6860008        -1.32789489E-06
   39.8190002        -1.72325122E-06
   39.9519997        -2.11824818E-06
   40.0849991        -2.51263850E-06
   40.2179985        -2.90619687E-06
   40.3510017        -3.29870818E-06
   40.4840012        -3.68997053E-06
   40.6170006        -4.07978678E-06
   40.7500000        -4.46795320E-06
   40.8829994        -4.85426335E-06
   41.0159988        -5.23849667E-06
   41.1489983        -5.62042442E-06
   41.2820015        -5.99980604E-06
   41.4150009        -6.37639641E-06
   41.5480003        -6.74994635E-06
   41.6809998        -7.12020983E-06
   41.8139992        -7.48695402E-06
   41.9469986        -7.84995609E-06
   42.0800018        -8.20901005E-06
   42.2130013        -8.56393126E-06
   42.3460007        -8.91455875E-06
   42.4790001        -9.26074881E-06
   42.6119995        -9.60238503E-06
   42.7449989        -9.93937010E-06
   42.8779984        -1.02716285E-05
   43.0110016        -1.05991021E-05
   43.1440010        -1.09217508E-05
   43.2770004        -1.12395455E-05
   43.4099998        -1.15524654E-05
   43.5429993        -1.18604949E-05
   43.6759987        -1.21636112E-05
   43.8089981        -1.24617900E-05
   43.9420013        -1.27549965E-05
   44.0750008        -1.30431836E-05
   44.2080002        -1.33262965E-05
   44.3409996        -1.36042709E-05
   44.4739990        -1.38770420E-05
   44.6069984        -1.41445471E-05
   44.7400017        -1.44067326E-05
   44.8730011        -1.46635612E-05
   45.0060005        -1.49150192E-05
   45.1389999        -1.51611121E-05
   45.2719994        -1.54018762E-05
   45.4049988        -1.56373681E-05
   45.5379982        -1.58676612E-05
   45.6710014        -1.60928539E-05
   45.8040009        -1.63130462E-05
   45.9370003        -1.65283491E-05
   46.0699997        -1.67388789E-05
   46.2029991        -1.69447449E-05
   46.3359985        -1.71460579E-05
   46.4690018        -1.73429125E-05
   46.6020012        -1.75353980E-05
   46.7350006        -1.77235925E-05
   46.8680000        -1.79075651E-05
   47.0009995        -1.80873667E-05
   47.1339989        -1.82630374E-05
   47.2669983        -1.84346118E-05
   47.4000015        -1.86021152E-05
   47.5330009        -1.87655769E-05
   47.6660004        -1.89250259E-05
   47.7989998        -1.90805022E-05
   47.9319992        -1.92320622E-05
   48.0649986        -1.93797805E-05
   48.1980019        -1.95237462E-05
   48.3310013        -1.96640722E-05
   48.4640007        -1.98008856E-05
   48.5970001        -1.99343140E-05
   48.7299995        -2.00645009E-05
   48.8629990        -2.01915718E-05
   48.9959984        -2.03156487E-05
   49.1290016        -2.04368316E-05
   49.2620010        -2.05552042E-05
   49.3950005        -2.06708264E-05
   49.5279999        -2.07837365E-05
   49.6609993        -2.08939564E-05
   49.7939987        -2.10014823E-05
   49.9269981        -2.11063016E-05
   50.0600014        -2.12083887E-05
   50.1930008        -2.13077146E-05
   50.3260002        -2.14042393E-05
   50.4589996        -2.14979245E-05
   50.5919991        -2.15887394E-05
   50.7249985        -2.16766512E-05
   50.8580017        -2.17616416E-05
   50.9910011        -2.18436962E-05
   51.1240005        -2.19228205E-05
   51.2570000        -2.19990197E-05
   51.3899994        -2.20723177E-05
   51.5229988        -2.21427308E-05
   51.6559982        -2.22102753E-05
   51.7890015        -2.22749586E-05
   51.9220009        -2.23367733E-05
   52.0550003        -2.23956868E-05
   52.1879997        -2.24516425E-05
   52.3209991        -2.25045569E-05
   52.4539986        -2.25543190E-05
   52.5870018        -2.26007942E-05
   52.7200012        -2.26438315E-05
   52.8530006        -2.26832653E-05
   52.9860001        -2.27189321E-05
   53.1189995        -2.27506571E-05
   53.2519989        -2.27782803E-05
   53.3849983        -2.28016488E-05
   53.5180016        -2.28206227E-05
   53.6510010        -2.28350673E-05
   53.7840004        -2.28448644E-05
   53.9169998        -2.28499102E-05
   54.0499992        -2.28501031E-05
   54.1829987        -2.28453428E-05
   54.3160019        -2.28355457E-05
   54.4490013        -2.28206154E-05
   54.5820007        -2.28004537E-05
   54.7150002        -2.27749588E-05
   54.8479996        -2.27440123E-05
   54.9809990        -2.27074815E-05
   55.1139984        -2.26652191E-05
   55.2470016        -2.26170505E-05
   55.3800011        -2.25627900E-05
   55.5130005        -2.25022341E-05
   55.6459999        -2.24351752E-05
   55.7789993        -2.23613952E-05
   55.9119987        -2.22806884E-05
   56.0449982        -2.21928567E-05
   56.1780014        -2.20977181E-05
   56.3110008        -2.19951198E-05
   56.4440002        -2.18849291E-05
   56.5769997        -2.17670367E-05
   56.7099991        -2.16413609E-05
   56.8429985        -2.15078308E-05
   56.9760017        -2.13663934E-05
   57.1090012        -2.12169980E-05
   57.2420006        -2.10596008E-05
   57.3750000        -2.08941492E-05
   57.5079994        -2.07205940E-05
   57.6409988        -2.05388733E-05
   57.7739983        -2.03489162E-05
   57.9070015        -2.01506518E-05
   58.0400009        -1.99439964E-05
   58.1730003        -1.97288573E-05
   58.3059998        -1.95051434E-05
   58.4389992        -1.92727621E-05
   58.5719986        -1.90316241E-05
   58.7050018        -1.87816477E-05
   58.8380013        -1.85227655E-05
   58.9710007        -1.82549338E-05
   59.1040001        -1.79781327E-05
   59.2369995        -1.76923677E-05
   59.3699989        -1.73976805E-05
   59.5029984        -1.70941403E-05
   59.6360016        -1.67818489E-05
   59.7690010        -1.64609228E-05
   59.9020004        -1.61315020E-05
   60.0349998        -1.57937320E-05
   60.1679993        -1.54477602E-05
   60.3009987        -1.50937285E-05
   60.4339981        -1.47317778E-05
   60.5670013        -1.43620337E-05
   60.7000008        -1.39846134E-05
   60.8330002        -1.35996288E-05
   60.9659996        -1.32071873E-05
   61.0989990        -1.28073989E-05
   61.2319984        -1.24003809E-05
   61.3650017        -1.19862589E-05
   61.4980011        -1.15651756E-05
   61.6310005        -1.11372901E-05
   61.7639999        -1.07027845E-05
   61.8969994        -1.02618615E-05
   62.0299988        -9.81475569E-06
   62.1629982        -9.36172182E-06
   62.2960014        -8.90304545E-06
   62.4290009        -8.43903217E-06
   62.5620003        -7.97001212E-06
   62.6949997        -7.49633000E-06
   62.8279991        -7.01834369E-06
   62.9609985        -6.53641382E-06
   63.0940018        -6.05089963E-06
   63.2270012        -5.56215082E-06
   63.3600006        -5.07050436E-06
   63.4930000        -4.57628266E-06
   63.6259995        -4.07979087E-06
   63.7589989        -3.58132343E-06
   63.8919983        -3.08116660E-06
   64.0250015        -2.57960733E-06
   64.1579971        -2.07693574E-06
   64.2910004        -1.57345562E-06
   64.4240036        -1.06948744E-06
   64.5569992        -5.65373341E-07
   64.6900024        -6.14774720E-08
   64.8229980         4.41813199E-07
   64.9560013         9.44092108E-07
   65.0889969         1.44493470E-06
   65.2220001         1.94390509E-06
   65.3550034         2.44055650E-06
   65.4879990         2.93444009E-06
   65.6210022         3.42510566E-06
   65.7539978         3.91211006E-06
   65.8870010         4.39501946E-06
   66.0199966         4.87341322E-06
   66.1529999         5.34688979E-06
   66.2860031         5.81506765E-06
   66.4189987         6.27758754E-06
   66.5520020         6.73411296E-06
   66.6849976         7.18432375E-06
   66.8180008         7.62791615E-06
   66.9509964         8.06459593E-06
   67.0839996         8.49406842E-06
   67.2170029         8.91603668E-06
   67.3499985         9.33019146E-06
   67.4830017         9.73620899E-06
   67.6159973         1.01337473E-05
   67.7490005         1.05224517E-05
   67.8820038         1.09019511E-05
   68.0149994         1.12718690E-05
   68.1480026         1.16318270E-05
   68.2809982         1.19814549E-05
   68.4140015         1.23203963E-05
   68.5469971         1.26483128E-05
   68.6800003         1.29648888E-05
   68.8130035         1.32698387E-05
   68.9459991         1.35628989E-05
   69.0790024         1.38438409E-05
   69.2119980         1.41124565E-05
   69.3450012         1.43685666E-05
   69.4779968         1.46120119E-05
   69.6110001         1.48426552E-05
   69.7440033         1.50603710E-05
   69.8769989         1.52650464E-05
   70.0100021         1.54565751E-05
   70.1429977         1.56348488E-05
   70.2760010         1.57997583E-05
   70.4089966         1.59511856E-05
   70.5419998         1.60890086E-05
   70.6750031         1.62130927E-05
   70.8079987         1.63232999E-05
   70.9410019         1.64194935E-05
   71.0739975         1.65015445E-05
   71.2070007         1.65693382E-05
   71.3399963         1.66227856E-05
   71.4729996         1.66618229E-05
   71.6060028         1.66864229E-05
   71.7389984         1.66965965E-05
   71.8720016         1.66923910E-05
   72.0049973         1.66738828E-05
   72.1380005         1.66411846E-05
   72.2710037         1.65944275E-05
   72.4039993         1.65337660E-05
   72.5370026         1.64593584E-05
   72.6699982         1.63713758E-05
   72.8030014         1.62699889E-05
   72.9359970         1.61553671E-05
   73.0690002         1.60276795E-05
   73.2020035         1.58870862E-05
   73.3349991         1.57337472E-05
   73.4680023         1.55678172E-05
   73.6009979         1.53894489E-05
   73.7340012         1.51987961E-05
   73.8669968         1.49960188E-05
   74.0000000         1.47812852E-05
   74.1330032         1.45547847E-05
   74.2659988         1.43167272E-05
   74.3990021         1.40673483E-05
   74.5319977         1.38069172E-05
   74.6650009         1.35357404E-05
   74.7979965         1.32541527E-05
   74.9309998         1.29625187E-05
   75.0640030         1.26612276E-05
   75.1969986         1.23506843E-05
   75.3300018         1.20313025E-05
   75.4629974         1.17034933E-05
   75.5960007         1.13676633E-05
   75.7289963         1.10242045E-05
   75.8619995         1.06734942E-05
   75.9950027         1.03158927E-05
   76.1279984         9.95174469E-06
   76.2610016         9.58138571E-06
   76.3939972         9.20514321E-06
   76.5270004         8.82334280E-06
   76.6600037         8.43630914E-06
   76.7929993         8.04437786E-06
   76.9260025         7.64789274E-06
   77.0589981         7.24720985E-06
   77.1920013         6.84270844E-06
   77.3249969         6.43478006E-06
   77.4580002         6.02383898E-06
   77.5910034         5.61031766E-06
   77.7239990         5.19466585E-06
   77.8570023         4.77734784E-06
   77.9899979         4.35883521E-06
   78.1230011         3.93960454E-06
   78.2559967         3.52012398E-06
   78.3889999         3.10084943E-06
   78.5220032         2.68221697E-06
   78.6549988         2.26463749E-06
   78.7880020         1.84849273E-06
   78.9209976         1.43413627E-06
   79.0540009         1.02189472E-06
   79.1869965         6.12074757E-07
   79.3199997         2.04967321E-07
   79.4530029        -1.99143216E-07
   79.5859985        -5.99972452E-07
   79.7190018        -9.97231837E-07
   79.8519974        -1.39061967E-06
   79.9850006        -1.77982326E-06
   80.1179962        -2.16451735E-06
   80.2509995        -2.54436304E-06
   80.3840027        -2.91901347E-06
   80.5169983        -3.28811666E-06
   80.6500015        -3.65131950E-06
   80.7829971        -4.00827275E-06
   80.9160004        -4.35863467E-06
   81.0490036        -4.70207897E-06
   81.1819992        -5.03829870E-06
   81.3150024        -5.36700963E-06
   81.4479980        -5.68795485E-06
   81.5810013        -6.00091153E-06
   81.7139969        -6.30568366E-06
   81.8470001        -6.60211344E-06
   81.9800034        -6.89006674E-06
   82.1129990        -7.16943714E-06
   82.2460022        -7.44013323E-06
   82.3789978        -7.70207589E-06
   82.5120010        -7.95518645E-06
   82.6449966        -8.19937941E-06
   82.7779999        -8.43456110E-06
   82.9110031        -8.66062510E-06
   83.0439987        -8.87744682E-06
   83.1770020        -9.08489528E-06