  -24.4200001       0.00000000    
  -24.2900009       7.78700784E-11
  -24.1599998       2.22811464E-10
  -24.0300007       4.11309153E-10
  -23.8999996       6.13141815E-10
  -23.7700005       7.99008415E-10
  -23.6399994       9.47860901E-10
  -23.5100002       1.05211173E-09
  -23.3799992       1.11941922E-09
  -23.2500000       1.17061849E-09
  -23.1200008       1.23433552E-09
  -22.9899998       1.33965050E-09
  -22.8600006       1.50866952E-09
  -22.7299995       1.75087878E-09
  -22.6000004       2.06070738E-09
  -22.4699993       2.41891152E-09
  -22.3400002       2.79743118E-09
  -22.2099991       3.16649973E-09
  -22.0799999       3.50221141E-09
  -21.9500008       3.79264709E-09
  -21.8199997       4.04101286E-09
  -21.6900005       4.26500213E-09
  -21.5599995       4.49253701E-09
  -21.4300003       4.75496131E-09
  -21.2999992       5.07939157E-09
  -21.1700001       5.48214851E-09
  -21.0400009       5.96491656E-09
  -20.9099998       6.51460885E-09
  -20.7800007       7.10695636E-09
  -20.6499996       7.71294140E-09
  -20.5200005       8.30643820E-09
  -20.3899994       8.87116069E-09
  -20.2600002       9.40515577E-09
  -20.1299992       9.92171145E-09
  -20.0000000       1.04464544E-08
  -19.8700008       1.10113438E-08
  -19.7399998       1.16470904E-08
  -19.6100006       1.23758719E-08
  -19.4799995       1.32062059E-08
  -19.3500004       1.41312269E-08
  -19.2199993       1.51308459E-08
  -19.0900002       1.61772054E-08
  -18.9599991       1.72420975E-08
  -18.8299999       1.83044424E-08
  -18.7000008       1.93559941E-08
  -18.5699997       2.04037995E-08
  -18.4400005       2.14688409E-08
  -18.3099995       2.25811654E-08
  -18.1800003       2.37727775E-08
  -18.0499992       2.50700598E-08
  -17.9200001       2.64876530E-08
  -17.7900009       2.80253101E-08
  -17.6599998       2.96685698E-08
  -17.5300007       3.13930180E-08
  -17.3999996       3.31711014E-08
  -17.2700005       3.49797808E-08
  -17.1399994       3.68070623E-08
  -17.0100002       3.86557737E-08
  -16.8799992       4.05436644E-08
  -16.7500000       4.24997069E-08
  -16.6200008       4.45576589E-08
  -16.4899998       4.67483403E-08
  -16.3600006       4.90927263E-08
  -16.2299995       5.15974286E-08
  -16.1000004       5.42538388E-08
  -15.9700003       5.70410599E-08
  -15.8400002       5.99319279E-08
  -15.7100000       6.29006038E-08
  -15.5799999       6.59298749E-08
  -15.4499998       6.90162381E-08
  -15.3199997       7.21716731E-08
  -15.1899996       7.54213971E-08
  -15.0600004       7.87984504E-08
  -14.9300003       8.23362996E-08
  -14.8000002       8.60613198E-08
  -14.6700001       8.99871182E-08
  -14.5400000       9.41121030E-08
  -14.4099998       9.84207915E-08
  -14.2799997       1.02888677E-07
  -14.1499996       1.07489363E-07
  -14.0200005       1.12202116E-07
  -13.8900003       1.17018004E-07
  -13.7600002       1.21943103E-07
  -13.6300001       1.26997790E-07
  -13.5000000       1.32212520E-07
  -13.3699999       1.37621100E-07
  -13.2399998       1.43252933E-07
  -13.1099997       1.49126592E-07
  -12.9799995       1.55245971E-07
  -12.8500004       1.61600198E-07
  -12.7200003       1.68167304E-07
  -12.5900002       1.74920629E-07
  -12.4600000       1.81836569E-07
  -12.3299999       1.88901339E-07
  -12.1999998       1.96115550E-07
  -12.0699997       2.03494977E-07
  -11.9399996       2.11067572E-07
  -11.8100004       2.18867370E-07
  -11.6800003       2.26926957E-07
  -11.5500002       2.35270022E-07
  -11.4200001       2.43906385E-07
  -11.2900000       2.52830176E-07
  -11.1599998       2.62022070E-07
  -11.0299997       2.71454809E-07
  -10.8999996       2.81100569E-07
  -10.7700005       2.90938374E-07
  -10.6400003       3.00959897E-07
  -10.5100002       3.11171874E-07
  -10.3800001       3.21594655E-07
  -10.2500000       3.32257542E-07
  -10.1199999       3.43191402E-07
  -9.98999977       3.54421530E-07
  -9.85999966       3.65961171E-07
  -9.72999954       3.77808647E-07
  -9.60000038       3.89947786E-07
  -9.47000027       4.02352384E-07
  -9.34000015       4.14992712E-07
  -9.21000004       4.27843190E-07
  -9.07999992       4.40888783E-07
  -8.94999981       4.54128696E-07
  -8.81999969       4.67576399E-07
  -8.68999958       4.81255711E-07
  -8.56000042       4.95194683E-07
  -8.43000031       5.09417646E-07
  -8.30000019       5.23938184E-07
  -8.17000008       5.38755160E-07
  -8.03999996       5.53851521E-07
  -7.90999985       5.69197368E-07
  -7.78000021       5.84756663E-07
  -7.65000010       6.00494161E-07
  -7.51999998       6.16383659E-07
  -7.38999987       6.32412366E-07
  -7.26000023       6.48583352E-07
  -7.13000011       6.64912989E-07
  -7.00000000       6.81425661E-07
  -6.86999989       6.98146039E-07
  -6.73999977       7.15091744E-07
  -6.61000013       7.32267210E-07
  -6.48000002       7.49661240E-07
  -6.34999990       7.67248139E-07
  -6.21999979       7.84992267E-07
  -6.09000015       8.02855027E-07
  -5.96000004       8.20802086E-07
  -5.82999992       8.38809569E-07
  -5.69999981       8.56866507E-07
  -5.57000017       8.74974603E-07
  -5.44000006       8.93143522E-07
  -5.30999994       9.11384518E-07
  -5.17999983       9.29702765E-07
  -5.05000019       9.48091554E-07
  -4.92000008       9.66528205E-07
  -4.78999996       9.84974804E-07
  -4.65999985       1.00338264E-06
  -4.53000021       1.02169838E-06
  -4.40000010       1.03987293E-06
  -4.26999998       1.05786842E-06
  -4.13999987       1.07566268E-06
  -4.01000023       1.09325094E-06
  -3.88000011       1.11064276E-06
  -3.75000000       1.12785608E-06
  -3.61999989       1.14490945E-06
  -3.49000001       1.16181423E-06
  -3.35999990       1.17857007E-06
  -3.23000002       1.19516210E-06
  -3.09999990       1.21156279E-06
  -2.97000003       1.22773736E-06
  -2.83999991       1.24364988E-06
  -2.71000004       1.25927045E-06
  -2.57999992       1.27458111E-06
  -2.45000005       1.28957663E-06
  -2.31999993       1.30426372E-06
  -2.19000006       1.31865522E-06
  -2.05999994       1.33276353E-06
  -1.92999995       1.34659240E-06
  -1.79999995       1.36013057E-06
  -1.66999996       1.37335053E-06
  -1.53999996       1.38620726E-06
  -1.40999997       1.39864449E-06
  -1.27999997       1.41060059E-06
  -1.14999998       1.42201736E-06
  -1.01999998       1.43284763E-06
 -0.889999986       1.44305727E-06
 -0.759999990       1.45262754E-06
 -0.629999995       1.46155071E-06
 -0.500000000       1.46982461E-06
 -0.370000005       1.47744504E-06
 -0.239999995       1.48439801E-06
 -0.109999999       1.49065681E-06
   1.99999996E-02   1.49618143E-06
  0.150000006       1.50092046E-06
  0.280000001       1.50481901E-06
  0.409999996       1.50782500E-06
  0.540000021       1.50989740E-06
  0.670000017       1.51101085E-06
  0.800000012       1.51115796E-06
  0.930000007       1.51034658E-06
   1.05999994       1.50859375E-06
   1.19000006       1.50591927E-06
   1.32000005       1.50233723E-06
   1.45000005       1.49785080E-06
   1.58000004       1.49244897E-06
   1.71000004       1.48610900E-06
   1.84000003       1.47879894E-06
   1.97000003       1.47048650E-06
   2.09999990       1.46114451E-06
   2.23000002       1.45075808E-06
   2.35999990       1.43932687E-06
   2.49000001       1.42686417E-06
   2.61999989       1.41339160E-06
   2.75000000       1.39893416E-06
   2.88000011       1.38350993E-06
   3.00999999       1.36712504E-06
   3.14000010       1.34977029E-06
   3.26999998       1.33142066E-06
   3.40000010       1.31203956E-06
   3.52999997       1.29158570E-06
   3.66000009       1.27002102E-06
   3.78999996       1.24731866E-06
   3.92000008       1.22346739E-06
   4.05000019       1.19847255E-06
   4.17999983       1.17235390E-06
   4.30999994       1.14514035E-06
   4.44000006       1.11686120E-06
   4.57000017       1.08754011E-06
   4.69999981       1.05718937E-06
   4.82999992       1.02580941E-06
   4.96000004       9.93389904E-07
   5.09000015       9.59916520E-07
   5.21999979       9.25377208E-07
   5.34999990       8.89768785E-07
   5.48000002       8.53103472E-07
   5.61000013       8.15411397E-07
   5.73999977       7.76738261E-07
   5.86999989       7.37139260E-07
   6.00000000       6.96673908E-07
   6.13000011       6.55396491E-07
   6.26000023       6.13351688E-07
   6.38999987       5.70569625E-07
   6.51999998       5.27069005E-07
   6.65000010       4.82859377E-07
   6.78000021       4.37949041E-07
   6.90999985       3.92353968E-07
   7.03999996       3.46102638E-07
   7.17000008       2.99240099E-07
   7.30000019       2.51828283E-07
   7.42999983       2.03941880E-07
   7.55999994       1.55661922E-07
   7.69000006       1.07066846E-07
   7.82000017       5.82266608E-08
   7.94999981       9.19859211E-09
   8.07999992      -3.99754363E-08
   8.21000004      -8.92638141E-08
   8.34000015      -1.38641241E-07
   8.47000027      -1.88079255E-07
   8.60000038      -2.37540718E-07
   8.72999954      -2.86973716E-07
   8.85999966      -3.36309000E-07
   8.98999977      -3.85463693E-07
   9.11999989      -4.34344400E-07
   9.25000000      -4.82856308E-07
   9.38000011      -5.30908778E-07
   9.51000023      -5.78420781E-07
   9.64000034      -6.25323082E-07
   9.77000046      -6.71557018E-07
   9.89999962      -7.17068247E-07
   10.0299997      -7.61800436E-07
   10.1599998      -8.05687705E-07
   10.2900000      -8.48649336E-07
   10.4200001      -8.90585909E-07
   10.5500002      -9.31381749E-07
   10.6800003      -9.70908900E-07
   10.8100004      -1.00903537E-06
   10.9399996      -1.04563333E-06
   11.0699997      -1.08058509E-06
   11.1999998      -1.11378915E-06
   11.3299999      -1.14515865E-06
   11.4600000      -1.17462014E-06
   11.5900002      -1.20210564E-06
   11.7200003      -1.22754534E-06
   11.8500004      -1.25086137E-06
   11.9799995      -1.27196336E-06
   12.1099997      -1.29074624E-06
   12.2399998      -1.30709464E-06
   12.3699999      -1.32088780E-06
   12.5000000      -1.33200706E-06
   12.6300001      -1.34034246E-06
   12.7600002      -1.34579761E-06
   12.8900003      -1.34829111E-06
   13.0200005      -1.34775439E-06
   13.1499996      -1.34412562E-06
   13.2799997      -1.33734318E-06
   13.4099998      -1.32733703E-06
   13.5400000      -1.31402487E-06
   13.6700001      -1.29730881E-06
   13.8000002      -1.27707744E-06
   13.9300003      -1.25321037E-06
   14.0600004      -1.22558686E-06
   14.1899996      -1.19409242E-06
   14.3199997      -1.15862633E-06
   14.4499998      -1.11910379E-06
   14.5799999      -1.07545600E-06
   14.7100000      -1.02762613E-06
   14.8400002      -9.75561647E-07
   14.9700003      -9.19206627E-07
   15.1000004      -8.58497401E-07
   15.2299995      -7.93355809E-07
   15.3599997      -7.23691983E-07
   15.4899998      -6.49407241E-07
   15.6199999      -5.70400516E-07
   15.7500000      -4.86578529E-07
   15.8800001      -3.97860447E-07
   16.0100002      -3.04184226E-07
   16.1399994      -2.05505714E-07
   16.2700005      -1.01800104E-07
   16.3999996       6.94942903E-09
   16.5300007       1.20755516E-07
   16.6599998       2.39633579E-07
   16.7900009       3.63608478E-07
   16.9200001       4.92714264E-07
   17.0499992       6.26993028E-07
   17.1800003       7.66488995E-07
   17.3099995       9.11240306E-07
   17.4400005       1.06127266E-06
   17.5699997       1.21659332E-06
   17.7000008       1.37718973E-06
   17.8299999       1.54302950E-06
   17.9599991       1.71406839E-06
   18.0900002       1.89025491E-06
   18.2199993       2.07153926E-06
   18.3500004       2.25788017E-06
   18.4799995       2.44924809E-06
   18.6100006       2.64562073E-06
   18.7399998       2.84698331E-06
   18.8700008       3.05331787E-06
   19.0000000       3.26459940E-06
   19.1299992       3.48078561E-06
   19.2600002       3.70181374E-06
   19.3899994       3.92760103E-06
   19.5200005       4.15804925E-06
   19.6499996       4.39304949E-06
   19.7800007       4.63249216E-06
   19.9099998       4.87626994E-06
   20.0400009       5.12428733E-06
   20.1700001       5.37645928E-06
   20.2999992       5.63270714E-06
   20.4300003       5.89295587E-06
   20.5599995       6.15712270E-06
   20.6900005       6.42511395E-06
   20.8199997       6.69681640E-06
   20.9500008       6.97209953E-06
   21.0799999       7.25081372E-06
   21.2099991       7.53279755E-06
   21.3400002       7.81788640E-06
   21.4699993       8.10591882E-06
   21.6000004       8.39673976E-06
   21.7299995       8.69020278E-06
   21.8600006       8.98617327E-06
   21.9899998       9.28451936E-06
   22.1200008       9.58510373E-06
   22.2500000       9.88777720E-06
   22.3799992       1.01923733E-05
   22.5100002       1.04987057E-05
   22.6399994       1.08065669E-05
   22.7700005       1.11157369E-05
   22.8999996       1.14259847E-05
   23.0300007       1.17370810E-05
   23.1599998       1.20488039E-05
   23.2900009       1.23609461E-05
   23.4200001       1.26733103E-05
   23.5499992       1.29857108E-05
   23.6800003       1.32979667E-05
   23.8099995       1.36098906E-05
   23.9400005       1.39212871E-05
   24.0699997       1.42319450E-05
   24.2000008       1.45416407E-05
   24.3299999       1.48501340E-05
   24.4599991       1.51571812E-05
   24.5900002       1.54625413E-05
   24.7199993       1.57659797E-05
   24.8500004       1.60672735E-05
   24.9799995       1.63662171E-05
   25.1100006       1.66626160E-05
   25.2399998       1.69562791E-05
   25.3700008       1.72470191E-05
   25.5000000       1.75346377E-05
   25.6299992       1.78189221E-05
   25.7600002       1.80996449E-05
   25.8899994       1.83765624E-05
   26.0200005       1.86494235E-05
   26.1499996       1.89179736E-05
   26.2800007       1.91819654E-05
   26.4099998       1.94411659E-05
   26.5400009       1.96953624E-05
   26.6700001       1.99443566E-05
   26.7999992       2.01879629E-05
   26.9300003       2.04260050E-05
   27.0599995       2.06583063E-05
   27.1900005       2.08846814E-05
   27.3199997       2.11049373E-05
   27.4500008       2.13188687E-05
   27.5799999       2.15262608E-05
   27.7099991       2.17269044E-05
   27.8400002       2.19205886E-05
   27.9699993       2.21071241E-05
   28.1000004       2.22863346E-05
   28.2299995       2.24580672E-05
   28.3600006       2.26221819E-05
   28.4899998       2.27785495E-05
   28.6200008       2.29270427E-05
   28.7500000       2.30675269E-05
   28.8799992       2.31998583E-05
   29.0100002       2.33238807E-05
   29.1399994       2.34394229E-05
   29.2700005       2.35463158E-05
   29.3999996       2.36443921E-05
   29.5300007       2.37334934E-05
   29.6599998       2.38134799E-05
   29.7900009       2.38842294E-05
   29.9200001       2.39456404E-05
   30.0499992       2.39976234E-05
   30.1800003       2.40400950E-05
   30.3099995       2.40729751E-05
   30.4400005       2.40961708E-05
   30.5699997       2.41095786E-05
   30.7000008       2.41130929E-05
   30.8299999       2.41065954E-05
   30.9599991       2.40899699E-05
   31.0900002       2.40631161E-05
   31.2199993       2.40259451E-05
   31.3500004       2.39783876E-05
   31.4799995       2.39203946E-05
   31.6100006       2.38519369E-05
   31.7399998       2.37729892E-05
   31.8700008       2.36835331E-05
   32.0000000       2.35835414E-05
   32.1300011       2.34729814E-05
   32.2599983       2.33518058E-05
   32.3899994       2.32199636E-05
   32.5200005       2.30773985E-05
   32.6500015       2.29240632E-05
   32.7799988       2.27599194E-05
   32.9099998       2.25849490E-05
   33.0400009       2.23991574E-05
   33.1699982       2.22025574E-05
   33.2999992       2.19951835E-05
   33.4300003       2.17770721E-05
   33.5600014       2.15482542E-05
   33.6899986       2.13087551E-05
   33.8199997       2.10585895E-05
   33.9500008       2.07977591E-05
   34.0800018       2.05262622E-05
   34.2099991       2.02441006E-05
   34.3400002       1.99512851E-05
   34.4700012       1.96478450E-05
   34.5999985       1.93338255E-05
   34.7299995       1.90092960E-05
   34.8600006       1.86743364E-05
   34.9900017       1.83290358E-05
   35.1199989       1.79734852E-05
   35.2500000       1.76077683E-05
   35.3800011       1.72319596E-05
   35.5099983       1.68461229E-05
   35.6399994       1.64503199E-05
   35.7700005       1.60446034E-05
   35.9000015       1.56290444E-05
   36.0299988       1.52037182E-05
   36.1599998       1.47687260E-05
   36.2900009       1.43241850E-05
   36.4199982       1.38702298E-05
   36.5499992       1.34070069E-05
   36.6800003       1.29346627E-05
   36.8100014       1.24533444E-05
   36.9399986       1.19631832E-05
   37.0699997       1.14643044E-05
   37.2000008       1.09568209E-05
   37.3300018       1.04408446E-05
   37.4599991       9.91648812E-06
   37.5900002       9.38387711E-06
   37.7200012       8.84315614E-06
   37.8499985       8.29448800E-06
   37.9799995       7.73805459E-06
   38.1100006       7.17405010E-06
   38.2400017       6.60267960E-06
   38.3699989       6.02414411E-06
   38.5000000       5.43863871E-06
   38.6300011       4.84634847E-06
   38.7599983       4.24745031E-06
   38.8899994       3.64211269E-06
   39.0200005       3.03050774E-06
   39.1500015       2.41281714E-06
   39.2799988       1.78923597E-06
   39.4099998       1.15998023E-06
   39.5400009       5.25284122E-07
   39.6699982      -1.14598691E-07
   39.7999992      -7.59405850E-07
   39.9300003      -1.40887323E-06
   40.0600014      -2.06274035E-06
   40.1899986      -2.72075704E-06
   40.3199997      -3.38268092E-06
   40.4500008      -4.04827733E-06
   40.5800018      -4.71731119E-06
   40.7099991      -5.38954191E-06
   40.8400002      -6.06471440E-06
   40.9700012      -6.74255671E-06
   41.0999985      -7.42277280E-06
   41.2299995      -8.10504935E-06
   41.3600006      -8.78906212E-06
   41.4900017      -9.47448098E-06
   41.6199989      -1.01609767E-05
   41.7500000      -1.08482345E-05
   41.8800011      -1.15359499E-05
   42.0099983      -1.22238271E-05
   42.1399994      -1.29115788E-05
   42.2700005      -1.35989176E-05
   42.4000015      -1.42855470E-05
   42.5299988      -1.49711568E-05
   42.6599998      -1.56554197E-05
   42.7900009      -1.63379918E-05
   42.9199982      -1.70185176E-05
   43.0499992      -1.76966350E-05
   43.1800003      -1.83719840E-05
   43.3100014      -1.90442133E-05
   43.4399986      -1.97129866E-05
   43.5699997      -2.03779764E-05
   43.7000008      -2.10388662E-05
   43.8300018      -2.16953431E-05
   43.9599991      -2.23470852E-05
   44.0900002      -2.29937687E-05
   44.2200012      -2.36350425E-05
   44.3499985      -2.42705464E-05
   44.4799995      -2.48999004E-05
   44.6100006      -2.55227242E-05
   44.7400017      -2.61386303E-05
   44.8699989      -2.67472496E-05
   45.0000000      -2.73482201E-05
   45.1300011      -2.79411997E-05
   45.2599983      -2.85258629E-05
   45.3899994      -2.91018914E-05
   45.5200005      -2.96689650E-05
   45.6500015      -3.02267690E-05
   45.7799988      -3.07749688E-05
   45.9099998      -3.13132223E-05
   46.0400009      -3.18411730E-05
   46.1699982      -3.23584682E-05
   46.2999992      -3.28647402E-05
   46.4300003      -3.33596508E-05
   46.5600014      -3.38428581E-05
   46.6899986      -3.43140600E-05
   46.8199997      -3.47729656E-05
   46.9500008      -3.52192947E-05
   47.0800018      -3.56527853E-05
   47.2099991      -3.60731792E-05
   47.3400002      -3.64802072E-05
   47.4700012      -3.68735928E-05
   47.5999985      -3.72530631E-05
   47.7299995      -3.76183307E-05
   47.8600006      -3.79691191E-05
   47.9900017      -3.83051593E-05
   48.1199989      -3.86262072E-05
   48.2500000      -3.89320412E-05
   48.3800011      -3.92224647E-05
   48.5099983      -3.94973031E-05
   48.6399994      -3.97563999E-05
   48.7700005      -3.99996097E-05
   48.9000015      -4.02267833E-05
   49.0299988      -4.04377679E-05
   49.1599998      -4.06324143E-05
   49.2900009      -4.08105552E-05
   49.4199982      -4.09720451E-05
   49.5499992      -4.11167275E-05
   49.6800003      -4.12444861E-05
   49.8100014      -4.13552116E-05
   49.9399986      -4.14488240E-05
   50.0699997      -4.15252798E-05
   50.2000008      -4.15845425E-05
   50.3300018      -4.16266012E-05
   50.4599991      -4.16514486E-05
   50.5900002      -4.16590665E-05
   50.7200012      -4.16494477E-05
   50.8499985      -4.16225812E-05
   50.9799995      -4.15784525E-05
   51.1100006      -4.15170689E-05
   51.2400017      -4.14384376E-05
   51.3699989      -4.13426023E-05
   51.5000000      -4.12296395E-05
   51.6300011      -4.10996472E-05
   51.7599983      -4.09527493E-05
   51.8899994      -4.07890911E-05
   52.0200005      -4.06088184E-05
   52.1500015      -4.04120947E-05
   52.2799988      -4.01990728E-05
   52.4099998      -3.99698984E-05
   52.5400009      -3.97247313E-05
   52.6699982      -3.94637173E-05
   52.7999992      -3.91870271E-05
   52.9300003      -3.88948574E-05
   53.0600014      -3.85874118E-05
   53.1899986      -3.82649378E-05
   53.3199997      -3.79276935E-05
   53.4500008      -3.75759628E-05
   53.5800018      -3.72100440E-05
   53.7099991      -3.68302281E-05
   53.8400002      -3.64368061E-05
   53.9700012      -3.60300692E-05
   54.0999985      -3.56102901E-05
   54.2299995      -3.51777562E-05
   54.3600006      -3.47327477E-05
   54.4900017      -3.42755739E-05
   54.6199989      -3.38065474E-05
   54.7500000      -3.33260105E-05
   54.8800011      -3.28343303E-05
   55.0099983      -3.23318818E-05
   55.1399994      -3.18190614E-05
   55.2700005      -3.12962620E-05
   55.4000015      -3.07638729E-05
   55.5299988      -3.02222743E-05
   55.6599998      -2.96718426E-05
   55.7900009      -2.91129454E-05
   55.9199982      -2.85459519E-05
   56.0499992      -2.79712403E-05
   56.1800003      -2.73892019E-05
   56.3100014      -2.68002514E-05
   56.4399986      -2.62048197E-05
   56.5699997      -2.56033582E-05
   56.7000008      -2.49963268E-05
   56.8300018      -2.43841841E-05
   56.9599991      -2.37673903E-05
   57.0900002      -2.31463837E-05
   57.2200012      -2.25215972E-05
   57.3499985      -2.18934438E-05
   57.4799995      -2.12623290E-05
   57.6100006      -2.06286531E-05
   57.7400017      -1.99928236E-05
   57.8699989      -1.93552569E-05
   58.0000000      -1.87163769E-05
   58.1300011      -1.80766256E-05
   58.2599983      -1.74364413E-05
   58.3899994      -1.67962662E-05
   58.5200005      -1.61565295E-05
   58.6500015      -1.55176422E-05
   58.7799988      -1.48799982E-05
   58.9099998      -1.42439721E-05
   59.0400009      -1.36099252E-05
   59.1699982      -1.29782075E-05
   59.2999992      -1.23491700E-05
   59.4300003      -1.17231748E-05
   59.5600014      -1.11005866E-05
   59.6899986      -1.04817873E-05
   59.8199997      -9.86716168E-06
   59.9500008      -9.25709446E-06
   60.0800018      -8.65196580E-06
   60.2099991      -8.05213676E-06
   60.3400002      -7.45794978E-06
   60.4700012      -6.86972726E-06
   60.5999985      -6.28776843E-06
   60.7299995      -5.71236251E-06
   60.8600006      -5.14378689E-06
   60.9900017      -4.58232262E-06
   61.1199989      -4.02825481E-06
   61.2500000      -3.48187655E-06
   61.3800011      -2.94348570E-06
   61.5099983      -2.41337852E-06
   61.6399994      -1.89184618E-06
   61.7700005      -1.37916277E-06
   61.9000015      -8.75584192E-07
   62.0299988      -3.81341977E-07
   62.1599998       1.03353173E-07
   62.2900009       5.78307890E-07
   62.4199982       1.04333958E-06
   62.5499992       1.49826610E-06
   62.6800003       1.94290124E-06
   62.8100014       2.37705353E-06
   62.9399986       2.80052200E-06
   63.0699997       3.21310654E-06
   63.2000008       3.61460934E-06
   63.3300018       4.00484623E-06
   63.4599991       4.38365214E-06
   63.5900002       4.75088655E-06
   63.7200012       5.10643395E-06
   63.8499985       5.45019702E-06
   63.9799995       5.78209574E-06
   64.1100006       6.10205188E-06
   64.2399979       6.40999042E-06
   64.3700027       6.70582858E-06
   64.5000000       6.98947542E-06
   64.6299973       7.26083408E-06
   64.7600021       7.51980951E-06
   64.8899994       7.76631350E-06
   65.0199966       8.00027101E-06
   65.1500015       8.22162565E-06
   65.2799988       8.43034468E-06
   65.4100037       8.62640900E-06
   65.5400009       8.80981679E-06
   65.6699982       8.98057078E-06
   65.8000031       9.13866825E-06
   65.9300003       9.28410464E-06
   66.0599976       9.41686085E-06
   66.1900024       9.53691233E-06
   66.3199997       9.64422816E-06
   66.4499969       9.73878377E-06
   66.5800018       9.82056281E-06
   66.7099991       9.88956708E-06
   66.8399963       9.94582115E-06
   66.9700012       9.98936684E-06
   67.0999985       1.00202651E-05
   67.2300034       1.00385842E-05
   67.3600006       1.00443940E-05
   67.4899979       1.00377611E-05
   67.6200027       1.00187417E-05
   67.7500000       9.98738506E-06
   67.8799973       9.94373113E-06
   68.0100021       9.88782085E-06
   68.1399994       9.81970697E-06
   68.2699966       9.73945134E-06
   68.4000015       9.64714036E-06
   68.5299988       9.54287589E-06
   68.6600037       9.42677980E-06
   68.7900009       9.29898579E-06
   68.9199982       9.15962937E-06
   69.0500031       9.00884334E-06
   69.1800003       8.84674955E-06
   69.3099976       8.67346080E-06
   69.4400024       8.48908076E-06
   69.5699997       8.29370674E-06
   69.6999969       8.08743971E-06
   69.8300018       7.87039335E-06
   69.9599991       7.64269589E-06
   70.0899963       7.40449423E-06
   70.2200012       7.15595252E-06
   70.3499985       6.89724857E-06
   70.4800034       6.62856610E-06
   70.6100006       6.35008655E-06
   70.7399979       6.06198546E-06
   70.8700027       5.76442744E-06
   71.0000000       5.45756711E-06
   71.1299973       5.14155317E-06
   71.2600021       4.81653524E-06
   71.3899994       4.48267429E-06
   71.5199966       4.14014630E-06
   71.6500015       3.78914592E-06
   71.7799988       3.42988892E-06
   71.9100037       3.06260768E-06
   72.0400009       2.68754411E-06
   72.1699982       2.30494402E-06
   72.3000031       1.91504637E-06
   72.4300003       1.51808217E-06
   72.5599976       1.11427312E-06
   72.6900024       7.03828789E-07
   72.8199997       2.86958340E-07
   72.9499969      -1.36125408E-07
   73.0800018      -5.65197581E-07
   73.2099991      -1.00001398E-06
   73.3399963      -1.44031617E-06
   73.4700012      -1.88582680E-06
   73.5999985      -2.33625678E-06
   73.7300034      -2.79131541E-06
   73.8600006      -3.25071551E-06
   73.9899979      -3.71417946E-06
   74.1200027      -4.18144100E-06
   74.2500000      -4.65224593E-06
   74.3799973      -5.12634324E-06
   74.5100021      -5.60348553E-06
   74.6399994      -6.08341361E-06
   74.7699966      -6.56585735E-06
   74.9000015      -7.05052707E-06
   75.0299988      -7.53711674E-06
   75.1600037      -8.02531213E-06
   75.2900009      -8.51478853E-06
   75.4199982      -9.00523173E-06
   75.5500031      -9.49633159E-06
   75.6800003      -9.98779615E-06
   75.8099976      -1.04793471E-05
   75.9400024      -1.09707189E-05
   76.0699997      -1.14616514E-05
   76.1999969      -1.19518818E-05
   76.3300018      -1.24411381E-05
   76.4599991      -1.29291348E-05
   76.5899963      -1.34155744E-05
   76.7200012      -1.39001440E-05
   76.8499985      -1.43825255E-05
   76.9800034      -1.48624049E-05
   77.1100006      -1.53394703E-05
   77.2399979      -1.58134335E-05
   77.3700027      -1.62840115E-05
   77.5000000      -1.67509425E-05
   77.6299973      -1.72139662E-05
   77.7600021      -1.76728281E-05
   77.8899994      -1.81272662E-05
   78.0199966      -1.85770059E-05
   78.1500015      -1.90217634E-05
   78.2799988      -1.94612367E-05
   78.4100037      -1.98951257E-05
   78.5400009      -2.03231302E-05
   78.6699982      -2.07449557E-05
   78.8000031      -2.11603274E-05
   78.9300003      -2.15689925E-05
   79.0599976      -2.19707163E-05
   79.1900024      -2.23652823E-05
   79.3199997      -2.27524833E-05
   79.4499969      -2.31321137E-05
   79.5800018      -2.35039661E-05
   79.7099991      -2.38678240E-05
   79.8399963      -2.42234601E-05
   79.9700012      -2.45706469E-05
   80.0999985      -2.49091554E-05
   80.2300034      -2.52387617E-05
   80.3600006      -2.55592659E-05
   80.4899979      -2.58704804E-05
   80.6200027      -2.61722416E-05
   80.7500000      -2.64644059E-05
   80.8799973      -2.67468367E-05
   81.0100021      -2.70194105E-05
   81.1399994      -2.72819907E-05
   81.2699966      -2.75344428E-05
   81.4000015      -2.77766176E-05
   81.5299988      -2.80083623E-05
   81.6600037      -2.82295277E-05
   81.7900009      -2.84399648E-05
   81.9199982      -2.86395498E-05
   82.0500031      -2.88281735E-05
   82.1800003      -2.90057505E-05
   82.3099976      -2.91722226E-05
   82.4400024      -2.93275443E-05
   82.5699997      -2.94716847E-05
   82.6999969      -2.96046110E-05
   82.8300018      -2.97262904E-05
   82.9599991      -2.98366831E-05
   83.0899963      -2.99357416E-05
   83.2200012      -3.00234096E-05
   83.3499985      -3.00996453E-05
   83.4800034      -3.01644086E-05
   83.6100006      -3.02176832E-05
   83.7399979      -3.02594690E-05
   83.8700027      -3.02897915E-05
   84.0000000      -3.03086927E-05
   84.1299973      -3.03162251E-05
   84.2600021      -3.03124452E-05
   84.3899994      -3.02974058E-05
   84.5199966      -3.02711560E-05
   84.6500015      -3.02337303E-05
   84.7799988      -3.01851633E-05
   84.9100037      -3.01254840E-05
   85.0400009      -3.00547345E-05
   85.1699982      -2.99729691E-05
   85.3000031      -2.98802661E-05
   85.4300003      -2.97767201E-05
   85.5599976      -2.96624457E-05
   85.6900024      -2.95375776E-05
   85.8199997      -2.94022448E-05
   85.9499969      -2.92565837E-05
   86.0800018      -2.91007127E-05
   86.2099991      -2.89347481E-05
   86.3399963      -2.87587936E-05
   86.4700012      -2.85729493E-05
   86.5999985      -2.83773170E-05
   86.7300034      -2.81720077E-05
   86.8600006      -2.79571486E-05