  -18.8999996      -0.00000000    
  -18.7849998      -0.00000000    
  -18.6700001      -5.70004554E-15
  -18.5550003      -2.25521692E-14
  -18.4400005      -4.65565764E-14
  -18.3250008      -5.72119731E-14
  -18.2099991      -1.79345674E-14
  -18.0949993       1.13346527E-13
  -17.9799995       3.64935621E-13
  -17.8649998       7.29226141E-13
  -17.7500000       1.14600343E-12
  -17.6350002       1.49925851E-12
  -17.5200005       1.63229131E-12
  -17.4050007       1.38050606E-12
  -17.2900009       6.15556380E-13
  -17.1749992      -7.09734626E-13
  -17.0599995      -2.52753092E-12
  -16.9449997      -4.64195479E-12
  -16.8299999      -6.74177381E-12
  -16.7150002      -8.43767244E-12
  -16.6000004      -9.31759357E-12
  -16.4850006      -9.01037751E-12
  -16.3700008      -7.24752506E-12
  -16.2549992      -3.91488448E-12
  -16.1399994       9.10554943E-13
  -16.0249996       6.94040094E-12
  -15.9099998       1.36708448E-11
  -15.7950001       2.03944101E-11
  -15.6800003       2.62280128E-11
  -15.5649996       3.01591217E-11
  -15.4499998       3.11118908E-11
  -15.3350000       2.80332268E-11
  -15.2200003       1.99949848E-11
  -15.1049995       6.30346426E-12
  -14.9899998      -1.33970838E-11
  -14.8750000      -3.90426060E-11
  -14.7600002      -7.01037908E-11
  -14.6450005      -1.05587115E-10
  -14.5299997      -1.44085618E-10
  -14.4150000      -1.83874263E-10
  -14.3000002      -2.23037380E-10
  -14.1850004      -2.59611638E-10
  -14.0699997      -2.91726476E-10
  -13.9549999      -3.17725651E-10
  -13.8400002      -3.36258965E-10
  -13.7250004      -3.46336432E-10
  -13.6099997      -3.47343404E-10
  -13.4949999      -3.39016953E-10
  -13.3800001      -3.21386112E-10
  -13.2650003      -2.94681279E-10
  -13.1499996      -2.59218397E-10
  -13.0349998      -2.15268262E-10
  -12.9200001      -1.62924257E-10
  -12.8050003      -1.01985337E-10
  -12.6899996      -3.18734206E-11
  -12.5749998       4.83964084E-11
  -12.4600000       1.40181269E-10
  -12.3450003       2.45105519E-10
  -12.2299995       3.64893865E-10
  -12.1149998       5.01158781E-10
  -12.0000000       6.55170307E-10
  -11.8850002       8.27637181E-10
  -11.7700005       1.01853204E-09
  -11.6549997       1.22698351E-09
  -11.5400000       1.45125367E-09
  -11.4250002       1.68880199E-09
  -11.3100004       1.93643523E-09
  -11.1949997       2.19052598E-09
  -11.0799999       2.44728104E-09
  -10.9650002       2.70303735E-09
  -10.8500004       2.95455327E-09
  -10.7349997       3.19927129E-09
  -10.6199999       3.43553030E-09
  -10.5050001       3.66268704E-09
  -10.3900003       3.88114652E-09
  -10.2749996       4.09227274E-09
  -10.1599998       4.29819202E-09
  -10.0450001       4.50149962E-09
  -9.93000031       4.70488981E-09
  -9.81499958       4.91076557E-09
  -9.69999981       5.12086018E-09
  -9.58500004       5.33593036E-09
  -9.47000027       5.55555379E-09
  -9.35499954       5.77806736E-09
  -9.23999977       6.00066086E-09
  -9.12500000       6.21960972E-09
  -9.01000023       6.43062759E-09
  -8.89500046       6.62930999E-09
  -8.77999973       6.81160284E-09
  -8.66499996       6.97426650E-09
  -8.55000019       7.11524972E-09
  -8.43500042       7.23396854E-09
  -8.31999969       7.33141770E-09
  -8.20499992       7.41011830E-09
  -8.09000015       7.47387929E-09
  -7.97499990       7.52738849E-09
  -7.86000013       7.57568319E-09
  -7.74499989       7.62352670E-09
  -7.63000011       7.67476127E-09
  -7.51499987       7.73174769E-09
  -7.40000010       7.79489540E-09
  -7.28499985       7.86239962E-09
  -7.17000008       7.93020583E-09
  -7.05499983       7.99221578E-09
  -6.94000006       8.04071121E-09
  -6.82499981       8.06695777E-09
  -6.71000004       8.06193245E-09
  -6.59499979       8.01711941E-09
  -6.48000002       7.92518140E-09
  -6.36499977       7.78058595E-09
  -6.25000000       7.57996421E-09
  -6.13500023       7.32225747E-09
  -6.01999998       7.00857417E-09
  -5.90500021       6.64176714E-09
  -5.78999996       6.22578344E-09
  -5.67500019       5.76479797E-09
  -5.55999994       5.26229638E-09
  -5.44500017       4.72010120E-09
  -5.32999992       4.13754675E-09
  -5.21500015       3.51085139E-09
  -5.09999990       2.83279600E-09
  -4.98500013       2.09271245E-09
  -4.86999989       1.27684352E-09
  -4.75500011       3.69088538E-10
  -4.63999987      -6.48091303E-10
  -4.52500010      -1.79257398E-09
  -4.40999985      -3.08138848E-09
  -4.29500008      -4.52979121E-09
  -4.17999983      -6.15040019E-09
  -4.06500006      -7.95279576E-09
  -3.95000005      -9.94342475E-09
  -3.83500004      -1.21259820E-08
  -3.72000003      -1.45021186E-08
  -3.60500002      -1.70725105E-08
  -3.49000001      -1.98382129E-08
  -3.37500000      -2.28019399E-08
  -3.25999999      -2.59694755E-08
  -3.14499998      -2.93508045E-08
  -3.02999997      -3.29608270E-08
  -2.91499996      -3.68198201E-08
  -2.79999995      -4.09531999E-08
  -2.68499994      -4.53909017E-08
  -2.56999993      -5.01662960E-08
  -2.45499992      -5.53147714E-08
  -2.33999991      -6.08720612E-08
  -2.22499990      -6.68728006E-08
  -2.10999990      -7.33489856E-08
  -1.99500000      -8.03290021E-08
  -1.88000000      -8.78370798E-08
  -1.76499999      -9.58933697E-08
  -1.64999998      -1.04514619E-07
  -1.53499997      -1.13715295E-07
  -1.41999996      -1.23509196E-07
  -1.30499995      -1.33911257E-07
  -1.19000006      -1.44939534E-07
  -1.07500005      -1.56616821E-07
 -0.959999979      -1.68971923E-07
 -0.845000029      -1.82040878E-07
 -0.730000019      -1.95866463E-07
 -0.615000010      -2.10498229E-07
 -0.500000000      -2.25990945E-07
 -0.384999990      -2.42402820E-07
 -0.270000011      -2.59793296E-07
 -0.155000001      -2.78220568E-07
  -3.99999991E-02  -2.97739206E-07
   7.50000030E-02  -3.18398207E-07
  0.189999998      -3.40239694E-07
  0.305000007      -3.63298142E-07
  0.419999987      -3.87600608E-07
  0.535000026      -4.13168152E-07
  0.649999976      -4.40017004E-07
  0.764999986      -4.68162057E-07
  0.879999995      -4.97618714E-07
  0.995000005      -5.28405906E-07
   1.11000001      -5.60548813E-07
   1.22500002      -5.94080859E-07
   1.34000003      -6.29044223E-07
   1.45500004      -6.65490461E-07
   1.57000005      -7.03479486E-07
   1.68499994      -7.43077635E-07
   1.79999995      -7.84354825E-07
   1.91499996      -8.27381882E-07
   2.02999997      -8.72226849E-07
   2.14499998      -9.18951514E-07
   2.25999999      -9.67608116E-07
   2.37500000      -1.01823809E-06
   2.49000001      -1.07087067E-06
   2.60500002      -1.12552368E-06
   2.72000003      -1.18220339E-06
   2.83500004      -1.24090855E-06
   2.95000005      -1.30163278E-06
   3.06500006      -1.36436779E-06
   3.18000007      -1.42910778E-06
   3.29500008      -1.49585333E-06
   3.41000009      -1.56461260E-06
   3.52500010      -1.63540381E-06
   3.64000010      -1.70825604E-06
   3.75500011      -1.78320738E-06
   3.86999989      -1.86030320E-06
   3.98499990      -1.93959272E-06
   4.09999990      -2.02112437E-06
   4.21500015      -2.10494363E-06
   4.32999992      -2.19108733E-06
   4.44500017      -2.27958026E-06
   4.55999994      -2.37043446E-06
   4.67500019      -2.46364516E-06
   4.78999996      -2.55919372E-06
   4.90500021      -2.65704648E-06
   5.01999998      -2.75716002E-06
   5.13500023      -2.85948295E-06
   5.25000000      -2.96396206E-06
   5.36499977      -3.07054484E-06
   5.48000002      -3.17918330E-06
   5.59499979      -3.28983720E-06
   5.71000004      -3.40247584E-06
   5.82499981      -3.51707695E-06
   5.94000006      -3.63362483E-06
   6.05499983      -3.75210857E-06
   6.17000008      -3.87251430E-06
   6.28499985      -3.99482633E-06
   6.40000010      -4.11901328E-06
   6.51499987      -4.24503241E-06
   6.63000011      -4.37281778E-06
   6.74499989      -4.50228117E-06
   6.86000013      -4.63331025E-06
   6.97499990      -4.76576861E-06
   7.09000015      -4.89950116E-06
   7.20499992      -5.03433239E-06
   7.32000017      -5.17007584E-06
   7.43499994      -5.30653870E-06
   7.55000019      -5.44352861E-06
   7.66499996      -5.58085776E-06
   7.78000021      -5.71834516E-06
   7.89499998      -5.85582256E-06
   8.01000023      -5.99313535E-06
   8.12500000      -6.13013663E-06
   8.23999977      -6.26669043E-06
   8.35499954      -6.40266444E-06
   8.47000027      -6.53792540E-06
   8.58500004      -6.67233235E-06
   8.69999981      -6.80573430E-06
   8.81499958      -6.93796437E-06
   8.93000031      -7.06883839E-06
   9.04500008      -7.19815671E-06
   9.15999985      -7.32569697E-06
   9.27499962      -7.45122634E-06
   9.39000034      -7.57450425E-06
   9.50500011      -7.69528560E-06
   9.61999989      -7.81332983E-06
   9.73499966      -7.92840456E-06
   9.85000038      -8.04028969E-06
   9.96500015      -8.14878968E-06
   10.0799999      -8.25372445E-06
   10.1949997      -8.35493756E-06
   10.3100004      -8.45228442E-06
   10.4250002      -8.54564041E-06
   10.5400000      -8.63488458E-06
   10.6549997      -8.71989414E-06
   10.7700005      -8.80054358E-06
   10.8850002      -8.87669012E-06
   11.0000000      -8.94817640E-06
   11.1149998      -9.01482144E-06
   11.2299995      -9.07642334E-06
   11.3450003      -9.13275562E-06
   11.4600000      -9.18357728E-06
   11.5749998      -9.22863182E-06
   11.6899996      -9.26765915E-06
   11.8050003      -9.30039914E-06
   11.9200001      -9.32660168E-06
   12.0349998      -9.34603122E-06
   12.1499996      -9.35846492E-06
   12.2650003      -9.36369906E-06
   12.3800001      -9.36155175E-06
   12.4949999      -9.35185471E-06
   12.6099997      -9.33445335E-06
   12.7250004      -9.30919759E-06
   12.8400002      -9.27592828E-06
   12.9549999      -9.23448897E-06
   13.0699997      -9.18470232E-06
   13.1850004      -9.12637279E-06
   13.3000002      -9.05928118E-06
   13.4150000      -8.98318649E-06
   13.5299997      -8.89783678E-06
   13.6450005      -8.80295192E-06
   13.7600002      -8.69825544E-06
   13.8750000      -8.58345902E-06
   13.9899998      -8.45829163E-06
   14.1049995      -8.32248315E-06
   14.2200003      -8.17578621E-06
   14.3350000      -8.01796614E-06
   14.4499998      -7.84880194E-06
   14.5649996      -7.66810444E-06
   14.6800003      -7.47567492E-06
   14.7950001      -7.27131646E-06
   14.9099998      -7.05483126E-06
   15.0249996      -6.82600148E-06
   15.1400003      -6.58457066E-06
   15.2550001      -6.33025866E-06
   15.3699999      -6.06272943E-06
   15.4849997      -5.78161598E-06
   15.6000004      -5.48649086E-06
   15.7150002      -5.17689386E-06
   15.8299999      -4.85232704E-06
   15.9449997      -4.51226015E-06
   16.0599995      -4.15614431E-06
   16.1749992      -3.78341451E-06
   16.2900009      -3.39351027E-06
   16.4050007      -2.98586201E-06
   16.5200005      -2.55992109E-06
   16.6350002      -2.11513361E-06
   16.7500000      -1.65095923E-06
   16.8649998      -1.16684544E-06
   16.9799995      -6.62234299E-07
   17.0949993      -1.36555940E-07
   17.2099991       4.10789170E-07
   17.3250008       9.80429832E-07
   17.4400005       1.57303771E-06
   17.5550003       2.18933042E-06
   17.6700001       2.83007239E-06
   17.7849998       3.49607762E-06
   17.8999996       4.18818627E-06
   18.0149994       4.90728598E-06
   18.1299992       5.65428127E-06
   18.2450008       6.43009253E-06
   18.3600006       7.23564790E-06
   18.4750004       8.07186188E-06
   18.5900002       8.93964079E-06
   18.7049999       9.83987593E-06
   18.8199997       1.07734295E-05
   18.9349995       1.17411637E-05
   19.0499992       1.27439234E-05
   19.1650009       1.37825418E-05
   19.2800007       1.48578629E-05
   19.3950005       1.59707452E-05
   19.5100002       1.71220472E-05
   19.6250000       1.83126776E-05
   19.7399998       1.95435405E-05
   19.8549995       2.08155870E-05
   19.9699993       2.21297814E-05
   20.0849991       2.34871040E-05
   20.2000008       2.48885553E-05
   20.3150005       2.63351121E-05
   20.4300003       2.78277676E-05
   20.5450001       2.93674748E-05
   20.6599998       3.09551615E-05
   20.7749996       3.25917390E-05
   20.8899994       3.42780586E-05
   21.0049992       3.60149752E-05
   21.1200008       3.78032673E-05
   21.2350006       3.96437172E-05
   21.3500004       4.15370887E-05
   21.4650002       4.34841240E-05
   21.5799999       4.54855763E-05
   21.6949997       4.75421948E-05
   21.8099995       4.96547364E-05
   21.9249992       5.18239649E-05
   22.0400009       5.40506335E-05
   22.1550007       5.63355352E-05
   22.2700005       5.86794049E-05
   22.3850002       6.10829738E-05
   22.5000000       6.35469332E-05
   22.6149998       6.60719525E-05
   22.7299995       6.86585845E-05
   22.8449993       7.13073823E-05
   22.9599991       7.40187752E-05
   23.0750008       7.67931415E-05
   23.1900005       7.96307286E-05
   23.3050003       8.25317475E-05
   23.4200001       8.54962927E-05
   23.5349998       8.85244081E-05
   23.6499996       9.16160498E-05
   23.7649994       9.47711087E-05
   23.8799992       9.79893666E-05
   23.9950008       1.01270583E-04
   24.1100006       1.04614410E-04
   24.2250004       1.08020417E-04
   24.3400002       1.11488065E-04
   24.4549999       1.15016730E-04
   24.5699997       1.18605611E-04
   24.6849995       1.22253827E-04
   24.7999992       1.25960330E-04
   24.9150009       1.29723878E-04
   25.0300007       1.33543115E-04
   25.1450005       1.37416457E-04
   25.2600002       1.41342171E-04
   25.3750000       1.45318380E-04
   25.4899998       1.49342988E-04
   25.6049995       1.53413755E-04
   25.7199993       1.57528324E-04
   25.8349991       1.61684133E-04
   25.9500008       1.65878548E-04
   26.0650005       1.70108731E-04
   26.1800003       1.74371758E-04
   26.2950001       1.78664603E-04
   26.4099998       1.82984048E-04
   26.5249996       1.87326747E-04
   26.6399994       1.91689251E-04
   26.7549992       1.96067907E-04
   26.8700008       2.00458933E-04
   26.9850006       2.04858428E-04
   27.1000004       2.09262274E-04
   27.2150002       2.13666281E-04
   27.3299999       2.18065994E-04
   27.4449997       2.22456933E-04
   27.5599995       2.26834440E-04
   27.6749992       2.31193742E-04
   27.7900009       2.35529966E-04
   27.9050007       2.39838206E-04
   28.0200005       2.44113486E-04
   28.1350002       2.48350610E-04
   28.2500000       2.52544502E-04
   28.3649998       2.56689993E-04
   28.4799995       2.60781817E-04
   28.5949993       2.64814647E-04
   28.7099991       2.68783071E-04
   28.8250008       2.72681762E-04
   28.9400005       2.76505103E-04
   29.0550003       2.80247594E-04
   29.1700001       2.83903530E-04
   29.2849998       2.87467177E-04
   29.3999996       2.90932774E-04
   29.5149994       2.94294441E-04
   29.6299992       2.97546358E-04
   29.7450008       3.00682645E-04
   29.8600006       3.03697365E-04
   29.9750004       3.06584610E-04
   30.0900002       3.09338560E-04
   30.2049999       3.11953423E-04
   30.3199997       3.14423407E-04
   30.4349995       3.16742749E-04
   30.5499992       3.18905775E-04
   30.6650009       3.20906838E-04
   30.7800007       3.22740409E-04
   30.8950005       3.24400869E-04
   31.0100002       3.25882662E-04
   31.1250000       3.27180256E-04
   31.2399998       3.28288239E-04
   31.3549995       3.29201081E-04
   31.4699993       3.29913368E-04
   31.5849991       3.30419629E-04
   31.7000008       3.30714567E-04
   31.8150005       3.30792798E-04
   31.9300003       3.30649113E-04
   32.0449982       3.30278446E-04
   32.1599998       3.29675531E-04
   32.2750015       3.28835595E-04
   32.3899994       3.27753660E-04
   32.5050011       3.26425186E-04
   32.6199989       3.24845518E-04
   32.7350006       3.23010143E-04
   32.8499985       3.20914813E-04
   32.9650002       3.18555307E-04
   33.0800018       3.15927493E-04
   33.1949997       3.13027384E-04
   33.3100014       3.09851166E-04
   33.4249992       3.06394970E-04
   33.5400009       3.02655157E-04
   33.6549988       2.98628147E-04
   33.7700005       2.94310419E-04
   33.8849983       2.89698830E-04
   34.0000000       2.84790061E-04
   34.1150017       2.79581116E-04
   34.2299995       2.74069171E-04
   34.3450012       2.68251402E-04
   34.4599991       2.62125366E-04
   34.5750008       2.55688647E-04
   34.6899986       2.48939003E-04
   34.8050003       2.41874484E-04
   34.9199982       2.34493113E-04
   35.0349998       2.26793185E-04
   35.1500015       2.18772999E-04
   35.2649994       2.10431099E-04
   35.3800011       2.01766059E-04
   35.4949989       1.92776672E-04
   35.6100006       1.83461758E-04
   35.7249985       1.73820226E-04
   35.8400002       1.63851233E-04
   35.9550018       1.53553890E-04
   36.0699997       1.42927645E-04
   36.1850014       1.31971974E-04
   36.2999992       1.20686535E-04
   36.4150009       1.09071210E-04
   36.5299988       9.71259287E-05
   36.6450005       8.48509371E-05
   36.7599983       7.22465775E-05
   36.8750000       5.93133664E-05
   36.9900017       4.60518895E-05
   37.1049995       3.24630273E-05
   37.2200012       1.85476911E-05
   37.3349991       4.30703176E-06
   37.4500008      -1.02576996E-05
   37.5649986      -2.51451547E-05
   37.6800003      -4.03538361E-05
   37.7949982      -5.58819738E-05
   37.9099998      -7.17277217E-05
   38.0250015      -8.78889623E-05
   38.1399994      -1.04363360E-04
   38.2550011      -1.21148456E-04
   38.3699989      -1.38241448E-04
   38.4850006      -1.55639267E-04
   38.5999985      -1.73338529E-04
   38.7150002      -1.91335785E-04
   38.8300018      -2.09627062E-04
   38.9449997      -2.28208330E-04
   39.0600014      -2.47075164E-04
   39.1749992      -2.66223040E-04
   39.2900009      -2.85646995E-04
   39.4049988      -3.05341964E-04
   39.5200005      -3.25302768E-04
   39.6349983      -3.45523789E-04
   39.7500000      -3.65999236E-04
   39.8650017      -3.86723201E-04
   39.9799995      -4.07689309E-04
   40.0950012      -4.28891130E-04
   40.2099991      -4.50321910E-04
   40.3250008      -4.71974403E-04
   40.4399986      -4.93841304E-04
   40.5550003      -5.15914871E-04
   40.6699982      -5.38187218E-04
   40.7849998      -5.60649962E-04
   40.9000015      -5.83294546E-04
   41.0149994      -6.06112124E-04
   41.1300011      -6.29093498E-04
   41.2449989      -6.52229413E-04
   41.3600006      -6.75510266E-04
   41.4749985      -6.98926393E-04
   41.5900002      -7.22467783E-04
   41.7050018      -7.46124366E-04
   41.8199997      -7.69885839E-04
   41.9350014      -7.93741609E-04
   42.0499992      -8.17681081E-04
   42.1650009      -8.41693254E-04
   42.2799988      -8.65767011E-04
   42.3950005      -8.89891060E-04
   42.5099983      -9.14053700E-04
   42.6250000      -9.38243116E-04
   42.7400017      -9.62447375E-04
   42.8549995      -9.86654079E-04
   42.9700012      -1.01085054E-03
   43.0849991      -1.03502406E-03
   43.2000008      -1.05916162E-03
   43.3149986      -1.08325027E-03
   43.4300003      -1.10727677E-03
   43.5449982      -1.13122771E-03
   43.6599998      -1.15508935E-03
   43.7750015      -1.17884867E-03
   43.8899994      -1.20249158E-03
   44.0050011      -1.22600456E-03
   44.1199989      -1.24937412E-03
   44.2350006      -1.27258606E-03
   44.3499985      -1.29562686E-03
   44.4650002      -1.31848245E-03
   44.5800018      -1.34113885E-03
   44.6949997      -1.36358198E-03
   44.8100014      -1.38579786E-03
   44.9249992      -1.40777254E-03
   45.0400009      -1.42949168E-03
   45.1549988      -1.45094155E-03
   45.2700005      -1.47210783E-03
   45.3849983      -1.49297714E-03
   45.5000000      -1.51353586E-03
   45.6150017      -1.53377035E-03
   45.7299995      -1.55366771E-03
   45.8450012      -1.57321501E-03
   45.9599991      -1.59240002E-03
   46.0750008      -1.61121052E-03
   46.1899986      -1.62963523E-03
   46.3050003      -1.64766284E-03
   46.4199982      -1.66528276E-03
   46.5349998      -1.68248499E-03
   46.6500015      -1.69925950E-03
   46.7649994      -1.71559735E-03
   46.8800011      -1.73148979E-03
   46.9949989      -1.74692890E-03
   47.1100006      -1.76190760E-03
   47.2249985      -1.77641888E-03
   47.3400002      -1.79045671E-03
   47.4550018      -1.80401583E-03
   47.5699997      -1.81709195E-03
   47.6850014      -1.82968134E-03
   47.7999992      -1.84178166E-03
   47.9150009      -1.85339106E-03
   48.0299988      -1.86450896E-03
   48.1450005      -1.87513570E-03
   48.2599983      -1.88527256E-03
   48.3750000      -1.89492200E-03
   48.4900017      -1.90408737E-03
   48.6049995      -1.91277300E-03
   48.7200012      -1.92098448E-03
   48.8349991      -1.92872819E-03
   48.9500008      -1.93601195E-03
   49.0649986      -1.94284401E-03
   49.1800003      -1.94923405E-03
   49.2949982      -1.95519230E-03
   49.4099998      -1.96073065E-03
   49.5250015      -1.96586200E-03
   49.6399994      -1.97059941E-03
   49.7550011      -1.97495823E-03
   49.8699989      -1.97895477E-03
   49.9850006      -1.98260508E-03
   50.0999985      -1.98592758E-03
   50.2150002      -1.98894157E-03
   50.3300018      -1.99166662E-03
   50.4449997      -1.99412392E-03
   50.5600014      -1.99633511E-03
   50.6749992      -1.99832325E-03
   50.7900009      -2.00011139E-03
   50.9049988      -2.00172397E-03
   51.0200005      -2.00318592E-03
   51.1349983      -2.00452213E-03
   51.2500000      -2.00575939E-03
   51.3650017      -2.00692331E-03
   51.4799995      -2.00804090E-03
   51.5950012      -2.00913986E-03
   51.7099991      -2.01024720E-03
   51.8250008      -2.01139110E-03
   51.9399986      -2.01259926E-03
   52.0550003      -2.01389985E-03
   52.1699982      -2.01532105E-03
   52.2849998      -2.01689149E-03
   52.4000015      -2.01863842E-03
   52.5149994      -2.02059047E-03
   52.6300011      -2.02277466E-03
   52.7449989      -2.02521798E-03
   52.8600006      -2.02794769E-03
   52.9749985      -2.03098892E-03
   53.0900002      -2.03436706E-03
   53.2050018      -2.03810609E-03
   53.3199997      -2.04222952E-03
   53.4350014      -2.04675901E-03
   53.5499992      -2.05171574E-03
   53.6650009      -2.05711927E-03
   53.7799988      -2.06298823E-03
   53.8950005      -2.06933892E-03
   54.0099983      -2.07618694E-03
   54.1250000      -2.08354602E-03
   54.2400017      -2.09142896E-03
   54.3549995      -2.09984602E-03
   54.4700012      -2.10880605E-03
   54.5849991      -2.11831555E-03
   54.7000008      -2.12837989E-03
   54.8149986      -2.13900232E-03
   54.9300003      -2.15018331E-03
   55.0449982      -2.16192147E-03
   55.1599998      -2.17421306E-03
   55.2750015      -2.18705297E-03
   55.3899994      -2.20043166E-03
   55.5050011      -2.21433933E-03
   55.6199989      -2.22876179E-03
   55.7350006      -2.24368460E-03
   55.8499985      -2.25908938E-03
   55.9650002      -2.27495492E-03
   56.0800018      -2.29126005E-03
   56.1949997      -2.30797846E-03
   56.3100014      -2.32508313E-03
   56.4249992      -2.34254496E-03
   56.5400009      -2.36033089E-03
   56.6549988      -2.37840810E-03
   56.7700005      -2.39673955E-03
   56.8849983      -2.41528754E-03
   57.0000000      -2.43401225E-03
   57.1150017      -2.45287060E-03
   57.2299995      -2.47181812E-03
   57.3450012      -2.49080965E-03
   57.4599991      -2.50979653E-03
   57.5750008      -2.52872915E-03
   57.6899986      -2.54755630E-03
   57.8050003      -2.56622513E-03
   57.9199982      -2.58468115E-03
   58.0349998      -2.60286848E-03
   58.1500015      -2.62073055E-03
   58.2649994      -2.63820961E-03
   58.3800011      -2.65524699E-03
   58.4949989      -2.67178286E-03
   58.6100006      -2.68775737E-03
   58.7249985      -2.70311022E-03
   58.8400002      -2.71778065E-03
   58.9550018      -2.73170648E-03
   59.0699997      -2.74482719E-03
   59.1850014      -2.75708130E-03
   59.2999992      -2.76840711E-03
   59.4150009      -2.77874363E-03
   59.5299988      -2.78802938E-03
   59.6450005      -2.79620383E-03
   59.7599983      -2.80320691E-03
   59.8750000      -2.80897808E-03
   59.9900017      -2.81345868E-03
   60.1049995      -2.81659095E-03
   60.2200012      -2.81831622E-03
   60.3349991      -2.81857885E-03
   60.4500008      -2.81732343E-03
   60.5649986      -2.81449640E-03
   60.6800003      -2.81004515E-03
   60.7949982      -2.80391821E-03
   60.9099998      -2.79606646E-03
   61.0250015      -2.78644194E-03
   61.1399994      -2.77499855E-03
   61.2550011      -2.76169227E-03
   61.3699989      -2.74647935E-03
   61.4850006      -2.72932020E-03
   61.5999985      -2.71017477E-03
   61.7150002      -2.68900651E-03
   61.8300018      -2.66578048E-03
   61.9449997      -2.64046341E-03
   62.0600014      -2.61302455E-03
   62.1749992      -2.58343527E-03
   62.2900009      -2.55166902E-03
   62.4049988      -2.51770159E-03
   62.5200005      -2.48151133E-03
   62.6349983      -2.44307891E-03
   62.7500000      -2.40238803E-03
   62.8650017      -2.35942425E-03
   62.9799995      -2.31417641E-03
   63.0950012      -2.26663495E-03
   63.2099991      -2.21679406E-03
   63.3250008      -2.16465048E-03
   63.4399986      -2.11020326E-03
   63.5550003      -2.05345452E-03
   63.6699982      -1.99440867E-03
   63.7849998      -1.93307409E-03
   63.9000015      -1.86946115E-03
   64.0149994      -1.80358300E-03
   64.1299973      -1.73545664E-03
   64.2450027      -1.66510127E-03
   64.3600006      -1.59253972E-03
   64.4749985      -1.51779805E-03
   64.5899963      -1.44090515E-03
   64.7050018      -1.36189372E-03
   64.8199997      -1.28079939E-03
   64.9349976      -1.19766116E-03
   65.0500031      -1.11252139E-03
   65.1650009      -1.02542667E-03
   65.2799988      -9.36426164E-04
   65.3949966      -8.45572620E-04
   65.5100021      -7.52922671E-04
   65.6250000      -6.58535981E-04
   65.7399979      -5.62475761E-04
   65.8550034      -4.64808545E-04
   65.9700012      -3.65604705E-04
   66.0849991      -2.64937611E-04
   66.1999969      -1.62884040E-04
   66.3150024      -5.95242163E-05
   66.4300003       4.50582920E-05
   66.5449982       1.50776614E-04
   66.6600037       2.57540552E-04
   66.7750015       3.65256856E-04
   66.8899994       4.73828899E-04
   67.0049973       5.83157351E-04
   67.1200027       6.93139446E-04
   67.2350006       8.03669973E-04
   67.3499985       9.14640841E-04
   67.4649963       1.02594157E-03
   67.5800018       1.13745907E-03
   67.6949997       1.24907843E-03
   67.8099976       1.36068242E-03
   67.9250031       1.47215207E-03
   68.0400009       1.58336712E-03
   68.1549988       1.69420557E-03
   68.2699966       1.80454459E-03
   68.3850021       1.91426056E-03
   68.5000000       2.02322868E-03
   68.6149979       2.13132403E-03
   68.7300034       2.23842077E-03
   68.8450012       2.34439457E-03
   68.9599991       2.44911946E-03
   69.0749969       2.55247136E-03
   69.1900024       2.65432685E-03
   69.3050003       2.75456323E-03
   69.4199982       2.85305921E-03
   69.5350037       2.94969580E-03
   69.6500015       3.04435520E-03
   69.7649994       3.13692307E-03
   69.8799973       3.22728720E-03
   69.9950027       3.31533817E-03
   70.1100006       3.40097048E-03
   70.2249985       3.48408194E-03
   70.3399963       3.56457406E-03
   70.4550018       3.64235346E-03
   70.5699997       3.71733075E-03
   70.6849976       3.78942071E-03
   70.8000031       3.85854347E-03
   70.9150009       3.92462453E-03
   71.0299988       3.98759404E-03
   71.1449966       4.04738914E-03
   71.2600021       4.10395162E-03
   71.3750000       4.15722933E-03
   71.4899979       4.20717616E-03
   71.6050034       4.25375300E-03
   71.7200012       4.29692725E-03
   71.8349991       4.33667144E-03
   71.9499969       4.37296741E-03
   72.0650024       4.40580072E-03
   72.1800003       4.43516811E-03
   72.2949982       4.46106726E-03
   72.4100037       4.48350795E-03
   72.5250015       4.50250460E-03
   72.6399994       4.51807864E-03
   72.7549973       4.53025894E-03
   72.8700027       4.53908090E-03
   72.9850006       4.54458594E-03
   73.0999985       4.54682391E-03
   73.2149963       4.54584928E-03
   73.3300018       4.54172352E-03
   73.4449997       4.53451322E-03
   73.5599976       4.52429196E-03
   73.6750031       4.51113749E-03
   73.7900009       4.49513597E-03
   73.9049988       4.47637681E-03
   74.0199966       4.45495546E-03
   74.1350021       4.43097064E-03
   74.2500000       4.40452853E-03
   74.3649979       4.37573763E-03
   74.4800034       4.34470968E-03
   74.5950012       4.31156345E-03
   74.7099991       4.27641859E-03
   74.8249969       4.23939899E-03
   74.9400024       4.20063036E-03
   75.0550003       4.16024309E-03
   75.1699982       4.11836617E-03
   75.2850037       4.07513324E-03
   75.4000015       4.03067889E-03
   75.5149994       3.98513721E-03
   75.6299973       3.93864466E-03
   75.7450027       3.89133557E-03
   75.8600006       3.84334754E-03
   75.9749985       3.79481493E-03
   76.0899963       3.74587346E-03
   76.2050018       3.69665632E-03
   76.3199997       3.64729483E-03
   76.4349976       3.59792286E-03
   76.5500031       3.54866800E-03
   76.6650009       3.49965785E-03
   76.7799988       3.45101510E-03
   76.8949966       3.40286223E-03
   77.0100021       3.35531705E-03
   77.1250000       3.30849388E-03
   77.2399979       3.26250307E-03
   77.3550034       3.21745127E-03
   77.4700012       3.17344046E-03
   77.5849991       3.13056749E-03
   77.6999969       3.08892457E-03
   77.8150024       3.04859900E-03
   77.9300003       3.00967204E-03
   78.0449982       2.97222007E-03
   78.1600037       2.93631363E-03
   78.2750015       2.90201767E-03
   78.3899994       2.86939018E-03
   78.5049973       2.83848401E-03
   78.6200027       2.80934456E-03
   78.7350006       2.78201164E-03
   78.8499985       2.75651878E-03
   78.9649963       2.73289182E-03
   79.0800018       2.71115010E-03
   79.1949997       2.69130641E-03
   79.3099976       2.67336611E-03
   79.4250031       2.65732780E-03
   79.5400009       2.64318357E-03