  -18.8999996         0.00000000    
  -18.7849998         0.00000000    
  -18.6700001        -2.24866682E-14
  -18.5550003        -9.14781963E-14
  -18.4400005        -1.99630880E-13
  -18.3250008        -2.82063489E-13
  -18.2099991        -2.15366204E-13
  -18.0949993         1.48520709E-13
  -17.9799995         9.18226866E-13
  -17.8649998         2.08785962E-12
  -17.7500000         3.47898034E-12
  -17.6350002         4.72702259E-12
  -17.5200005         5.32860908E-12
  -17.4050007         4.74821397E-12
  -17.2900009         2.56322567E-12
  -17.1749992        -1.38781011E-12
  -17.0599995        -6.89341683E-12
  -16.9449997        -1.33265135E-11
  -16.8299999        -1.96872275E-11
  -16.7150002        -2.47272897E-11
  -16.6000004        -2.71338559E-11
  -16.4850006        -2.57395737E-11
  -16.3700008        -1.97241286E-11
  -16.2549992        -8.77932015E-12
  -16.1399994         6.77874250E-12
  -16.0249996         2.59553334E-11
  -15.9099998         4.70782892E-11
  -15.7950001         6.78503642E-11
  -15.6800003         8.54510629E-11
  -15.5649996         9.66894620E-11
  -15.4499998         9.82102316E-11
  -15.3350000         8.67498018E-11
  -15.2200003         5.94293087E-11
  -15.1049995         1.40566508E-11
  -14.9899998        -5.06014917E-11
  -14.8750000        -1.34622327E-10
  -14.7600002        -2.36844766E-10
  -14.6450005        -3.54927476E-10
  -14.5299997        -4.85551044E-10
  -14.4150000        -6.24742091E-10
  -14.3000002        -7.68278940E-10
  -14.1850004        -9.12123821E-10
  -14.0699997        -1.05282683E-09
  -13.9549999        -1.18785459E-09
  -13.8400002        -1.31581057E-09
  -13.7250004        -1.43652856E-09
  -13.6099997        -1.55103985E-09
  -13.4949999        -1.66141589E-09
  -13.3800001        -1.77050619E-09
  -13.2650003        -1.88158689E-09
  -13.1499996        -1.99794647E-09
  -13.0349998        -2.12244555E-09
  -12.9200001        -2.25708874E-09
  -12.8050003        -2.40266540E-09
  -12.6899996        -2.55851118E-09
  -12.5749998        -2.72243539E-09
  -12.4600000        -2.89084601E-09
  -12.3450003        -3.05907344E-09
  -12.2299995        -3.22187033E-09
  -12.1149998        -3.37402684E-09
  -12.0000000        -3.51102636E-09
  -11.8850002        -3.62966390E-09
  -11.7700005        -3.72853837E-09
  -11.6549997        -3.80836873E-09
  -11.5400000        -3.87209287E-09
  -11.4250002        -3.92473876E-09
  -11.3100004        -3.97309474E-09
  -11.1949997        -4.02520195E-09
  -11.0799999        -4.08972456E-09
  -10.9650002        -4.17526058E-09
  -10.8500004        -4.28965130E-09
  -10.7349997        -4.43935466E-09
  -10.6199999        -4.62894967E-09
  -10.5050001        -4.86084240E-09
  -10.3900003        -5.13519494E-09
  -10.2749996        -5.45012924E-09
  -10.1599998        -5.80217652E-09
  -10.0450001        -6.18694429E-09
  -9.93000031        -6.59992283E-09
  -9.81499958        -7.03733738E-09
  -9.69999981        -7.49693374E-09
  -9.58500004        -7.97859823E-09
  -9.47000027        -8.48472403E-09
  -9.35499954        -9.02028940E-09
  -9.23999977        -9.59261648E-09
  -9.12500000        -1.02108526E-08
  -9.01000023        -1.08852323E-08
  -8.89500046        -1.16261933E-08
  -8.77999973        -1.24434472E-08
  -8.66499996        -1.33451046E-08
  -8.55000019        -1.43369387E-08
  -8.43500042        -1.54219002E-08
  -8.31999969        -1.65998983E-08
  -8.20499992        -1.78679631E-08
  -8.09000015        -1.92207121E-08
  -7.97499990        -2.06511714E-08
  -7.86000013        -2.21518128E-08
  -7.74499989        -2.37157352E-08
  -7.63000011        -2.53378456E-08
  -7.51499987        -2.70158900E-08
  -7.40000010        -2.87511916E-08
  -7.28499985        -3.05490104E-08
  -7.17000008        -3.24184626E-08
  -7.05499983        -3.43719968E-08
  -6.94000006        -3.64245061E-08
  -6.82499981        -3.85921624E-08
  -6.71000004        -4.08910878E-08
  -6.59499979        -4.33360583E-08
  -6.48000002        -4.59393377E-08
  -6.36499977        -4.87097687E-08
  -6.25000000        -5.16522363E-08
  -6.13500023        -5.47675825E-08
  -6.01999998        -5.80529367E-08
  -5.90500021        -6.15025186E-08
  -5.78999996        -6.51088214E-08
  -5.67500019        -6.88640540E-08
  -5.55999994        -7.27617930E-08
  -5.44500017        -7.67985000E-08
  -5.32999992        -8.09748855E-08
  -5.21500015        -8.52968682E-08
  -5.09999990        -8.97759804E-08
  -4.98500013        -9.44291969E-08
  -4.86999989        -9.92781821E-08
  -4.75500011        -1.04347919E-07
  -4.63999987        -1.09665123E-07
  -4.52500010        -1.15256285E-07
  -4.40999985        -1.21145987E-07
  -4.29500008        -1.27355236E-07
  -4.17999983        -1.33900414E-07
  -4.06500006        -1.40792579E-07
  -3.95000005        -1.48037628E-07
  -3.83500004        -1.55636798E-07
  -3.72000003        -1.63587984E-07
  -3.60500002        -1.71887265E-07
  -3.49000001        -1.80530947E-07
  -3.37500000        -1.89517493E-07
  -3.25999999        -1.98849563E-07
  -3.14499998        -2.08535639E-07
  -3.02999997        -2.18591055E-07
  -2.91499996        -2.29038648E-07
  -2.79999995        -2.39908331E-07
  -2.68499994        -2.51236230E-07
  -2.56999993        -2.63062958E-07
  -2.45499992        -2.75431518E-07
  -2.33999991        -2.88384967E-07
  -2.22499990        -3.01964207E-07
  -2.10999990        -3.16205728E-07
  -1.99500000        -3.31140427E-07
  -1.88000000        -3.46792802E-07
  -1.76499999        -3.63180902E-07
  -1.64999998        -3.80317317E-07
  -1.53499997        -3.98210659E-07
  -1.41999996        -4.16867522E-07
  -1.30499995        -4.36295153E-07
  -1.19000006        -4.56503926E-07
  -1.07500005        -4.77509275E-07
 -0.959999979        -4.99334362E-07
 -0.845000029        -5.22010453E-07
 -0.730000019        -5.45578075E-07
 -0.615000010        -5.70086229E-07
 -0.500000000        -5.95591416E-07
 -0.384999990        -6.22155312E-07
 -0.270000011        -6.49842548E-07
 -0.155000001        -6.78717470E-07
  -3.99999991E-02    -7.08841753E-07
   7.50000030E-02    -7.40271673E-07
  0.189999998        -7.73056456E-07
  0.305000007        -8.07237029E-07
  0.419999987        -8.42846703E-07
  0.535000026        -8.79911340E-07
  0.649999976        -9.18451803E-07
  0.764999986        -9.58486225E-07
  0.879999995        -1.00003274E-06
  0.995000005        -1.04311232E-06
   1.11000001        -1.08775203E-06
   1.22500002        -1.13398607E-06
   1.34000003        -1.18185835E-06
   1.45500004        -1.23142183E-06
   1.57000005        -1.28273871E-06
   1.68499994        -1.33587866E-06
   1.79999995        -1.39091640E-06
   1.91499996        -1.44792864E-06
   2.02999997        -1.50699077E-06
   2.14499998        -1.56817430E-06
   2.25999999        -1.63154266E-06
   2.37500000        -1.69715076E-06
   2.49000001        -1.76504284E-06
   2.60500002        -1.83525208E-06
   2.72000003        -1.90780315E-06
   2.83500004        -1.98271277E-06
   2.95000005        -2.05999345E-06
   3.06500006        -2.13965654E-06
   3.18000007        -2.22171570E-06
   3.29500008        -2.30618889E-06
   3.41000009        -2.39310179E-06
   3.52500010        -2.48248966E-06
   3.64000010        -2.57439524E-06
   3.75500011        -2.66887082E-06
   3.86999989        -2.76597393E-06
   3.98499990        -2.86576505E-06
   4.09999990        -2.96830581E-06
   4.21500015        -3.07365235E-06
   4.32999992        -3.18185516E-06
   4.44500017        -3.29295153E-06
   4.55999994        -3.40696874E-06
   4.67500019        -3.52391862E-06
   4.78999996        -3.64380026E-06
   4.90500021        -3.76660091E-06
   5.01999998        -3.89229854E-06
   5.13500023        -4.02086516E-06
   5.25000000        -4.15227123E-06
   5.36499977        -4.28648855E-06
   5.48000002        -4.42349574E-06
   5.59499979        -4.56327643E-06
   5.71000004        -4.70582700E-06
   5.82499981        -4.85115061E-06
   5.94000006        -4.99925773E-06
   6.05499983        -5.15016654E-06
   6.17000008        -5.30389434E-06
   6.28499985        -5.46045476E-06
   6.40000010        -5.61985780E-06
   6.51499987        -5.78209620E-06
   6.63000011        -5.94714993E-06
   6.74499989        -6.11498126E-06
   6.86000013        -6.28553198E-06
   6.97499990        -6.45872342E-06
   7.09000015        -6.63446372E-06
   7.20499992        -6.81264419E-06
   7.32000017        -6.99314978E-06
   7.43499994        -7.17585954E-06
   7.55000019        -7.36065476E-06
   7.66499996        -7.54741859E-06
   7.78000021        -7.73604461E-06
   7.89499998        -7.92643459E-06
   8.01000023        -8.11849986E-06
   8.12500000        -8.31215948E-06
   8.23999977        -8.50733704E-06
   8.35499954        -8.70395797E-06
   8.47000027        -8.90194133E-06
   8.58500004        -9.10119616E-06
   8.69999981        -9.30161787E-06
   8.81499958        -9.50308367E-06
   8.93000031        -9.70545079E-06
   9.04500008        -9.90855369E-06
   9.15999985        -1.01122087E-05
   9.27499962        -1.03162138E-05
   9.39000034        -1.05203571E-05
   9.50500011        -1.07244186E-05
   9.61999989        -1.09281782E-05
   9.73499966        -1.11314239E-05
   9.85000038        -1.13339474E-05
   9.96500015        -1.15355660E-05
   10.0799999        -1.17361078E-05
   10.1949997        -1.19354136E-05
   10.3100004        -1.21333469E-05
   10.4250002        -1.23297759E-05
   10.5400000        -1.25245761E-05
   10.6549997        -1.27176199E-05
   10.7700005        -1.29087748E-05
   10.8850002        -1.30978942E-05
   11.0000000        -1.32848163E-05
   11.1149998        -1.34693564E-05
   11.2299995        -1.36513163E-05
   11.3450003        -1.38304749E-05
   11.4600000        -1.40065977E-05
   11.5749998        -1.41794462E-05
   11.6899996        -1.43487778E-05
   11.8050003        -1.45143586E-05
   11.9200001        -1.46759721E-05
   12.0349998        -1.48334166E-05
   12.1499996        -1.49865218E-05
   12.2650003        -1.51351423E-05
   12.3800001        -1.52791599E-05
   12.4949999        -1.54184836E-05
   12.6099997        -1.55530433E-05
   12.7250004        -1.56827882E-05
   12.8400002        -1.58076637E-05
   12.9549999        -1.59276296E-05
   13.0699997        -1.60426371E-05
   13.1850004        -1.61526259E-05
   13.3000002        -1.62575288E-05
   13.4150000        -1.63572677E-05
   13.5299997        -1.64517551E-05
   13.6450005        -1.65409056E-05
   13.7600002        -1.66246282E-05
   13.8750000        -1.67028520E-05
   13.9899998        -1.67755279E-05
   14.1049995        -1.68426268E-05
   14.2200003        -1.69041577E-05
   14.3350000        -1.69601681E-05
   14.4499998        -1.70107451E-05
   14.5649996        -1.70560088E-05
   14.6800003        -1.70961175E-05
   14.7950001        -1.71312513E-05
   14.9099998        -1.71616157E-05
   15.0249996        -1.71874199E-05
   15.1400003        -1.72088712E-05
   15.2550001        -1.72261807E-05
   15.3699999        -1.72395394E-05
   15.4849997        -1.72491400E-05
   15.6000004        -1.72551445E-05
   15.7150002        -1.72577202E-05
   15.8299999        -1.72570326E-05
   15.9449997        -1.72532564E-05
   16.0599995        -1.72465789E-05
   16.1749992        -1.72372202E-05
   16.2900009        -1.72254295E-05
   16.4050007        -1.72115142E-05
   16.5200005        -1.71958181E-05
   16.6350002        -1.71787397E-05
   16.7500000        -1.71607262E-05
   16.8649998        -1.71422653E-05
   16.9799995        -1.71238844E-05
   17.0949993        -1.71061456E-05
   17.2099991        -1.70896146E-05
   17.3250008        -1.70748826E-05
   17.4400005        -1.70625390E-05
   17.5550003        -1.70531712E-05
   17.6700001        -1.70473668E-05
   17.7849998        -1.70457188E-05
   17.8999996        -1.70488292E-05
   18.0149994        -1.70573112E-05
   18.1299992        -1.70718013E-05
   18.2450008        -1.70929798E-05
   18.3600006        -1.71215688E-05
   18.4750004        -1.71583433E-05
   18.5900002        -1.72041400E-05
   18.7049999        -1.72598593E-05
   18.8199997        -1.73264598E-05
   18.9349995        -1.74049601E-05
   19.0499992        -1.74964298E-05
   19.1650009        -1.76019676E-05
   19.2800007        -1.77227084E-05
   19.3950005        -1.78598020E-05
   19.5100002        -1.80143961E-05
   19.6250000        -1.81876439E-05
   19.7399998        -1.83806915E-05
   19.8549995        -1.85946701E-05
   19.9699993        -1.88307113E-05
   20.0849991        -1.90899445E-05
   20.2000008        -1.93735086E-05
   20.3150005        -1.96825549E-05
   20.4300003        -2.00182767E-05
   20.5450001        -2.03818963E-05
   20.6599998        -2.07746925E-05
   20.7749996        -2.11979768E-05
   20.8899994        -2.16531298E-05
   21.0049992        -2.21415667E-05
   21.1200008        -2.26647426E-05
   21.2350006        -2.32241455E-05
   21.3500004        -2.38212797E-05
   21.4650002        -2.44576513E-05
   21.5799999        -2.51347556E-05
   21.6949997        -2.58540658E-05
   21.8099995        -2.66170318E-05
   21.9249992        -2.74250633E-05
   22.0400009        -2.82795227E-05
   22.1550007        -2.91817742E-05
   22.2700005        -3.01331311E-05
   22.3850002        -3.11349031E-05
   22.5000000        -3.21883854E-05
   22.6149998        -3.32948875E-05
   22.7299995        -3.44557120E-05
   22.8449993        -3.56722012E-05
   22.9599991        -3.69457048E-05
   23.0750008        -3.82775834E-05
   23.1900005        -3.96692267E-05
   23.3050003        -4.11220026E-05
   23.4200001        -4.26372826E-05
   23.5349998        -4.42164019E-05
   23.6499996        -4.58606664E-05
   23.7649994        -4.75713023E-05
   23.8799992        -4.93495027E-05
   23.9950008        -5.11963881E-05
   24.1100006        -5.31129772E-05
   24.2250004        -5.51002340E-05
   24.3400002        -5.71590390E-05
   24.4549999        -5.92902361E-05
   24.5699997        -6.14945893E-05
   24.6849995        -6.37728226E-05
   24.7999992        -6.61256199E-05
   24.9150009        -6.85536652E-05
   25.0300007        -7.10575841E-05
   25.1450005        -7.36380025E-05
   25.2600002        -7.62955096E-05
   25.3750000        -7.90306585E-05
   25.4899998        -8.18439657E-05
   25.6049995        -8.47358751E-05
   25.7199993        -8.77067578E-05
   25.8349991        -9.07569192E-05
   25.9500008        -9.38865196E-05
   26.0650005        -9.70956607E-05
   26.1800003        -1.00384306E-04
   26.2950001        -1.03752318E-04
   26.4099998        -1.07199419E-04
   26.5249996        -1.10725276E-04
   26.6399994        -1.14329450E-04
   26.7549992        -1.18011390E-04
   26.8700008        -1.21770543E-04
   26.9850006        -1.25606253E-04
   27.1000004        -1.29517837E-04
   27.2150002        -1.33504553E-04
   27.3299999        -1.37565585E-04
   27.4449997        -1.41700133E-04
   27.5599995        -1.45907339E-04
   27.6749992        -1.50186213E-04
   27.7900009        -1.54535781E-04
   27.9050007        -1.58954965E-04
   28.0200005        -1.63442543E-04
   28.1350002        -1.67997307E-04
   28.2500000        -1.72617845E-04
   28.3649998        -1.77302762E-04
   28.4799995        -1.82050455E-04
   28.5949993        -1.86859426E-04
   28.7099991        -1.91727973E-04
   28.8250008        -1.96654379E-04
   28.9400005        -2.01636954E-04
   29.0550003        -2.06673925E-04
   29.1700001        -2.11763589E-04
   29.2849998        -2.16904227E-04
   29.3999996        -2.22094037E-04
   29.5149994        -2.27331358E-04
   29.6299992        -2.32614446E-04
   29.7450008        -2.37941596E-04
   29.8600006        -2.43311079E-04
   29.9750004        -2.48721160E-04
   30.0900002        -2.54170038E-04
   30.2049999        -2.59655877E-04
   30.3199997        -2.65176874E-04
   30.4349995        -2.70731194E-04
   30.5499992        -2.76316830E-04
   30.6650009        -2.81931891E-04
   30.7800007        -2.87574483E-04
   30.8950005        -2.93242687E-04
   31.0100002        -2.98934581E-04
   31.1250000        -3.04648303E-04
   31.2399998        -3.10382107E-04
   31.3549995        -3.16134101E-04
   31.4699993        -3.21902713E-04
   31.5849991        -3.27686314E-04
   31.7000008        -3.33483244E-04
   31.8150005        -3.39291961E-04
   31.9300003        -3.45111039E-04
   32.0449982        -3.50938994E-04
   32.1599998        -3.56774312E-04
   32.2750015        -3.62615625E-04
   32.3899994        -3.68461508E-04
   32.5050011        -3.74310475E-04
   32.6199989        -3.80161160E-04
   32.7350006        -3.86012223E-04
   32.8499985        -3.91862268E-04
   32.9650002        -3.97709897E-04
   33.0800018        -4.03553975E-04
   33.1949997        -4.09393222E-04
   33.3100014        -4.15226503E-04
   33.4249992        -4.21052857E-04
   33.5400009        -4.26871207E-04
   33.6549988        -4.32680798E-04
   33.7700005        -4.38480754E-04
   33.8849983        -4.44270350E-04
   34.0000000        -4.50048945E-04
   34.1150017        -4.55815782E-04
   34.2299995        -4.61570307E-04
   34.3450012        -4.67311940E-04
   34.4599991        -4.73039923E-04
   34.5750008        -4.78753704E-04
   34.6899986        -4.84452554E-04
   34.8050003        -4.90135804E-04
   34.9199982        -4.95802611E-04
   35.0349998        -5.01452421E-04
   35.1500015        -5.07084304E-04
   35.2649994        -5.12697618E-04
   35.3800011        -5.18291374E-04
   35.4949989        -5.23864757E-04
   35.6100006        -5.29416953E-04
   35.7249985        -5.34947030E-04
   35.8400002        -5.40454057E-04
   35.9550018        -5.45936986E-04
   36.0699997        -5.51394711E-04
   36.1850014        -5.56826009E-04
   36.2999992        -5.62229543E-04
   36.4150009        -5.67603856E-04
   36.5299988        -5.72947436E-04
   36.6450005        -5.78258419E-04
   36.7599983        -5.83534827E-04
   36.8750000        -5.88774448E-04
   36.9900017        -5.93974837E-04
   37.1049995        -5.99133549E-04
   37.2200012        -6.04247907E-04
   37.3349991        -6.09314709E-04
   37.4500008        -6.14330929E-04
   37.5649986        -6.19293191E-04
   37.6800003        -6.24197768E-04
   37.7949982        -6.29040995E-04
   37.9099998        -6.33818738E-04
   38.0250015        -6.38526806E-04
   38.1399994        -6.43160485E-04
   38.2550011        -6.47715060E-04
   38.3699989        -6.52185350E-04
   38.4850006        -6.56565884E-04
   38.5999985        -6.60851016E-04
   38.7150002        -6.65034691E-04
   38.8300018        -6.69110450E-04
   38.9449997        -6.73071598E-04
   39.0600014        -6.76911033E-04
   39.1749992        -6.80621539E-04
   39.2900009        -6.84195315E-04
   39.4049988        -6.87624328E-04
   39.5200005        -6.90900313E-04
   39.6349983        -6.94014539E-04
   39.7500000        -6.96958334E-04
   39.8650017        -6.99722150E-04
   39.9799995        -7.02296675E-04
   40.0950012        -7.04672129E-04
   40.2099991        -7.06838269E-04
   40.3250008        -7.08784733E-04
   40.4399986        -7.10500695E-04
   40.5550003        -7.11975386E-04
   40.6699982        -7.13197223E-04
   40.7849998        -7.14154681E-04
   40.9000015        -7.14835827E-04
   41.0149994        -7.15228380E-04
   41.1300011        -7.15320057E-04
   41.2449989        -7.15098111E-04
   41.3600006        -7.14549446E-04
   41.4749985        -7.13661138E-04
   41.5900002        -7.12419918E-04
   41.7050018        -7.10812164E-04
   41.8199997        -7.08824489E-04
   41.9350014        -7.06443214E-04
   42.0499992        -7.03654427E-04
   42.1650009        -7.00444391E-04
   42.2799988        -6.96799136E-04
   42.3950005        -6.92704576E-04
   42.5099983        -6.88146742E-04
   42.6250000        -6.83111488E-04
   42.7400017        -6.77584903E-04
   42.8549995        -6.71552785E-04
   42.9700012        -6.65001047E-04
   43.0849991        -6.57915953E-04
   43.2000008        -6.50283357E-04
   43.3149986        -6.42089755E-04
   43.4300003        -6.33321528E-04
   43.5449982        -6.23965345E-04
   43.6599998        -6.14008168E-04
   43.7750015        -6.03437249E-04
   43.8899994        -5.92240016E-04
   44.0050011        -5.80404652E-04
   44.1199989        -5.67919342E-04
   44.2350006        -5.54772851E-04
   44.3499985        -5.40954235E-04
   44.4650002        -5.26453136E-04
   44.5800018        -5.11259714E-04
   44.6949997        -4.95364540E-04
   44.8100014        -4.78758651E-04
   44.9249992        -4.61433956E-04
   45.0400009        -4.43382654E-04
   45.1549988        -4.24597820E-04
   45.2700005        -4.05073079E-04
   45.3849983        -3.84802697E-04
   45.5000000        -3.63782194E-04
   45.6150017        -3.42007464E-04
   45.7299995        -3.19475133E-04
   45.8450012        -2.96182960E-04
   45.9599991        -2.72129662E-04
   46.0750008        -2.47314543E-04
   46.1899986        -2.21738286E-04
   46.3050003        -1.95402215E-04
   46.4199982        -1.68308761E-04
   46.5349998        -1.40461401E-04
   46.6500015        -1.11864443E-04
   46.7649994        -8.25232491E-05
   46.8800011        -5.24440256E-05
   46.9949989        -2.16344197E-05
   47.1100006         9.89709952E-06
   47.2249985         4.21413861E-05
   47.3400002         7.50877007E-05
   47.4550018         1.08724504E-04
   47.5699997         1.43039215E-04
   47.6850014         1.78018148E-04
   47.7999992         2.13646359E-04
   47.9150009         2.49908044E-04
   48.0299988         2.86786002E-04
   48.1450005         3.24262073E-04
   48.2599983         3.62317252E-04
   48.3750000         4.00931051E-04
   48.4900017         4.40082193E-04
   48.6049995         4.79748414E-04
   48.7200012         5.19906287E-04
   48.8349991         5.60531451E-04
   48.9500008         6.01598877E-04
   49.0649986         6.43082079E-04
   49.1800003         6.84954110E-04
   49.2949982         7.27187260E-04
   49.4099998         7.69752485E-04
   49.5250015         8.12620390E-04
   49.6399994         8.55760474E-04
   49.7550011         8.99141654E-04
   49.8699989         9.42732149E-04
   49.9850006         9.86499246E-04
   50.0999985         1.03040959E-03
   50.2150002         1.07442949E-03
   50.3300018         1.11852435E-03
   50.4449997         1.16265926E-03
   50.5600014         1.20679871E-03
   50.6749992         1.25090708E-03
   50.7900009         1.29494758E-03
   50.9049988         1.33888400E-03
   51.0200005         1.38267968E-03
   51.1349983         1.42629794E-03
   51.2500000         1.46970153E-03
   51.3650017         1.51285343E-03
   51.4799995         1.55571697E-03
   51.5950012         1.59825524E-03
   51.7099991         1.64043158E-03
   51.8250008         1.68220955E-03
   51.9399986         1.72355282E-03
   52.0550003         1.76442531E-03
   52.1699982         1.80479139E-03
   52.2849998         1.84461591E-03
   52.4000015         1.88386429E-03
   52.5149994         1.92250230E-03
   52.6300011         1.96049642E-03
   52.7449989         1.99781312E-03
   52.8600006         2.03442131E-03
   52.9749985         2.07028864E-03
   53.0900002         2.10538507E-03
   53.2050018         2.13968079E-03
   53.3199997         2.17314763E-03
   53.4350014         2.20575742E-03
   53.5499992         2.23748386E-03
   53.6650009         2.26830179E-03
   53.7799988         2.29818630E-03
   53.8950005         2.32711504E-03
   54.0099983         2.35506566E-03
   54.1250000         2.38201767E-03
   54.2400017         2.40795175E-03
   54.3549995         2.43284926E-03
   54.4700012         2.45669368E-03
   54.5849991         2.47946871E-03
   54.7000008         2.50116084E-03
   54.8149986         2.52175634E-03
   54.9300003         2.54124380E-03
   55.0449982         2.55961274E-03
   55.1599998         2.57685408E-03
   55.2750015         2.59296107E-03
   55.3899994         2.60792626E-03
   55.5050011         2.62174616E-03
   55.6199989         2.63441587E-03
   55.7350006         2.64593400E-03
   55.8499985         2.65629939E-03
   55.9650002         2.66551250E-03
   56.0800018         2.67357472E-03
   56.1949997         2.68048886E-03
   56.3100014         2.68625841E-03
   56.4249992         2.69088824E-03
   56.5400009         2.69438443E-03
   56.6549988         2.69675325E-03
   56.7700005         2.69800285E-03
   56.8849983         2.69814162E-03
   57.0000000         2.69717840E-03
   57.1150017         2.69512320E-03
   57.2299995         2.69198744E-03
   57.3450012         2.68778112E-03
   57.4599991         2.68251728E-03
   57.5750008         2.67620757E-03
   57.6899986         2.66886456E-03
   57.8050003         2.66050128E-03
   57.9199982         2.65113078E-03
   58.0349998         2.64076632E-03
   58.1500015         2.62942095E-03
   58.2649994         2.61710794E-03
   58.3800011         2.60384055E-03
   58.4949989         2.58963159E-03
   58.6100006         2.57449248E-03
   58.7249985         2.55843624E-03
   58.8400002         2.54147360E-03
   58.9550018         2.52361596E-03
   59.0699997         2.50487356E-03
   59.1850014         2.48525571E-03
   59.2999992         2.46477174E-03
   59.4150009         2.44342908E-03
   59.5299988         2.42123497E-03
   59.6450005         2.39819568E-03
   59.7599983         2.37431610E-03
   59.8750000         2.34960066E-03
   59.9900017         2.32405285E-03
   60.1049995         2.29767384E-03
   60.2200012         2.27046525E-03
   60.3349991         2.24242592E-03
   60.4500008         2.21355446E-03
   60.5649986         2.18384806E-03
   60.6800003         2.15330208E-03
   60.7949982         2.12191115E-03
   60.9099998         2.08966853E-03
   61.0250015         2.05656583E-03
   61.1399994         2.02259328E-03
   61.2550011         1.98774110E-03
   61.3699989         1.95199670E-03
   61.4850006         1.91534706E-03
   61.5999985         1.87777821E-03
   61.7150002         1.83927547E-03
   61.8300018         1.79982255E-03
   61.9449997         1.75940280E-03
   62.0600014         1.71799865E-03
   62.1749992         1.67559227E-03
   62.2900009         1.63216470E-03
   62.4049988         1.58769696E-03
   62.5200005         1.54216983E-03
   62.6349983         1.49556377E-03
   62.7500000         1.44785887E-03
   62.8650017         1.39903545E-03
   62.9799995         1.34907430E-03
   63.0950012         1.29795610E-03
   63.2099991         1.24566199E-03
   63.3250008         1.19217415E-03
   63.4399986         1.13747525E-03
   63.5550003         1.08154910E-03
   63.6699982         1.02438056E-03
   63.7849998         9.65956075E-04
   63.9000015         9.06263653E-04
   64.0149994         8.45293049E-04
   64.1299973         7.83036288E-04
   64.2450027         7.19487027E-04
   64.3600006         6.54641539E-04
   64.4749985         5.88498719E-04
   64.5899963         5.21059672E-04
   64.7050018         4.52328444E-04
   64.8199997         3.82312021E-04
   64.9349976         3.11020296E-04
   65.0500031         2.38465873E-04
   65.1650009         1.64665427E-04
   65.2799988         8.96383426E-05
   65.3949966         1.34073489E-05
   65.5100021        -6.40007784E-05
   65.6250000        -1.42555713E-04
   65.7399979        -2.22223171E-04
   65.8550034        -3.02965607E-04
   65.9700012        -3.84740939E-04
   66.0849991        -4.67503298E-04
   66.1999969        -5.51202858E-04
   66.3150024        -6.35785575E-04
   66.4300003        -7.21193734E-04
   66.5449982        -8.07365635E-04
   66.6600037        -8.94235331E-04
   66.7750015        -9.81733669E-04
   66.8899994        -1.06978766E-03
   67.0049973        -1.15832023E-03
   67.1200027        -1.24725187E-03
   67.2350006        -1.33649912E-03
   67.3499985        -1.42597605E-03
   67.4649963        -1.51559338E-03
   67.5800018        -1.60525925E-03
   67.6949997        -1.69487880E-03
   67.8099976        -1.78435550E-03
   67.9250031        -1.87359005E-03
   68.0400009        -1.96248130E-03
   68.1549988        -2.05092644E-03
   68.2699966        -2.13882118E-03
   68.3850021        -2.22606026E-03
   68.5000000        -2.31253705E-03
   68.6149979        -2.39814422E-03
   68.7300034        -2.48277467E-03
   68.8450012        -2.56632129E-03
   68.9599991        -2.64867744E-03
   69.0749969        -2.72973697E-03
   69.1900024        -2.80939508E-03
   69.3050003        -2.88754771E-03
   69.4199982        -2.96409428E-03
   69.5350037        -3.03893443E-03
   69.6500015        -3.11197108E-03
   69.7649994        -3.18310969E-03
   69.8799973        -3.25225922E-03
   69.9950027        -3.31933075E-03
   70.1100006        -3.38423974E-03
   70.2249985        -3.44690471E-03
   70.3399963        -3.50724882E-03
   70.4550018        -3.56519921E-03
   70.5699997        -3.62068624E-03
   70.6849976        -3.67364706E-03
   70.8000031        -3.72402254E-03
   70.9150009        -3.77175841E-03
   71.0299988        -3.81680578E-03
   71.1449966        -3.85912182E-03
   71.2600021        -3.89866787E-03
   71.3750000        -3.93541250E-03
   71.4899979        -3.96932848E-03
   71.6050034        -4.00039600E-03
   71.7200012        -4.02859878E-03
   71.8349991        -4.05392842E-03
   71.9499969        -4.07638075E-03
   72.0650024        -4.09595808E-03
   72.1800003        -4.11266601E-03
   72.2949982        -4.12651803E-03
   72.4100037        -4.13753139E-03
   72.5250015        -4.14572796E-03
   72.6399994        -4.15113568E-03
   72.7549973        -4.15378576E-03
   72.8700027        -4.15371452E-03
   72.9850006        -4.15096292E-03
   73.0999985        -4.14557429E-03
   73.2149963        -4.13759658E-03
   73.3300018        -4.12708148E-03
   73.4449997        -4.11408395E-03
   73.5599976        -4.09866124E-03
   73.6750031        -4.08087205E-03
   73.7900009        -4.06077923E-03
   73.9049988        -4.03844565E-03
   74.0199966        -4.01393743E-03
   74.1350021        -3.98731884E-03