  -18.8999996       0.00000000    
  -18.7849998       0.00000000    
  -18.6700001      -4.83233482E-15
  -18.5550003      -1.91291159E-14
  -18.4400005      -3.94806122E-14
  -18.3250008      -4.83057164E-14
  -18.2099991      -1.39507258E-14
  -18.0949993       1.00541713E-13
  -17.9799995       3.21008465E-13
  -17.8649998       6.42676721E-13
  -17.7500000       1.01452093E-12
  -17.6350002       1.33445902E-12
  -17.5200005       1.46001071E-12
  -17.4050007       1.23486280E-12
  -17.2900009       5.27068406E-13
  -17.1749992      -7.29164071E-13
  -17.0599995      -2.49780860E-12
  -16.9449997      -4.62032365E-12
  -16.8299999      -6.81568170E-12
  -16.7150002      -8.70264538E-12
  -16.6000004      -9.84170558E-12
  -16.4850006      -9.79112624E-12
  -16.3700008      -8.17034721E-12
  -16.2549992      -4.72423533E-12
  -16.1399994       6.17196778E-13
  -16.0249996       7.68797959E-12
  -15.9099998       1.60483293E-11
  -15.7950001       2.49642841E-11
  -15.6800003       3.34102017E-11
  -15.5649996       4.00996528E-11
  -15.4499998       4.35490255E-11
  -15.3350000       4.21747602E-11
  -15.2200003       3.44200675E-11
  -15.1049995       1.89009398E-11
  -14.9899998      -5.44430430E-12
  -14.8750000      -3.92209216E-11
  -14.7600002      -8.24784199E-11
  -14.6450005      -1.34662073E-10
  -14.5299997      -1.94625108E-10
  -14.4150000      -2.60703154E-10
  -14.3000002      -3.30844518E-10
  -14.1850004      -4.02783418E-10
  -14.0699997      -4.74237205E-10
  -13.9549999      -5.43107892E-10
  -13.8400002      -6.07666861E-10
  -13.7250004      -6.66704136E-10
  -13.6099997      -7.19625692E-10
  -13.4949999      -7.66487263E-10
  -13.3800001      -8.07956146E-10
  -13.2650003      -8.45201964E-10
  -13.1499996      -8.79721018E-10
  -13.0349998      -9.13112419E-10
  -12.9200001      -9.46827061E-10
  -12.8050003      -9.81922987E-10
  -12.6899996      -1.01885833E-09
  -12.5749998      -1.05735642E-09
  -12.4600000      -1.09636566E-09
  -12.3450003      -1.13413068E-09
  -12.2299995      -1.16837062E-09
  -12.1149998      -1.19654975E-09
  -12.0000000      -1.21621158E-09
  -11.8850002      -1.22533272E-09
  -11.7700005      -1.22265986E-09
  -11.6549997      -1.20798171E-09
  -11.5400000      -1.18230714E-09
  -11.4250002      -1.14791909E-09
  -11.3100004      -1.10829812E-09
  -11.1949997      -1.06791487E-09
  -11.0799999      -1.03190878E-09
  -10.9650002      -1.00568165E-09
  -10.8500004      -9.94446303E-10
  -10.7349997      -1.00278019E-09
  -10.6199999      -1.03423137E-09
  -10.5050001      -1.09103282E-09
  -10.3900003      -1.17396415E-09
  -10.2749996      -1.28238498E-09
  -10.1599998      -1.41445566E-09
  -10.0450001      -1.56751934E-09
  -9.93000031      -1.73861292E-09
  -9.81499958      -1.92504457E-09
  -9.69999981      -2.12497220E-09
  -9.58500004      -2.33790165E-09
  -9.47000027      -2.56504573E-09
  -9.35499954      -2.80949441E-09
  -9.23999977      -3.07616199E-09
  -9.12500000      -3.37151951E-09
  -9.01000023      -3.70313002E-09
  -8.89500046      -4.07904155E-09
  -8.77999973      -4.50709425E-09
  -8.66499996      -4.99422903E-09
  -8.55000019      -5.54587043E-09
  -8.43500042      -6.16545970E-09
  -8.31999969      -6.85420876E-09
  -8.20499992      -7.61110641E-09
  -8.09000015      -8.43320347E-09
  -7.97499990      -9.31615318E-09
  -7.86000013      -1.02549649E-08
  -7.74499989      -1.12448904E-08
  -7.63000011      -1.22823582E-08
  -7.51499987      -1.33658169E-08
  -7.40000010      -1.44964067E-08
  -7.28499985      -1.56783706E-08
  -7.17000008      -1.69191114E-08
  -7.05499983      -1.82289384E-08
  -6.94000006      -1.96204404E-08
  -6.82499981      -2.11076365E-08
  -6.71000004      -2.27049455E-08
  -6.59499979      -2.44260878E-08
  -6.48000002      -2.62830877E-08
  -6.36499977      -2.82854575E-08
  -6.25000000      -3.04396686E-08
  -6.13500023      -3.27489857E-08
  -6.01999998      -3.52137022E-08
  -5.90500021      -3.78317289E-08
  -5.78999996      -4.05995522E-08
  -5.67500019      -4.35134133E-08
  -5.55999994      -4.65705945E-08
  -5.44500017      -4.97707369E-08
  -5.32999992      -5.31169100E-08
  -5.21500015      -5.66164502E-08
  -5.09999990      -6.02813088E-08
  -4.98500013      -6.41280238E-08
  -4.86999989      -6.81771297E-08
  -4.75500011      -7.24521598E-08
  -4.63999987      -7.69783455E-08
  -4.52500010      -8.17811525E-08
  -4.40999985      -8.68847394E-08
  -4.29500008      -9.23107208E-08
  -4.17999983      -9.80771588E-08
  -4.06500006      -1.04198016E-07
  -3.95000005      -1.10683210E-07
  -3.83500004      -1.17539166E-07
  -3.72000003      -1.24769812E-07
  -3.60500002      -1.32378048E-07
  -3.49000001      -1.40367362E-07
  -3.37500000      -1.48743609E-07
  -3.25999999      -1.57516581E-07
  -3.14499998      -1.66701383E-07
  -3.02999997      -1.76319247E-07
  -2.91499996      -1.86397841E-07
  -2.79999995      -1.96971044E-07
  -2.68499994      -2.08077950E-07
  -2.56999993      -2.19761617E-07
  -2.45499992      -2.32067151E-07
  -2.33999991      -2.45039928E-07
  -2.22499990      -2.58723702E-07
  -2.10999990      -2.73158918E-07
  -1.99500000      -2.88381813E-07
  -1.88000000      -3.04423537E-07
  -1.76499999      -3.21310608E-07
  -1.64999998      -3.39065508E-07
  -1.53499997      -3.57708103E-07
  -1.41999996      -3.77257436E-07
  -1.30499995      -3.97733743E-07
  -1.19000006      -4.19160358E-07
  -1.07500005      -4.41565874E-07
 -0.959999979      -4.64984993E-07
 -0.845000029      -4.89459808E-07
 -0.730000019      -5.15039460E-07
 -0.615000010      -5.41780082E-07
 -0.500000000      -5.69743008E-07
 -0.384999990      -5.98993211E-07
 -0.270000011      -6.29597423E-07
 -0.155000001      -6.61621641E-07
  -3.99999991E-02  -6.95129017E-07
   7.50000030E-02  -7.30178215E-07
  0.189999998      -7.66822609E-07
  0.305000007      -8.05109153E-07
  0.419999987      -8.45079228E-07
  0.535000026      -8.86769897E-07
  0.649999976      -9.30214753E-07
  0.764999986      -9.75447051E-07
  0.879999995      -1.02250101E-06
  0.995000005      -1.07141466E-06
   1.11000001      -1.12223120E-06
   1.22500002      -1.17500110E-06
   1.34000003      -1.22978145E-06
   1.45500004      -1.28663669E-06
   1.57000005      -1.34563709E-06
   1.68499994      -1.40685768E-06
   1.79999995      -1.47037485E-06
   1.91499996      -1.53626513E-06
   2.02999997      -1.60460195E-06
   2.14499998      -1.67545329E-06
   2.25999999      -1.74888009E-06
   2.37500000      -1.82493545E-06
   2.49000001      -1.90366370E-06
   2.60500002      -1.98510179E-06
   2.72000003      -2.06928121E-06
   2.83500004      -2.15622822E-06
   2.95000005      -2.24596783E-06
   3.06500006      -2.33852643E-06
   3.18000007      -2.43393310E-06
   3.29500008      -2.53222356E-06
   3.41000009      -2.63343941E-06
   3.52500010      -2.73763021E-06
   3.64000010      -2.84485145E-06
   3.75500011      -2.95516429E-06
   3.86999989      -3.06863330E-06
   3.98499990      -3.18532329E-06
   4.09999990      -3.30529565E-06
   4.21500015      -3.42860562E-06
   4.32999992      -3.55530074E-06
   4.44500017      -3.68541600E-06
   4.55999994      -3.81897598E-06
   4.67500019      -3.95599045E-06
   4.78999996      -4.09645872E-06
   4.90500021      -4.24036807E-06
   5.01999998      -4.38769848E-06
   5.13500023      -4.53842131E-06
   5.25000000      -4.69250745E-06
   5.36499977      -4.84992688E-06
   5.48000002      -5.01065188E-06
   5.59499979      -5.17465514E-06
   5.71000004      -5.34191759E-06
   5.82499981      -5.51242010E-06
   5.94000006      -5.68614678E-06
   6.05499983      -5.86308215E-06
   6.17000008      -6.04320576E-06
   6.28499985      -6.22649304E-06
   6.40000010      -6.41290899E-06
   6.51499987      -6.60240812E-06
   6.63000011      -6.79492950E-06
   6.74499989      -6.99039674E-06
   6.86000013      -7.18871706E-06
   6.97499990      -7.38978451E-06
   7.09000015      -7.59347949E-06
   7.20499992      -7.79967104E-06
   7.32000017      -8.00822090E-06
   7.43499994      -8.21898539E-06
   7.55000019      -8.43181988E-06
   7.66499996      -8.64658159E-06
   7.78000021      -8.86312864E-06
   7.89499998      -9.08132279E-06
   8.01000023      -9.30102760E-06
   8.12500000      -9.52210576E-06
   8.23999977      -9.74442264E-06
   8.35499954      -9.96783547E-06
   8.47000027      -1.01921960E-05
   8.58500004      -1.04173423E-05
   8.69999981      -1.06430962E-05
   8.81499958      -1.08692693E-05
   8.93000031      -1.10956535E-05
   9.04500008      -1.13220203E-05
   9.15999985      -1.15481271E-05
   9.27499962      -1.17737209E-05
   9.39000034      -1.19985343E-05
   9.50500011      -1.22222955E-05
   9.61999989      -1.24447288E-05
   9.73499966      -1.26655586E-05
   9.85000038      -1.28845159E-05
   9.96500015      -1.31013339E-05
   10.0799999      -1.33157573E-05
   10.1949997      -1.35275350E-05
   10.3100004      -1.37364195E-05
   10.4250002      -1.39421672E-05
   10.5400000      -1.41445371E-05
   10.6549997      -1.43432781E-05
   10.7700005      -1.45381346E-05
   10.8850002      -1.47288401E-05
   11.0000000      -1.49151110E-05
   11.1149998      -1.50966562E-05
   11.2299995      -1.52731718E-05
   11.3450003      -1.54443351E-05
   11.4600000      -1.56098231E-05
   11.5749998      -1.57693048E-05
   11.6899996      -1.59224455E-05
   11.8050003      -1.60689251E-05
   11.9200001      -1.62084289E-05
   12.0349998      -1.63406585E-05
   12.1499996      -1.64653302E-05
   12.2650003      -1.65821784E-05
   12.3800001      -1.66909631E-05
   12.4949999      -1.67914532E-05
   12.6099997      -1.68834376E-05
   12.7250004      -1.69667146E-05
   12.8400002      -1.70410876E-05
   12.9549999      -1.71063657E-05
   13.0699997      -1.71623524E-05
   13.1850004      -1.72088567E-05
   13.3000002      -1.72456766E-05
   13.4150000      -1.72726086E-05
   13.5299997      -1.72894415E-05
   13.6450005      -1.72959717E-05
   13.7600002      -1.72919990E-05
   13.8750000      -1.72773234E-05
   13.9899998      -1.72517721E-05
   14.1049995      -1.72151867E-05
   14.2200003      -1.71674346E-05
   14.3350000      -1.71084030E-05
   14.4499998      -1.70380063E-05
   14.5649996      -1.69561936E-05
   14.6800003      -1.68629340E-05
   14.7950001      -1.67582130E-05
   14.9099998      -1.66420396E-05
   15.0249996      -1.65144374E-05
   15.1400003      -1.63754248E-05
   15.2550001      -1.62250399E-05
   15.3699999      -1.60633117E-05
   15.4849997      -1.58902767E-05
   15.6000004      -1.57059694E-05
   15.7150002      -1.55104299E-05
   15.8299999      -1.53037072E-05
   15.9449997      -1.50858641E-05
   16.0599995      -1.48569816E-05
   16.1749992      -1.46171633E-05
   16.2900009      -1.43665529E-05
   16.4050007      -1.41053170E-05
   16.5200005      -1.38336736E-05
   16.6350002      -1.35518712E-05
   16.7500000      -1.32602081E-05
   16.8649998      -1.29590071E-05
   16.9799995      -1.26486339E-05
   17.0949993      -1.23294776E-05
   17.2099991      -1.20019622E-05
   17.3250008      -1.16665251E-05
   17.4400005      -1.13236229E-05
   17.5550003      -1.09737321E-05
   17.6700001      -1.06173411E-05
   17.7849998      -1.02549566E-05
   17.8999996      -9.88711781E-06
   18.0149994      -9.51438960E-06
   18.1299992      -9.13737222E-06
   18.2450008      -8.75670958E-06
   18.3600006      -8.37309472E-06
   18.4750004      -7.98728433E-06
   18.5900002      -7.60009743E-06
   18.7049999      -7.21240895E-06
   18.8199997      -6.82516702E-06
   18.9349995      -6.43938074E-06
   19.0499992      -6.05611785E-06
   19.1650009      -5.67650250E-06
   19.2800007      -5.30170200E-06
   19.3950005      -4.93292418E-06
   19.5100002      -4.57141186E-06
   19.6250000      -4.21842924E-06
   19.7399998      -3.87526870E-06
   19.8549995      -3.54324561E-06
   19.9699993      -3.22368896E-06
   20.0849991      -2.91795891E-06
   20.2000008      -2.62743652E-06
   20.3150005      -2.35354287E-06
   20.4300003      -2.09773884E-06
   20.5450001      -1.86152977E-06
   20.6599998      -1.64647520E-06
   20.7749996      -1.45418528E-06
   20.8899994      -1.28633485E-06
   21.0049992      -1.14464990E-06
   21.1200008      -1.03091520E-06
   21.2350006      -9.46965827E-07
   21.3500004      -8.94681023E-07
   21.4650002      -8.75979424E-07
   21.5799999      -8.92808146E-07
   21.6949997      -9.47138005E-07
   21.8099995      -1.04095773E-06
   21.9249992      -1.17628053E-06
   22.0400009      -1.35512596E-06
   22.1550007      -1.57951717E-06
   22.2700005      -1.85150589E-06
   22.3850002      -2.17316506E-06
   22.5000000      -2.54657743E-06
   22.6149998      -2.97386487E-06
   22.7299995      -3.45717217E-06
   22.8449993      -3.99869396E-06
   22.9599991      -4.60064712E-06
   23.0750008      -5.26529539E-06
   23.1900005      -5.99494342E-06
   23.3050003      -6.79191726E-06
   23.4200001      -7.65858204E-06
   23.5349998      -8.59731063E-06
   23.6499996      -9.61049773E-06
   23.7649994      -1.07005326E-05
   23.8799992      -1.18698044E-05
   23.9950008      -1.31206834E-05
   24.1100006      -1.44555343E-05
   24.2250004      -1.58766907E-05
   24.3400002      -1.73864701E-05
   24.4549999      -1.89871644E-05
   24.5699997      -2.06810364E-05
   24.6849995      -2.24703344E-05
   24.7999992      -2.43572831E-05
   24.9150009      -2.63440743E-05
   25.0300007      -2.84328817E-05
   25.1450005      -3.06258480E-05
   25.2600002      -3.29250979E-05
   25.3750000      -3.53327014E-05
   25.4899998      -3.78506957E-05
   25.6049995      -4.04810708E-05
   25.7199993      -4.32257402E-05
   25.8349991      -4.60865485E-05
   25.9500008      -4.90652747E-05
   26.0650005      -5.21635993E-05
   26.1800003      -5.53831196E-05
   26.2950001      -5.87253380E-05
   26.4099998      -6.21916552E-05
   26.5249996      -6.57833734E-05
   26.6399994      -6.95017006E-05
   26.7549992      -7.33477136E-05
   26.8700008      -7.73224456E-05
   26.9850006      -8.14267696E-05
   27.1000004      -8.56615079E-05
   27.2150002      -9.00273662E-05
   27.3299999      -9.45249412E-05
   27.4449997      -9.91547422E-05
   27.5599995      -1.03917140E-04
   27.6749992      -1.08812412E-04
   27.7900009      -1.13840681E-04
   27.9050007      -1.19001976E-04
   28.0200005      -1.24296159E-04
   28.1350002      -1.29722976E-04
   28.2500000      -1.35282025E-04
   28.3649998      -1.40972756E-04
   28.4799995      -1.46794482E-04
   28.5949993      -1.52746390E-04
   28.7099991      -1.58827475E-04
   28.8250008      -1.65036676E-04
   28.9400005      -1.71372725E-04
   29.0550003      -1.77834270E-04
   29.1700001      -1.84419827E-04
   29.2849998      -1.91127809E-04
   29.3999996      -1.97956469E-04
   29.5149994      -2.04903947E-04
   29.6299992      -2.11968290E-04
   29.7450008      -2.19147405E-04
   29.8600006      -2.26439006E-04
   29.9750004      -2.33840765E-04
   30.0900002      -2.41350164E-04
   30.2049999      -2.48964527E-04
   30.3199997      -2.56681145E-04
   30.4349995      -2.64497066E-04
   30.5499992      -2.72409292E-04
   30.6650009      -2.80414592E-04
   30.7800007      -2.88509793E-04
   30.8950005      -2.96691462E-04
   31.0100002      -3.04956018E-04
   31.1250000      -3.13299941E-04
   31.2399998      -3.21719504E-04
   31.3549995      -3.30210838E-04
   31.4699993      -3.38770129E-04
   31.5849991      -3.47393274E-04
   31.7000008      -3.56076198E-04
   31.8150005      -3.64814652E-04
   31.9300003      -3.73604329E-04
   32.0449982      -3.82440805E-04
   32.1599998      -3.91319452E-04
   32.2750015      -4.00235847E-04
   32.3899994      -4.09185042E-04
   32.5050011      -4.18162381E-04
   32.6199989      -4.27162857E-04
   32.7350006      -4.36181552E-04
   32.8499985      -4.45213314E-04
   32.9650002      -4.54253022E-04
   33.0800018      -4.63295437E-04
   33.1949997      -4.72335436E-04
   33.3100014      -4.81367693E-04
   33.4249992      -4.90386912E-04
   33.5400009      -4.99387679E-04
   33.6549988      -5.08364697E-04
   33.7700005      -5.17312612E-04
   33.8849983      -5.26226009E-04
   34.0000000      -5.35099534E-04
   34.1150017      -5.43927774E-04
   34.2299995      -5.52705431E-04
   34.3450012      -5.61427150E-04
   34.4599991      -5.70087577E-04
   34.5750008      -5.78681473E-04
   34.6899986      -5.87203482E-04
   34.8050003      -5.95648540E-04
   34.9199982      -6.04011351E-04
   35.0349998      -6.12286793E-04
   35.1500015      -6.20469742E-04
   35.2649994      -6.28555135E-04
   35.3800011      -6.36538083E-04
   35.4949989      -6.44413347E-04
   35.6100006      -6.52176212E-04
   35.7249985      -6.59821846E-04
   35.8400002      -6.67345244E-04
   35.9550018      -6.74741808E-04
   36.0699997      -6.82006765E-04
   36.1850014      -6.89135399E-04
   36.2999992      -6.96123170E-04
   36.4150009      -7.02965306E-04
   36.5299988      -7.09657441E-04
   36.6450005      -7.16194918E-04
   36.7599983      -7.22573430E-04
   36.8750000      -7.28788378E-04
   36.9900017      -7.34835514E-04
   37.1049995      -7.40710646E-04
   37.2200012      -7.46409176E-04
   37.3349991      -7.51926971E-04
   37.4500008      -7.57259841E-04
   37.5649986      -7.62403535E-04
   37.6800003      -7.67353631E-04
   37.7949982      -7.72105879E-04
   37.9099998      -7.76656030E-04
   38.0250015      -7.80999777E-04
   38.1399994      -7.85132579E-04
   38.2550011      -7.89050129E-04
   38.3699989      -7.92748178E-04
   38.4850006      -7.96221895E-04
   38.5999985      -7.99467030E-04
   38.7150002      -8.02478928E-04
   38.8300018      -8.05252814E-04
   38.9449997      -8.07784323E-04
   39.0600014      -8.10068683E-04
   39.1749992      -8.12101352E-04
   39.2900009      -8.13877443E-04
   39.4049988      -8.15392472E-04
   39.5200005      -8.16641608E-04
   39.6349983      -8.17619846E-04
   39.7500000      -8.18322296E-04
   39.8650017      -8.18744069E-04
   39.9799995      -8.18879984E-04
   40.0950012      -8.18724977E-04
   40.2099991      -8.18273751E-04
   40.3250008      -8.17520951E-04
   40.4399986      -8.16461165E-04
   40.5550003      -8.15088919E-04
   40.6699982      -8.13398627E-04
   40.7849998      -8.11384234E-04
   40.9000015      -8.09040386E-04
   41.0149994      -8.06361029E-04
   41.1300011      -8.03340401E-04
   41.2449989      -7.99972797E-04
   41.3600006      -7.96251930E-04
   41.4749985      -7.92172214E-04
   41.5900002      -7.87727709E-04
   41.7050018      -7.82912422E-04
   41.8199997      -7.77720299E-04
   41.9350014      -7.72145402E-04
   42.0499992      -7.66181620E-04
   42.1650009      -7.59823073E-04
   42.2799988      -7.53063709E-04
   42.3950005      -7.45897414E-04
   42.5099983      -7.38318078E-04
   42.6250000      -7.30320055E-04
   42.7400017      -7.21896824E-04
   42.8549995      -7.13042798E-04
   42.9700012      -7.03752215E-04
   43.0849991      -6.94019429E-04
   43.2000008      -6.83838676E-04
   43.3149986      -6.73204777E-04
   43.4300003      -6.62112259E-04
   43.5449982      -6.50556176E-04
   43.6599998      -6.38531696E-04
   43.7750015      -6.26034045E-04
   43.8899994      -6.13058859E-04
   44.0050011      -5.99601888E-04
   44.1199989      -5.85659349E-04
   44.2350006      -5.71227516E-04
   44.3499985      -5.56303014E-04
   44.4650002      -5.40882465E-04
   44.5800018      -5.24963194E-04
   44.6949997      -5.08542405E-04
   44.8100014      -4.91618062E-04
   44.9249992      -4.74188302E-04
   45.0400009      -4.56251844E-04
   45.1549988      -4.37807612E-04
   45.2700005      -4.18855139E-04
   45.3849983      -3.99394165E-04
   45.5000000      -3.79425357E-04
   45.6150017      -3.58949881E-04
   45.7299995      -3.37969279E-04
   45.8450012      -3.16485908E-04
   45.9599991      -2.94502272E-04
   46.0750008      -2.72021978E-04
   46.1899986      -2.49048840E-04
   46.3050003      -2.25587617E-04
   46.4199982      -2.01643285E-04
   46.5349998      -1.77221737E-04
   46.6500015      -1.52329128E-04
   46.7649994      -1.26972693E-04
   46.8800011      -1.01160040E-04
   46.9949989      -7.48995080E-05
   47.1100006      -4.82000723E-05
   47.2249985      -2.10711005E-05
   47.3400002       6.47689512E-06
   47.4550018       3.44329492E-05
   47.5699997       6.27854388E-05
   47.6850014       9.15216951E-05
   47.7999992       1.20628712E-04
   47.9150009       1.50092630E-04
   48.0299988       1.79898969E-04
   48.1450005       2.10032624E-04
   48.2599983       2.40477864E-04
   48.3750000       2.71218159E-04
   48.4900017       3.02236789E-04
   48.6049995       3.33515665E-04
   48.7200012       3.65036831E-04
   48.8349991       3.96781834E-04
   48.9500008       4.28731379E-04
   49.0649986       4.60865558E-04
   49.1800003       4.93164232E-04
   49.2949982       5.25606447E-04
   49.4099998       5.58171188E-04
   49.5250015       5.90836571E-04
   49.6399994       6.23580418E-04
   49.7550011       6.56380027E-04
   49.8699989       6.89212524E-04
   49.9850006       7.22054392E-04
   50.0999985       7.54881999E-04
   50.2150002       7.87671073E-04
   50.3300018       8.20397458E-04
   50.4449997       8.53036647E-04
   50.5600014       8.85563844E-04
   50.6749992       9.17954429E-04
   50.7900009       9.50183254E-04
   50.9049988       9.82225523E-04
   51.0200005       1.01405603E-03
   51.1349983       1.04565010E-03
   51.2500000       1.07698247E-03
   51.3650017       1.10802869E-03
   51.4799995       1.13876374E-03
   51.5950012       1.16916362E-03
   51.7099991       1.19920378E-03
   51.8250008       1.22886023E-03
   51.9399986       1.25810911E-03
   52.0550003       1.28692726E-03
   52.1699982       1.31529151E-03
   52.2849998       1.34317914E-03
   52.4000015       1.37056806E-03
   52.5149994       1.39743683E-03
   52.6300011       1.42376428E-03
   52.7449989       1.44953001E-03
   52.8600006       1.47471461E-03
   52.9749985       1.49929884E-03
   53.0900002       1.52326433E-03
   53.2050018       1.54659385E-03
   53.3199997       1.56927062E-03
   53.4350014       1.59127882E-03
   53.5499992       1.61260366E-03
   53.6650009       1.63323106E-03
   53.7799988       1.65314798E-03
   53.8950005       1.67234184E-03
   54.0099983       1.69080158E-03
   54.1250000       1.70851685E-03
   54.2400017       1.72547856E-03
   54.3549995       1.74167810E-03
   54.4700012       1.75710826E-03
   54.5849991       1.77176273E-03
   54.7000008       1.78563630E-03
   54.8149986       1.79872452E-03
   54.9300003       1.81102473E-03
   55.0449982       1.82253448E-03
   55.1599998       1.83325296E-03
   55.2750015       1.84318004E-03
   55.3899994       1.85231667E-03
   55.5050011       1.86066504E-03
   55.6199989       1.86822808E-03
   55.7350006       1.87500997E-03
   55.8499985       1.88101549E-03
   55.9650002       1.88625057E-03
   56.0800018       1.89072173E-03
   56.1949997       1.89443678E-03
   56.3100014       1.89740397E-03
   56.4249992       1.89963239E-03
   56.5400009       1.90113194E-03
   56.6549988       1.90191297E-03
   56.7700005       1.90198713E-03
   56.8849983       1.90136535E-03
   57.0000000       1.90006034E-03
   57.1150017       1.89808488E-03
   57.2299995       1.89545215E-03
   57.3450012       1.89217494E-03
   57.4599991       1.88826758E-03
   57.5750008       1.88374356E-03
   57.6899986       1.87861733E-03
   57.8050003       1.87290262E-03
   57.9199982       1.86661340E-03
   58.0349998       1.85976364E-03
   58.1500015       1.85236754E-03
   58.2649994       1.84443791E-03
   58.3800011       1.83598849E-03
   58.4949989       1.82703149E-03
   58.6100006       1.81757915E-03
   58.7249985       1.80764310E-03
   58.8400002       1.79723452E-03
   58.9550018       1.78636331E-03
   59.0699997       1.77503855E-03
   59.1850014       1.76326919E-03
   59.2999992       1.75106246E-03
   59.4150009       1.73842511E-03
   59.5299988       1.72536261E-03
   59.6450005       1.71187962E-03
   59.7599983       1.69797917E-03
   59.8750000       1.68366323E-03
   59.9900017       1.66893273E-03
   60.1049995       1.65378721E-03
   60.2200012       1.63822481E-03
   60.3349991       1.62224250E-03
   60.4500008       1.60583563E-03
   60.5649986       1.58899813E-03
   60.6800003       1.57172221E-03
   60.7949982       1.55399891E-03
   60.9099998       1.53581763E-03
   61.0250015       1.51716638E-03
   61.1399994       1.49803131E-03
   61.2550011       1.47839775E-03
   61.3699989       1.45824882E-03
   61.4850006       1.43756729E-03
   61.5999985       1.41633337E-03
   61.7150002       1.39452727E-03
   61.8300018       1.37212686E-03
   61.9449997       1.34910969E-03
   62.0600014       1.32545212E-03
   62.1749992       1.30112912E-03
   62.2900009       1.27611519E-03
   62.4049988       1.25038403E-03
   62.5200005       1.22390850E-03
   62.6349983       1.19666103E-03
   62.7500000       1.16861332E-03
   62.8650017       1.13973685E-03
   62.9799995       1.11000263E-03
   63.0950012       1.07938226E-03
   63.2099991       1.04784674E-03
   63.3250008       1.01536780E-03
   63.4399986       9.81916906E-04
   63.5550003       9.47466586E-04
   63.6699982       9.11989948E-04
   63.7849998       8.75461090E-04
   63.9000015       8.37854925E-04
   64.0149994       7.99147820E-04
   64.1299973       7.59317714E-04
   64.2450027       7.18343770E-04
   64.3600006       6.76207303E-04
   64.4749985       6.32891431E-04
   64.5899963       5.88381430E-04
   64.7050018       5.42664609E-04
   64.8199997       4.95731016E-04
   64.9349976       4.47572849E-04
   65.0500031       3.98185133E-04
   65.1650009       3.47565627E-04
   65.2799988       2.95715174E-04
   65.3949966       2.42637499E-04
   65.5100021       1.88339414E-04
   65.6250000       1.32831046E-04
   65.7399979       7.61259143E-05
   65.8550034       1.82407912E-05
   65.9700012      -4.08037413E-05
   66.0849991      -1.00983751E-04
   66.1999969      -1.62271652E-04
   66.3150024      -2.24636227E-04
   66.4300003      -2.88042473E-04
   66.5449982      -3.52451898E-04
   66.6600037      -4.17822215E-04
   66.7750015      -4.84107790E-04
   66.8899994      -5.51259320E-04
   67.0049973      -6.19224389E-04
   67.1200027      -6.87946856E-04
   67.2350006      -7.57367350E-04
   67.3499985      -8.27423821E-04
   67.4649963      -8.98050959E-04
   67.5800018      -9.69180546E-04
   67.6949997      -1.04074180E-03
   67.8099976      -1.11266132E-03
   67.9250031      -1.18486315E-03
   68.0400009      -1.25726964E-03
   68.1549988      -1.32980081E-03
   68.2699966      -1.40237494E-03
   68.3850021      -1.47490867E-03
   68.5000000      -1.54731737E-03
   68.6149979      -1.61951513E-03
   68.7300034      -1.69141509E-03
   68.8450012      -1.76293054E-03
   68.9599991      -1.83397357E-03
   69.0749969      -1.90445641E-03
   69.1900024      -1.97429210E-03
   69.3050003      -2.04339344E-03
   69.4199982      -2.11167475E-03
   69.5350037      -2.17905059E-03
   69.6500015      -2.24543782E-03
   69.7649994      -2.31075427E-03
   69.8799973      -2.37491983E-03
   69.9950027      -2.43785651E-03
   70.1100006      -2.49948795E-03
   70.2249985      -2.55974149E-03
   70.3399963      -2.61854636E-03
   70.4550018      -2.67583574E-03
   70.5699997      -2.73154466E-03
   70.6849976      -2.78561236E-03
   70.8000031      -2.83798133E-03
   70.9150009      -2.88859732E-03
   71.0299988      -2.93741096E-03
   71.1449966      -2.98437593E-03
   71.2600021      -3.02945054E-03
   71.3750000      -3.07259639E-03
   71.4899979      -3.11378040E-03
   71.6050034      -3.15297348E-03
   71.7200012      -3.19014979E-03
   71.8349991      -3.22528975E-03
   71.9499969      -3.25837708E-03
   72.0650024      -3.28939897E-03
   72.1800003      -3.31834867E-03
   72.2949982      -3.34522151E-03
   72.4100037      -3.37001844E-03
   72.5250015      -3.39274295E-03
   72.6399994      -3.41340271E-03
   72.7549973      -3.43200960E-03
   72.8700027      -3.44857899E-03
   72.9850006      -3.46312858E-03
   73.0999985      -3.47567955E-03
   73.2149963      -3.48625658E-03
   73.3300018      -3.49488598E-03
   73.4449997      -3.50159733E-03
   73.5599976      -3.50642134E-03
   73.6750031      -3.50939133E-03
   73.7900009      -3.51054291E-03
   73.9049988      -3.50991124E-03
   74.0199966      -3.50753427E-03
   74.1350021      -3.50345043E-03
   74.2500000      -3.49769741E-03
   74.3649979      -3.49031389E-03
   74.4800034      -3.48133803E-03
   74.5950012      -3.47080780E-03
   74.7099991      -3.45875975E-03
   74.8249969      -3.44522926E-03
   74.9400024      -3.43025080E-03
   75.0550003      -3.41385626E-03
   75.1699982      -3.39607592E-03
   75.2850037      -3.37693817E-03
   75.4000015      -3.35646840E-03
   75.5149994      -3.33468895E-03
   75.6299973      -3.31161893E-03
   75.7450027      -3.28727509E-03
   75.8600006      -3.26166931E-03
   75.9749985      -3.23481089E-03
   76.0899963      -3.20670544E-03
   76.2050018      -3.17735341E-03
   76.3199997      -3.14675178E-03
   76.4349976      -3.11489310E-03
   76.5500031      -3.08176596E-03
   76.6650009      -3.04735382E-03
   76.7799988      -3.01163481E-03
   76.8949966      -2.97458400E-03
   77.0100021      -2.93617067E-03
   77.1250000      -2.89635942E-03
   77.2399979      -2.85511045E-03
   77.3550034      -2.81237951E-03
   77.4700012      -2.76811724E-03
   77.5849991      -2.72226939E-03
   77.6999969      -2.67477799E-03
   77.8150024      -2.62558181E-03
   77.9300003      -2.57461355E-03
   78.0449982      -2.52180337E-03
   78.1600037      -2.46707769E-03
   78.2750015      -2.41035805E-03
   78.3899994      -2.35156412E-03
   78.5049973      -2.29061255E-03
   78.6200027      -2.22741649E-03
   78.7350006      -2.16188747E-03
   78.8499985      -2.09393422E-03
   78.9649963      -2.02346314E-03
   79.0800018      -1.95037969E-03
   79.1949997      -1.87458750E-03
   79.3099976      -1.79598934E-03
   79.4250031      -1.71448721E-03
   79.5400009      -1.62998296E-03