  -18.8999996       0.00000000    
  -18.7849998       0.00000000    
  -18.6700001       0.00000000    
  -18.5550003       0.00000000    
  -18.4400005       0.00000000    
  -18.3250008       0.00000000    
  -18.2099991      -1.11301410E-38
  -18.0949993       8.63367113E-37
  -17.9799995       1.81619459E-35
  -17.8649998       1.75897003E-34
  -17.7500000       1.12036605E-33
  -17.6350002       5.33052599E-33
  -17.5200005       2.01680139E-32
  -17.4050007       6.26230274E-32
  -17.2900009       1.61017253E-31
  -17.1749992       3.35943778E-31
  -17.0599995       5.16769604E-31
  -16.9449997       3.11397011E-31
  -16.8299999      -1.48933545E-30
  -16.7150002      -7.78297255E-30
  -16.6000004      -2.43823799E-29
  -16.4850006      -6.12204138E-29
  -16.3700008      -1.32478546E-28
  -16.2549992      -2.53597114E-28
  -16.1399994      -4.32056287E-28
  -16.0249996      -6.48244571E-28
  -15.9099998      -8.23645126E-28
  -15.7950001      -7.77257803E-28
  -15.6800003      -1.78821969E-28
  -15.5649996       1.48058156E-27
  -15.4499998       4.86497723E-27
  -15.3350000       1.06675157E-26
  -15.2200003       1.93271338E-26
  -15.1049995       3.05459484E-26
  -14.9899998       4.26078412E-26
  -14.8750000       5.15782251E-26
  -14.7600002       5.05810124E-26
  -14.6450005       2.94873094E-26
  -14.5299997      -2.45215379E-26
  -14.4150000      -1.24986111E-25
  -14.3000002      -2.82324345E-25
  -14.1850004      -4.97883940E-25
  -14.0699997      -7.56147928E-25
  -13.9549999      -1.01606833E-24
  -13.8400002      -1.20339706E-24
  -13.7250004      -1.20681233E-24
  -13.6099997      -8.81372103E-25
  -13.4949999      -6.30901000E-26
  -13.3800001       1.40210826E-24
  -13.2650003       3.61338724E-24
  -13.1499996       6.55513081E-24
  -13.0349998       1.00274476E-23
  -12.9200001       1.35772980E-23
  -12.8050003       1.64459655E-23
  -12.6899996       1.75534930E-23
  -12.5749998       1.55439298E-23
  -12.4600000       8.91524447E-24
  -12.3450003      -3.74703171E-24
  -12.2299995      -2.34246108E-23
  -12.1149998      -5.02207122E-23
  -12.0000000      -8.28510632E-23
  -11.8850002      -1.18142270E-22
  -11.7700005      -1.50644097E-22
  -11.6549997      -1.72495708E-22
  -11.5400000      -1.73707335E-22
  -11.4250002      -1.43017945E-22
  -11.3100004      -6.94528161E-23
  -11.1949997       5.53764831E-23
  -11.0799999       2.34321300E-22
  -10.9650002       4.61367661E-22
  -10.8500004       7.18418327E-22
  -10.7349997       9.72889103E-22
  -10.6199999       1.17699370E-21
  -10.5050001       1.26965560E-21
  -10.3900003       1.18188519E-21
  -10.2749996       8.46134832E-22
  -10.1599998       2.09578595E-22
  -10.0450001      -7.49547612E-22
  -9.93000031      -2.00437697E-21
  -9.81499958      -3.46344481E-21
  -9.69999981      -4.95999831E-21
  -9.58500004      -6.25072278E-21
  -9.47000027      -7.02783392E-21
  -9.35499954      -6.94753116E-21
  -9.23999977      -5.67588920E-21
  -9.12500000      -2.95052013E-21
  -9.01000023       1.34708715E-21
  -8.89500046       7.11729625E-21
  -8.77999973       1.39781827E-20
  -8.66499996       2.12258552E-20
  -8.55000019       2.78342011E-20
  -8.43500042       3.25072223E-20
  -8.31999969       3.37927385E-20
  -8.20499992       3.02591101E-20
  -8.09000015       2.07272042E-20
  -7.97499990       4.53890804E-21
  -7.86000013      -1.81675697E-20
  -7.74499989      -4.62151204E-20
  -7.63000011      -7.72239018E-20
  -7.51499987      -1.07574018E-19
  -7.40000010      -1.32538077E-19
  -7.28499985      -1.46615024E-19
  -7.17000008      -1.44077867E-19
  -7.05499983      -1.19721650E-19
  -6.94000006      -6.97673015E-20
  -6.82499981       7.15701950E-21
  -6.71000004       1.09067770E-19
  -6.59499979       2.29849323E-19
  -6.48000002       3.58803989E-19
  -6.36499977       4.80685666E-19
  -6.25000000       5.76356497E-19
  -6.13500023       6.24164176E-19
  -6.01999998       6.02071577E-19
  -5.90500021       4.90480105E-19
  -5.78999996       2.75579331E-19
  -5.67500019      -4.70647125E-20
  -5.55999994      -4.69086009E-19
  -5.44500017      -9.66562717E-19
  -5.32999992      -1.49848845E-18
  -5.21500015      -2.00703444E-18
  -5.09999990      -2.42008749E-18
  -4.98500013      -2.65638755E-18
  -4.86999989      -2.63333486E-18
  -4.75500011      -2.27719597E-18
  -4.63999987      -1.53504756E-18
  -4.52500010      -3.87378478E-19
  -4.40999985       1.14011989E-18
  -4.29500008       2.96732578E-18
  -4.17999983       4.95492602E-18
  -4.06500006       6.90592827E-18
  -3.95000005       8.57492233E-18
  -3.83500004       9.68593921E-18
  -3.72000003       9.95884429E-18
  -3.60500002       9.14313668E-18
  -3.49000001       7.05670014E-18
  -3.37500000       3.62591685E-18
  -3.25999999      -1.07760199E-18
  -3.14499998      -6.80909562E-18
  -3.02999997      -1.31372155E-17
  -2.91499996      -1.94502836E-17
  -2.79999995      -2.49863172E-17
  -2.68499994      -2.88888892E-17
  -2.56999993      -3.02882802E-17
  -2.45499992      -2.84041580E-17
  -2.33999991      -2.26625667E-17
  -2.22499990      -1.28166408E-17
  -2.10999990       9.42425380E-19
  -1.99500000       1.78995565E-17
  -1.88000000       3.67710634E-17
  -1.76499999       5.57158156E-17
  -1.64999998       7.24138988E-17
  -1.53499997       8.42194669E-17
  -1.41999996       8.83871270E-17
  -1.30499995       8.23632868E-17
  -1.19000006       6.41242256E-17
  -1.07500005       3.25339234E-17
 -0.959999979      -1.23135529E-17
 -0.845000029      -6.88080465E-17
 -0.730000019      -1.33637248E-16
 -0.615000010      -2.01742284E-16
 -0.500000000      -2.66450281E-16
 -0.384999990      -3.19807851E-16
 -0.270000011      -3.53122398E-16
 -0.155000001      -3.57698573E-16
  -3.99999991E-02  -3.25733428E-16
   7.50000030E-02  -2.51310864E-16
  0.189999998      -1.31413535E-16
  0.305000007       3.31465995E-17
  0.419999987       2.36989284E-16
  0.535000026       4.69729427E-16
  0.649999976       7.15944434E-16
  0.764999986       9.55625959E-16
  0.879999995       1.16516179E-15
  0.995000005       1.31885243E-15
   1.11000001       1.39091079E-15
   1.22500002       1.35784538E-15
   1.34000003       1.20106339E-15
   1.45500004       9.09490616E-16
   1.57000005       4.81964023E-16
   1.68499994      -7.08646425E-17
   1.79999995      -7.25372546E-16
   1.91499996      -1.44478622E-15
   2.02999997      -2.18015650E-15
   2.14499998      -2.87258561E-15
   2.25999999      -3.45670567E-15
   2.37500000      -3.86529721E-15
   2.49000001      -4.03481010E-15
   2.60500002      -3.91144696E-15
   2.72000003      -3.45735619E-15
   2.83500004      -2.65641327E-15
   2.95000005      -1.51904136E-15
   3.06500006      -8.55089025E-17
   3.18000007       1.57278221E-15
   3.29500008       3.35441225E-15
   3.41000009       5.13169914E-15
   3.52500010       6.75713588E-15
   3.64000010       8.07234596E-15
   3.75500011       8.91914936E-15
   3.86999989       9.15210968E-15
   3.98499990       8.65175546E-15
   4.09999990       7.33749321E-15
   4.21500015       5.17915839E-15
   4.32999992       2.20614474E-15
   4.44500017      -1.48688852E-15
   4.55999994      -5.73855674E-15
   4.67500019      -1.03241153E-14
   4.78999996      -1.49639229E-14
   4.90500021      -1.93368982E-14
   5.01999998      -2.30984953E-14
   5.13500023      -2.59023048E-14
   5.25000000      -2.74240469E-14
   5.36499977      -2.73864624E-14
   5.48000002      -2.55833766E-14
   5.59499979      -2.19011380E-14
   5.71000004      -1.63357131E-14
   5.82499981      -9.00387976E-15
   5.94000006      -1.47262832E-16
   6.05499983       9.87156252E-15
   6.17000008       2.05812218E-14
   6.28499985       3.14216765E-14
   6.40000010       4.17714738E-14
   6.51499987       5.09807887E-14
   6.63000011       5.84083427E-14
   6.74499989       6.34600472E-14
   6.86000013       6.56270489E-14
   6.97499990       6.45206544E-14
   7.09000015       5.99019871E-14
   7.20499992       5.17044090E-14
   7.32000017       4.00473789E-14
   7.43499994       2.52407416E-14
   7.55000019       7.77945891E-15
   7.66499996      -1.16707503E-14
   7.78000021      -3.22956383E-14
   7.89499998      -5.31607771E-14
   8.01000023      -7.32438199E-14
   8.12500000      -9.14683165E-14
   8.23999977      -1.06736722E-13
   8.35499954      -1.17960139E-13
   8.47000027      -1.24083361E-13
   8.58500004      -1.24103568E-13
   8.69999981      -1.17082667E-13
   8.81499958      -1.02153014E-13
   8.93000031      -7.85179349E-14
   9.04500008      -4.54486844E-14
   9.15999985      -2.27983894E-15
   9.27499962       5.15940101E-14
   9.39000034       1.16718009E-13
   9.50500011       1.93570691E-13
   9.61999989       2.82550161E-13
   9.73499966       3.83951470E-13
   9.85000038       4.97935731E-13
   9.96500015       6.24492320E-13
   10.0799999       7.63395857E-13
   10.1949997       9.14162734E-13
   10.3100004       1.07601070E-12
   10.4250002       1.24782769E-12
   10.5400000       1.42815371E-12
   10.6549997       1.61518184E-12
   10.7700005       1.80678270E-12
   10.8850002       2.00055510E-12
   11.0000000       2.19390305E-12
   11.1149998       2.38414215E-12
   11.2299995       2.56862652E-12
   11.3450003       2.74489741E-12
   11.4600000       2.91084106E-12
   11.5749998       3.06484937E-12
   11.6899996       3.20596999E-12
   11.8050003       3.33403964E-12
   11.9200001       3.44978104E-12
   12.0349998       3.55486040E-12
   12.1499996       3.65189346E-12
   12.2650003       3.74439238E-12
   12.3800001       3.83665235E-12
   12.4949999       3.93357829E-12
   12.6099997       4.04045590E-12
   12.7250004       4.16267324E-12
   12.8400002       4.30540976E-12
   12.9549999       4.47330931E-12
   13.0699997       4.67014665E-12
   13.1850004       4.89852083E-12
   13.3000002       5.15958587E-12
   13.4150000       5.45284044E-12
   13.5299997       5.77600251E-12
   13.6450005       6.12496555E-12
   13.7600002       6.49386491E-12
   13.8750000       6.87524603E-12
   13.9899998       7.26033686E-12
   14.1049995       7.63941601E-12
   14.2200003       8.00226031E-12
   14.3350000       8.33865876E-12
   14.4499998       8.63896021E-12
   14.5649996       8.89462896E-12
   14.6800003       9.09878770E-12
   14.7950001       9.24669976E-12
   14.9099998       9.33618027E-12
   15.0249996       9.36789535E-12
   15.1400003       9.34553650E-12
   15.2550001       9.27586046E-12
   15.3699999       9.16855914E-12
   15.4849997       9.03599331E-12
   15.6000004       8.89277974E-12
   15.7150002       8.75523872E-12
   15.8299999       8.64073570E-12
   15.9449997       8.56695010E-12
   16.0599995       8.55108952E-12
   16.1749992       8.60908480E-12
   16.2900009       8.75483019E-12
   16.4050007       8.99947391E-12
   16.5200005       9.35081092E-12
   16.6350002       9.81281723E-12
   16.7500000       1.03853297E-11
   16.8649998       1.10639128E-11
   16.9799995       1.18399136E-11
   17.0949993       1.27007094E-11
   17.2099991       1.36301387E-11
   17.3250008       1.46091073E-11
   17.4400005       1.56163416E-11
   17.5550003       1.66292587E-11
   17.6700001       1.76249119E-11
   17.7849998       1.85809753E-11
   17.8999996       1.94767188E-11
   18.0149994       2.02939280E-11
   18.1299992       2.10177171E-11
   18.2450008       2.16372094E-11
   18.3600006       2.21460263E-11
   18.4750004       2.25425841E-11
   18.5900002       2.28301492E-11
   18.7049999       2.30166598E-11
   18.8199997       2.31143195E-11
   18.9349995       2.31389474E-11
   19.0499992       2.31091517E-11
   19.1650009       2.30453174E-11
   19.2800007       2.29684830E-11
   19.3950005       2.28991444E-11
   19.5100002       2.28560417E-11
   19.6250000       2.28549887E-11
   19.7399998       2.29078197E-11
   19.8549995       2.30214667E-11
   19.9699993       2.31972636E-11
   20.0849991       2.34304832E-11
   20.2000008       2.37101467E-11
   20.3150005       2.40191252E-11
   20.4300003       2.43345049E-11
   20.5450001       2.46282422E-11
   20.6599998       2.48680503E-11
   20.7749996       2.50184890E-11
   20.8899994       2.50422027E-11
   21.0049992       2.49012321E-11
   21.1200008       2.45583814E-11
   21.2350006       2.39784928E-11
   21.3500004       2.31296631E-11
   21.4650002       2.19842599E-11
   21.5799999       2.05197456E-11
   21.6949997       1.87192518E-11
   21.8099995       1.65718828E-11
   21.9249992       1.40727378E-11
   22.0400009       1.12226903E-11
   22.1550007       8.02789692E-12
   22.2700005       4.49913067E-12
   22.3850002       6.50936770E-13
   22.5000000      -3.49931477E-12
   22.6149998      -7.93241861E-12
   22.7299995      -1.26283246E-11
   22.8449993      -1.75670641E-11
   22.9599991      -2.27295717E-11
   23.0750008      -2.80983813E-11
   23.1900005      -3.36581284E-11
   23.3050003      -3.93959067E-11
   23.4200001      -4.53014466E-11
   23.5349998      -5.13671120E-11
   23.6499996      -5.75877887E-11
   23.7649994      -6.39606701E-11
   23.8799992      -7.04849373E-11
   23.9950008      -7.71614717E-11
   24.1100006      -8.39925213E-11
   24.2250004      -9.09814238E-11
   24.3400002      -9.81323911E-11
   24.4549999      -1.05450336E-10
   24.5699997      -1.12940851E-10
   24.6849995      -1.20610161E-10
   24.7999992      -1.28465197E-10
   24.9150009      -1.36513648E-10
   25.0300007      -1.44764062E-10
   25.1450005      -1.53225863E-10
   25.2600002      -1.61909264E-10
   25.3750000      -1.70825118E-10
   25.4899998      -1.79984666E-10
   25.6049995      -1.89398983E-10
   25.7199993      -1.99078420E-10
   25.8349991      -2.09031820E-10
   25.9500008      -2.19265495E-10
   26.0650005      -2.29782332E-10
   26.1800003      -2.40580555E-10
   26.2950001      -2.51652754E-10
   26.4099998      -2.62984717E-10
   26.5249996      -2.74554490E-10
   26.6399994      -2.86331681E-10
   26.7549992      -2.98276792E-10
   26.8700008      -3.10341031E-10
   26.9850006      -3.22466442E-10
   27.1000004      -3.34586137E-10
   27.2150002      -3.46625340E-10
   27.3299999      -3.58502450E-10
   27.4449997      -3.70130676E-10
   27.5599995      -3.81419618E-10
   27.6749992      -3.92277683E-10
   27.7900009      -4.02614220E-10
   27.9050007      -4.12341911E-10
   28.0200005      -4.21379182E-10
   28.1350002      -4.29652397E-10
   28.2500000      -4.37098080E-10
   28.3649998      -4.43664772E-10
   28.4799995      -4.49314225E-10
   28.5949993      -4.54022819E-10
   28.7099991      -4.57781507E-10
   28.8250008      -4.60596117E-10
   28.9400005      -4.62486605E-10
   29.0550003      -4.63485805E-10
   29.1700001      -4.63637628E-10
   29.2849998      -4.62994421E-10
   29.3999996      -4.61614830E-10
   29.5149994      -4.59560417E-10
   29.6299992      -4.56892274E-10
   29.7450008      -4.53667909E-10
   29.8600006      -4.49938226E-10
   29.9750004      -4.45744108E-10
   30.0900002      -4.41114117E-10
   30.2049999      -4.36062186E-10
   30.3199997      -4.30586372E-10
   30.4349995      -4.24667690E-10
   30.5499992      -4.18270502E-10
   30.6650009      -4.11342987E-10
   30.7800007      -4.03819062E-10
   30.8950005      -3.95620620E-10
   31.0100002      -3.86660620E-10
   31.1250000      -3.76846720E-10
   31.2399998      -3.66085356E-10
   31.3549995      -3.54286073E-10
   31.4699993      -3.41365769E-10
   31.5849991      -3.27253141E-10
   31.7000008      -3.11892595E-10
   31.8150005      -2.95247354E-10
   31.9300003      -2.77302181E-10
   32.0449982      -2.58065402E-10
   32.1599998      -2.37569686E-10
   32.2750015      -2.15871931E-10
   32.3899994      -1.93052241E-10
   32.5050011      -1.69212103E-10
   32.6199989      -1.44471213E-10
   32.7350006      -1.18963950E-10
   32.8499985      -9.28351285E-11
   32.9650002      -6.62351632E-11
   33.0800018      -3.93151484E-11
   33.1949997      -1.22217930E-11
   33.3100014       1.49072196E-11
   33.4249992       4.19477127E-11
   33.5400009       6.87924925E-11
   33.6549988       9.53543841E-11
   33.7700005       1.21568366E-10
   33.8849983       1.47392237E-10
   34.0000000       1.72806838E-10
   34.1150017       1.97814959E-10
   34.2299995       2.22439275E-10
   34.3450012       2.46719423E-10
   34.4599991       2.70708206E-10
   34.5750008       2.94467312E-10
   34.6899986       3.18062410E-10
   34.8050003       3.41558060E-10
   34.9199982       3.65012270E-10
   35.0349998       3.88472143E-10
   35.1500015       4.11968903E-10
   35.2649994       4.35514236E-10
   35.3800011       4.59096872E-10
   35.4949989       4.82680895E-10
   35.6100006       5.06203690E-10
   35.7249985       5.29576494E-10
   35.8400002       5.52684509E-10
   35.9550018       5.75389791E-10
   36.0699997       5.97533134E-10
   36.1850014       6.18938734E-10
   36.2999992       6.39418019E-10
   36.4150009       6.58775423E-10
   36.5299988       6.76813050E-10
   36.6450005       6.93337110E-10
   36.7599983       7.08162584E-10
   36.8750000       7.21118998E-10
   36.9900017       7.32054861E-10
   37.1049995       7.40841721E-10
   37.2200012       7.47376661E-10
   37.3349991       7.51584961E-10
   37.4500008       7.53421048E-10
   37.5649986       7.52868268E-10
   37.6800003       7.49938056E-10
   37.7949982       7.44667661E-10
   37.9099998       7.37118200E-10
   38.0250015       7.27371052E-10
   38.1399994       7.15523807E-10
   38.2550011       7.01687264E-10
   38.3699989       6.85981383E-10
   38.4850006       6.68531508E-10
   38.5999985       6.49464871E-10
   38.7150002       6.28908925E-10
   38.8300018       6.06989237E-10
   38.9449997       5.83827819E-10
   39.0600014       5.59543689E-10
   39.1749992       5.34253142E-10
   39.2900009       5.08071141E-10
   39.4049988       4.81112761E-10
   39.5200005       4.53496185E-10
   39.6349983       4.25344288E-10
   39.7500000       3.96787464E-10
   39.8650017       3.67964798E-10
   39.9799995       3.39027140E-10
   40.0950012       3.10137582E-10
   40.2099991       2.81471096E-10
   40.3250008       2.53215560E-10
   40.4399986       2.25570146E-10
   40.5550003       1.98743202E-10
   40.6699982       1.72949724E-10
   40.7849998       1.48408355E-10
   40.9000015       1.25337671E-10
   41.0149994       1.03952041E-10
   41.1300011       8.44573370E-11
   41.2449989       6.70467085E-11
   41.3600006       5.18979304E-11
   41.4749985       3.91686822E-11
   41.5900002       2.89951708E-11
   41.7050018       2.14897076E-11
   41.8199997       1.67399358E-11
   41.9350014       1.48094002E-11
   42.0499992       1.57378954E-11
   42.1650009       1.95432039E-11
   42.2799988       2.62243820E-11
   42.3950005       3.57647002E-11
   42.5099983       4.81352978E-11
   42.6250000       6.33001707E-11
   42.7400017       8.12205650E-11
   42.8549995       1.01859479E-10
   42.9700012       1.25187791E-10
   43.0849991       1.51186466E-10
   43.2000008       1.79852092E-10
   43.3149986       2.11200196E-10
   43.4300003       2.45267556E-10
   43.5449982       2.82115054E-10
   43.6599998       3.21827759E-10
   43.7750015       3.64515917E-10
   43.8899994       4.10314449E-10
   44.0050011       4.59380978E-10
   44.1199989       5.11893361E-10
   44.2350006       5.68045444E-10
   44.3499985       6.28046004E-10
   44.4650002       6.92110202E-10
   44.5800018       7.60457974E-10
   44.6949997       8.33307423E-10
   44.8100014       9.10868492E-10
   44.9249992       9.93338745E-10
   45.0400009       1.08089815E-09
   45.1549988       1.17370202E-09
   45.2700005       1.27187871E-09
   45.3849983       1.37552636E-09
   45.5000000       1.48470747E-09
   45.6150017       1.59944835E-09
   45.7299995       1.71973602E-09
   45.8450012       1.84551907E-09
   45.9599991       1.97670613E-09
   46.0750008       2.11316920E-09
   46.1899986       2.25474128E-09
   46.3050003       2.40121922E-09
   46.4199982       2.55237009E-09
   46.5349998       2.70792722E-09
   46.6500015       2.86759860E-09
   46.7649994       3.03106829E-09
   46.8800011       3.19800164E-09
   46.9949989       3.36804562E-09
   47.1100006       3.54083585E-09
   47.2249985       3.71599751E-09
   47.3400002       3.89314980E-09
   47.4550018       4.07191214E-09
   47.5699997       4.25190327E-09
   47.6850014       4.43275061E-09
   47.7999992       4.61408778E-09
   47.9150009       4.79556217E-09
   48.0299988       4.97683539E-09
   48.1450005       5.15758813E-09
   48.2599983       5.33752154E-09
   48.3750000       5.51636159E-09
   48.4900017       5.69385694E-09
   48.6049995       5.86978421E-09
   48.7200012       6.04394579E-09
   48.8349991       6.21617113E-09
   48.9500008       6.38631370E-09
   49.0649986       6.55424914E-09
   49.1800003       6.71987532E-09
   49.2949982       6.88310475E-09
   49.4099998       7.04386593E-09
   49.5250015       7.20209536E-09
   49.6399994       7.35773797E-09
   49.7550011       7.51073870E-09
   49.8699989       7.66104336E-09
   49.9850006       7.80859644E-09
   50.0999985       7.95333932E-09
   50.2150002       8.09520717E-09
   50.3300018       8.23412805E-09
   50.4449997       8.37002734E-09
   50.5600014       8.50282866E-09
   50.6749992       8.63245830E-09
   50.7900009       8.75884876E-09
   50.9049988       8.88194496E-09
   51.0200005       9.00170782E-09
   51.1349983       9.11812403E-09
   51.2500000       9.23120869E-09
   51.3650017       9.34100974E-09
   51.4799995       9.44761602E-09
   51.5950012       9.55115542E-09
   51.7099991       9.65180114E-09
   51.8250008       9.74977166E-09
   51.9399986       9.84532811E-09
   52.0550003       9.93877247E-09
   52.1699982       1.00304449E-08
   52.2849998       1.01207194E-08
   52.4000015       1.02099920E-08
   52.5149994       1.02986819E-08
   52.6300011       1.03872129E-08
   52.7449989       1.04760129E-08
   52.8600006       1.05654960E-08
   52.9749985       1.06560591E-08
   53.0900002       1.07480682E-08
   53.2050018       1.08418492E-08
   53.3199997       1.09376836E-08
   53.4350014       1.10358016E-08
   53.5499992       1.11363727E-08
   53.6650009       1.12395071E-08
   53.7799988       1.13452518E-08
   53.8950005       1.14535901E-08
   54.0099983       1.15644454E-08
   54.1250000       1.16776810E-08
   54.2400017       1.17931114E-08
   54.3549995       1.19104993E-08
   54.4700012       1.20295729E-08
   54.5849991       1.21500285E-08
   54.7000008       1.22715438E-08
   54.8149986       1.23937838E-08
   54.9300003       1.25164137E-08
   55.0449982       1.26391013E-08
   55.1599998       1.27615278E-08
   55.2750015       1.28833912E-08
   55.3899994       1.30044127E-08
   55.5050011       1.31243345E-08
   55.6199989       1.32429170E-08
   55.7350006       1.33599389E-08
   55.8499985       1.34751925E-08
   55.9650002       1.35884717E-08
   56.0800018       1.36995659E-08
   56.1949997       1.38082497E-08
   56.3100014       1.39142680E-08
   56.4249992       1.40173251E-08
   56.5400009       1.41170693E-08
   56.6549988       1.42130796E-08
   56.7700005       1.43048569E-08
   56.8849983       1.43918122E-08
   57.0000000       1.44732599E-08
   57.1150017       1.45484069E-08
   57.2299995       1.46163543E-08
   57.3450012       1.46760977E-08
   57.4599991       1.47265169E-08
   57.5750008       1.47663899E-08
   57.6899986       1.47943942E-08
   57.8050003       1.48091059E-08
   57.9199982       1.48090207E-08
   58.0349998       1.47925485E-08
   58.1500015       1.47580286E-08
   58.2649994       1.47037360E-08
   58.3800011       1.46278971E-08
   58.4949989       1.45286876E-08
   58.6100006       1.44042467E-08
   58.7249985       1.42526790E-08
   58.8400002       1.40720671E-08
   58.9550018       1.38604683E-08
   59.0699997       1.36159244E-08
   59.1850014       1.33364573E-08
   59.2999992       1.30200819E-08
   59.4150009       1.26648070E-08
   59.5299988       1.22686314E-08
   59.6450005       1.18295604E-08
   59.7599983       1.13456036E-08
   59.8750000       1.08147811E-08
   59.9900017       1.02351301E-08
   60.1049995       9.60471347E-09
   60.2200012       8.92162877E-09
   60.3349991       8.18401258E-09
   60.4500008       7.39005257E-09
   60.5649986       6.53799681E-09
   60.6800003       5.62616576E-09
   60.7949982       4.65295669E-09
   60.9099998       3.61685348E-09
   61.0250015       2.51643839E-09
   61.1399994       1.35039901E-09
   61.2550011       1.17528945E-10
   61.3699989      -1.18326082E-09
   61.4850006      -2.55293942E-09
   61.5999985      -3.99235756E-09
   61.7150002      -5.50224133E-09
   61.8300018      -7.08319270E-09
   61.9449997      -8.73569128E-09
   62.0600014      -1.04600923E-08
   62.1749992      -1.22566268E-08
   62.2900009      -1.41254102E-08
   62.4049988      -1.60664335E-08
   62.5200005      -1.80795769E-08
   62.6349983      -2.01646024E-08
   62.7500000      -2.23211618E-08
   62.8650017      -2.45487932E-08
   62.9799995      -2.68469229E-08
   63.0950012      -2.92148705E-08
   63.2099991      -3.16518332E-08
   63.3250008      -3.41568906E-08
   63.4399986      -3.67289985E-08
   63.5550003      -3.93669737E-08
   63.6699982      -4.20694981E-08
   63.7849998      -4.48351187E-08
   63.9000015      -4.76622120E-08
   64.0149994      -5.05490085E-08
   64.1299973      -5.34935509E-08
   64.2450027      -5.64937253E-08
   64.3600006      -5.95472152E-08
   64.4749985      -6.26515231E-08
   64.5899963      -6.58039525E-08
   64.7050018      -6.90016080E-08
   64.8199997      -7.22413986E-08
   64.9349976      -7.55200347E-08
   65.0500031      -7.88340486E-08
   65.1650009      -8.21797599E-08
   65.2799988      -8.55533386E-08
   65.3949966      -8.89507703E-08
   65.5100021      -9.23678982E-08
   65.6250000      -9.58004094E-08
   65.7399979      -9.92438558E-08
   65.8550034      -1.02693697E-07
   65.9700012      -1.06145251E-07
   66.0849991      -1.09593771E-07
   66.1999969      -1.13034410E-07
   66.3150024      -1.16462274E-07
   66.4300003      -1.19872382E-07
   66.5449982      -1.23259696E-07
   66.6600037      -1.26619170E-07
   66.7750015      -1.29945647E-07
   66.8899994      -1.33233996E-07
   67.0049973      -1.36479017E-07
   67.1200027      -1.39675507E-07
   67.2350006      -1.42818209E-07
   67.3499985      -1.45901865E-07
   67.4649963      -1.48921231E-07
   67.5800018      -1.51871006E-07
   67.6949997      -1.54745948E-07
   67.8099976      -1.57540796E-07
   67.9250031      -1.60250337E-07
   68.0400009      -1.62869412E-07
   68.1549988      -1.65392890E-07
   68.2699966      -1.67815713E-07
   68.3850021      -1.70132950E-07
   68.5000000      -1.72339739E-07
   68.6149979      -1.74431335E-07
   68.7300034      -1.76403162E-07
   68.8450012      -1.78250716E-07
   68.9599991      -1.79969689E-07
   69.0749969      -1.81555905E-07
   69.1900024      -1.83005383E-07
   69.3050003      -1.84314317E-07
   69.4199982      -1.85479053E-07
   69.5350037      -1.86496123E-07
   69.6500015      -1.87362232E-07
   69.7649994      -1.88074225E-07
   69.8799973      -1.88629130E-07
   69.9950027      -1.89024064E-07
   70.1100006      -1.89256312E-07
   70.2249985      -1.89323274E-07
   70.3399963      -1.89222476E-07
   70.4550018      -1.88951518E-07
   70.5699997      -1.88508082E-07
   70.6849976      -1.87889952E-07
   70.8000031      -1.87094997E-07
   70.9150009      -1.86121056E-07
   71.0299988      -1.84966098E-07
   71.1449966      -1.83628075E-07
   71.2600021      -1.82104998E-07
   71.3750000      -1.80394963E-07
   71.4899979      -1.78496094E-07
   71.6050034      -1.76406630E-07
   71.7200012      -1.74124906E-07
   71.8349991      -1.71649319E-07
   71.9499969      -1.68978417E-07
   72.0650024      -1.66110866E-07
   72.1800003      -1.63045499E-07
   72.2949982      -1.59781251E-07
   72.4100037      -1.56317341E-07
   72.5250015      -1.52653072E-07
   72.6399994      -1.48788047E-07
   72.7549973      -1.44722051E-07
   72.8700027      -1.40455057E-07
   72.9850006      -1.35987293E-07
   73.0999985      -1.31319155E-07
   73.2149963      -1.26451226E-07
   73.3300018      -1.21384261E-07
   73.4449997      -1.16119196E-07
   73.5599976      -1.10657105E-07
   73.6750031      -1.04999188E-07
   73.7900009      -9.91468028E-08
   73.9049988      -9.31013986E-08
   74.0199966      -8.68645316E-08
   74.1350021      -8.04378928E-08
   74.2500000      -7.38232586E-08
   74.3649979      -6.70225617E-08
   74.4800034      -6.00378485E-08
   74.5950012      -5.28713002E-08
   74.7099991      -4.55253115E-08
   74.8249969      -3.80024794E-08
   74.9400024      -3.03056211E-08
   75.0550003      -2.24378311E-08
   75.1699982      -1.44024863E-08
   75.2850037      -6.20331120E-09
   75.4000015       2.15566143E-09
   75.5149994       1.06700107E-08
   75.6299973       1.93349390E-08
   75.7450027       2.81452728E-08
   75.8600006       3.70954467E-08
   75.9749985       4.61795189E-08
   76.0899963       5.53911725E-08
   76.2050018       6.47237286E-08
   76.3199997       7.41701882E-08
   76.4349976       8.37232434E-08
   76.5500031       9.33753199E-08
   76.6650009       1.03118616E-07
   76.7799988       1.12945102E-07
   76.8949966       1.22846615E-07
   77.0100021       1.32814861E-07
   77.1250000       1.42841401E-07
   77.2399979       1.52917735E-07
   77.3550034       1.63035352E-07
   77.4700012       1.73185626E-07
   77.5849991       1.83359930E-07
   77.6999969       1.93549624E-07
   77.8150024       2.03746055E-07
   77.9300003       2.13940524E-07
   78.0449982       2.24124349E-07
   78.1600037       2.34288805E-07
   78.2750015       2.44425166E-07
   78.3899994       2.54524650E-07
   78.5049973       2.64578432E-07
   78.6200027       2.74577673E-07
   78.7350006       2.84513447E-07
   78.8499985       2.94376832E-07
   78.9649963       3.04158817E-07
   79.0800018       3.13850393E-07
   79.1949997       3.23442578E-07
   79.3099976       3.32926334E-07
   79.4250031       3.42292708E-07
   79.5400009       3.51532748E-07