  -18.8999996       0.00000000    
  -18.7849998       0.00000000    
  -18.6700001       0.00000000    
  -18.5550003       0.00000000    
  -18.4400005       2.98341742E-22
  -18.3250008       3.53630577E-21
  -18.2099991       2.08713857E-20
  -18.0949993       8.21323657E-20
  -17.9799995       2.40480222E-19
  -17.8649998       5.46124855E-19
  -17.7500000       9.47534978E-19
  -17.6350002       1.07498335E-18
  -17.5200005      -1.15418450E-19
  -17.4050007      -4.80002073E-18
  -17.2900009      -1.67211169E-17
  -17.1749992      -4.13688642E-17
  -17.0599995      -8.56119692E-17
  -16.9449997      -1.56471682E-16
  -16.8299999      -2.58826111E-16
  -16.7150002      -3.92032285E-16
  -16.6000004      -5.45739516E-16
  -16.4850006      -6.95490653E-16
  -16.3700008      -7.98999826E-16
  -16.2549992      -7.94190003E-16
  -16.1399994      -6.00108073E-16
  -16.0249996      -1.21699444E-16
  -15.9099998       7.40907607E-16
  -15.7950001       2.07841556E-15
  -15.6800003       3.95406796E-15
  -15.5649996       6.38206884E-15
  -15.4499998       9.30434268E-15
  -15.3350000       1.25678327E-14
  -15.2200003       1.59049206E-14
  -15.1049995       1.89198073E-14
  -14.9899998       2.10836089E-14
  -14.8750000       2.17405592E-14
  -14.7600002       2.01269953E-14
  -14.6450005       1.54037295E-14
  -14.5299997       6.70114446E-15
  -14.4150000      -6.82504124E-15
  -14.3000002      -2.59307685E-14
  -14.1850004      -5.12177547E-14
  -14.0699997      -8.30697883E-14
  -13.9549999      -1.21596526E-13
  -13.8400002      -1.66589426E-13
  -13.7250004      -2.17494114E-13
  -13.6099997      -2.73401825E-13
  -13.4949999      -3.33061866E-13
  -13.3800001      -3.94915275E-13
  -13.2650003      -4.57148533E-13
  -13.1499996      -5.17764488E-13
  -13.0349998      -5.74665098E-13
  -12.9200001      -6.25739098E-13
  -12.8050003      -6.68943199E-13
  -12.6899996      -7.02364978E-13
  -12.5749998      -7.24250954E-13
  -12.4600000      -7.32987347E-13
  -12.3450003      -7.27020332E-13
  -12.2299995      -7.04713685E-13
  -12.1149998      -6.64151297E-13
  -12.0000000      -6.02907915E-13
  -11.8850002      -5.17827101E-13
  -11.7700005      -4.04862911E-13
  -11.6549997      -2.59041839E-13
  -11.5400000      -7.46072448E-14
  -11.4250002       1.54616608E-13
  -11.3100004       4.34630169E-13
  -11.1949997       7.70471577E-13
  -11.0799999       1.16532500E-12
  -10.9650002       1.61966339E-12
  -10.8500004       2.13060038E-12
  -10.7349997       2.69164118E-12
  -10.6199999       3.29300302E-12
  -10.5050001       3.92261310E-12
  -10.3900003       4.56780534E-12
  -10.2749996       5.21761323E-12
  -10.1599998       5.86542013E-12
  -10.0450001       6.51161677E-12
  -9.93000031       7.16581438E-12
  -9.81499958       7.84814227E-12
  -9.69999981       8.58918579E-12
  -9.58500004       9.42823597E-12
  -9.47000027       1.04097200E-11
  -9.35499954       1.15779053E-11
  -9.23999977       1.29702785E-11
  -9.12500000       1.46102141E-11
  -9.01000023       1.64998414E-11
  -8.89500046       1.86140964E-11
  -8.77999973       2.08970549E-11
  -8.66499996       2.32614882E-11
  -8.55000019       2.55924292E-11
  -8.43500042       2.77551575E-11
  -8.31999969       2.96075803E-11
  -8.20499992       3.10165227E-11
  -8.09000015       3.18768102E-11
  -7.97499990       3.21316168E-11
  -7.86000013       3.17920655E-11
  -7.74499989       3.09536806E-11
  -7.63000011       2.98072747E-11
  -7.51499987       2.86418094E-11
  -7.40000010       2.78371371E-11
  -7.28499985       2.78450943E-11
  -7.17000008       2.91583493E-11
  -7.05499983       3.22674422E-11
  -6.94000006       3.76078543E-11
  -6.82499981       4.55003084E-11
  -6.71000004       5.60889668E-11
  -6.59499979       6.92833707E-11
  -6.48000002       8.47109397E-11
  -6.36499977       1.01687159E-10
  -6.25000000       1.19210378E-10
  -6.13500023       1.35987263E-10
  -6.01999998       1.50492716E-10
  -5.90500021       1.61065952E-10
  -5.78999996       1.66041028E-10
  -5.67500019       1.63906166E-10
  -5.55999994       1.53482824E-10
  -5.44500017       1.34111583E-10
  -5.32999992       1.05828978E-10
  -5.21500015       6.95174196E-11
  -5.09999990       2.70094034E-11
  -4.98500013      -1.88716959E-11
  -4.86999989      -6.43496922E-11
  -4.75500011      -1.04823407E-10
  -4.63999987      -1.35089578E-10
  -4.52500010      -1.49659077E-10
  -4.40999985      -1.43156015E-10
  -4.29500008      -1.10782133E-10
  -4.17999983      -4.88193236E-11
  -4.06500006       4.48626795E-11
  -3.95000005       1.70332887E-10
  -3.83500004       3.25201782E-10
  -3.72000003       5.04343567E-10
  -3.60500002       6.99776626E-10
  -3.49000001       9.00737818E-10
  -3.37500000       1.09397325E-09
  -3.25999999       1.26425859E-09
  -3.14499998       1.39514456E-09
  -3.02999997       1.46990886E-09
  -2.91499996       1.47267631E-09
  -2.79999995       1.38965339E-09
  -2.68499994       1.21040677E-09
  -2.56999993       9.29104738E-10
  -2.45499992       5.45632595E-10
  -2.33999991       6.64900149E-11
  -2.22499990      -4.94618013E-10
  -2.10999990      -1.11657306E-09
  -1.99500000      -1.77108028E-09
  -1.88000000      -2.42338949E-09
  -1.76499999      -3.03350811E-09
  -1.64999998      -3.55789509E-09
  -1.53499997      -3.95157640E-09
  -1.41999996      -4.17060253E-09
  -1.30499995      -4.17474011E-09
  -1.19000006      -3.93025790E-09
  -1.07500005      -3.41265327E-09
 -0.959999979      -2.60916444E-09
 -0.845000029      -1.52089719E-09
 -0.730000019      -1.64419048E-10
 -0.615000010       1.42731305E-09
 -0.500000000       3.20479554E-09
 -0.384999990       5.10265386E-09
 -0.270000011       7.04118319E-09
 -0.155000001       8.92872087E-09
  -3.99999991E-02   1.06647846E-08
   7.50000030E-02   1.21438610E-08
  0.189999998       1.32596707E-08
  0.305000007       1.39097303E-08
  0.419999987       1.39999798E-08
  0.535000026       1.34492470E-08
  0.649999976       1.21933006E-08
  0.764999986       1.01882760E-08
  0.879999995       7.41327799E-09
  0.995000005       3.87198273E-09
   1.11000001      -4.06864265E-10
   1.22500002      -5.37011857E-09
   1.34000003      -1.09420721E-08
   1.45500004      -1.70274017E-08
   1.57000005      -2.35151028E-08
   1.68499994      -3.02832355E-08
   1.79999995      -3.72042592E-08
   1.91499996      -4.41507275E-08
   2.02999997      -5.10010381E-08
   2.14499998      -5.76449644E-08
   2.25999999      -6.39887432E-08
   2.37500000      -6.99594125E-08
   2.49000001      -7.55082397E-08
   2.60500002      -8.06130558E-08
   2.72000003      -8.52794244E-08
   2.83500004      -8.95405350E-08
   2.95000005      -9.34559097E-08
   3.06500006      -9.71090017E-08
   3.18000007      -1.00603799E-07
   3.29500008      -1.04060568E-07
   3.41000009      -1.07611129E-07
   3.52500010      -1.11393668E-07
   3.64000010      -1.15547593E-07
   3.75500011      -1.20208540E-07
   3.86999989      -1.25503760E-07
   3.98499990      -1.31548248E-07
   4.09999990      -1.38441550E-07
   4.21500015      -1.46265592E-07
   4.32999992      -1.55083569E-07
   4.44500017      -1.64939635E-07
   4.55999994      -1.75859839E-07
   4.67500019      -1.87853672E-07
   4.78999996      -2.00916531E-07
   4.90500021      -2.15032728E-07
   5.01999998      -2.30178742E-07
   5.13500023      -2.46326806E-07
   5.25000000      -2.63448356E-07
   5.36499977      -2.81517202E-07
   5.48000002      -3.00512426E-07
   5.59499979      -3.20420583E-07
   5.71000004      -3.41237438E-07
   5.82499981      -3.62968819E-07
   5.94000006      -3.85630983E-07
   6.05499983      -4.09250163E-07
   6.17000008      -4.33861601E-07
   6.28499985      -4.59508186E-07
   6.40000010      -4.86238548E-07
   6.51499987      -5.14105352E-07
   6.63000011      -5.43163083E-07
   6.74499989      -5.73466366E-07
   6.86000013      -6.05068465E-07
   6.97499990      -6.38020197E-07
   7.09000015      -6.72369310E-07
   7.20499992      -7.08160428E-07
   7.32000017      -7.45435671E-07
   7.43499994      -7.84235681E-07
   7.55000019      -8.24600988E-07
   7.66499996      -8.66574169E-07
   7.78000021      -9.10201777E-07
   7.89499998      -9.55536393E-07
   8.01000023      -1.00263901E-06
   8.12500000      -1.05158074E-06
   8.23999977      -1.10244378E-06
   8.35499954      -1.15532305E-06
   8.47000027      -1.21032542E-06
   8.58500004      -1.26756970E-06
   8.69999981      -1.32718492E-06
   8.81499958      -1.38930807E-06
   8.93000031      -1.45408137E-06
   9.04500008      -1.52164830E-06
   9.15999985      -1.59215006E-06
   9.27499962      -1.66572056E-06
   9.39000034      -1.74248225E-06
   9.50500011      -1.82254189E-06
   9.61999989      -1.90598610E-06
   9.73499966      -1.99287751E-06
   9.85000038      -2.08325309E-06
   9.96500015      -2.17712022E-06
   10.0799999      -2.27445707E-06
   10.1949997      -2.37521226E-06
   10.3100004      -2.47930484E-06
   10.4250002      -2.58662817E-06
   10.5400000      -2.69705151E-06
   10.6549997      -2.81042526E-06
   10.7700005      -2.92658433E-06
   10.8850002      -3.04535433E-06
   11.0000000      -3.16655678E-06
   11.1149998      -3.29001386E-06
   11.2299995      -3.41555369E-06
   11.3450003      -3.54301574E-06
   11.4600000      -3.67225266E-06
   11.5749998      -3.80313463E-06
   11.6899996      -3.93555047E-06
   11.8050003      -4.06940762E-06
   11.9200001      -4.20463221E-06
   12.0349998      -4.34116691E-06
   12.1499996      -4.47896537E-06
   12.2650003      -4.61799027E-06
   12.3800001      -4.75820616E-06
   12.4949999      -4.89957392E-06
   12.6099997      -5.04204445E-06
   12.7250004      -5.18555089E-06
   12.8400002      -5.33000275E-06
   12.9549999      -5.47527998E-06
   13.0699997      -5.62122750E-06
   13.1850004      -5.76765160E-06
   13.3000002      -5.91431444E-06
   13.4150000      -6.06093636E-06
   13.5299997      -6.20719175E-06
   13.6450005      -6.35271181E-06
   13.7600002      -6.49708727E-06
   13.8750000      -6.63987248E-06
   13.9899998      -6.78059041E-06
   14.1049995      -6.91873720E-06
   14.2200003      -7.05379080E-06
   14.3350000      -7.18521505E-06
   14.4499998      -7.31246701E-06
   14.5649996      -7.43500414E-06
   14.6800003      -7.55228803E-06
   14.7950001      -7.66378707E-06
   14.9099998      -7.76898287E-06
   15.0249996      -7.86736746E-06
   15.1400003      -7.95844153E-06
   15.2550001      -8.04172032E-06
   15.3699999      -8.11671907E-06
   15.4849997      -8.18295848E-06
   15.6000004      -8.23994924E-06
   15.7150002      -8.28719385E-06
   15.8299999      -8.32417209E-06
   15.9449997      -8.35033825E-06
   16.0599995      -8.36511208E-06
   16.1749992      -8.36787694E-06
   16.2900009      -8.35796618E-06
   16.4050007      -8.33466765E-06
   16.5200005      -8.29721557E-06
   16.6350002      -8.24479230E-06
   16.7500000      -8.17653017E-06
   16.8649998      -8.09151061E-06
   16.9799995      -7.98877136E-06
   17.0949993      -7.86731107E-06
   17.2099991      -7.72609383E-06
   17.3250008      -7.56405825E-06
   17.4400005      -7.38012341E-06
   17.5550003      -7.17319745E-06
   17.6700001      -6.94218261E-06
   17.7849998      -6.68598477E-06
   17.8999996      -6.40351618E-06
   18.0149994      -6.09370227E-06
   18.1299992      -5.75548529E-06
   18.2450008      -5.38782706E-06
   18.3600006      -4.98970940E-06
   18.4750004      -4.56013549E-06
   18.5900002      -4.09812856E-06
   18.7049999      -3.60273339E-06
   18.8199997      -3.07301343E-06
   18.9349995      -2.50804692E-06
   19.0499992      -1.90693152E-06
   19.1650009      -1.26877842E-06
   19.2800007      -5.92713150E-07
   19.3950005       1.22122273E-07
   19.5100002       8.76574688E-07
   19.6250000       1.67147255E-06
   19.7399998       2.50763128E-06
   19.8549995       3.38584823E-06
   19.9699993       4.30690125E-06
   20.0849991       5.27154862E-06
   20.2000008       6.28052658E-06
   20.3150005       7.33454681E-06
   20.4300003       8.43429189E-06
   20.5450001       9.58042438E-06
   20.6599998       1.07735768E-05
   20.7749996       1.20143613E-05
   20.8899994       1.33033645E-05
   21.0049992       1.46411467E-05
   21.1200008       1.60282616E-05
   21.2350006       1.74652378E-05
   21.3500004       1.89525927E-05
   21.4650002       2.04908374E-05
   21.5799999       2.20804723E-05
   21.6949997       2.37219974E-05
   21.8099995       2.54159058E-05
   21.9249992       2.71626959E-05
   22.0400009       2.89628570E-05
   22.1550007       3.08168856E-05
   22.2700005       3.27252674E-05
   22.3850002       3.46884881E-05
   22.5000000       3.67070243E-05
   22.6149998       3.87813307E-05
   22.7299995       4.09118547E-05
   22.8449993       4.30989930E-05
   22.9599991       4.53431276E-05
   23.0750008       4.76445784E-05
   23.1900005       5.00036258E-05
   23.3050003       5.24204806E-05
   23.4200001       5.48952885E-05
   23.5349998       5.74281112E-05
   23.6499996       6.00189269E-05
   23.7649994       6.26676192E-05
   23.8799992       6.53739917E-05
   23.9950008       6.81377060E-05
   24.1100006       7.09583765E-05
   24.2250004       7.38354865E-05
   24.3400002       7.67684251E-05
   24.4549999       7.97564935E-05
   24.5699997       8.27989134E-05
   24.6849995       8.58948115E-05
   24.7999992       8.90432784E-05
   24.9150009       9.22433319E-05
   25.0300007       9.54939460E-05
   25.1450005       9.87940803E-05
   25.2600002       1.02142665E-04
   25.3750000       1.05538631E-04
   25.4899998       1.08980908E-04
   25.6049995       1.12468457E-04
   25.7199993       1.16000258E-04
   25.8349991       1.19575307E-04
   25.9500008       1.23192629E-04
   26.0650005       1.26851301E-04
   26.1800003       1.30550412E-04
   26.2950001       1.34289046E-04
   26.4099998       1.38066302E-04
   26.5249996       1.41881290E-04
   26.6399994       1.45733124E-04
   26.7549992       1.49620842E-04
   26.8700008       1.53543486E-04
   26.9850006       1.57500021E-04
   27.1000004       1.61489370E-04
   27.2150002       1.65510370E-04
   27.3299999       1.69561783E-04
   27.4449997       1.73642300E-04
   27.5599995       1.77750524E-04
   27.6749992       1.81884971E-04
   27.7900009       1.86044112E-04
   27.9050007       1.90226347E-04
   28.0200005       1.94430002E-04
   28.1350002       1.98653361E-04
   28.2500000       2.02894676E-04
   28.3649998       2.07152203E-04
   28.4799995       2.11424180E-04
   28.5949993       2.15708846E-04
   28.7099991       2.20004469E-04
   28.8250008       2.24309333E-04
   28.9400005       2.28621764E-04
   29.0550003       2.32940103E-04
   29.1700001       2.37262735E-04
   29.2849998       2.41588030E-04
   29.3999996       2.45914387E-04
   29.5149994       2.50240206E-04
   29.6299992       2.54563900E-04
   29.7450008       2.58883781E-04
   29.8600006       2.63198279E-04
   29.9750004       2.67505646E-04
   30.0900002       2.71804136E-04
   30.2049999       2.76091945E-04
   30.3199997       2.80367181E-04
   30.4349995       2.84627924E-04
   30.5499992       2.88872077E-04
   30.6650009       2.93097546E-04
   30.7800007       2.97302147E-04
   30.8950005       3.01483669E-04
   31.0100002       3.05639842E-04
   31.1250000       3.09768307E-04
   31.2399998       3.13866796E-04
   31.3549995       3.17932951E-04
   31.4699993       3.21964413E-04
   31.5849991       3.25958856E-04
   31.7000008       3.29913921E-04
   31.8150005       3.33827251E-04
   31.9300003       3.37696547E-04
   32.0449982       3.41519510E-04
   32.1599998       3.45293840E-04
   32.2750015       3.49017297E-04
   32.3899994       3.52687552E-04
   32.5050011       3.56302364E-04
   32.6199989       3.59859376E-04
   32.7350006       3.63356201E-04
   32.8499985       3.66790395E-04
   32.9650002       3.70159425E-04
   33.0800018       3.73460760E-04
   33.1949997       3.76691751E-04
   33.3100014       3.79849633E-04
   33.4249992       3.82931612E-04
   33.5400009       3.85934807E-04
   33.6549988       3.88856279E-04
   33.7700005       3.91693029E-04
   33.8849983       3.94441944E-04
   34.0000000       3.97099881E-04
   34.1150017       3.99663666E-04
   34.2299995       4.02130041E-04
   34.3450012       4.04495833E-04
   34.4599991       4.06757812E-04
   34.5750008       4.08912718E-04
   34.6899986       4.10957349E-04
   34.8050003       4.12888563E-04
   34.9199982       4.14703129E-04
   35.0349998       4.16397932E-04
   35.1500015       4.17969772E-04
   35.2649994       4.19415534E-04
   35.3800011       4.20732016E-04
   35.4949989       4.21916106E-04
   35.6100006       4.22964687E-04
   35.7249985       4.23874619E-04
   35.8400002       4.24642814E-04
   35.9550018       4.25266073E-04
   36.0699997       4.25741280E-04
   36.1850014       4.26065264E-04
   36.2999992       4.26234794E-04
   36.4150009       4.26246726E-04
   36.5299988       4.26097802E-04
   36.6450005       4.25784761E-04
   36.7599983       4.25304461E-04
   36.8750000       4.24653641E-04
   36.9900017       4.23829129E-04
   37.1049995       4.22827696E-04
   37.2200012       4.21646138E-04
   37.3349991       4.20281343E-04
   37.4500008       4.18730197E-04
   37.5649986       4.16989613E-04
   37.6800003       4.15056566E-04
   37.7949982       4.12928086E-04
   37.9099998       4.10601264E-04
   38.0250015       4.08073363E-04
   38.1399994       4.05341591E-04
   38.2550011       4.02403384E-04
   38.3699989       3.99256212E-04
   38.4850006       3.95897718E-04
   38.5999985       3.92325630E-04
   38.7150002       3.88537854E-04
   38.8300018       3.84532410E-04
   38.9449997       3.80307465E-04
   39.0600014       3.75861360E-04
   39.1749992       3.71192611E-04
   39.2900009       3.66299908E-04
   39.4049988       3.61182145E-04
   39.5200005       3.55838332E-04
   39.6349983       3.50267539E-04
   39.7500000       3.44469066E-04
   39.8650017       3.38442333E-04
   39.9799995       3.32186813E-04
   40.0950012       3.25702102E-04
   40.2099991       3.18987964E-04
   40.3250008       3.12044256E-04
   40.4399986       3.04871006E-04
   40.5550003       2.97468243E-04
   40.6699982       2.89836113E-04
   40.7849998       2.81974761E-04
   40.9000015       2.73884594E-04
   41.0149994       2.65565846E-04
   41.1300011       2.57018954E-04
   41.2449989       2.48244527E-04
   41.3600006       2.39243178E-04
   41.4749985       2.30015823E-04
   41.5900002       2.20563365E-04
   41.7050018       2.10886836E-04
   41.8199997       2.00987299E-04
   41.9350014       1.90866034E-04
   42.0499992       1.80524294E-04
   42.1650009       1.69963387E-04
   42.2799988       1.59184769E-04
   42.3950005       1.48189909E-04
   42.5099983       1.36980350E-04
   42.6250000       1.25557635E-04
   42.7400017       1.13923408E-04
   42.8549995       1.02079248E-04
   42.9700012       9.00266386E-05
   43.0849991       7.77670721E-05
   43.2000008       6.53018797E-05
   43.3149986       5.26324111E-05
   43.4300003       3.97599797E-05
   43.5449982       2.66857587E-05
   43.6599998       1.34110860E-05
   43.7750015      -6.29698889E-08
   43.8899994      -1.37351963E-05
   44.0050011      -2.76045139E-05
   44.1199989      -4.16698531E-05
   44.2350006      -5.59302134E-05
   44.3499985      -7.03846817E-05
   44.4650002      -8.50324068E-05
   44.5800018      -9.98726537E-05
   44.6949997      -1.14904651E-04
   44.8100014      -1.30127723E-04
   44.9249992      -1.45541315E-04
   45.0400009      -1.61145043E-04
   45.1549988      -1.76938760E-04
   45.2700005      -1.92922453E-04
   45.3849983      -2.09096383E-04
   45.5000000      -2.25461190E-04
   45.6150017      -2.42017777E-04
   45.7299995      -2.58767366E-04
   45.8450012      -2.75711471E-04
   45.9599991      -2.92851793E-04
   46.0750008      -3.10190488E-04
   46.1899986      -3.27729853E-04
   46.3050003      -3.45472537E-04
   46.4199982      -3.63421306E-04
   46.5349998      -3.81579157E-04
   46.6500015      -3.99949378E-04
   46.7649994      -4.18535114E-04
   46.8800011      -4.37339622E-04
   46.9949989      -4.56366251E-04
   47.1100006      -4.75617999E-04
   47.2249985      -4.95097833E-04
   47.3400002      -5.14808635E-04
   47.4550018      -5.34752966E-04
   47.5699997      -5.54933387E-04
   47.6850014      -5.75352227E-04
   47.7999992      -5.96011523E-04
   47.9150009      -6.16913196E-04
   48.0299988      -6.38058933E-04
   48.1450005      -6.59450307E-04
   48.2599983      -6.81088597E-04
   48.3750000      -7.02974969E-04
   48.4900017      -7.25110644E-04
   48.6049995      -7.47496611E-04
   48.7200012      -7.70133745E-04
   48.8349991      -7.93022919E-04
   48.9500008      -8.16164829E-04
   49.0649986      -8.39560234E-04
   49.1800003      -8.63209367E-04
   49.2949982      -8.87112517E-04
   49.4099998      -9.11269744E-04
   49.5250015      -9.35680815E-04
   49.6399994      -9.60345205E-04
   49.7550011      -9.85261984E-04
   49.8699989      -1.01042970E-03
   49.9850006      -1.03584642E-03
   50.0999985      -1.06150995E-03
   50.2150002      -1.08741724E-03
   50.3300018      -1.11356482E-03
   50.4449997      -1.13994826E-03
   50.5600014      -1.16656267E-03
   50.6749992      -1.19340245E-03
   50.7900009      -1.22046133E-03
   50.9049988      -1.24773220E-03
   51.0200005      -1.27520750E-03
   51.1349983      -1.30287907E-03
   51.2500000      -1.33073796E-03
   51.3650017      -1.35877484E-03
   51.4799995      -1.38697959E-03
   51.5950012      -1.41534128E-03
   51.7099991      -1.44384871E-03
   51.8250008      -1.47249002E-03
   51.9399986      -1.50125311E-03
   52.0550003      -1.53012527E-03
   52.1699982      -1.55909371E-03
   52.2849998      -1.58814492E-03
   52.4000015      -1.61726517E-03
   52.5149994      -1.64644024E-03
   52.6300011      -1.67565548E-03
   52.7449989      -1.70489575E-03
   52.8600006      -1.73414545E-03
   52.9749985      -1.76338898E-03
   53.0900002      -1.79261051E-03
   53.2050018      -1.82179373E-03
   53.3199997      -1.85092213E-03
   53.4350014      -1.87997939E-03
   53.5499992      -1.90894853E-03
   53.6650009      -1.93781254E-03
   53.7799988      -1.96655421E-03
   53.8950005      -1.99515605E-03
   54.0099983      -2.02360051E-03
   54.1250000      -2.05186941E-03
   54.2400017      -2.07994552E-03
   54.3549995      -2.10781116E-03
   54.4700012      -2.13544886E-03
   54.5849991      -2.16284138E-03
   54.7000008      -2.18997127E-03
   54.8149986      -2.21682130E-03
   54.9300003      -2.24337401E-03
   55.0449982      -2.26961216E-03
   55.1599998      -2.29551853E-03
   55.2750015      -2.32107635E-03
   55.3899994      -2.34626862E-03
   55.5050011      -2.37107952E-03
   55.6199989      -2.39549344E-03
   55.7350006      -2.41949456E-03
   55.8499985      -2.44306773E-03
   55.9650002      -2.46619782E-03
   56.0800018      -2.48887017E-03
   56.1949997      -2.51107058E-03
   56.3100014      -2.53278529E-03
   56.4249992      -2.55400059E-03
   56.5400009      -2.57470366E-03
   56.6549988      -2.59488286E-03
   56.7700005      -2.61452631E-03
   56.8849983      -2.63362261E-03
   57.0000000      -2.65216175E-03
   57.1150017      -2.67013279E-03
   57.2299995      -2.68752663E-03
   57.3450012      -2.70433398E-03
   57.4599991      -2.72054644E-03
   57.5750008      -2.73615634E-03
   57.6899986      -2.75115645E-03
   57.8050003      -2.76554073E-03
   57.9199982      -2.77930335E-03
   58.0349998      -2.79243919E-03
   58.1500015      -2.80494359E-03
   58.2649994      -2.81681260E-03
   58.3800011      -2.82804249E-03
   58.4949989      -2.83863116E-03
   58.6100006      -2.84857582E-03
   58.7249985      -2.85787508E-03
   58.8400002      -2.86652846E-03
   58.9550018      -2.87453574E-03
   59.0699997      -2.88189645E-03
   59.1850014      -2.88861129E-03
   59.2999992      -2.89468095E-03
   59.4150009      -2.90010683E-03
   59.5299988      -2.90488987E-03
   59.6450005      -2.90903240E-03
   59.7599983      -2.91253603E-03
   59.8750000      -2.91540311E-03
   59.9900017      -2.91763595E-03
   60.1049995      -2.91923736E-03
   60.2200012      -2.92020966E-03
   60.3349991      -2.92055611E-03
   60.4500008      -2.92027928E-03
   60.5649986      -2.91938218E-03
   60.6800003      -2.91786832E-03
   60.7949982      -2.91574025E-03
   60.9099998      -2.91300216E-03
   61.0250015      -2.90965731E-03
   61.1399994      -2.90570990E-03
   61.2550011      -2.90116388E-03
   61.3699989      -2.89602368E-03
   61.4850006      -2.89029418E-03
   61.5999985      -2.88397982E-03
   61.7150002      -2.87708500E-03
   61.8300018      -2.86961463E-03
   61.9449997      -2.86157383E-03
   62.0600014      -2.85296747E-03
   62.1749992      -2.84380070E-03
   62.2900009      -2.83407839E-03
   62.4049988      -2.82380544E-03
   62.5200005      -2.81298649E-03
   62.6349983      -2.80162529E-03
   62.7500000      -2.78972602E-03
   62.8650017      -2.77729169E-03
   62.9799995      -2.76432559E-03
   63.0950012      -2.75083026E-03
   63.2099991      -2.73680757E-03
   63.3250008      -2.72225938E-03
   63.4399986      -2.70718732E-03
   63.5550003      -2.69159209E-03
   63.6699982      -2.67547416E-03
   63.7849998      -2.65883398E-03
   63.9000015      -2.64167134E-03
   64.0149994      -2.62398529E-03
   64.1299973      -2.60577560E-03
   64.2450027      -2.58704065E-03
   64.3600006      -2.56777951E-03
   64.4749985      -2.54799076E-03
   64.5899963      -2.52767280E-03
   64.7050018      -2.50682374E-03
   64.8199997      -2.48544174E-03
   64.9349976      -2.46352376E-03
   65.0500031      -2.44106725E-03
   65.1650009      -2.41806824E-03
   65.2799988      -2.39452277E-03
   65.3949966      -2.37042643E-03
   65.5100021      -2.34577409E-03
   65.6250000      -2.32055993E-03
   65.7399979      -2.29477836E-03
   65.8550034      -2.26842239E-03
   65.9700012      -2.24148459E-03
   66.0849991      -2.21395725E-03
   66.1999969      -2.18583178E-03
   66.3150024      -2.15709885E-03
   66.4300003      -2.12774961E-03
   66.5449982      -2.09777453E-03
   66.6600037      -2.06716335E-03
   66.7750015      -2.03590677E-03
   66.8899994      -2.00399524E-03
   67.0049973      -1.97141897E-03
   67.1200027      -1.93816796E-03
   67.2350006      -1.90423301E-03
   67.3499985      -1.86960446E-03
   67.4649963      -1.83427287E-03
   67.5800018      -1.79822952E-03
   67.6949997      -1.76146545E-03
   67.8099976      -1.72397203E-03
   67.9250031      -1.68574089E-03
   68.0400009      -1.64676411E-03
   68.1549988      -1.60703331E-03
   68.2699966      -1.56654092E-03
   68.3850021      -1.52527867E-03
   68.5000000      -1.48323900E-03
   68.6149979      -1.44041376E-03
   68.7300034      -1.39679573E-03
   68.8450012      -1.35237747E-03
   68.9599991      -1.30715210E-03
   69.0749969      -1.26111251E-03
   69.1900024      -1.21425278E-03
   69.3050003      -1.16656686E-03
   69.4199982      -1.11804903E-03
   69.5350037      -1.06869440E-03
   69.6500015      -1.01849867E-03
   69.7649994      -9.67458473E-04
   69.8799973      -9.15571465E-04
   69.9950027      -8.62835790E-04
   70.1100006      -8.09251273E-04
   70.2249985      -7.54818495E-04
   70.3399963      -6.99539320E-04
   70.4550018      -6.43416482E-04
   70.5699997      -5.86453825E-04
   70.6849976      -5.28656237E-04
   70.8000031      -4.70029510E-04
   70.9150009      -4.10580978E-04
   71.0299988      -3.50319111E-04
   71.1449966      -2.89253629E-04
   71.2600021      -2.27395140E-04
   71.3750000      -1.64755576E-04
   71.4899979      -1.01348080E-04
   71.6050034      -3.71863498E-05
   71.7200012       2.77147537E-05
   71.8349991       9.33388656E-05
   71.9499969       1.59668969E-04
   72.0650024       2.26687014E-04
   72.1800003       2.94373021E-04
   72.2949982       3.62705992E-04
   72.4100037       4.31664172E-04
   72.5250015       5.01224247E-04
   72.6399994       5.71361626E-04
   72.7549973       6.42050698E-04
   72.8700027       7.13265385E-04
   72.9850006       7.84977921E-04
   73.0999985       8.57160252E-04
   73.2149963       9.29782575E-04
   73.3300018       1.00281462E-03
   73.4449997       1.07622484E-03
   73.5599976       1.14998152E-03
   73.6750031       1.22405181E-03
   73.7900009       1.29840220E-03
   73.9049988       1.37299940E-03
   74.0199966       1.44780928E-03
   74.1350021       1.52279797E-03
   74.2500000       1.59793091E-03
   74.3649979       1.67317374E-03
   74.4800034       1.74849178E-03
   74.5950012       1.82385021E-03
   74.7099991       1.89921423E-03
   74.8249969       1.97454891E-03
   74.9400024       2.04981933E-03
   75.0550003       2.12499104E-03
   75.1699982       2.20003026E-03
   75.2850037       2.27490277E-03
   75.4000015       2.34957598E-03
   75.5149994       2.42401659E-03
   75.6299973       2.49819248E-03
   75.7450027       2.57207197E-03
   75.8600006       2.64562317E-03
   75.9749985       2.71881605E-03
   76.0899963       2.79162079E-03
   76.2050018       2.86400900E-03
   76.3199997       2.93595321E-03
   76.4349976       3.00742732E-03
   76.5500031       3.07840668E-03
   76.6650009       3.14886798E-03
   76.7799988       3.21878842E-03
   76.8949966       3.28814751E-03
   77.0100021       3.35692521E-03
   77.1250000       3.42510361E-03
   77.2399979       3.49266501E-03
   77.3550034       3.55959451E-03
   77.4700012       3.62587837E-03
   77.5849991       3.69150448E-03
   77.6999969       3.75646213E-03
   77.8150024       3.82074225E-03
   77.9300003       3.88433645E-03
   78.0449982       3.94723704E-03
   78.1600037       4.00943868E-03
   78.2750015       4.07093670E-03
   78.3899994       4.13172739E-03
   78.5049973       4.19180933E-03
   78.6200027       4.25118115E-03
   78.7350006       4.30984376E-03
   78.8499985       4.36779810E-03
   78.9649963       4.42504650E-03
   79.0800018       4.48159128E-03
   79.1949997       4.53743618E-03
   79.3099976       4.59258491E-03
   79.4250031       4.64704214E-03
   79.5400009       4.70081391E-03