  -18.8999996       0.00000000    
  -18.7849998       0.00000000    
  -18.6700001       0.00000000    
  -18.5550003       0.00000000    
  -18.4400005       1.05477986E-22
  -18.3250008       2.35373940E-21
  -18.2099991       1.88421727E-20
  -18.0949993       9.31365497E-20
  -17.9799995       3.40163991E-19
  -17.8649998       1.00036607E-18
  -17.7500000       2.48571889E-18
  -17.6350002       5.37156573E-18
  -17.5200005       1.02671395E-17
  -17.4050007       1.74910021E-17
  -17.2900009       2.64973595E-17
  -17.1749992       3.50540515E-17
  -17.0599995       3.82633171E-17
  -16.9449997       2.76329031E-17
  -16.8299999      -9.47363421E-18
  -16.7150002      -8.95801729E-17
  -16.6000004      -2.31566579E-16
  -16.4850006      -4.53440083E-16
  -16.3700008      -7.67142758E-16
  -16.2549992      -1.17140326E-15
  -16.1399994      -1.64302189E-15
  -16.0249996      -2.12743633E-15
  -15.9099998      -2.52989535E-15
  -15.7950001      -2.70900174E-15
  -15.6800003      -2.47467515E-15
  -15.5649996      -1.59265879E-15
  -15.4499998       2.02559816E-16
  -15.3350000       3.18512488E-15
  -15.2200003       7.60521830E-15
  -15.1049995       1.36475024E-14
  -14.9899998       2.13831536E-14
  -14.8750000       3.07196048E-14
  -14.7600002       4.13534190E-14
  -14.6450005       5.27327239E-14
  -14.5299997       6.40356908E-14
  -14.4150000       7.41711244E-14
  -14.3000002       8.18053375E-14
  -14.1850004       8.54174519E-14
  -14.0699997       8.33818827E-14
  -13.9549999       7.40734785E-14
  -13.8400002       5.59874582E-14
  -13.7250004       2.78636198E-14
  -13.6099997      -1.11975426E-14
  -13.4949999      -6.16399293E-14
  -13.3800001      -1.23389580E-13
  -13.2650003      -1.95835061E-13
  -13.1499996      -2.77855321E-13
  -13.0349998      -3.67896062E-13
  -12.9200001      -4.64089813E-13
  -12.8050003      -5.64407733E-13
  -12.6899996      -6.66829005E-13
  -12.5749998      -7.69505878E-13
  -12.4600000      -8.70904043E-13
  -12.3450003      -9.69894737E-13
  -12.2299995      -1.06578028E-12
  -12.1149998      -1.15823779E-12
  -12.0000000      -1.24717890E-12
  -11.8850002      -1.33252654E-12
  -11.7700005      -1.41393483E-12
  -11.6549997      -1.49047506E-12
  -11.5400000      -1.56033682E-12
  -11.4250002      -1.62058854E-12
  -11.3100004      -1.66705235E-12
  -11.1949997      -1.69433727E-12
  -11.0799999      -1.69605844E-12
  -10.9650002      -1.66525788E-12
  -10.8500004      -1.59499974E-12
  -10.7349997      -1.47909191E-12
  -10.6199999      -1.31284913E-12
  -10.5050001      -1.09378771E-12
  -10.3900003      -8.22132076E-13
  -10.2749996      -5.01013348E-13
  -10.1599998      -1.36265863E-13
  -10.0450001       2.64231806E-13
  -9.93000031       6.91661680E-13
  -9.81499958       1.13773888E-12
  -9.69999981       1.59640205E-12
  -9.58500004       2.06549686E-12
  -9.47000027       2.54821056E-12
  -9.35499954       3.05397526E-12
  -9.23999977       3.59860254E-12
  -9.12500000       4.20347177E-12
  -9.01000023       4.89371174E-12
  -8.89500046       5.69541289E-12
  -8.77999973       6.63211803E-12
  -8.66499996       7.72088296E-12
  -8.55000019       8.96841715E-12
  -8.43500042       1.03677978E-11
  -8.31999969       1.18963242E-11
  -8.20499992       1.35150198E-11
  -8.09000015       1.51700978E-11
  -7.97499990       1.67966301E-11
  -7.86000013       1.83243663E-11
  -7.74499989       1.96853939E-11
  -7.63000011       2.08230794E-11
  -7.51499987       2.17015364E-11
  -7.40000010       2.23146189E-11
  -7.28499985       2.26933802E-11
  -7.17000008       2.29109249E-11
  -7.05499983       2.30836513E-11
  -6.94000006       2.33681564E-11
  -6.82499981       2.39532335E-11
  -6.71000004       2.50470460E-11
  -6.59499979       2.68597349E-11
  -6.48000002       2.95824441E-11
  -6.36499977       3.33641587E-11
  -6.25000000       3.82881678E-11
  -6.13500023       4.43503810E-11
  -6.01999998       5.14418785E-11
  -5.90500021       5.93381178E-11
  -5.78999996       6.76970910E-11
  -5.67500019       7.60681101E-11
  -5.55999994       8.39123701E-11
  -5.44500017       9.06357489E-11
  -5.32999992       9.56327240E-11
  -5.21500015       9.83397808E-11
  -5.09999990       9.82950388E-11
  -4.98500013       9.52000354E-11
  -4.86999989       8.89787202E-11
  -4.75500011       7.98279151E-11
  -4.63999987       6.82535625E-11
  -4.52500010       5.50875248E-11
  -4.40999985       4.14795767E-11
  -4.29500008       2.88621332E-11
  -4.17999983       1.88851573E-11
  -4.06500006       1.33223901E-11
  -3.95000005       1.39515084E-11
  -3.83500004       2.24136768E-11
  -3.72000003       4.00602988E-11
  -3.60500002       6.77971082E-11
  -3.49000001       1.05937127E-10
  -3.37500000       1.54074906E-10
  -3.25999999       2.10995138E-10
  -3.14499998       2.74627626E-10
  -3.02999997       3.42058271E-10
  -2.91499996       4.09602491E-10
  -2.79999995       4.72947459E-10
  -2.68499994       5.27357991E-10
  -2.56999993       5.67942693E-10
  -2.45499992       5.89969240E-10
  -2.33999991       5.89210125E-10
  -2.22499990       5.62301372E-10
  -2.10999990       5.07088427E-10
  -1.99500000       4.22934493E-10
  -1.88000000       3.10966031E-10
  -1.76499999       1.74229131E-10
  -1.64999998       1.77396067E-11
  -1.53499997      -1.51590435E-10
  -1.41999996      -3.25157679E-10
  -1.30499995      -4.93001473E-10
  -1.19000006      -6.44259257E-10
  -1.07500005      -7.67725217E-10
 -0.959999979      -8.52483806E-10
 -0.845000029      -8.88585872E-10
 -0.730000019      -8.67726835E-10
 -0.615000010      -7.83887455E-10
 -0.500000000      -6.33893216E-10
 -0.384999990      -4.17852308E-10
 -0.270000011      -1.39446774E-10
 -0.155000001       1.93959251E-10
  -3.99999991E-02   5.71397041E-10
   7.50000030E-02   9.78564119E-10
  0.189999998       1.39828438E-09
  0.305000007       1.81112225E-09
  0.419999987       2.19612550E-09
  0.535000026       2.53165600E-09
  0.649999976       2.79626056E-09
  0.764999986       2.96952374E-09
  0.879999995       3.03286551E-09
  0.995000005       2.97022318E-09
   1.11000001       2.76859247E-09
   1.22500002       2.41838660E-09
   1.34000003       1.91360727E-09
   1.45500004       1.25181421E-09
   1.57000005       4.33903496E-10
   1.68499994      -5.36272249E-10
   1.79999995      -1.65244041E-09
   1.91499996      -2.90651747E-09
   2.02999997      -4.28928892E-09
   2.14499998      -5.79109471E-09
   2.25999999      -7.40249595E-09
   2.37500000      -9.11482712E-09
   2.49000001      -1.09206981E-08
   2.60500002      -1.28143274E-08
   2.72000003      -1.47917687E-08
   2.83500004      -1.68509917E-08
   2.95000005      -1.89918410E-08
   3.06500006      -2.12159001E-08
   3.18000007      -2.35262831E-08
   3.29500008      -2.59273740E-08
   3.41000009      -2.84245605E-08
   3.52500010      -3.10240047E-08
   3.64000010      -3.37324195E-08
   3.75500011      -3.65569939E-08
   3.86999989      -3.95053128E-08
   3.98499990      -4.25854338E-08
   4.09999990      -4.58060185E-08
   4.21500015      -4.91765668E-08
   4.32999992      -5.27076622E-08
   4.44500017      -5.64112987E-08
   4.55999994      -6.03011969E-08
   4.67500019      -6.43930989E-08
   4.78999996      -6.87050132E-08
   4.90500021      -7.32573895E-08
   5.01999998      -7.80732492E-08
   5.13500023      -8.31781506E-08
   5.25000000      -8.86000890E-08
   5.36499977      -9.43692768E-08
   5.48000002      -1.00517873E-07
   5.59499979      -1.07079551E-07
   5.71000004      -1.14089055E-07
   5.82499981      -1.21581749E-07
   5.94000006      -1.29593104E-07
   6.05499983      -1.38158185E-07
   6.17000008      -1.47311269E-07
   6.28499985      -1.57085410E-07
   6.40000010      -1.67512198E-07
   6.51499987      -1.78621519E-07
   6.63000011      -1.90441540E-07
   6.74499989      -2.02998720E-07
   6.86000013      -2.16318028E-07
   6.97499990      -2.30423183E-07
   7.09000015      -2.45337105E-07
   7.20499992      -2.61082391E-07
   7.32000017      -2.77681977E-07
   7.43499994      -2.95159623E-07
   7.55000019      -3.13540681E-07
   7.66499996      -3.32852807E-07
   7.78000021      -3.53126495E-07
   7.89499998      -3.74395654E-07
   8.01000023      -3.96698198E-07
   8.12500000      -4.20076475E-07
   8.23999977      -4.44577353E-07
   8.35499954      -4.70252473E-07
   8.47000027      -4.97158283E-07
   8.58500004      -5.25355574E-07
   8.69999981      -5.54909491E-07
   8.81499958      -5.85888813E-07
   8.93000031      -6.18365505E-07
   9.04500008      -6.52413803E-07
   9.15999985      -6.88109537E-07
   9.27499962      -7.25529333E-07
   9.39000034      -7.64749529E-07
   9.50500011      -8.05845161E-07
   9.61999989      -8.48889840E-07
   9.73499966      -8.93954166E-07
   9.85000038      -9.41105725E-07
   9.96500015      -9.90408239E-07
   10.0799999      -1.04192122E-06
   10.1949997      -1.09570033E-06
   10.3100004      -1.15179637E-06
   10.4250002      -1.21025641E-06
   10.5400000      -1.27112378E-06
   10.6549997      -1.33443780E-06
   10.7700005      -1.40023587E-06
   10.8850002      -1.46855257E-06
   11.0000000      -1.53942096E-06
   11.1149998      -1.61287358E-06
   11.2299995      -1.68894258E-06
   11.3450003      -1.76766071E-06
   11.4600000      -1.84906173E-06
   11.5749998      -1.93318078E-06
   11.6899996      -2.02005458E-06
   11.8050003      -2.10972280E-06
   11.9200001      -2.20222637E-06
   12.0349998      -2.29760849E-06
   12.1499996      -2.39591373E-06
   12.2650003      -2.49718823E-06
   12.3800001      -2.60147954E-06
   12.4949999      -2.70883493E-06
   12.6099997      -2.81930215E-06
   12.7250004      -2.93292692E-06
   12.8400002      -3.04975401E-06
   12.9549999      -3.16982641E-06
   13.0699997      -3.29318368E-06
   13.1850004      -3.41986174E-06
   13.3000002      -3.54989243E-06
   13.4150000      -3.68330348E-06
   13.5299997      -3.82011785E-06
   13.6450005      -3.96035239E-06
   13.7600002      -4.10401844E-06
   13.8750000      -4.25112330E-06
   13.9899998      -4.40166787E-06
   14.1049995      -4.55564668E-06
   14.2200003      -4.71304929E-06
   14.3350000      -4.87385796E-06
   14.4499998      -5.03804995E-06
   14.5649996      -5.20559479E-06
   14.6800003      -5.37645565E-06
   14.7950001      -5.55058796E-06
   14.9099998      -5.72793851E-06
   15.0249996      -5.90844411E-06
   15.1400003      -6.09203198E-06
   15.2550001      -6.27861800E-06
   15.3699999      -6.46810440E-06
   15.4849997      -6.66037931E-06
   15.6000004      -6.85531586E-06
   15.7150002      -7.05276989E-06
   15.8299999      -7.25257723E-06
   15.9449997      -7.45455554E-06
   16.0599995      -7.65850200E-06
   16.1749992      -7.86419150E-06
   16.2900009      -8.07137803E-06
   16.4050007      -8.27979147E-06
   16.5200005      -8.48914260E-06
   16.6350002      -8.69911946E-06
   16.7500000      -8.90938736E-06
   16.8649998      -9.11959705E-06
   16.9799995      -9.32937655E-06
   17.0949993      -9.53833751E-06
   17.2099991      -9.74607883E-06
   17.3250008      -9.95218488E-06
   17.4400005      -1.01562291E-05
   17.5550003      -1.03577695E-05
   17.6700001      -1.05563622E-05
   17.7849998      -1.07515489E-05
   17.8999996      -1.09428665E-05
   18.0149994      -1.11298441E-05
   18.1299992      -1.13120004E-05
   18.2450008      -1.14888471E-05
   18.3600006      -1.16598867E-05
   18.4750004      -1.18246126E-05
   18.5900002      -1.19825054E-05
   18.7049999      -1.21330340E-05
   18.8199997      -1.22756528E-05
   18.9349995      -1.24098015E-05
   19.0499992      -1.25349061E-05
   19.1650009      -1.26503746E-05
   19.2800007      -1.27555986E-05
   19.3950005      -1.28499541E-05
   19.5100002      -1.29327964E-05
   19.6250000      -1.30034705E-05
   19.7399998      -1.30612998E-05
   19.8549995      -1.31055995E-05
   19.9699993      -1.31356646E-05
   20.0849991      -1.31507841E-05
   20.2000008      -1.31502266E-05
   20.3150005      -1.31332581E-05
   20.4300003      -1.30991239E-05
   20.5450001      -1.30470617E-05
   20.6599998      -1.29763021E-05
   20.7749996      -1.28860547E-05
   20.8899994      -1.27755247E-05
   21.0049992      -1.26438990E-05
   21.1200008      -1.24903545E-05
   21.2350006      -1.23140462E-05
   21.3500004      -1.21141175E-05
   21.4650002      -1.18896960E-05
   21.5799999      -1.16398905E-05
   21.6949997      -1.13637934E-05
   21.8099995      -1.10604833E-05
   21.9249992      -1.07290189E-05
   22.0400009      -1.03684515E-05
   22.1550007      -9.97781535E-06
   22.2700005      -9.55613450E-06
   22.3850002      -9.10242488E-06
   22.5000000      -8.61569606E-06
   22.6149998      -8.09495759E-06
   22.7299995      -7.53921358E-06
   22.8449993      -6.94747632E-06
   22.9599991      -6.31875901E-06
   23.0750008      -5.65208211E-06
   23.1900005      -4.94647793E-06
   23.3050003      -4.20098786E-06
   23.4200001      -3.41466557E-06
   23.5349998      -2.58658520E-06
   23.6499996      -1.71583088E-06
   23.7649994      -8.01517444E-07
   23.8799992       1.57230915E-07
   23.9950008       1.16127512E-06
   24.1100006       2.21143750E-06
   24.2250004       3.30853459E-06
   24.3400002       4.45335172E-06
   24.4549999       5.64665061E-06
   24.5699997       6.88916725E-06
   24.6849995       8.18161789E-06
   24.7999992       9.52468690E-06
   24.9150009       1.09190487E-05
   25.0300007       1.23653372E-05
   25.1450005       1.38641662E-05
   25.2600002       1.54161135E-05
   25.3750000       1.70217445E-05
   25.4899998       1.86815905E-05
   25.6049995       2.03961572E-05
   25.7199993       2.21659229E-05
   25.8349991       2.39913425E-05
   25.9500008       2.58728360E-05
   26.0650005       2.78108018E-05
   26.1800003       2.98056129E-05
   26.2950001       3.18576167E-05
   26.4099998       3.39671278E-05
   26.5249996       3.61344282E-05
   26.6399994       3.83597871E-05
   26.7549992       4.06434265E-05
   26.8700008       4.29855536E-05
   26.9850006       4.53863322E-05
   27.1000004       4.78458860E-05
   27.2150002       5.03643314E-05
   27.3299999       5.29417375E-05
   27.4449997       5.55781407E-05
   27.5599995       5.82735411E-05
   27.6749992       6.10279021E-05
   27.7900009       6.38411439E-05
   27.9050007       6.67131899E-05
   28.0200005       6.96438656E-05
   28.1350002       7.26329963E-05
   28.2500000       7.56803711E-05
   28.3649998       7.87857498E-05
   28.4799995       8.19488123E-05
   28.5949993       8.51692530E-05
   28.7099991       8.84466863E-05
   28.8250008       9.17807192E-05
   28.9400005       9.51708716E-05
   29.0550003       9.86166779E-05
   29.1700001       1.02117585E-04
   29.2849998       1.05673025E-04
   29.3999996       1.09282373E-04
   29.5149994       1.12944952E-04
   29.6299992       1.16660049E-04
   29.7450008       1.20426921E-04
   29.8600006       1.24244747E-04
   29.9750004       1.28112690E-04
   30.0900002       1.32029862E-04
   30.2049999       1.35995302E-04
   30.3199997       1.40008066E-04
   30.4349995       1.44067133E-04
   30.5499992       1.48171501E-04
   30.6650009       1.52320034E-04
   30.7800007       1.56511698E-04
   30.8950005       1.60745331E-04
   31.0100002       1.65019825E-04
   31.1250000       1.69334002E-04
   31.2399998       1.73686654E-04
   31.3549995       1.78076647E-04
   31.4699993       1.82502728E-04
   31.5849991       1.86963691E-04
   31.7000008       1.91458297E-04
   31.8150005       1.95985340E-04
   31.9300003       2.00543538E-04
   32.0449982       2.05131597E-04
   32.1599998       2.09748308E-04
   32.2750015       2.14392348E-04
   32.3899994       2.19062436E-04
   32.5050011       2.23757263E-04
   32.6199989       2.28475517E-04
   32.7350006       2.33215877E-04
   32.8499985       2.37977001E-04
   32.9650002       2.42757553E-04
   33.0800018       2.47556221E-04
   33.1949997       2.52371596E-04
   33.3100014       2.57202366E-04
   33.4249992       2.62047106E-04
   33.5400009       2.66904477E-04
   33.6549988       2.71773024E-04
   33.7700005       2.76651408E-04
   33.8849983       2.81538203E-04
   34.0000000       2.86431983E-04
   34.1150017       2.91331322E-04
   34.2299995       2.96234764E-04
   34.3450012       3.01140972E-04
   34.4599991       3.06048431E-04
   34.5750008       3.10955715E-04
   34.6899986       3.15861398E-04
   34.8050003       3.20764026E-04
   34.9199982       3.25662171E-04
   35.0349998       3.30554321E-04
   35.1500015       3.35439050E-04
   35.2649994       3.40314873E-04
   35.3800011       3.45180277E-04
   35.4949989       3.50033777E-04
   35.6100006       3.54873831E-04
   35.7249985       3.59698897E-04
   35.8400002       3.64507432E-04
   35.9550018       3.69297806E-04
   36.0699997       3.74068419E-04
   36.1850014       3.78817698E-04
   36.2999992       3.83543957E-04
   36.4150009       3.88245564E-04
   36.5299988       3.92920861E-04
   36.6450005       3.97568103E-04
   36.7599983       4.02185658E-04
   36.8750000       4.06771811E-04
   36.9900017       4.11324814E-04
   37.1049995       4.15842951E-04
   37.2200012       4.20324388E-04
   37.3349991       4.24767495E-04
   37.4500008       4.29170439E-04
   37.5649986       4.33531386E-04
   37.6800003       4.37848590E-04
   37.7949982       4.42120247E-04
   37.9099998       4.46344522E-04
   38.0250015       4.50519583E-04
   38.1399994       4.54643567E-04
   38.2550011       4.58714669E-04
   38.3699989       4.62731026E-04
   38.4850006       4.66690719E-04
   38.5999985       4.70591942E-04
   38.7150002       4.74432745E-04
   38.8300018       4.78211296E-04
   38.9449997       4.81925643E-04
   39.0600014       4.85573866E-04
   39.1749992       4.89153957E-04
   39.2900009       4.92664054E-04
   39.4049988       4.96102206E-04
   39.5200005       4.99466434E-04
   39.6349983       5.02754818E-04
   39.7500000       5.05965261E-04
   39.8650017       5.09096019E-04
   39.9799995       5.12144878E-04
   40.0950012       5.15110092E-04
   40.2099991       5.17989625E-04
   40.3250008       5.20781439E-04
   40.4399986       5.23483730E-04
   40.5550003       5.26094460E-04
   40.6699982       5.28611708E-04
   40.7849998       5.31033671E-04
   40.9000015       5.33358369E-04
   41.0149994       5.35583938E-04
   41.1300011       5.37708518E-04
   41.2449989       5.39730187E-04
   41.3600006       5.41647139E-04
   41.4749985       5.43457514E-04
   41.5900002       5.45159564E-04
   41.7050018       5.46751486E-04
   41.8199997       5.48231474E-04
   41.9350014       5.49597840E-04
   42.0499992       5.50848781E-04
   42.1650009       5.51982608E-04
   42.2799988       5.52997633E-04
   42.3950005       5.53892110E-04
   42.5099983       5.54664410E-04
   42.6250000       5.55312843E-04
   42.7400017       5.55835781E-04
   42.8549995       5.56231476E-04
   42.9700012       5.56498358E-04
   43.0849991       5.56634681E-04
   43.2000008       5.56638814E-04
   43.3149986       5.56509127E-04
   43.4300003       5.56243933E-04
   43.5449982       5.55841660E-04
   43.6599998       5.55300678E-04
   43.7750015       5.54619415E-04
   43.8899994       5.53796242E-04
   44.0050011       5.52829704E-04
   44.1199989       5.51718171E-04
   44.2350006       5.50460245E-04
   44.3499985       5.49054414E-04
   44.4650002       5.47499279E-04
   44.5800018       5.45793504E-04
   44.6949997       5.43935515E-04
   44.8100014       5.41924324E-04
   44.9249992       5.39758417E-04
   45.0400009       5.37436630E-04
   45.1549988       5.34957915E-04
   45.2700005       5.32320875E-04
   45.3849983       5.29524696E-04
   45.5000000       5.26568096E-04
   45.6150017       5.23450202E-04
   45.7299995       5.20170026E-04
   45.8450012       5.16726635E-04
   45.9599991       5.13119099E-04
   46.0750008       5.09346777E-04
   46.1899986       5.05408680E-04
   46.3050003       5.01304166E-04
   46.4199982       4.97032539E-04
   46.5349998       4.92593041E-04
   46.6500015       4.87985177E-04
   46.7649994       4.83208220E-04
   46.8800011       4.78261762E-04
   46.9949989       4.73145192E-04
   47.1100006       4.67858074E-04
   47.2249985       4.62399999E-04
   47.3400002       4.56770533E-04
   47.4550018       4.50969383E-04
   47.5699997       4.44996112E-04
   47.6850014       4.38850548E-04
   47.7999992       4.32532368E-04
   47.9150009       4.26041370E-04
   48.0299988       4.19377437E-04
   48.1450005       4.12540394E-04
   48.2599983       4.05530096E-04
   48.3750000       3.98346572E-04
   48.4900017       3.90989648E-04
   48.6049995       3.83459468E-04
   48.7200012       3.75755946E-04
   48.8349991       3.67879198E-04
   48.9500008       3.59829399E-04
   49.0649986       3.51606606E-04
   49.1800003       3.43210966E-04
   49.2949982       3.34642682E-04
   49.4099998       3.25901958E-04
   49.5250015       3.16989084E-04
   49.6399994       3.07904324E-04
   49.7550011       2.98648083E-04
   49.8699989       2.89220741E-04
   49.9850006       2.79622764E-04
   50.0999985       2.69854441E-04
   50.2150002       2.59916502E-04
   50.3300018       2.49809498E-04
   50.4449997       2.39534042E-04
   50.5600014       2.29090845E-04
   50.6749992       2.18480651E-04
   50.7900009       2.07704172E-04
   50.9049988       1.96762165E-04
   51.0200005       1.85655445E-04
   51.1349983       1.74384972E-04
   51.2500000       1.62951619E-04
   51.3650017       1.51356289E-04
   51.4799995       1.39600073E-04
   51.5950012       1.27683932E-04
   51.7099991       1.15608884E-04
   51.8250008       1.03376144E-04
   51.9399986       9.09867013E-05
   52.0550003       7.84418808E-05
   52.1699982       6.57428172E-05
   52.2849998       5.28909659E-05
   52.4000015       3.98875600E-05
   52.5149994       2.67339256E-05
   52.6300011       1.34315824E-05
   52.7449989      -1.80007707E-08
   52.8600006      -1.36132976E-05
   52.9749985      -2.73527512E-05
   53.0900002      -4.12345653E-05
   53.2050018      -5.52570382E-05
   53.3199997      -6.94182963E-05
   53.4350014      -8.37163680E-05
   53.5499992      -9.81493504E-05
   53.6650009      -1.12714974E-04
   53.7799988      -1.27410953E-04
   53.8950005      -1.42235003E-04
   54.0099983      -1.57184491E-04
   54.1250000      -1.72257045E-04
   54.2400017      -1.87449768E-04
   54.3549995      -2.02759809E-04
   54.4700012      -2.18184388E-04
   54.5849991      -2.33720348E-04
   54.7000008      -2.49364675E-04
   54.8149986      -2.65113835E-04
   54.9300003      -2.80964596E-04
   55.0449982      -2.96913291E-04
   55.1599998      -3.12956341E-04
   55.2750015      -3.29089729E-04
   55.3899994      -3.45309440E-04
   55.5050011      -3.61611281E-04
   55.6199989      -3.77990888E-04
   55.7350006      -3.94443632E-04
   55.8499985      -4.10964713E-04
   55.9650002      -4.27549239E-04
   56.0800018      -4.44192236E-04
   56.1949997      -4.60888463E-04
   56.3100014      -4.77632508E-04
   56.4249992      -4.94418899E-04
   56.5400009      -5.11241902E-04
   56.6549988      -5.28095872E-04
   56.7700005      -5.44975162E-04
   56.8849983      -5.61873545E-04
   57.0000000      -5.78785199E-04
   57.1150017      -5.95703896E-04
   57.2299995      -6.12623466E-04
   57.3450012      -6.29537681E-04
   57.4599991      -6.46440312E-04
   57.5750008      -6.63325191E-04
   57.6899986      -6.80186029E-04
   57.8050003      -6.97016541E-04
   57.9199982      -7.13810616E-04
   58.0349998      -7.30562257E-04
   58.1500015      -7.47265178E-04
   58.2649994      -7.63913617E-04
   58.3800011      -7.80501810E-04
   58.4949989      -7.97024055E-04
   58.6100006      -8.13474820E-04
   58.7249985      -8.29848694E-04
   58.8400002      -8.46140611E-04
   58.9550018      -8.62345507E-04
   59.0699997      -8.78458319E-04
   59.1850014      -8.94474389E-04
   59.2999992      -9.10389237E-04
   59.4150009      -9.26198147E-04
   59.5299988      -9.41897102E-04
   59.6450005      -9.57482087E-04
   59.7599983      -9.72949143E-04
   59.8750000      -9.88294603E-04
   59.9900017      -1.00351521E-03
   60.1049995      -1.01860741E-03
   60.2200012      -1.03356829E-03
   60.3349991      -1.04839483E-03
   60.4500008      -1.06308458E-03
   60.5649986      -1.07763498E-03
   60.6800003      -1.09204371E-03
   60.7949982      -1.10630842E-03
   60.9099998      -1.12042751E-03
   61.0250015      -1.13439886E-03
   61.1399994      -1.14822097E-03
   61.2550011      -1.16189208E-03
   61.3699989      -1.17541105E-03
   61.4850006      -1.18877657E-03
   61.5999985      -1.20198773E-03
   61.7150002      -1.21504324E-03
   61.8300018      -1.22794241E-03
   61.9449997      -1.24068453E-03
   62.0600014      -1.25326903E-03
   62.1749992      -1.26569509E-03
   62.2900009      -1.27796282E-03
   62.4049988      -1.29007141E-03
   62.5200005      -1.30202086E-03
   62.6349983      -1.31381082E-03
   62.7500000      -1.32544083E-03
   62.8650017      -1.33691099E-03
   62.9799995      -1.34822098E-03
   63.0950012      -1.35937054E-03
   63.2099991      -1.37035921E-03
   63.3250008      -1.38118688E-03
   63.4399986      -1.39185297E-03
   63.5550003      -1.40235701E-03
   63.6699982      -1.41269842E-03
   63.7849998      -1.42287684E-03
   63.9000015      -1.43289112E-03
   64.0149994      -1.44274090E-03
   64.1299973      -1.45242526E-03
   64.2450027      -1.46194291E-03
   64.3600006      -1.47129293E-03
   64.4749985      -1.48047379E-03
   64.5899963      -1.48948410E-03
   64.7050018      -1.49832270E-03
   64.8199997      -1.50698773E-03
   64.9349976      -1.51547720E-03
   65.0500031      -1.52378948E-03
   65.1650009      -1.53192226E-03
   65.2799988      -1.53987354E-03
   65.3949966      -1.54764054E-03
   65.5100021      -1.55522139E-03
   65.6250000      -1.56261271E-03
   65.7399979      -1.56981184E-03
   65.8550034      -1.57681608E-03
   65.9700012      -1.58362207E-03
   66.0849991      -1.59022666E-03
   66.1999969      -1.59662613E-03
   66.3150024      -1.60281721E-03
   66.4300003      -1.60879595E-03
   66.5449982      -1.61455874E-03
   66.6600037      -1.62010151E-03
   66.7750015      -1.62542029E-03
   66.8899994      -1.63051102E-03
   67.0049973      -1.63536926E-03
   67.1200027      -1.63999072E-03
   67.2350006      -1.64437131E-03
   67.3499985      -1.64850627E-03
   67.4649963      -1.65239151E-03
   67.5800018      -1.65602239E-03
   67.6949997      -1.65939459E-03
   67.8099976      -1.66250335E-03
   67.9250031      -1.66534435E-03
   68.0400009      -1.66791317E-03
   68.1549988      -1.67020527E-03
   68.2699966      -1.67221634E-03
   68.3850021      -1.67394173E-03
   68.5000000      -1.67537713E-03
   68.6149979      -1.67651824E-03
   68.7300034      -1.67736062E-03
   68.8450012      -1.67789985E-03
   68.9599991      -1.67813175E-03
   69.0749969      -1.67805178E-03
   69.1900024      -1.67765596E-03
   69.3050003      -1.67693989E-03
   69.4199982      -1.67589972E-03
   69.5350037      -1.67453091E-03
   69.6500015      -1.67282985E-03
   69.7649994      -1.67079235E-03
   69.8799973      -1.66841445E-03
   69.9950027      -1.66569219E-03
   70.1100006      -1.66262186E-03
   70.2249985      -1.65919948E-03
   70.3399963      -1.65542145E-03
   70.4550018      -1.65128405E-03
   70.5699997      -1.64678355E-03
   70.6849976      -1.64191681E-03
   70.8000031      -1.63667963E-03
   70.9150009      -1.63106923E-03
   71.0299988      -1.62508187E-03
   71.1449966      -1.61871430E-03
   71.2600021      -1.61196326E-03
   71.3750000      -1.60482584E-03
   71.4899979      -1.59729854E-03
   71.6050034      -1.58937892E-03
   71.7200012      -1.58106373E-03
   71.8349991      -1.57235027E-03
   71.9499969      -1.56323612E-03
   72.0650024      -1.55371858E-03
   72.1800003      -1.54379546E-03
   72.2949982      -1.53346441E-03
   72.4100037      -1.52272359E-03
   72.5250015      -1.51157123E-03
   72.6399994      -1.50000595E-03
   72.7549973      -1.48802635E-03
   72.8700027      -1.47563149E-03
   72.9850006      -1.46282068E-03
   73.0999985      -1.44959346E-03
   73.2149963      -1.43594970E-03
   73.3300018      -1.42188941E-03
   73.4449997      -1.40741304E-03
   73.5599976      -1.39252120E-03
   73.6750031      -1.37721514E-03
   73.7900009      -1.36149593E-03
   73.9049988      -1.34536496E-03
   74.0199966      -1.32882397E-03
   74.1350021      -1.31187506E-03
   74.2500000      -1.29452068E-03
   74.3649979      -1.27676304E-03
   74.4800034      -1.25860528E-03
   74.5950012      -1.24005030E-03
   74.7099991      -1.22110150E-03
   74.8249969      -1.20176247E-03
   74.9400024      -1.18203682E-03
   75.0550003      -1.16192875E-03
   75.1699982      -1.14144222E-03
   75.2850037      -1.12058187E-03
   75.4000015      -1.09935203E-03
   75.5149994      -1.07775757E-03
   75.6299973      -1.05580292E-03
   75.7450027      -1.03349332E-03
   75.8600006      -1.01083377E-03
   75.9749985      -9.87829291E-04
   76.0899963      -9.64485458E-04
   76.2050018      -9.40807222E-04
   76.3199997      -9.16800171E-04
   76.4349976      -8.92469776E-04
   76.5500031      -8.67821858E-04
   76.6650009      -8.42862180E-04
   76.7799988      -8.17596447E-04
   76.8949966      -7.92030769E-04
   77.0100021      -7.66170851E-04
   77.1250000      -7.40022864E-04
   77.2399979      -7.13592919E-04
   77.3550034      -6.86887419E-04
   77.4700012      -6.59912243E-04
   77.5849991      -6.32673677E-04
   77.6999969      -6.05178007E-04
   77.8150024      -5.77431347E-04
   77.9300003      -5.49440098E-04
   78.0449982      -5.21210080E-04
   78.1600037      -4.92747757E-04
   78.2750015      -4.64059005E-04
   78.3899994      -4.35149734E-04
   78.5049973      -4.06026287E-04
   78.6200027      -3.76694603E-04
   78.7350006      -3.47160851E-04
   78.8499985      -3.17430444E-04
   78.9649963      -2.87509756E-04
   79.0800018      -2.57404376E-04
   79.1949997      -2.27120428E-04
   79.3099976      -1.96663721E-04
   79.4250031      -1.66039827E-04
   79.5400009      -1.35254319E-04