  -18.8999996         0.00000000    
  -18.7849998         0.00000000    
  -18.6700001         0.00000000    
  -18.5550003         0.00000000    
  -18.4400005        -2.87642044E-26
  -18.3250008         7.23647226E-22
  -18.2099991         6.65134961E-21
  -18.0949993         3.17924607E-20
  -17.9799995         1.03100186E-19
  -17.8649998         2.46360391E-19
  -17.7500000         4.28748081E-19
  -17.6350002         4.29123052E-19
  -17.5200005        -3.79087931E-19
  -17.4050007        -3.31103959E-18
  -17.2900009        -1.06415636E-17
  -17.1749992        -2.57230258E-17
  -17.0599995        -5.27618543E-17
  -16.9449997        -9.60613250E-17
  -16.8299999        -1.58595987E-16
  -16.7150002        -2.39909483E-16
  -16.6000004        -3.33507920E-16
  -16.4850006        -4.24126126E-16
  -16.3700008        -4.85428865E-16
  -16.2549992        -4.78831537E-16
  -16.1399994        -3.54149452E-16
  -16.0249996        -5.26961464E-17
  -15.9099998         4.86756006E-16
  -15.7950001         1.31904195E-15
  -15.6800003         2.48095040E-15
  -15.5649996         3.97752569E-15
  -15.4499998         5.76738212E-15
  -15.3350000         7.74846936E-15
  -15.2200003         9.74596024E-15
  -15.1049995         1.15041042E-14
  -14.9899998         1.26837797E-14
  -14.8750000         1.28672394E-14
  -14.7600002         1.15710045E-14
  -14.6450005         8.26718048E-15
  -14.5299997         2.41258870E-15
  -14.4150000        -6.51577554E-15
  -14.3000002        -1.89812325E-14
  -14.1850004        -3.53467798E-14
  -14.0699997        -5.58364796E-14
  -13.9549999        -8.05020587E-14
  -13.8400002        -1.09197495E-13
  -13.7250004        -1.41563627E-13
  -13.6099997        -1.77024479E-13
  -13.4949999        -2.14795561E-13
  -13.3800001        -2.53904103E-13
  -13.2650003        -2.93220499E-13
  -13.1499996        -3.31498744E-13
  -13.0349998        -3.67424000E-13
  -12.9200001        -3.99662671E-13
  -12.8050003        -4.26910297E-13
  -12.6899996        -4.47930403E-13
  -12.5749998        -4.61575222E-13
  -12.4600000        -4.66781128E-13
  -12.3450003        -4.62529591E-13
  -12.2299995        -4.47770754E-13
  -12.1149998        -4.21311369E-13
  -12.0000000        -3.81676353E-13
  -11.8850002        -3.26966075E-13
  -11.7700005        -2.54737556E-13
  -11.6549997        -1.61947007E-13
  -11.5400000        -4.49914967E-14
  -11.4250002         1.00119335E-13
  -11.3100004         2.77445628E-13
  -11.1949997         4.90662686E-13
  -11.0799999         7.42509136E-13
  -10.9650002         1.03421113E-12
  -10.8500004         1.36498365E-12
  -10.7349997         1.73172522E-12
  -10.6199999         2.12902721E-12
  -10.5050001         2.54958901E-12
  -10.3900003         2.98508722E-12
  -10.2749996         3.42748074E-12
  -10.1599998         3.87064946E-12
  -10.0450001         4.31218212E-12
  -9.93000031         4.75505876E-12
  -9.81499958         5.20892530E-12
  -9.69999981         5.69065541E-12
  -9.58500004         6.22391982E-12
  -9.47000027         6.83759863E-12
  -9.35499954         7.56296761E-12
  -9.23999977         8.42979419E-12
  -9.12500000         9.46162853E-12
  -9.01000023         1.06707690E-11
  -8.89500046         1.20535144E-11
  -8.77999973         1.35864106E-11
  -8.66499996         1.52242108E-11
  -8.55000019         1.69002260E-11
  -8.43500042         1.85295147E-11
  -8.31999969         2.00152516E-11
  -8.20499992         2.12581428E-11
  -8.09000015         2.21684979E-11
  -7.97499990         2.26801442E-11
  -7.86000013         2.27650017E-11
  -7.74499989         2.24467719E-11
  -7.63000011         2.18120244E-11
  -7.51499987         2.10168324E-11
  -7.40000010         2.02871799E-11
  -7.28499985         1.99116782E-11
  -7.17000008         2.02255712E-11
  -7.05499983         2.15857610E-11
  -6.94000006         2.43374782E-11
  -6.82499981         2.87741359E-11
  -6.71000004         3.50931506E-11
  -6.59499979         4.33513780E-11
  -6.48000002         5.34246883E-11
  -6.36499977         6.49768780E-11
  -6.25000000         7.74430520E-11
  -6.13500023         9.00324745E-11
  -6.01999998         1.01754695E-10
  -5.90500021         1.11471422E-10
  -5.78999996         1.17974547E-10
  -5.67500019         1.20088064E-10
  -5.55999994         1.16789162E-10
  -5.44500017         1.07340671E-10
  -5.32999992         9.14251036E-11
  -5.21500015         6.92677513E-11
  -5.09999990         4.17358335E-11
  -4.98500013         1.04000272E-11
  -4.86999989        -2.24541306E-11
  -4.75500011        -5.38753105E-11
  -4.63999987        -8.03625985E-11
  -4.52500010        -9.80511575E-11
  -4.40999985        -1.02963971E-10
  -4.29500008        -9.13202777E-11
  -4.17999983        -5.98853744E-11
  -4.06500006        -6.34035619E-12
  -3.95000005         7.03542224E-11
  -3.83500004         1.69630379E-10
  -3.72000003         2.89051838E-10
  -3.60500002         4.24150742E-10
  -3.49000001         5.68389946E-10
  -3.37500000         7.13272996E-10
  -3.25999999         8.48616177E-10
  -3.14499998         9.62987023E-10
  -3.02999997         1.04430253E-09
  -2.91499996         1.08056675E-09
  -2.79999995         1.06071563E-09
  -2.68499994         9.75525660E-10
  -2.56999993         8.18531964E-10
  -2.45499992         5.86893922E-10
  -2.33999991         2.82143364E-10
  -2.22499990        -8.92482338E-11
  -2.10999990        -5.15546328E-10
  -1.99500000        -9.79721526E-10
  -1.88000000        -1.45974810E-09
  -1.76499999        -1.92925076E-09
  -1.64999998        -2.35850073E-09
  -1.53499997        -2.71573497E-09
  -1.41999996        -2.96875502E-09
  -1.30499995        -3.08673576E-09
  -1.19000006        -3.04216075E-09
  -1.07500005        -2.81278423E-09
 -0.959999979        -2.38350295E-09
 -0.845000029        -1.74803594E-09
 -0.730000019        -9.10292619E-10
 -0.615000010         1.14663515E-10
 -0.500000000         1.30013844E-09
 -0.384999990         2.60787791E-09
 -0.270000011         3.98871292E-09
 -0.155000001         5.38378142E-09
  -3.99999991E-02     6.72629197E-09
   7.50000030E-02     7.94376387E-09
  0.189999998         8.96065355E-09
  0.305000007         9.70123004E-09
  0.419999987         1.00925890E-08
  0.535000026         1.00676250E-08
  0.649999976         9.56782387E-09
  0.764999986         8.54572946E-09
  0.879999995         6.96692837E-09
  0.995000005         4.81146678E-09
   1.11000001         2.07459716E-09
   1.22500002        -1.23318522E-09
   1.34000003        -5.08683096E-09
   1.45500004        -9.44811251E-09
   1.57000005        -1.42676440E-08
   1.68499994        -1.94874126E-08
   1.79999995        -2.50437306E-08
   1.91499996        -3.08704244E-08
   2.02999997        -3.69021187E-08
   2.14499998        -4.30774492E-08
   2.25999999        -4.93420664E-08
   2.37500000        -5.56512276E-08
   2.49000001        -6.19719387E-08
   2.60500002        -6.82844856E-08
   2.72000003        -7.45833688E-08
   2.83500004        -8.08775553E-08
   2.95000005        -8.71901022E-08
   3.06500006        -9.35572473E-08
   3.18000007        -1.00026909E-07
   3.29500008        -1.06656913E-07
   3.41000009        -1.13512819E-07
   3.52500010        -1.20665703E-07
   3.64000010        -1.28189868E-07
   3.75500011        -1.36160722E-07
   3.86999989        -1.44652788E-07
   3.98499990        -1.53738029E-07
   4.09999990        -1.63484600E-07
   4.21500015        -1.73955868E-07
   4.32999992        -1.85209885E-07
   4.44500017        -1.97299187E-07
   4.55999994        -2.10270954E-07
   4.67500019        -2.24167366E-07
   4.78999996        -2.39026150E-07
   4.90500021        -2.54881314E-07
   5.01999998        -2.71763724E-07
   5.13500023        -2.89701774E-07
   5.25000000        -3.08722036E-07
   5.36499977        -3.28849666E-07
   5.48000002        -3.50108735E-07
   5.59499979        -3.72522379E-07
   5.71000004        -3.96112995E-07
   5.82499981        -4.20902296E-07
   5.94000006        -4.46911514E-07
   6.05499983        -4.74161425E-07
   6.17000008        -5.02672947E-07
   6.28499985        -5.32467425E-07
   6.40000010        -5.63567653E-07
   6.51499987        -5.95998586E-07
   6.63000011        -6.29788929E-07
   6.74499989        -6.64972333E-07
   6.86000013        -7.01589101E-07
   6.97499990        -7.39687891E-07
   7.09000015        -7.79327195E-07
   7.20499992        -8.20577100E-07
   7.32000017        -8.63520370E-07
   7.43499994        -9.08253469E-07
   7.55000019        -9.54886673E-07
   7.66499996        -1.00354464E-06
   7.78000021        -1.05436504E-06
   7.89499998        -1.10749750E-06
   8.01000023        -1.16310230E-06
   8.12500000        -1.22134736E-06
   8.23999977        -1.28240549E-06
   8.35499954        -1.34645200E-06
   8.47000027        -1.41366070E-06
   8.58500004        -1.48420133E-06
   8.69999981        -1.55823602E-06
   8.81499958        -1.63591687E-06
   8.93000031        -1.71738373E-06
   9.04500008        -1.80276220E-06
   9.15999985        -1.89216348E-06
   9.27499962        -1.98568364E-06
   9.39000034        -2.08340407E-06
   9.50500011        -2.18539253E-06
   9.61999989        -2.29170541E-06
   9.73499966        -2.40238887E-06
   9.85000038        -2.51748224E-06
   9.96500015        -2.63701963E-06
   10.0799999        -2.76103356E-06
   10.1949997        -2.88955539E-06
   10.3100004        -3.02261901E-06
   10.4250002        -3.16026012E-06
   10.5400000        -3.30251805E-06
   10.6549997        -3.44943442E-06
   10.7700005        -3.60105355E-06
   10.8850002        -3.75742002E-06
   11.0000000        -3.91857702E-06
   11.1149998        -4.08456390E-06
   11.2299995        -4.25541475E-06
   11.3450003        -4.43115368E-06
   11.4600000        -4.61179479E-06
   11.5749998        -4.79733990E-06
   11.6899996        -4.98777490E-06
   11.8050003        -5.18307252E-06
   11.9200001        -5.38318909E-06
   12.0349998        -5.58806687E-06
   12.1499996        -5.79763582E-06
   12.2650003        -6.01181364E-06
   12.3800001        -6.23050937E-06
   12.4949999        -6.45362752E-06
   12.6099997        -6.68106577E-06
   12.7250004        -6.91272271E-06
   12.8400002        -7.14849466E-06
   12.9549999        -7.38828112E-06
   13.0699997        -7.63198204E-06
   13.1850004        -7.87950012E-06
   13.3000002        -8.13073439E-06
   13.4150000        -8.38558390E-06
   13.5299997        -8.64393951E-06
   13.6450005        -8.90568390E-06
   13.7600002        -9.17068519E-06
   13.8750000        -9.43879331E-06
   13.9899998        -9.70983638E-06
   14.1049995        -9.98361611E-06
   14.2200003        -1.02599051E-05
   14.3350000        -1.05384479E-05
   14.4499998        -1.08189570E-05
   14.5649996        -1.11011141E-05
   14.6800003        -1.13845754E-05
   14.7950001        -1.16689707E-05
   14.9099998        -1.19539109E-05
   15.0249996        -1.22389938E-05
   15.1400003        -1.25238093E-05
   15.2550001        -1.28079400E-05
   15.3699999        -1.30909784E-05
   15.4849997        -1.33725198E-05
   15.6000004        -1.36521758E-05
   15.7150002        -1.39295726E-05
   15.8299999        -1.42043500E-05
   15.9449997        -1.44761680E-05
   16.0599995        -1.47446935E-05
   16.1749992        -1.50096084E-05
   16.2900009        -1.52705888E-05
   16.4050007        -1.55273101E-05
   16.5200005        -1.57794329E-05
   16.6350002        -1.60265899E-05
   16.7500000        -1.62683882E-05
   16.8649998        -1.65043839E-05
   16.9799995        -1.67340950E-05
   17.0949993        -1.69569757E-05
   17.2099991        -1.71724278E-05
   17.3250008        -1.73797926E-05
   17.4400005        -1.75783516E-05
   17.5550003        -1.77673319E-05
   17.6700001        -1.79459130E-05
   17.7849998        -1.81132309E-05
   17.8999996        -1.82683962E-05
   18.0149994        -1.84104993E-05
   18.1299992        -1.85386289E-05
   18.2450008        -1.86518810E-05
   18.3600006        -1.87493788E-05
   18.4750004        -1.88302765E-05
   18.5900002        -1.88937756E-05
   18.7049999        -1.89391340E-05
   18.8199997        -1.89656712E-05
   18.9349995        -1.89727725E-05
   19.0499992        -1.89598886E-05
   19.1650009        -1.89265338E-05
   19.2800007        -1.88722879E-05
   19.3950005        -1.87967835E-05
   19.5100002        -1.86997040E-05
   19.6250000        -1.85807676E-05
   19.7399998        -1.84397177E-05
   19.8549995        -1.82763106E-05
   19.9699993        -1.80903135E-05
   20.0849991        -1.78814844E-05
   20.2000008        -1.76495578E-05
   20.3150005        -1.73942535E-05
   20.4300003        -1.71152606E-05
   20.5450001        -1.68122369E-05
   20.6599998        -1.64848152E-05
   20.7749996        -1.61325897E-05
   20.8899994        -1.57551294E-05
   21.0049992        -1.53519777E-05
   21.1200008        -1.49226589E-05
   21.2350006        -1.44666819E-05
   21.3500004        -1.39835547E-05
   21.4650002        -1.34727779E-05
   21.5799999        -1.29338587E-05
   21.6949997        -1.23663194E-05
   21.8099995        -1.17696936E-05
   21.9249992        -1.11435329E-05
   22.0400009        -1.04874080E-05
   22.1550007        -9.80090317E-06
   22.2700005        -9.08362199E-06
   22.3850002        -8.33517788E-06
   22.5000000        -7.55519432E-06
   22.6149998        -6.74330022E-06
   22.7299995        -5.89912042E-06
   22.8449993        -5.02228568E-06
   22.9599991        -4.11242218E-06
   23.0750008        -3.16913975E-06
   23.1900005        -2.19204912E-06
   23.3050003        -1.18074797E-06
   23.4200001        -1.34822926E-07
   23.5349998         9.46133355E-07
   23.6499996         2.06253844E-06
   23.7649994         3.21480752E-06
   23.8799992         4.40334816E-06
   23.9950008         5.62854484E-06
   24.1100006         6.89076887E-06
   24.2250004         8.19037177E-06
   24.3400002         9.52767914E-06
   24.4549999         1.09029979E-05
   24.5699997         1.23165946E-05
   24.6849995         1.37687275E-05
   24.7999992         1.52596276E-05
   24.9150009         1.67895178E-05
   25.0300007         1.83586089E-05
   25.1450005         1.99671194E-05
   25.2600002         2.16152839E-05
   25.3750000         2.33033588E-05
   25.4899998         2.50316389E-05
   25.6049995         2.68004587E-05
   25.7199993         2.86102113E-05
   25.8349991         3.04613586E-05
   25.9500008         3.23544227E-05
   26.0650005         3.42899984E-05
   26.1800003         3.62687679E-05
   26.2950001         3.82914877E-05
   26.4099998         4.03589765E-05
   26.5249996         4.24721293E-05
   26.6399994         4.46318991E-05
   26.7549992         4.68392936E-05
   26.8700008         4.90953498E-05
   26.9850006         5.14011517E-05
   27.1000004         5.37577835E-05
   27.2150002         5.61663655E-05
   27.3299999         5.86280075E-05
   27.4449997         6.11437936E-05
   27.5599995         6.37148260E-05
   27.6749992         6.63421743E-05
   27.7900009         6.90268716E-05
   27.9050007         7.17699513E-05
   28.0200005         7.45724319E-05
   28.1350002         7.74352957E-05
   28.2500000         8.03595103E-05
   28.3649998         8.33460508E-05
   28.4799995         8.63958994E-05
   28.5949993         8.95100166E-05
   28.7099991         9.26894063E-05
   28.8250008         9.59350946E-05
   28.9400005         9.92481146E-05
   29.0550003         1.02629558E-04
   29.1700001         1.06080508E-04
   29.2849998         1.09602130E-04
   29.3999996         1.13195558E-04
   29.5149994         1.16861964E-04
   29.6299992         1.20602534E-04
   29.7450008         1.24418453E-04
   29.8600006         1.28310887E-04
   29.9750004         1.32280984E-04
   30.0900002         1.36329851E-04
   30.2049999         1.40458564E-04
   30.3199997         1.44668113E-04
   30.4349995         1.48959385E-04
   30.5499992         1.53333182E-04
   30.6650009         1.57790229E-04
   30.7800007         1.62331038E-04
   30.8950005         1.66956102E-04
   31.0100002         1.71665728E-04
   31.1250000         1.76460104E-04
   31.2399998         1.81339259E-04
   31.3549995         1.86303150E-04
   31.4699993         1.91351530E-04
   31.5849991         1.96484049E-04
   31.7000008         2.01700197E-04
   31.8150005         2.06999393E-04
   31.9300003         2.12380866E-04
   32.0449982         2.17843801E-04
   32.1599998         2.23387251E-04
   32.2750015         2.29010169E-04
   32.3899994         2.34711406E-04
   32.5050011         2.40489695E-04
   32.6199989         2.46343669E-04
   32.7350006         2.52271828E-04
   32.8499985         2.58272543E-04
   32.9650002         2.64344097E-04
   33.0800018         2.70484597E-04
   33.1949997         2.76691979E-04
   33.3100014         2.82964058E-04
   33.4249992         2.89298448E-04
   33.5400009         2.95692618E-04
   33.6549988         3.02143802E-04
   33.7700005         3.08649061E-04
   33.8849983         3.15205194E-04
   34.0000000         3.21808853E-04
   34.1150017         3.28456430E-04
   34.2299995         3.35144112E-04
   34.3450012         3.41867853E-04
   34.4599991         3.48623435E-04
   34.5750008         3.55406490E-04
   34.6899986         3.62212420E-04
   34.8050003         3.69036483E-04
   34.9199982         3.75873788E-04
   35.0349998         3.82719212E-04
   35.1500015         3.89567693E-04
   35.2649994         3.96413903E-04
   35.3800011         4.03252518E-04
   35.4949989         4.10078123E-04
   35.6100006         4.16885217E-04
   35.7249985         4.23668273E-04
   35.8400002         4.30421700E-04
   35.9550018         4.37139883E-04
   36.0699997         4.43817087E-04
   36.1850014         4.50447522E-04
   36.2999992         4.57025337E-04
   36.4150009         4.63544595E-04
   36.5299988         4.69999301E-04
   36.6450005         4.76383342E-04
   36.7599983         4.82690550E-04
   36.8750000         4.88914608E-04
   36.9900017         4.95048997E-04
   37.1049995         5.01087285E-04
   37.2200012         5.07022545E-04
   37.3349991         5.12848084E-04
   37.4500008         5.18556859E-04
   37.5649986         5.24141884E-04
   37.6800003         5.29595942E-04
   37.7949982         5.34912047E-04
   37.9099998         5.40082925E-04
   38.0250015         5.45101415E-04
   38.1399994         5.49960299E-04
   38.2550011         5.54652535E-04
   38.3699989         5.59170963E-04
   38.4850006         5.63508715E-04
   38.5999985         5.67659095E-04
   38.7150002         5.71615412E-04
   38.8300018         5.75371436E-04
   38.9449997         5.78921055E-04
   39.0600014         5.82258333E-04
   39.1749992         5.85377507E-04
   39.2900009         5.88273164E-04
   39.4049988         5.90940006E-04
   39.5200005         5.93372970E-04
   39.6349983         5.95567224E-04
   39.7500000         5.97518054E-04
   39.8650017         5.99221210E-04
   39.9799995         6.00672385E-04
   40.0950012         6.01867563E-04
   40.2099991         6.02802727E-04
   40.3250008         6.03474211E-04
   40.4399986         6.03878347E-04
   40.5550003         6.04011526E-04
   40.6699982         6.03870372E-04
   40.7849998         6.03451685E-04
   40.9000015         6.02752320E-04
   41.0149994         6.01769425E-04
   41.1300011         6.00500382E-04
   41.2449989         5.98942686E-04
   41.3600006         5.97094011E-04
   41.4749985         5.94952260E-04
   41.5900002         5.92515513E-04
   41.7050018         5.89782023E-04
   41.8199997         5.86750335E-04
   41.9350014         5.83419169E-04
   42.0499992         5.79787476E-04
   42.1650009         5.75854501E-04
   42.2799988         5.71619603E-04
   42.3950005         5.67082374E-04
   42.5099983         5.62242465E-04
   42.6250000         5.57099760E-04
   42.7400017         5.51654317E-04
   42.8549995         5.45906136E-04
   42.9700012         5.39855333E-04
   43.0849991         5.33502200E-04
   43.2000008         5.26847027E-04
   43.3149986         5.19890280E-04
   43.4300003         5.12632483E-04
   43.5449982         5.05074102E-04
   43.6599998         4.97215777E-04
   43.7750015         4.89058206E-04
   43.8899994         4.80601942E-04
   44.0050011         4.71847685E-04
   44.1199989         4.62796219E-04
   44.2350006         4.53448214E-04
   44.3499985         4.43804398E-04
   44.4650002         4.33865614E-04
   44.5800018         4.23632708E-04
   44.6949997         4.13106347E-04
   44.8100014         4.02287231E-04
   44.9249992         3.91175767E-04
   45.0400009         3.79772478E-04
   45.1549988         3.68077512E-04
   45.2700005         3.56090808E-04
   45.3849983         3.43812222E-04
   45.5000000         3.31241201E-04
   45.6150017         3.18376988E-04
   45.7299995         3.05218622E-04
   45.8450012         2.91764853E-04
   45.9599991         2.78013962E-04
   46.0750008         2.63964088E-04
   46.1899986         2.49612960E-04
   46.3050003         2.34958003E-04
   46.4199982         2.19996553E-04
   46.5349998         2.04725700E-04
   46.6500015         1.89142433E-04
   46.7649994         1.73243650E-04
   46.8800011         1.57026108E-04
   46.9949989         1.40486547E-04
   47.1100006         1.23621779E-04
   47.2249985         1.06428444E-04
   47.3400002         8.89034200E-05
   47.4550018         7.10436216E-05
   47.5699997         5.28461824E-05
   47.6850014         3.43082247E-05
   47.7999992         1.54271711E-05
   47.9150009        -3.79948165E-06
   48.0299988        -2.33740066E-05
   48.1450005        -4.32986089E-05
   48.2599983        -6.35753167E-05
   48.3750000        -8.42060472E-05
   48.4900017        -1.05192412E-04
   48.6049995        -1.26535946E-04
   48.7200012        -1.48237843E-04
   48.8349991        -1.70299085E-04
   48.9500008        -1.92720472E-04
   49.0649986        -2.15502398E-04
   49.1800003        -2.38645196E-04
   49.2949982        -2.62148533E-04
   49.4099998        -2.86011811E-04
   49.5250015        -3.10234114E-04
   49.6399994        -3.34813871E-04
   49.7550011        -3.59749072E-04
   49.8699989        -3.85037012E-04
   49.9850006        -4.10674489E-04
   50.0999985        -4.36657283E-04
   50.2150002        -4.62980941E-04
   50.3300018        -4.89639991E-04
   50.4449997        -5.16628381E-04
   50.5600014        -5.43939124E-04
   50.6749992        -5.71564597E-04
   50.7900009        -5.99496125E-04
   50.9049988        -6.27724279E-04
   51.0200005        -6.56238873E-04
   51.1349983        -6.85029023E-04
   51.2500000        -7.14082795E-04
   51.3650017        -7.43387674E-04
   51.4799995        -7.72930158E-04
   51.5950012        -8.02696042E-04
   51.7099991        -8.32670543E-04
   51.8250008        -8.62837944E-04
   51.9399986        -8.93181947E-04
   52.0550003        -9.23685438E-04
   52.1699982        -9.54330782E-04
   52.2849998        -9.85099701E-04
   52.4000015        -1.01597328E-03
   52.5149994        -1.04693219E-03
   52.6300011        -1.07795687E-03
   52.7449989        -1.10902707E-03
   52.8600006        -1.14012219E-03
   52.9749985        -1.17122149E-03
   53.0900002        -1.20230368E-03
   53.2050018        -1.23334769E-03
   53.3199997        -1.26433198E-03
   53.4350014        -1.29523536E-03
   53.5499992        -1.32603617E-03
   53.6650009        -1.35671347E-03
   53.7799988        -1.38724595E-03
   53.8950005        -1.41761277E-03
   54.0099983        -1.44779298E-03
   54.1250000        -1.47776608E-03
   54.2400017        -1.50751183E-03
   54.3549995        -1.53701031E-03
   54.4700012        -1.56624184E-03
   54.5849991        -1.59518735E-03
   54.7000008        -1.62382843E-03
   54.8149986        -1.65214669E-03
   54.9300003        -1.68012490E-03
   55.0449982        -1.70774572E-03
   55.1599998        -1.73499295E-03
   55.2750015        -1.76185044E-03
   55.3899994        -1.78830291E-03
   55.5050011        -1.81433582E-03
   55.6199989        -1.83993566E-03
   55.7350006        -1.86508952E-03
   55.8499985        -1.88978529E-03
   55.9650002        -1.91401225E-03
   56.0800018        -1.93776051E-03
   56.1949997        -1.96102099E-03
   56.3100014        -1.98378577E-03
   56.4249992        -2.00604787E-03
   56.5400009        -2.02780147E-03
   56.6549988        -2.04904168E-03
   56.7700005        -2.06976547E-03
   56.8849983        -2.08997051E-03
   57.0000000        -2.10965611E-03
   57.1150017        -2.12882226E-03
   57.2299995        -2.14747083E-03
   57.3450012        -2.16560368E-03
   57.4599991        -2.18322477E-03
   57.5750008        -2.20033829E-03
   57.6899986        -2.21695006E-03
   57.8050003        -2.23306683E-03
   57.9199982        -2.24869628E-03
   58.0349998        -2.26384727E-03
   58.1500015        -2.27852957E-03
   58.2649994        -2.29275366E-03
   58.3800011        -2.30653048E-03
   58.4949989        -2.31987238E-03
   58.6100006        -2.33279145E-03
   58.7249985        -2.34530098E-03
   58.8400002        -2.35741469E-03
   58.9550018        -2.36914656E-03
   59.0699997        -2.38051196E-03
   59.1850014        -2.39152554E-03
   59.2999992        -2.40220269E-03
   59.4150009        -2.41255970E-03
   59.5299988        -2.42261193E-03
   59.6450005        -2.43237521E-03
   59.7599983        -2.44186562E-03
   59.8750000        -2.45109899E-03
   59.9900017        -2.46009068E-03
   60.1049995        -2.46885652E-03
   60.2200012        -2.47741258E-03
   60.3349991        -2.48577353E-03
   60.4500008        -2.49395496E-03
   60.5649986        -2.50197179E-03
   60.6800003        -2.50983820E-03
   60.7949982        -2.51756865E-03
   60.9099998        -2.52517662E-03
   61.0250015        -2.53267516E-03
   61.1399994        -2.54007708E-03
   61.2550011        -2.54739542E-03
   61.3699989        -2.55464180E-03
   61.4850006        -2.56182789E-03
   61.5999985        -2.56896485E-03
   61.7150002        -2.57606315E-03
   61.8300018        -2.58313236E-03
   61.9449997        -2.59018154E-03
   62.0600014        -2.59721861E-03
   62.1749992        -2.60425103E-03
   62.2900009        -2.61128554E-03
   62.4049988        -2.61832727E-03
   62.5200005        -2.62538181E-03
   62.6349983        -2.63245241E-03
   62.7500000        -2.63954257E-03
   62.8650017        -2.64665415E-03
   62.9799995        -2.65378808E-03
   63.0950012        -2.66094389E-03
   63.2099991        -2.66812020E-03
   63.3250008        -2.67531513E-03
   63.4399986        -2.68252497E-03
   63.5550003        -2.68974528E-03
   63.6699982        -2.69697094E-03
   63.7849998        -2.70419591E-03
   63.9000015        -2.71141320E-03
   64.0149994        -2.71861488E-03
   64.1299973        -2.72579165E-03
   64.2450027        -2.73293350E-03
   64.3600006        -2.74002948E-03
   64.4749985        -2.74706725E-03
   64.5899963        -2.75403401E-03
   64.7050018        -2.76091578E-03
   64.8199997        -2.76769768E-03
   64.9349976        -2.77436431E-03
   65.0500031        -2.78089894E-03
   65.1650009        -2.78728385E-03
   65.2799988        -2.79350043E-03
   65.3949966        -2.79952958E-03
   65.5100021        -2.80535012E-03
   65.6250000        -2.81094108E-03
   65.7399979        -2.81627988E-03
   65.8550034        -2.82134395E-03
   65.9700012        -2.82610976E-03
   66.0849991        -2.83055380E-03
   66.1999969        -2.83465092E-03
   66.3150024        -2.83837668E-03
   66.4300003        -2.84170592E-03
   66.5449982        -2.84461305E-03
   66.6600037        -2.84707197E-03
   66.7750015        -2.84905662E-03
   66.8899994        -2.85054115E-03
   67.0049973        -2.85149948E-03
   67.1200027        -2.85190507E-03
   67.2350006        -2.85173254E-03
   67.3499985        -2.85095605E-03
   67.4649963        -2.84954952E-03
   67.5800018        -2.84748804E-03
   67.6949997        -2.84474506E-03
   67.8099976        -2.84129544E-03
   67.9250031        -2.83711334E-03
   68.0400009        -2.83217267E-03
   68.1549988        -2.82644853E-03
   68.2699966        -2.81991553E-03
   68.3850021        -2.81254901E-03
   68.5000000        -2.80432450E-03
   68.6149979        -2.79521802E-03
   68.7300034        -2.78520584E-03
   68.8450012        -2.77426443E-03
   68.9599991        -2.76237098E-03
   69.0749969        -2.74950359E-03
   69.1900024        -2.73564062E-03
   69.3050003        -2.72076204E-03
   69.4199982        -2.70484900E-03
   69.5350037        -2.68788380E-03
   69.6500015        -2.66984990E-03
   69.7649994        -2.65073194E-03
   69.8799973        -2.63051619E-03
   69.9950027        -2.60918983E-03
   70.1100006        -2.58674147E-03
   70.2249985        -2.56316108E-03
   70.3399963        -2.53843982E-03
   70.4550018        -2.51257070E-03
   70.5699997        -2.48554815E-03
   70.6849976        -2.45736819E-03
   70.8000031        -2.42802827E-03
   70.9150009        -2.39752745E-03
   71.0299988        -2.36586574E-03
   71.1449966        -2.33304431E-03
   71.2600021        -2.29906640E-03
   71.3750000        -2.26393598E-03
   71.4899979        -2.22765887E-03
   71.6050034        -2.19024322E-03
   71.7200012        -2.15169834E-03
   71.8349991        -2.11203541E-03
   71.9499969        -2.07126746E-03
   72.0650024        -2.02940917E-03
   72.1800003        -1.98647659E-03
   72.2949982        -1.94248732E-03
   72.4100037        -1.89746171E-03
   72.5250015        -1.85142073E-03
   72.6399994        -1.80438801E-03
   72.7549973        -1.75638811E-03
   72.8700027        -1.70744758E-03
   72.9850006        -1.65759446E-03
   73.0999985        -1.60685799E-03
   73.2149963        -1.55526830E-03
   73.3300018        -1.50285685E-03
   73.4449997        -1.44965609E-03
   73.5599976        -1.39569910E-03
   73.6750031        -1.34102022E-03
   73.7900009        -1.28565356E-03
   73.9049988        -1.22963416E-03
   74.0199966        -1.17299752E-03
   74.1350021        -1.11577974E-03