  -18.8999996        -0.00000000    
  -18.7849998        -0.00000000    
  -18.6700001        -0.00000000    
  -18.5550003        -0.00000000    
  -18.4400005        -0.00000000    
  -18.3250008        -0.00000000    
  -18.2099991        -0.00000000    
  -18.0949993        -0.00000000    
  -17.9799995        -0.00000000    
  -17.8649998         2.11398494E-32
  -17.7500000         1.81976047E-31
  -17.6350002         7.36021776E-31
  -17.5200005         2.09712462E-30
  -17.4050007         4.80344796E-30
  -17.2900009         9.41108677E-30
  -17.1749992         1.61307933E-29
  -17.0599995         2.42450611E-29
  -16.9449997         3.13123227E-29
  -16.8299999         3.24694576E-29
  -16.7150002         1.98492539E-29
  -16.6000004        -1.67481561E-29
  -16.4850006        -8.69985408E-29
  -16.3700008        -1.95057017E-28
  -16.2549992        -3.30175652E-28
  -16.1399994        -4.54522067E-28
  -16.0249996        -4.88210433E-28
  -15.9099998        -2.94827760E-28
  -15.7950001         3.27885384E-28
  -15.6800003         1.64197623E-27
  -15.5649996         3.93764004E-27
  -15.4499998         7.45830084E-27
  -15.3350000         1.22674157E-26
  -15.2200003         1.80446170E-26
  -15.1049995         2.38114275E-26
  -14.9899998         2.76062120E-26
  -14.8750000         2.61575399E-26
  -14.7600002         1.46354128E-26
  -14.6450005        -1.34179909E-26
  -14.5299997        -6.58758452E-26
  -14.4150000        -1.51468073E-25
  -14.3000002        -2.78895314E-25
  -14.1850004        -4.55757239E-25
  -14.0699997        -6.87575208E-25
  -13.9549999        -9.77291081E-25
  -13.8400002        -1.32563263E-24
  -13.7250004        -1.73258724E-24
  -13.6099997        -2.19990311E-24
  -13.4949999        -2.73407377E-24
  -13.3800001        -3.34878515E-24
  -13.2650003        -4.06551143E-24
  -13.1499996        -4.91106776E-24
  -13.0349998        -5.91165026E-24
  -12.9200001        -7.08422652E-24
  -12.8050003        -8.42781441E-24
  -12.6899996        -9.91864556E-24
  -12.5749998        -1.15135985E-23
  -12.4600000        -1.31647348E-23
  -12.3450003        -1.48436943E-23
  -12.2299995        -1.65683620E-23
  -12.1149998        -1.84168666E-23
  -12.0000000        -2.05084761E-23
  -11.8850002        -2.29306940E-23
  -11.7700005        -2.56011507E-23
  -11.6549997        -2.80737168E-23
  -11.5400000        -2.93306279E-23
  -11.4250002        -2.76404429E-23
  -11.3100004        -2.05952460E-23
  -11.1949997        -5.45265943E-24
  -11.0799999         2.01174787E-23
  -10.9650002         5.68618766E-23
  -10.8500004         1.02464935E-22
  -10.7349997         1.50065199E-22
  -10.6199999         1.87265254E-22
  -10.5050001         1.96287071E-22
  -10.3900003         1.55957422E-22
  -10.2749996         4.60512037E-23
  -10.1599998        -1.45893198E-22
  -10.0450001        -4.15835442E-22
  -9.93000031        -7.33996222E-22
  -9.81499958        -1.03745675E-21
  -9.69999981        -1.22767053E-21
  -9.58500004        -1.17620620E-21
  -9.47000027        -7.41532684E-22
  -9.35499954         2.01881092E-22
  -9.23999977         1.72344434E-21
  -9.12500000         3.79007371E-21
  -9.01000023         6.22212406E-21
  -8.89500046         8.66359974E-21
  -8.77999973         1.05804906E-20
  -8.66499996         1.13005045E-20
  -8.55000019         1.01033480E-20
  -8.43500042         6.36280615E-21
  -8.31999969        -2.69654013E-22
  -8.20499992        -9.66375965E-21
  -8.09000015        -2.10294644E-20
  -7.97499990        -3.28044127E-20
  -7.86000013        -4.26620727E-20
  -7.74499989        -4.76864776E-20
  -7.63000011        -4.47414077E-20
  -7.51499987        -3.10304399E-20
  -7.40000010        -4.80336996E-21
  -7.28499985         3.38827687E-20
  -7.17000008         8.24834586E-20
  -7.05499983         1.35534629E-19
  -6.94000006         1.84643062E-19
  -6.82499981         2.19049963E-19
  -6.71000004         2.26855110E-19
  -6.59499979         1.96889122E-19
  -6.48000002         1.21090686E-19
  -6.36499977        -2.89849903E-21
  -6.25000000        -1.69339769E-19
  -6.13500023        -3.62722162E-19
  -6.01999998        -5.57345818E-19
  -5.90500021        -7.18639937E-19
  -5.78999996        -8.06518313E-19
  -5.67500019        -7.80787309E-19
  -5.55999994        -6.08258578E-19
  -5.44500017        -2.70810609E-19
  -5.32999992         2.26752230E-19
  -5.21500015         8.50491803E-19
  -5.09999990         1.53434156E-18
  -4.98500013         2.18178027E-18
  -4.86999989         2.67321013E-18
  -4.75500011         2.87940041E-18
  -4.63999987         2.68038158E-18
  -4.52500010         1.98813708E-18
  -4.40999985         7.70279427E-19
  -4.29500008        -9.28928791E-19
  -4.17999983        -2.97443395E-18
  -4.06500006        -5.13727799E-18
  -3.95000005        -7.10590167E-18
  -3.83500004        -8.51379781E-18
  -3.72000003        -8.98324763E-18
  -3.60500002        -8.18220013E-18
  -3.49000001        -5.88852425E-18
  -3.37500000        -2.05333504E-18
  -3.25999999         3.14687960E-18
  -3.14499998         9.28019058E-18
  -3.02999997         1.56612504E-17
  -2.91499996         2.13927832E-17
  -2.79999995         2.54494507E-17
  -2.68499994         2.68012805E-17
  -2.56999993         2.45671120E-17
  -2.45499992         1.81815622E-17
  -2.33999991         7.55387953E-18
  -2.22499990        -6.80708640E-18
  -2.10999990        -2.37277123E-17
  -1.99500000        -4.13870125E-17
  -1.88000000        -5.74320565E-17
  -1.76499999        -6.91955773E-17
  -1.64999998        -7.40065061E-17
  -1.53499997        -6.95681593E-17
  -1.41999996        -5.43644473E-17
  -1.30499995        -2.80426602E-17
  -1.19000006         8.28606672E-18
  -1.07500005         5.18866178E-17
 -0.959999979         9.84303835E-17
 -0.845000029         1.42250078E-16
 -0.730000019         1.76827736E-16
 -0.615000010         1.95494437E-16
 -0.500000000         1.92288324E-16
 -0.384999990         1.62886805E-16
 -0.270000011         1.05502162E-16
 -0.155000001         2.16165571E-17
  -3.99999991E-02    -8.35686279E-17
   7.50000030E-02    -2.01080314E-16
  0.189999998        -3.18593920E-16
  0.305000007        -4.21359054E-16
  0.419999987        -4.93598921E-16
  0.535000026        -5.20290623E-16
  0.649999976        -4.89168462E-16
  0.764999986        -3.92737837E-16
  0.879999995        -2.30051660E-16
  0.995000005        -7.99180218E-18
   1.11000001         2.58187739E-16
   1.22500002         5.45239873E-16
   1.34000003         8.23337836E-16
   1.45500004         1.05852140E-15
   1.57000005         1.21605196E-15
   1.68499994         1.26442611E-15
   1.79999995         1.17968100E-15
   1.91499996         9.49535263E-16
   2.02999997         5.76853948E-16
   2.14499998         8.19213937E-17
   2.25999999        -4.96920137E-16
   2.37500000        -1.10461545E-15
   2.49000001        -1.67288086E-15
   2.60500002        -2.12578567E-15
   2.72000003        -2.38713959E-15
   2.83500004        -2.38916548E-15
   2.95000005        -2.08170586E-15
   3.06500006        -1.44105916E-15
   3.18000007        -4.77434568E-16
   3.29500008         7.59967119E-16
   3.41000009         2.18113970E-15
   3.52500010         3.65743321E-15
   3.64000010         5.02803967E-15
   3.75500011         6.11081713E-15
   3.86999989         6.71702125E-15
   3.98499990         6.66906478E-15
   4.09999990         5.82003877E-15
   4.21500015         4.07341617E-15
   4.32999992         1.40108154E-15
   4.44500017        -2.14210101E-15
   4.55999994        -6.40899729E-15
   4.67500019        -1.11576423E-14
   4.78999996        -1.60564514E-14
   4.90500021        -2.06976211E-14
   5.01999998        -2.46185738E-14
   5.13500023        -2.73304752E-14
   5.25000000        -2.83521714E-14
   5.36499977        -2.72474727E-14
   5.48000002        -2.36628717E-14
   5.59499979        -1.73630184E-14
   5.71000004        -8.26071931E-15
   5.82499981         3.56112302E-15
   5.94000006         1.78381090E-14
   6.05499983         3.41250194E-14
   6.17000008         5.18094716E-14
   6.28499985         7.01385225E-14
   6.40000010         8.82568690E-14
   6.51499987         1.05254875E-13
   6.63000011         1.20223560E-13
   6.74499989         1.32313065E-13
   6.86000013         1.40790632E-13
   6.97499990         1.45094630E-13
   7.09000015         1.44880635E-13
   7.20499992         1.40056437E-13
   7.32000017         1.30803544E-13
   7.43499994         1.17583840E-13
   7.55000019         1.01130686E-13
   7.66499996         8.24246270E-14
   7.78000021         6.26560164E-14
   7.89499998         4.31760950E-14
   8.01000023         2.54398113E-14
   8.12500000         1.09431896E-14
   8.23999977         1.15986254E-15
   8.35499954        -2.52134603E-15
   8.47000027         1.14610165E-15
   8.58500004         1.32166371E-14
   8.69999981         3.45114359E-14
   8.81499958         6.55882006E-14
   8.93000031         1.06722119E-13
   9.04500008         1.57898136E-13
   9.15999985         2.18814956E-13
   9.27499962         2.88899547E-13
   9.39000034         3.67332168E-13
   9.50500011         4.53080498E-13
   9.61999989         5.44943322E-13
   9.73499966         6.41602656E-13
   9.85000038         7.41682486E-13
   9.96500015         8.43817312E-13
   10.0799999         9.46722735E-13
   10.1949997         1.04927492E-12
   10.3100004         1.15058885E-12
   10.4250002         1.25009909E-12
   10.5400000         1.34763728E-12
   10.6549997         1.44350200E-12
   10.7700005         1.53851682E-12
   10.8850002         1.63407146E-12
   11.0000000         1.73214633E-12
   11.1149998         1.83530925E-12
   11.2299995         1.94668327E-12
   11.3450003         2.06988528E-12
   11.4600000         2.20893898E-12
   11.5749998         2.36814843E-12
   11.6899996         2.55195799E-12
   11.8050003         2.76478558E-12
   11.9200001         3.01084439E-12
   12.0349998         3.29396363E-12
   12.1499996         3.61741691E-12
   12.2650003         3.98376384E-12
   12.3800001         4.39472590E-12
   12.4949999         4.85109392E-12
   12.6099997         5.35268444E-12
   12.7250004         5.89834345E-12
   12.8400002         6.48600357E-12
   12.9549999         7.11279386E-12
   13.0699997         7.77519802E-12
   13.1850004         8.46924440E-12
   13.3000002         9.19073324E-12
   13.4150000         9.93549167E-12
   13.5299997         1.06996148E-11
   13.6450005         1.14797095E-11
   13.7600002         1.22731218E-11
   13.8750000         1.30781020E-11
   13.9899998         1.38939676E-11
   14.1049995         1.47211687E-11
   14.2200003         1.55613335E-11
   14.3350000         1.64172270E-11
   14.4499998         1.72926638E-11
   14.5649996         1.81923660E-11
   14.6800003         1.91217875E-11
   14.7950001         2.00868801E-11
   14.9099998         2.10938541E-11
   15.0249996         2.21489355E-11
   15.1400003         2.32581038E-11
   15.2550001         2.44268633E-11
   15.3699999         2.56600245E-11
   15.4849997         2.69615441E-11
   15.6000004         2.83343835E-11
   15.7150002         2.97804142E-11
   15.8299999         3.13004032E-11
   15.9449997         3.28940347E-11
   16.0599995         3.45599487E-11
   16.1749992         3.62958726E-11
   16.2900009         3.80987637E-11
   16.4050007         3.99650174E-11
   16.5200005         4.18906403E-11
   16.6350002         4.38715106E-11
   16.7500000         4.59036038E-11
   16.8649998         4.79832146E-11
   16.9799995         5.01072066E-11
   17.0949993         5.22731858E-11
   17.2099991         5.44797055E-11
   17.3250008         5.67264014E-11
   17.4400005         5.90140714E-11
   17.5550003         6.13447210E-11
   17.6700001         6.37216044E-11
   17.7849998         6.61491278E-11
   17.8999996         6.86327661E-11
   18.0149994         7.11788892E-11
   18.1299992         7.37945469E-11
   18.2450008         7.64872610E-11
   18.3600006         7.92647337E-11
   18.4750004         8.21345630E-11
   18.5900002         8.51039031E-11
   18.7049999         8.81792694E-11
   18.8199997         9.13662063E-11
   18.9349995         9.46690573E-11
   19.0499992         9.80908271E-11
   19.1650009         1.01633015E-10
   19.2800007         1.05295564E-10
   19.3950005         1.09076859E-10
   19.5100002         1.12973797E-10
   19.6250000         1.16981924E-10
   19.7399998         1.21095564E-10
   19.8549995         1.25308167E-10
   19.9699993         1.29612404E-10
   20.0849991         1.34000547E-10
   20.2000008         1.38464740E-10
   20.3150005         1.42997156E-10
   20.4300003         1.47590329E-10
   20.5450001         1.52237181E-10
   20.6599998         1.56931287E-10
   20.7749996         1.61666680E-10
   20.8899994         1.66438141E-10
   21.0049992         1.71240772E-10
   21.1200008         1.76070075E-10
   21.2350006         1.80921583E-10
   21.3500004         1.85790716E-10
   21.4650002         1.90672408E-10
   21.5799999         1.95560887E-10
   21.6949997         2.00449310E-10
   21.8099995         2.05329587E-10
   21.9249992         2.10192017E-10
   22.0400009         2.15025178E-10
   22.1550007         2.19815749E-10
   22.2700005         2.24548366E-10
   22.3850002         2.29205530E-10
   22.5000000         2.33767616E-10
   22.6149998         2.38212894E-10
   22.7299995         2.42517534E-10
   22.8449993         2.46655557E-10
   22.9599991         2.50599097E-10
   23.0750008         2.54318289E-10
   23.1900005         2.57781269E-10
   23.3050003         2.60954564E-10
   23.4200001         2.63802785E-10
   23.5349998         2.66288658E-10
   23.6499996         2.68373407E-10
   23.7649994         2.70016592E-10
   23.8799992         2.71176109E-10
   23.9950008         2.71808548E-10
   24.1100006         2.71869138E-10
   24.2250004         2.71312084E-10
   24.3400002         2.70090644E-10
   24.4549999         2.68157690E-10
   24.5699997         2.65465788E-10
   24.6849995         2.61967642E-10
   24.7999992         2.57616567E-10
   24.9150009         2.52366655E-10
   25.0300007         2.46173387E-10
   25.1450005         2.38993825E-10
   25.2600002         2.30787001E-10
   25.3750000         2.21514029E-10
   25.4899998         2.11138468E-10
   25.6049995         1.99626149E-10
   25.7199993         1.86945431E-10
   25.8349991         1.73067130E-10
   25.9500008         1.57964170E-10
   26.0650005         1.41611528E-10
   26.1800003         1.23985849E-10
   26.2950001         1.05065248E-10
   26.4099998         8.48288662E-11
   26.5249996         6.32565667E-11
   26.6399994         4.03288548E-11
   26.7549992         1.60258577E-11
   26.8700008        -9.67214503E-12
   26.9850006        -3.67857966E-11
   27.1000004        -6.53361254E-11
   27.2150002        -9.53452872E-11
   27.3299999        -1.26836763E-10
   27.4449997        -1.59834743E-10
   27.5599995        -1.94364941E-10
   27.6749992        -2.30453989E-10
   27.7900009        -2.68129602E-10
   27.9050007        -3.07420422E-10
   28.0200005        -3.48355483E-10
   28.1350002        -3.90963900E-10
   28.2500000        -4.35274927E-10
   28.3649998        -4.81316598E-10
   28.4799995        -5.29116417E-10
   28.5949993        -5.78699200E-10
   28.7099991        -6.30088204E-10
   28.8250008        -6.83302748E-10
   28.9400005        -7.38358985E-10
   29.0550003        -7.95268296E-10
   29.1700001        -8.54037785E-10
   29.2849998        -9.14668952E-10
   29.3999996        -9.77157799E-10
   29.5149994        -1.04149500E-09
   29.6299992        -1.10766518E-09
   29.7450008        -1.17564758E-09
   29.8600006        -1.24541621E-09
   29.9750004        -1.31694045E-09
   30.0900002        -1.39018552E-09
   30.2049999        -1.46511314E-09
   30.3199997        -1.54168278E-09
   30.4349995        -1.61985081E-09
   30.5499992        -1.69957426E-09
   30.6650009        -1.78080750E-09
   30.7800007        -1.86350713E-09
   30.8950005        -1.94762895E-09
   31.0100002        -2.03312989E-09
   31.1250000        -2.11996865E-09
   31.2399998        -2.20810481E-09
   31.3549995        -2.29749819E-09
   31.4699993        -2.38810993E-09
   31.5849991        -2.47990162E-09
   31.7000008        -2.57283328E-09
   31.8150005        -2.66686517E-09
   31.9300003        -2.76195555E-09
   32.0449982        -2.85805934E-09
   32.1599998        -2.95513058E-09
   32.2750015        -3.05311820E-09
   32.3899994        -3.15196869E-09
   32.5050011        -3.25162430E-09
   32.6199989        -3.35202222E-09
   32.7350006        -3.45309714E-09
   32.8499985        -3.55477825E-09
   32.9650002        -3.65699226E-09
   33.0800018        -3.75966192E-09
   33.1949997        -3.86270793E-09
   33.3100014        -3.96604793E-09
   33.4249992        -4.06959977E-09
   33.5400009        -4.17327994E-09
   33.6549988        -4.27700453E-09
   33.7700005        -4.38069225E-09
   33.8849983        -4.48426185E-09
   34.0000000        -4.58763649E-09
   34.1150017        -4.69074068E-09
   34.2299995        -4.79350470E-09
   34.3450012        -4.89586149E-09
   34.4599991        -4.99774711E-09
   34.5750008        -5.09910558E-09
   34.6899986        -5.19988275E-09
   34.8050003        -5.30003108E-09
   34.9199982        -5.39950484E-09
   35.0349998        -5.49826540E-09
   35.1500015        -5.59627411E-09
   35.2649994        -5.69349767E-09
   35.3800011        -5.78990278E-09
   35.4949989        -5.88545923E-09
   35.6100006        -5.98013639E-09
   35.7249985        -6.07390449E-09
   35.8400002        -6.16673290E-09
   35.9550018        -6.25858831E-09
   36.0699997        -6.34943653E-09
   36.1850014        -6.43924114E-09
   36.2999992        -6.52796217E-09
   36.4150009        -6.61555655E-09
   36.5299988        -6.70197764E-09
   36.6450005        -6.78717571E-09
   36.7599983        -6.87109658E-09
   36.8750000        -6.95368296E-09
   36.9900017        -7.03487313E-09
   37.1049995        -7.11460224E-09
   37.2200012        -7.19280058E-09
   37.3349991        -7.26939575E-09
   37.4500008        -7.34430872E-09
   37.5649986        -7.41745865E-09
   37.6800003        -7.48875806E-09
   37.7949982        -7.55811325E-09
   37.9099998        -7.62542651E-09
   38.0250015        -7.69059216E-09
   38.1399994        -7.75349651E-09
   38.2550011        -7.81401965E-09
   38.3699989        -7.87202747E-09
   38.4850006        -7.92738142E-09
   38.5999985        -7.97993049E-09
   38.7150002        -8.02950950E-09
   38.8300018        -8.07594347E-09
   38.9449997        -8.11904322E-09
   39.0600014        -8.15860801E-09
   39.1749992        -8.19442469E-09
   39.2900009        -8.22626500E-09
   39.4049988        -8.25389002E-09
   39.5200005        -8.27704749E-09
   39.6349983        -8.29547542E-09
   39.7500000        -8.30890290E-09
   39.8650017        -8.31704927E-09
   39.9799995        -8.31962410E-09
   40.0950012        -8.31633518E-09
   40.2099991        -8.30688052E-09
   40.3250008        -8.29095903E-09
   40.4399986        -8.26826074E-09
   40.5550003        -8.23848101E-09
   40.6699982        -8.20130808E-09
   40.7849998        -8.15643375E-09
   40.9000015        -8.10354628E-09
   41.0149994        -8.04233391E-09
   41.1300011        -7.97248667E-09
   41.2449989        -7.89369015E-09
   41.3600006        -7.80562992E-09
   41.4749985        -7.70798536E-09
   41.5900002        -7.60043584E-09
   41.7050018        -7.48265183E-09
   41.8199997        -7.35430206E-09
   41.9350014        -7.21504190E-09
   42.0499992        -7.06452363E-09
   42.1650009        -6.90238888E-09
   42.2799988        -6.72827127E-09
   42.3950005        -6.54179466E-09
   42.5099983        -6.34257447E-09
   42.6250000        -6.13021811E-09
   42.7400017        -5.90432458E-09
   42.8549995        -5.66448799E-09
   42.9700012        -5.41029799E-09
   43.0849991        -5.14134246E-09
   43.2000008        -4.85720708E-09
   43.3149986        -4.55748239E-09
   43.4300003        -4.24175983E-09
   43.5449982        -3.90963883E-09
   43.6599998        -3.56072860E-09
   43.7750015        -3.19464855E-09
   43.8899994        -2.81103407E-09
   44.0050011        -2.40953524E-09
   44.1199989        -1.98982120E-09
   44.2350006        -1.55157953E-09
   44.3499985        -1.09452025E-09
   44.4650002        -6.18377904E-10
   44.5800018        -1.22909183E-10
   44.6949997         3.92104516E-10
   44.8100014         9.26854760E-10
   44.9249992         1.48150747E-09
   45.0400009         2.05620143E-09
   45.1549988         2.65104738E-09
   45.2700005         3.26612937E-09
   45.3849983         3.90150312E-09
   45.5000000         4.55719373E-09
   45.6150017         5.23320054E-09
   45.7299995         5.92948979E-09
   45.8450012         6.64599797E-09
   45.9599991         7.38263095E-09
   46.0750008         8.13925993E-09
   46.1899986         8.91572682E-09
   46.3050003         9.71183045E-09
   46.4199982         1.05273426E-08
   46.5349998         1.13619922E-08
   46.6500015         1.22154722E-08
   46.7649994         1.30874369E-08
   46.8800011         1.39775000E-08
   46.9949989         1.48852397E-08
   47.1100006         1.58101940E-08
   47.2249985         1.67518568E-08
   47.3400002         1.77096915E-08
   47.4550018         1.86831191E-08
   47.5699997         1.96715284E-08
   47.6850014         2.06742730E-08
   47.7999992         2.16906688E-08
   47.9150009         2.27200125E-08
   48.0299988         2.37615598E-08
   48.1450005         2.48145380E-08
   48.2599983         2.58781547E-08
   48.3750000         2.69515912E-08
   48.4900017         2.80339965E-08
   48.6049995         2.91245037E-08
   48.7200012         3.02222247E-08
   48.8349991         3.13262376E-08
   48.9500008         3.24356151E-08
   49.0649986         3.35493979E-08
   49.1800003         3.46665914E-08
   49.2949982         3.57861971E-08
   49.4099998         3.69071849E-08
   49.5250015         3.80285101E-08
   49.6399994         3.91490929E-08
   49.7550011         4.02678424E-08
   49.8699989         4.13836467E-08
   49.9850006         4.24953761E-08
   50.0999985         4.36018830E-08
   50.2150002         4.47020199E-08
   50.3300018         4.57946072E-08
   50.4449997         4.68784869E-08
   50.5600014         4.79524793E-08
   50.6749992         4.90154264E-08
   50.7900009         5.00661486E-08
   50.9049988         5.11035125E-08
   51.0200005         5.21263743E-08
   51.1349983         5.31336148E-08
   51.2500000         5.41241434E-08
   51.3650017         5.50968764E-08
   51.4799995         5.60507623E-08
   51.5950012         5.69847813E-08
   51.7099991         5.78979353E-08
   51.8250008         5.87892508E-08
   51.9399986         5.96577792E-08
   52.0550003         6.05025932E-08
   52.1699982         6.13227868E-08
   52.2849998         6.21174863E-08
   52.4000015         6.28858245E-08
   52.5149994         6.36269633E-08
   52.6300011         6.43400710E-08
   52.7449989         6.50243379E-08
   52.8600006         6.56789680E-08
   52.9749985         6.63032012E-08
   53.0900002         6.68962770E-08
   53.2050018         6.74574565E-08
   53.3199997         6.79860435E-08
   53.4350014         6.84813557E-08
   53.5499992         6.89427537E-08
   53.6650009         6.93696407E-08
   53.7799988         6.97614411E-08
   53.8950005         7.01176361E-08
   54.0099983         7.04377641E-08
   54.1250000         7.07214056E-08
   54.2400017         7.09682126E-08
   54.3549995         7.11778654E-08
   54.4700012         7.13501223E-08
   54.5849991         7.14848127E-08
   54.7000008         7.15818018E-08
   54.8149986         7.16410113E-08
   54.9300003         7.16624129E-08
   55.0449982         7.16460349E-08
   55.1599998         7.15919413E-08
   55.2750015         7.15002173E-08
   55.3899994         7.13710193E-08
   55.5050011         7.12044539E-08
   55.6199989         7.10007200E-08
   55.7350006         7.07599668E-08
   55.8499985         7.04823861E-08
   55.9650002         7.01681415E-08
   56.0800018         6.98174034E-08
   56.1949997         6.94303353E-08
   56.3100014         6.90070650E-08
   56.4249992         6.85477275E-08
   56.5400009         6.80524224E-08
   56.6549988         6.75212419E-08
   56.7700005         6.69542430E-08
   56.8849983         6.63514754E-08
   57.0000000         6.57129533E-08
   57.1150017         6.50387051E-08
   57.2299995         6.43286668E-08
   57.3450012         6.35828243E-08
   57.4599991         6.28010923E-08
   57.5750008         6.19833784E-08
   57.6899986         6.11295334E-08
   57.8050003         6.02394010E-08
   57.9199982         5.93127680E-08
   58.0349998         5.83493858E-08
   58.1500015         5.73489558E-08
   58.2649994         5.63111264E-08
   58.3800011         5.52354926E-08
   58.4949989         5.41215677E-08
   58.6100006         5.29688258E-08
   58.7249985         5.17766523E-08
   58.8400002         5.05443651E-08
   58.9550018         4.92711862E-08
   59.0699997         4.79562807E-08
   59.1850014         4.65987284E-08
   59.2999992         4.51975382E-08
   59.4150009         4.37516441E-08
   59.5299988         4.22598987E-08
   59.6450005         4.07211118E-08
   59.7599983         3.91340080E-08
   59.8750000         3.74972693E-08
   59.9900017         3.58095136E-08
   60.1049995         3.40693340E-08
   60.2200012         3.22752598E-08
   60.3349991         3.04258059E-08
   60.4500008         2.85194535E-08
   60.5649986         2.65546447E-08
   60.6800003         2.45298004E-08
   60.7949982         2.24433379E-08
   60.9099998         2.02936192E-08
   61.0250015         1.80790334E-08
   61.1399994         1.57979265E-08
   61.2550011         1.34486235E-08
   61.3699989         1.10294600E-08
   61.4850006         8.53874305E-09
   61.5999985         5.97477490E-09
   61.7150002         3.33585404E-09
   61.8300018         6.20293816E-10
   61.9449997        -2.17359530E-09
   62.0600014        -5.04748288E-09
   62.1749992        -8.00304445E-09
   62.2900009        -1.10418874E-08
   62.4049988        -1.41655958E-08
   62.5200005        -1.73757098E-08
   62.6349983        -2.06736956E-08
   62.7500000        -2.40609612E-08
   62.8650017        -2.75388015E-08
   62.9799995        -3.11084456E-08
   63.0950012        -3.47709843E-08
   63.2099991        -3.85274070E-08
   63.3250008        -4.23785629E-08
   63.4399986        -4.63251730E-08
   63.5550003        -5.03677811E-08
   63.6699982        -5.45067991E-08
   63.7849998        -5.87424722E-08
   63.9000015        -6.30748502E-08
   64.0149994        -6.75038407E-08
   64.1299973        -7.20291453E-08
   64.2450027        -7.66502950E-08
   64.3600006        -8.13666361E-08
   64.4749985        -8.61773515E-08
   64.5899963        -9.10813966E-08
   64.7050018        -9.60775637E-08
   64.8199997        -1.01164453E-07
   64.9349976        -1.06340494E-07
   65.0500031        -1.11603882E-07
   65.1650009        -1.16952663E-07
   65.2799988        -1.22384677E-07
   65.3949966        -1.27897593E-07
   65.5100021        -1.33488854E-07
   65.6250000        -1.39155688E-07
   65.7399979        -1.44895182E-07
   65.8550034        -1.50704210E-07
   65.9700012        -1.56579389E-07
   66.0849991        -1.62517196E-07
   66.1999969        -1.68513893E-07
   66.3150024        -1.74565557E-07
   66.4300003        -1.80668025E-07
   66.5449982        -1.86816976E-07
   66.6600037        -1.93007864E-07
   66.7750015        -1.99235984E-07
   66.8899994        -2.05496477E-07
   67.0049973        -2.11784268E-07
   67.1200027        -2.18094158E-07
   67.2350006        -2.24420788E-07
   67.3499985        -2.30758644E-07
   67.4649963        -2.37102086E-07
   67.5800018        -2.43445356E-07
   67.6949997        -2.49782659E-07
   67.8099976        -2.56107967E-07
   67.9250031        -2.62415313E-07
   68.0400009        -2.68698670E-07
   68.1549988        -2.74951788E-07
   68.2699966        -2.81168496E-07
   68.3850021        -2.87342715E-07
   68.5000000        -2.93468077E-07
   68.6149979        -2.99538385E-07
   68.7300034        -3.05547417E-07
   68.8450012        -3.11488833E-07
   68.9599991        -3.17356381E-07
   69.0749969        -3.23143951E-07
   69.1900024        -3.28845204E-07
   69.3050003        -3.34454029E-07
   69.4199982        -3.39964316E-07
   69.5350037        -3.45369898E-07
   69.6500015        -3.50664834E-07
   69.7649994        -3.55843156E-07
   69.8799973        -3.60898952E-07
   69.9950027        -3.65826565E-07
   70.1100006        -3.70620143E-07
   70.2249985        -3.75274254E-07
   70.3399963        -3.79783415E-07
   70.4550018        -3.84142311E-07
   70.5699997        -3.88345796E-07
   70.6849976        -3.92388870E-07
   70.8000031        -3.96266614E-07
   70.9150009        -3.99974311E-07
   71.0299988        -4.03507471E-07
   71.1449966        -4.06861659E-07
   71.2600021        -4.10032584E-07
   71.3750000        -4.13016210E-07
   71.4899979        -4.15808529E-07
   71.6050034        -4.18405762E-07
   71.7200012        -4.20804213E-07
   71.8349991        -4.23000330E-07
   71.9499969        -4.24990645E-07
   72.0650024        -4.26771862E-07
   72.1800003        -4.28340684E-07
   72.2949982        -4.29693955E-07
   72.4100037        -4.30828578E-07
   72.5250015        -4.31741483E-07
   72.6399994        -4.32429772E-07
   72.7549973        -4.32890431E-07
   72.8700027        -4.33120647E-07
   72.9850006        -4.33117492E-07
   73.0999985        -4.32878096E-07
   73.2149963        -4.32399645E-07
   73.3300018        -4.31679382E-07
   73.4449997        -4.30714493E-07
   73.5599976        -4.29502165E-07
   73.6750031        -4.28039641E-07
   73.7900009        -4.26324135E-07
   73.9049988        -4.24352891E-07
   74.0199966        -4.22123151E-07
   74.1350021        -4.19632102E-07