  -18.8999996       0.00000000    
  -18.7849998       0.00000000    
  -18.6700001       0.00000000    
  -18.5550003       0.00000000    
  -18.4400005       0.00000000    
  -18.3250008       0.00000000    
  -18.2099991       1.50401582E-33
  -18.0949993       1.77333359E-32
  -17.9799995       1.10669337E-31
  -17.8649998       4.84345003E-31
  -17.7500000       1.66232393E-30
  -17.6350002       4.74411088E-30
  -17.5200005       1.16548892E-29
  -17.4050007       2.51778943E-29
  -17.2900009       4.84226906E-29
  -17.1749992       8.33058349E-29
  -17.0599995       1.27699531E-28
  -16.9449997       1.71234817E-28
  -16.8299999       1.90388358E-28
  -16.7150002       1.44425378E-28
  -16.6000004      -2.50843272E-29
  -16.4850006      -3.87313877E-28
  -16.3700008      -1.00307834E-27
  -16.2549992      -1.88877086E-27
  -16.1399994      -2.95982711E-27
  -16.0249996      -3.95389681E-27
  -15.9099998      -4.34119824E-27
  -15.7950001      -3.24166827E-27
  -15.6800003       6.14211126E-28
  -15.5649996       8.82334297E-27
  -15.4499998       2.30706008E-26
  -15.3350000       4.46297071E-26
  -15.2200003       7.35422420E-26
  -15.1049995       1.07473855E-25
  -14.9899998       1.40356585E-25
  -14.8750000       1.61075733E-25
  -14.7600002       1.52611872E-25
  -14.6450005       9.21374315E-26
  -14.5299997      -4.74993212E-26
  -14.4150000      -2.94780976E-25
  -14.3000002      -6.75493655E-25
  -14.1850004      -1.20896779E-24
  -14.0699997      -1.90673696E-24
  -13.9549999      -2.77626106E-24
  -13.8400002      -3.83201412E-24
  -13.7250004      -5.11459191E-24
  -13.6099997      -6.71530862E-24
  -13.4949999      -8.79930242E-24
  -13.3800001      -1.16154798E-23
  -13.2650003      -1.54784418E-23
  -13.1499996      -2.07083340E-23
  -13.0349998      -2.75215868E-23
  -12.9200001      -3.58804800E-23
  -12.8050003      -4.53313239E-23
  -12.6899996      -5.48866446E-23
  -12.5749998      -6.30281435E-23
  -12.4600000      -6.79144048E-23
  -12.3450003      -6.78582505E-23
  -12.2299995      -6.20850382E-23
  -12.1149998      -5.16910638E-23
  -12.0000000      -4.06014212E-23
  -11.8850002      -3.62014012E-23
  -11.7700005      -4.92239423E-23
  -11.6549997      -9.24650310E-23
  -11.5400000      -1.78019842E-22
  -11.4250002      -3.13013974E-22
  -11.3100004      -4.94250059E-22
  -11.1949997      -7.02750919E-22
  -11.0799999      -8.99744810E-22
  -10.9650002      -1.02605757E-21
  -10.8500004      -1.00693992E-21
  -10.7349997      -7.63899832E-22
  -10.6199999      -2.33981698E-22
  -10.5050001       6.04838866E-22
  -10.3900003       1.70576376E-21
  -10.2749996       2.92877372E-21
  -10.1599998       4.02767650E-21
  -10.0450001       4.65733704E-21
  -9.93000031       4.40885166E-21
  -9.81499958       2.87703777E-21
  -9.69999981      -2.41128879E-22
  -9.58500004      -5.02649951E-21
  -9.47000027      -1.12145020E-20
  -9.35499954      -1.80953611E-20
  -9.23999977      -2.44703758E-20
  -9.12500000      -2.86974061E-20
  -9.01000023      -2.88525961E-20
  -8.89500046      -2.30207547E-20
  -8.77999973      -9.70443771E-21
  -8.66499996       1.16871751E-20
  -8.55000019       4.03392817E-20
  -8.43500042       7.36202571E-20
  -8.31999969       1.06873719E-19
  -8.20499992       1.33531146E-19
  -8.09000015       1.45641316E-19
  -7.97499990       1.34865324E-19
  -7.86000013       9.39151593E-20
  -7.74499989       1.83223010E-20
  -7.63000011      -9.16762787E-20
  -7.51499987      -2.29441109E-19
  -7.40000010      -3.80792828E-19
  -7.28499985      -5.23831613E-19
  -7.17000008      -6.30062697E-19
  -7.05499983      -6.67067294E-19
  -6.94000006      -6.02763617E-19
  -6.82499981      -4.11046752E-19
  -6.71000004      -7.82940667E-20
  -6.59499979       3.90077568E-19
  -6.48000002       9.64080968E-19
  -6.36499977       1.58588701E-18
  -6.25000000       2.17005788E-18
  -6.13500023       2.60833436E-18
  -6.01999998       2.77961865E-18
  -5.90500021       2.56514746E-18
  -5.78999996       1.86805093E-18
  -5.67500019       6.35542407E-19
  -5.55999994      -1.11891832E-18
  -5.44500017      -3.29690866E-18
  -5.32999992      -5.70368991E-18
  -5.21500015      -8.04808107E-18
  -5.09999990      -9.95688801E-18
  -4.98500013      -1.10058986E-17
  -4.86999989      -1.07676210E-17
  -4.75500011      -8.87343196E-18
  -4.63999987      -5.08507544E-18
  -4.52500010       6.32342769E-19
  -4.40999985       8.04606192E-18
  -4.29500008       1.66117918E-17
  -4.17999983       2.54621082E-17
  -4.06500006       3.34375653E-17
  -3.95000005       3.91674983E-17
  -3.83500004       4.12024123E-17
  -3.72000003       3.81929604E-17
  -3.60500002       2.91026525E-17
  -3.49000001       1.34336729E-17
  -3.37500000      -8.56195296E-18
  -3.25999999      -3.57183272E-17
  -3.14499998      -6.58726472E-17
  -3.02999997      -9.58945124E-17
  -2.91499996      -1.21850811E-16
  -2.79999995      -1.39316750E-16
  -2.68499994      -1.43826777E-16
  -2.56999993      -1.31439145E-16
  -2.45499992      -9.93669637E-17
  -2.33999991      -4.66092519E-17
  -2.22499990       2.54987572E-17
  -2.10999990       1.12903867E-16
  -1.99500000       2.08707542E-16
  -1.88000000       3.03363050E-16
  -1.76499999       3.85242496E-16
  -1.64999998       4.41581542E-16
  -1.53499997       4.59764243E-16
  -1.41999996       4.28861066E-16
  -1.30499995       3.41285774E-16
  -1.19000006       1.94395994E-16
  -1.07500005      -8.16370934E-18
 -0.959999979      -2.55586104E-16
 -0.845000029      -5.29683213E-16
 -0.730000019      -8.05477881E-16
 -0.615000010      -1.05268249E-15
 -0.500000000      -1.23806571E-15
 -0.384999990      -1.32858928E-15
 -0.270000011      -1.29510702E-15
 -0.155000001      -1.11630504E-15
  -3.99999991E-02  -7.82485596E-16
   7.50000030E-02  -2.98757494E-16
  0.189999998       3.12826843E-16
  0.305000007       1.01259072E-15
  0.419999987       1.74432099E-15
  0.535000026       2.43829657E-15
  0.649999976       3.01624240E-15
  0.764999986       3.39800057E-15
  0.879999995       3.50946629E-15
  0.995000005       3.29117045E-15
   1.11000001       2.70672025E-15
   1.22500002       1.75019273E-15
   1.34000003       4.51598316E-16
   1.45500004      -1.12043517E-15
   1.57000005      -2.85942208E-15
   1.68499994      -4.62561686E-15
   1.79999995      -6.25453702E-15
   1.91499996      -7.56909912E-15
   2.02999997      -8.39466571E-15
   2.14499998      -8.57594008E-15
   2.25999999      -7.99428933E-15
   2.37500000      -6.58393924E-15
   2.49000001      -4.34533365E-15
   2.60500002      -1.35407778E-15
   2.72000003       2.23591541E-15
   2.83500004       6.19603500E-15
   2.95000005       1.02337691E-14
   3.06500006       1.40105518E-14
   3.18000007       1.71657698E-14
   3.29500008       1.93454820E-14
   3.41000009       2.02337723E-14
   3.52500010       1.95841929E-14
   3.64000010       1.72486384E-14
   3.75500011       1.32008111E-14
   3.86999989       7.55175866E-15
   3.98499990       5.55427879E-16
   4.09999990      -7.39714635E-15
   4.21500015      -1.57955432E-14
   4.32999992      -2.40391356E-14
   4.44500017      -3.14761814E-14
   4.55999994      -3.74504945E-14
   4.67500019      -4.13526127E-14
   4.78999996      -4.26714565E-14
   4.90500021      -4.10426223E-14
   5.01999998      -3.62891513E-14
   5.13500023      -2.84511625E-14
   5.25000000      -1.78012885E-14
   5.36499977      -4.84394383E-15
   5.48000002       9.70248628E-15
   5.59499979       2.49402736E-14
   5.71000004       3.98418210E-14
   5.82499981       5.33114033E-14
   5.94000006       6.42551943E-14
   6.05499983       7.16548877E-14
   6.17000008       7.46402316E-14
   6.28499985       7.25550737E-14
   6.40000010       6.50127874E-14
   6.51499987       5.19369873E-14
   6.63000011       3.35843990E-14
   6.74499989       1.05487272E-14
   6.86000013      -1.62553669E-14
   6.97499990      -4.56269306E-14
   7.09000015      -7.61304607E-14
   7.20499992      -1.06161418E-13
   7.32000017      -1.34021917E-13
   7.43499994      -1.58002870E-13
   7.55000019      -1.76468310E-13
   7.66499996      -1.87937976E-13
   7.78000021      -1.91164874E-13
   7.89499998      -1.85205299E-13
   8.01000023      -1.69478730E-13
   8.12500000      -1.43816274E-13
   8.23999977      -1.08496864E-13
   8.35499954      -6.42700614E-14
   8.47000027      -1.23660043E-14
   8.58500004       4.55089593E-14
   8.69999981       1.07190346E-13
   8.81499958       1.70089352E-13
   8.93000031       2.31241919E-13
   9.04500008       2.87374860E-13
   9.15999985       3.34989957E-13
   9.27499962       3.70466136E-13
   9.39000034       3.90179723E-13
   9.50500011       3.90642163E-13
   9.61999989       3.68651913E-13
   9.73499966       3.21456891E-13
   9.85000038       2.46922464E-13
   9.96500015       1.43694301E-13
   10.0799999       1.13564663E-14
   10.1949997      -1.49440071E-13
   10.3100004      -3.36872321E-13
   10.4250002      -5.47887094E-13
   10.5400000      -7.78186218E-13
   10.6549997      -1.02227840E-12
   10.7700005      -1.27358085E-12
   10.8850002      -1.52459414E-12
   11.0000000      -1.76713169E-12
   11.1149998      -1.99260400E-12
   11.2299995      -2.19235090E-12
   11.3450003      -2.35799292E-12
   11.4600000      -2.48180708E-12
   11.5749998      -2.55708020E-12
   11.6899996      -2.57845091E-12
   11.8050003      -2.54218912E-12
   11.9200001      -2.44642371E-12
   12.0349998      -2.29127503E-12
   12.1499996      -2.07890367E-12
   12.2650003      -1.81346312E-12
   12.3800001      -1.50094791E-12
   12.4949999      -1.14894661E-12
   12.6099997      -7.66317728E-13
   12.7250004      -3.62793264E-13
   12.8400002       5.14578445E-14
   12.9549999       4.66297736E-13
   13.0699997       8.72083818E-13
   13.1850004       1.26010649E-12
   13.3000002       1.62298321E-12
   13.4150000       1.95497958E-12
   13.5299997       2.25225459E-12
   13.6450005       2.51300391E-12
   13.7600002       2.73750879E-12
   13.8750000       2.92808789E-12
   13.9899998       3.08896116E-12
   14.1049995       3.22603077E-12
   14.2200003       3.34658603E-12
   14.3350000       3.45897378E-12
   14.4499998       3.57223734E-12
   14.5649996       3.69575551E-12
   14.6800003       3.83885241E-12
   14.7950001       4.01047771E-12
   14.9099998       4.21889390E-12
   15.0249996       4.47140632E-12
   15.1400003       4.77415243E-12
   15.2550001       5.13194348E-12
   15.3699999       5.54813097E-12
   15.4849997       6.02454978E-12
   15.6000004       6.56147272E-12
   15.7150002       7.15763343E-12
   15.8299999       7.81024377E-12
   15.9449997       8.51504110E-12
   16.0599995       9.26639147E-12
   16.1749992       1.00573907E-11
   16.2900009       1.08799835E-11
   16.4050007       1.17251243E-11
   16.5200005       1.25829572E-11
   16.6350002       1.34430323E-11
   16.7500000       1.42945586E-11
   16.8649998       1.51266881E-11
   16.9799995       1.59288069E-11
   17.0949993       1.66908883E-11
   17.2099991       1.74038214E-11
   17.3250008       1.80597672E-11
   17.4400005       1.86524754E-11
   17.5550003       1.91776178E-11
   17.6700001       1.96330417E-11
   17.7849998       2.00189483E-11
   17.8999996       2.03380472E-11
   18.0149994       2.05955721E-11
   18.1299992       2.07992998E-11
   18.2450008       2.09593939E-11
   18.3600006       2.10881642E-11
   18.4750004       2.11998804E-11
   18.5900002       2.13103615E-11
   18.7049999       2.14366042E-11
   18.8199997       2.15964486E-11
   18.9349995       2.18080935E-11
   19.0499992       2.20897363E-11
   19.1650009       2.24591977E-11
   19.2800007       2.29336012E-11
   19.3950005       2.35290433E-11
   19.5100002       2.42603802E-11
   19.6250000       2.51409987E-11
   19.7399998       2.61826567E-11
   19.8549995       2.73953429E-11
   19.9699993       2.87871758E-11
   20.0849991       3.03642944E-11
   20.2000008       3.21307772E-11
   20.3150005       3.40886173E-11
   20.4300003       3.62376344E-11
   20.5450001       3.85754449E-11
   20.6599998       4.10975524E-11
   20.7749996       4.37973234E-11
   20.8899994       4.66661189E-11
   21.0049992       4.96934924E-11
   21.1200008       5.28674465E-11
   21.2350006       5.61747211E-11
   21.3500004       5.96012545E-11
   21.4650002       6.31325339E-11
   21.5799999       6.67541855E-11
   21.6949997       7.04524147E-11
   21.8099995       7.42144263E-11
   21.9249992       7.80289514E-11
   22.0400009       8.18864421E-11
   22.1550007       8.57793073E-11
   22.2700005       8.97018917E-11
   22.3850002       9.36504138E-11
   22.5000000       9.76225073E-11
   22.6149998       1.01616847E-10
   22.7299995       1.05632413E-10
   22.8449993       1.09667789E-10
   22.9599991       1.13720318E-10
   23.0750008       1.17785171E-10
   23.1900005       1.21854679E-10
   23.3050003       1.25917526E-10
   23.4200001       1.29958197E-10
   23.5349998       1.33956735E-10
   23.6499996       1.37888465E-10
   23.7649994       1.41724202E-10
   23.8799992       1.45430668E-10
   23.9950008       1.48970961E-10
   24.1100006       1.52305613E-10
   24.2250004       1.55393212E-10
   24.3400002       1.58191710E-10
   24.4549999       1.60659236E-10
   24.5699997       1.62755365E-10
   24.6849995       1.64441960E-10
   24.7999992       1.65683842E-10
   24.9150009       1.66449451E-10
   25.0300007       1.66711159E-10
   25.1450005       1.66445344E-10
   25.2600002       1.65632438E-10
   25.3750000       1.64256345E-10
   25.4899998       1.62304378E-10
   25.6049995       1.59766200E-10
   25.7199993       1.56632970E-10
   25.8349991       1.52897209E-10
   25.9500008       1.48551338E-10
   26.0650005       1.43587503E-10
   26.1800003       1.37996323E-10
   26.2950001       1.31767208E-10
   26.4099998       1.24887031E-10
   26.5249996       1.17340818E-10
   26.6399994       1.09110505E-10
   26.7549992       1.00175819E-10
   26.8700008       9.05139158E-11
   26.9850006       8.00998851E-11
   27.1000004       6.89070606E-11
   27.2150002       5.69068993E-11
   27.3299999       4.40704209E-11
   27.4449997       3.03679859E-11
   27.5599995       1.57708950E-11
   27.6749992       2.51475734E-13
   27.7900009      -1.62157909E-11
   27.9050007      -3.36534238E-11
   28.0200005      -5.20799619E-11
   28.1350002      -7.15085907E-11
   28.2500000      -9.19464435E-11
   28.3649998      -1.13393545E-10
   28.4799995      -1.35842199E-10
   28.5949993      -1.59275690E-10
   28.7099991      -1.83668428E-10
   28.8250008      -2.08985551E-10
   28.9400005      -2.35182623E-10
   29.0550003      -2.62206395E-10
   29.1700001      -2.89995028E-10
   29.2849998      -3.18480464E-10
   29.3999996      -3.47587653E-10
   29.5149994      -3.77237380E-10
   29.6299992      -4.07347600E-10
   29.7450008      -4.37835768E-10
   29.8600006      -4.68619421E-10
   29.9750004      -4.99619013E-10
   30.0900002      -5.30759048E-10
   30.2049999      -5.61969082E-10
   30.3199997      -5.93184390E-10
   30.4349995      -6.24347185E-10
   30.5499992      -6.55406063E-10
   30.6650009      -6.86316282E-10
   30.7800007      -7.17037985E-10
   30.8950005      -7.47536311E-10
   31.0100002      -7.77779341E-10
   31.1250000      -8.07735989E-10
   31.2399998      -8.37375169E-10
   31.3549995      -8.66664573E-10
   31.4699993      -8.95567343E-10
   31.5849991      -9.24042620E-10
   31.7000008      -9.52043111E-10
   31.8150005      -9.79515247E-10
   31.9300003      -1.00639830E-09
   32.0449982      -1.03262543E-09
   32.1599998      -1.05812370E-09
   32.2750015      -1.08281428E-09
   32.3899994      -1.10661535E-09
   32.5050011      -1.12944143E-09
   32.6199989      -1.15120724E-09
   32.7350006      -1.17182930E-09
   32.8499985      -1.19122678E-09
   32.9650002      -1.20932242E-09
   33.0800018      -1.22604726E-09
   33.1949997      -1.24133948E-09
   33.3100014      -1.25514699E-09
   33.4249992      -1.26742872E-09
   33.5400009      -1.27815458E-09
   33.6549988      -1.28730615E-09
   33.7700005      -1.29487776E-09
   33.8849983      -1.30087763E-09
   34.0000000      -1.30532407E-09
   34.1150017      -1.30825051E-09
   34.2299995      -1.30970190E-09
   34.3450012      -1.30973554E-09
   34.4599991      -1.30841959E-09
   34.5750008      -1.30583333E-09
   34.6899986      -1.30206668E-09
   34.8050003      -1.29721800E-09
   34.9199982      -1.29139510E-09
   35.0349998      -1.28471123E-09
   35.1500015      -1.27728705E-09
   35.2649994      -1.26924637E-09
   35.3800011      -1.26071642E-09
   35.4949989      -1.25182587E-09
   35.6100006      -1.24270227E-09
   35.7249985      -1.23347421E-09
   35.8400002      -1.22426502E-09
   35.9550018      -1.21519583E-09
   36.0699997      -1.20638410E-09
   36.1850014      -1.19794297E-09
   36.2999992      -1.18998134E-09
   36.4150009      -1.18260468E-09
   36.5299988      -1.17591592E-09
   36.6450005      -1.17001531E-09
   36.7599983      -1.16500265E-09
   36.8750000      -1.16097909E-09
   36.9900017      -1.15804544E-09
   37.1049995      -1.15630716E-09
   37.2200012      -1.15587051E-09
   37.3349991      -1.15684740E-09
   37.4500008      -1.15935139E-09
   37.5649986      -1.16349963E-09
   37.6800003      -1.16941068E-09
   37.7949982      -1.17720322E-09
   37.9099998      -1.18699206E-09
   38.0250015      -1.19888854E-09
   38.1399994      -1.21299659E-09
   38.2550011      -1.22941068E-09
   38.3699989      -1.24821176E-09
   38.4850006      -1.26946498E-09
   38.5999985      -1.29322109E-09
   38.7150002      -1.31950928E-09
   38.8300018      -1.34833766E-09
   38.9449997      -1.37969369E-09
   39.0600014      -1.41354162E-09
   39.1749992      -1.44982226E-09
   39.2900009      -1.48845203E-09
   39.4049988      -1.52932633E-09
   39.5200005      -1.57231594E-09
   39.6349983      -1.61726721E-09
   39.7500000      -1.66400604E-09
   39.8650017      -1.71233283E-09
   39.9799995      -1.76202530E-09
   40.0950012      -1.81284032E-09
   40.2099991      -1.86451032E-09
   40.3250008      -1.91674498E-09
   40.4399986      -1.96922811E-09
   40.5550003      -2.02162198E-09
   40.6699982      -2.07356754E-09
   40.7849998      -2.12468243E-09
   40.9000015      -2.17456209E-09
   41.0149994      -2.22278351E-09
   41.1300011      -2.26890529E-09
   41.2449989      -2.31247044E-09
   41.3600006      -2.35300535E-09
   41.4749985      -2.39002418E-09
   41.5900002      -2.42302534E-09
   41.7050018      -2.45149923E-09
   41.8199997      -2.47492382E-09
   41.9350014      -2.49276910E-09
   42.0499992      -2.50449328E-09
   42.1650009      -2.50954213E-09
   42.2799988      -2.50735077E-09
   42.3950005      -2.49733834E-09
   42.5099983      -2.47890730E-09
   42.6250000      -2.45144238E-09
   42.7400017      -2.41430564E-09
   42.8549995      -2.36683451E-09
   42.9700012      -2.30834551E-09
   43.0849991      -2.23812258E-09
   43.2000008      -2.15542251E-09
   43.3149986      -2.05948036E-09
   43.4300003      -1.94949457E-09
   43.5449982      -1.82464222E-09
   43.6599998      -1.68407788E-09
   43.7750015      -1.52693247E-09
   43.8899994      -1.35232314E-09
   44.0050011      -1.15935317E-09
   44.1199989      -9.47125378E-10
   44.2350006      -7.14738491E-10
   44.3499985      -4.61302524E-10
   44.4650002      -1.85943927E-10
   44.5800018       1.12192630E-10
   44.6949997       4.33928671E-10
   44.8100014       7.80042086E-10
   44.9249992       1.15127041E-09
   45.0400009       1.54829216E-09
   45.1549988       1.97172700E-09
   45.2700005       2.42212495E-09
   45.3849983       2.89996560E-09
   45.5000000       3.40565021E-09
   45.6150017       3.93950073E-09
   45.7299995       4.50175719E-09
   45.8450012       5.09257836E-09
   45.9599991       5.71204017E-09
   46.0750008       6.36014263E-09
   46.1899986       7.03680891E-09
   46.3050003       7.74189779E-09
   46.4199982       8.47520099E-09
   46.5349998       9.23645072E-09
   46.6500015       1.00253352E-08
   46.7649994       1.08414957E-08
   46.8800011       1.16845333E-08
   46.9949989       1.25540138E-08
   47.1100006       1.34494753E-08
   47.2249985       1.43704311E-08
   47.3400002       1.53163651E-08
   47.4550018       1.62867355E-08
   47.5699997       1.72809678E-08
   47.6850014       1.82984525E-08
   47.7999992       1.93385414E-08
   47.9150009       2.04005293E-08
   48.0299988       2.14836664E-08
   48.1450005       2.25871197E-08
   48.2599983       2.37099975E-08
   48.3750000       2.48513139E-08
   48.4900017       2.60099977E-08
   48.6049995       2.71848748E-08
   48.7200012       2.83746786E-08
   48.8349991       2.95780254E-08
   48.9500008       3.07934371E-08
   49.0649986       3.20193223E-08
   49.1800003       3.32539969E-08
   49.2949982       3.44956810E-08
   49.4099998       3.57425023E-08
   49.5250015       3.69925033E-08
   49.6399994       3.82436660E-08
   49.7550011       3.94938908E-08
   49.8699989       4.07410532E-08
   49.9850006       4.19829540E-08
   50.0999985       4.32173692E-08
   50.2150002       4.44420643E-08
   50.3300018       4.56547582E-08
   50.4449997       4.68531738E-08
   50.5600014       4.80350266E-08
   50.6749992       4.91980074E-08
   50.7900009       5.03398283E-08
   50.9049988       5.14581906E-08
   51.0200005       5.25507851E-08
   51.1349983       5.36153344E-08
   51.2500000       5.46495507E-08
   51.3650017       5.56511317E-08
   51.4799995       5.66178073E-08
   51.5950012       5.75473003E-08
   51.7099991       5.84373581E-08
   51.8250008       5.92857212E-08
   51.9399986       6.00901444E-08
   52.0550003       6.08484285E-08
   52.1699982       6.15583815E-08
   52.2849998       6.22178433E-08
   52.4000015       6.28246895E-08
   52.5149994       6.33768735E-08
   52.6300011       6.38723776E-08
   52.7449989       6.43092406E-08
   52.8600006       6.46856151E-08
   52.9749985       6.49996963E-08
   53.0900002       6.52498002E-08
   53.2050018       6.54343140E-08
   53.3199997       6.55517383E-08
   53.4350014       6.56007018E-08
   53.5499992       6.55798971E-08
   53.6650009       6.54881873E-08
   53.7799988       6.53244925E-08
   53.8950005       6.50878960E-08
   54.0099983       6.47775593E-08
   54.1250000       6.43927578E-08
   54.2400017       6.39328590E-08
   54.3549995       6.33973585E-08
   54.4700012       6.27858086E-08
   54.5849991       6.20978753E-08
   54.7000008       6.13332887E-08
   54.8149986       6.04918640E-08
   54.9300003       5.95735017E-08
   55.0449982       5.85781308E-08
   55.1599998       5.75058010E-08
   55.2750015       5.63565976E-08
   55.3899994       5.51306876E-08
   55.5050011       5.38282912E-08
   55.6199989       5.24497139E-08
   55.7350006       5.09953146E-08
   55.8499985       4.94655268E-08
   55.9650002       4.78608513E-08
   56.0800018       4.61818601E-08
   56.1949997       4.44291892E-08
   56.3100014       4.26035420E-08
   56.4249992       4.07056682E-08
   56.5400009       3.87363954E-08
   56.6549988       3.66965764E-08
   56.7700005       3.45871278E-08
   56.8849983       3.24089875E-08
   57.0000000       3.01631147E-08
   57.1150017       2.78505041E-08
   57.2299995       2.54721630E-08
   57.3450012       2.30291022E-08
   57.4599991       2.05223181E-08
   57.5750008       1.79528197E-08
   57.6899986       1.53215858E-08
   57.8050003       1.26295809E-08
   57.9199982       9.87779192E-09
   58.0349998       7.06717618E-09
   58.1500015       4.19866364E-09
   58.2649994       1.27318545E-09
   58.3800011      -1.70830328E-09
   58.4949989      -4.74489292E-09
   58.6100006      -7.83565746E-09
   58.7249985      -1.09796359E-08
   58.8400002      -1.41759129E-08
   58.9550018      -1.74235382E-08
   59.0699997      -2.07215702E-08
   59.1850014      -2.40690881E-08
   59.2999992      -2.74651537E-08
   59.4150009      -3.09088435E-08
   59.5299988      -3.43992781E-08
   59.6450005      -3.79356031E-08
   59.7599983      -4.15170121E-08
   59.8750000      -4.51427056E-08
   59.9900017      -4.88120087E-08
   60.1049995      -5.25242498E-08
   60.2200012      -5.62788642E-08
   60.3349991      -6.00753154E-08
   60.4500008      -6.39131343E-08
   60.5649986      -6.77919161E-08
   60.6800003      -7.17112840E-08
   60.7949982      -7.56709042E-08
   60.9099998      -7.96704285E-08
   61.0250015      -8.37095229E-08
   61.1399994      -8.77878037E-08
   61.2550011      -9.19048588E-08
   61.3699989      -9.60601696E-08
   61.4850006      -1.00253104E-07
   61.5999985      -1.04482965E-07
   61.7150002      -1.08748871E-07
   61.8300018      -1.13049765E-07
   61.9449997      -1.17384459E-07
   62.0600014      -1.21751512E-07
   62.1749992      -1.26149331E-07
   62.2900009      -1.30576041E-07
   62.4049988      -1.35029651E-07
   62.5200005      -1.39507847E-07
   62.6349983      -1.44008197E-07
   62.7500000      -1.48528002E-07
   62.8650017      -1.53064377E-07
   62.9799995      -1.57614281E-07
   63.0950012      -1.62174430E-07
   63.2099991      -1.66741401E-07
   63.3250008      -1.71311584E-07
   63.4399986      -1.75881183E-07
   63.5550003      -1.80446278E-07
   63.6699982      -1.85002762E-07
   63.7849998      -1.89546341E-07
   63.9000015      -1.94072598E-07
   64.0149994      -1.98576871E-07
   64.1299973      -2.03054327E-07
   64.2450027      -2.07499951E-07
   64.3600006      -2.11908429E-07
   64.4749985      -2.16274330E-07
   64.5899963      -2.20591815E-07
   64.7050018      -2.24854844E-07
   64.8199997      -2.29057150E-07
   64.9349976      -2.33191997E-07
   65.0500031      -2.37252593E-07
   65.1650009      -2.41231589E-07
   65.2799988      -2.45121527E-07
   65.3949966      -2.48914517E-07
   65.5100021      -2.52602518E-07
   65.6250000      -2.56177060E-07
   65.7399979      -2.59629530E-07
   65.8550034      -2.62951062E-07
   65.9700012      -2.66132588E-07
   66.0849991      -2.69164900E-07
   66.1999969      -2.72038562E-07
   66.3150024      -2.74744139E-07
   66.4300003      -2.77271994E-07
   66.5449982      -2.79612607E-07
   66.6600037      -2.81756257E-07
   66.7750015      -2.83693339E-07
   66.8899994      -2.85414274E-07
   67.0049973      -2.86909511E-07
   67.1200027      -2.88169616E-07
   67.2350006      -2.89185209E-07
   67.3499985      -2.89947110E-07
   67.4649963      -2.90446167E-07
   67.5800018      -2.90673484E-07
   67.6949997      -2.90620250E-07
   67.8099976      -2.90277910E-07
   67.9250031      -2.89638081E-07
   68.0400009      -2.88692632E-07
   68.1549988      -2.87433664E-07
   68.2699966      -2.85853588E-07
   68.3850021      -2.83945070E-07
   68.5000000      -2.81701119E-07
   68.6149979      -2.79115227E-07
   68.7300034      -2.76181112E-07
   68.8450012      -2.72893033E-07
   68.9599991      -2.69245731E-07
   69.0749969      -2.65234490E-07
   69.1900024      -2.60855046E-07
   69.3050003      -2.56103874E-07
   69.4199982      -2.50978019E-07
   69.5350037      -2.45475235E-07
   69.6500015      -2.39593987E-07
   69.7649994      -2.33333580E-07
   69.8799973      -2.26694056E-07
   69.9950027      -2.19676323E-07
   70.1100006      -2.12282117E-07
   70.2249985      -2.04514066E-07
   70.3399963      -1.96375751E-07
   70.4550018      -1.87871521E-07
   70.5699997      -1.79006861E-07
   70.6849976      -1.69787981E-07
   70.8000031      -1.60222157E-07
   70.9150009      -1.50317547E-07
   71.0299988      -1.40083287E-07
   71.1449966      -1.29529354E-07
   71.2600021      -1.18666676E-07
   71.3750000      -1.07507063E-07
   71.4899979      -9.60632818E-08
   71.6050034      -8.43488976E-08
   71.7200012      -7.23783415E-08
   71.8349991      -6.01669257E-08
   71.9499969      -4.77308362E-08
   72.0650024      -3.50869769E-08
   72.1800003      -2.22530332E-08
   72.2949982      -9.24754318E-09
   72.4100037       3.91037203E-09
   72.5250015       1.72007475E-08
   72.6399994       3.06030579E-08
   72.7549973       4.40961756E-08
   72.8700027       5.76583474E-08
   72.9850006       7.12674009E-08
   73.0999985       8.49006341E-08
   73.2149963       9.85350752E-08
   73.3300018       1.12147276E-07
   73.4449997       1.25713640E-07
   73.5599976       1.39210314E-07
   73.6750031       1.52613353E-07
   73.7900009       1.65898655E-07
   73.9049988       1.79042260E-07
   74.0199966       1.92020153E-07
   74.1350021       2.04808501E-07
   74.2500000       2.17383629E-07
   74.3649979       2.29722133E-07
   74.4800034       2.41800876E-07
   74.5950012       2.53597022E-07
   74.7099991       2.65088261E-07
   74.8249969       2.76252649E-07
   74.9400024       2.87068843E-07
   75.0550003       2.97516067E-07
   75.1699982       3.07574084E-07
   75.2850037       3.17223396E-07
   75.4000015       3.26445360E-07
   75.5149994       3.35221955E-07
   75.6299973       3.43536215E-07
   75.7450027       3.51372051E-07
   75.8600006       3.58714374E-07
   75.9749985       3.65549255E-07
   76.0899963       3.71863848E-07
   76.2050018       3.77646472E-07
   76.3199997       3.82886725E-07
   76.4349976       3.87575483E-07
   76.5500031       3.91705015E-07
   76.6650009       3.95268842E-07
   76.7799988       3.98261875E-07
   76.8949966       4.00680506E-07
   77.0100021       4.02522460E-07
   77.1250000       4.03786856E-07
   77.2399979       4.04474207E-07
   77.3550034       4.04586302E-07
   77.4700012       4.04126382E-07
   77.5849991       4.03098966E-07
   77.6999969       4.01509794E-07
   77.8150024       3.99365888E-07
   77.9300003       3.96675347E-07
   78.0449982       3.93447493E-07
   78.1600037       3.89692644E-07
   78.2750015       3.85422311E-07
   78.3899994       3.80648885E-07
   78.5049973       3.75385781E-07
   78.6200027       3.69647239E-07
   78.7350006       3.63448464E-07
   78.8499985       3.56805515E-07
   78.9649963       3.49735274E-07
   79.0800018       3.42255333E-07
   79.1949997       3.34384197E-07
   79.3099976       3.26140992E-07
   79.4250031       3.17545641E-07
   79.5400009       3.08618667E-07