  -18.8999996        -0.00000000    
  -18.7849998        -1.32159652E-21
  -18.6700001         1.86547609E-12
  -18.5550003         8.69625812E-12
  -18.4400005         2.35669713E-11
  -18.3250008         4.79548727E-11
  -18.2099991         8.02760983E-11
  -18.0949993         1.14962755E-10
  -17.9799995         1.42423462E-10
  -17.8649998         1.50054719E-10
  -17.7500000         1.24246183E-10
  -17.6350002         5.30988239E-11
  -17.5200005        -7.05962649E-11
  -17.4050007        -2.46651755E-10
  -17.2900009        -4.65556899E-10
  -17.1749992        -7.07716996E-10
  -17.0599995        -9.44064382E-10
  -16.9449997        -1.13805276E-09
  -16.8299999        -1.24888255E-09
  -16.7150002        -1.23568467E-09
  -16.6000004        -1.06233455E-09
  -16.4850006        -7.02531922E-10
  -16.3700008        -1.44763604E-10
  -16.2549992         6.03275041E-10
  -16.1399994         1.51127733E-09
  -16.0249996         2.52447041E-09
  -15.9099998         3.56384122E-09
  -15.7950001         4.52890303E-09
  -15.6800003         5.30325606E-09
  -15.5649996         5.76289017E-09
  -15.4499998         5.78678039E-09
  -15.3350000         5.26888710E-09
  -15.2200003         4.13034762E-09
  -15.1049995         2.33038744E-09
  -14.9899998        -1.25473576E-10
  -14.8750000        -3.18116533E-09
  -14.7600002        -6.73054235E-09
  -14.6450005        -1.06228022E-08
  -14.5299997        -1.46724384E-08
  -14.4150000        -1.86727505E-08
  -14.3000002        -2.24115198E-08
  -14.1850004        -2.56872497E-08
  -14.0699997        -2.83243544E-08
  -13.9549999        -3.01859409E-08
  -13.8400002        -3.11829993E-08
  -13.7250004        -3.12793631E-08
  -13.6099997        -3.04919929E-08
  -13.4949999        -2.88865785E-08
  -13.3800001        -2.65686921E-08
  -13.2650003        -2.36711486E-08
  -13.1499996        -2.03385131E-08
  -13.0349998        -1.67100378E-08
  -12.9200001        -1.29028486E-08
  -12.8050003        -8.99718700E-09
  -12.6899996        -5.02578423E-09
  -12.5749998        -9.68974234E-10
  -12.4600000         3.24331673E-09
  -12.3450003         7.72250353E-09
  -12.2299995         1.26060140E-08
  -12.1149998         1.80373760E-08
  -12.0000000         2.41443114E-08
  -11.8850002         3.10175530E-08
  -11.7700005         3.86932726E-08
  -11.6549997         4.71413166E-08
  -11.5400000         5.62606353E-08
  -11.4250002         6.58829151E-08
  -11.3100004         7.57833902E-08
  -11.1949997         8.56986304E-08
  -11.0799999         9.53490868E-08
  -10.9650002         1.04464632E-07
  -10.8500004         1.12811001E-07
  -10.7349997         1.20214651E-07
  -10.6199999         1.26583558E-07
  -10.5050001         1.31922064E-07
  -10.3900003         1.36337320E-07
  -10.2749996         1.40036093E-07
  -10.1599998         1.43311766E-07
  -10.0450001         1.46521387E-07
  -9.93000031         1.50055257E-07
  -9.81499958         1.54301745E-07
  -9.69999981         1.59611787E-07
  -9.58500004         1.66266275E-07
  -9.47000027         1.74451330E-07
  -9.35499954         1.84244399E-07
  -9.23999977         1.95612344E-07
  -9.12500000         2.08422193E-07
  -9.01000023         2.22462688E-07
  -8.89500046         2.37474296E-07
  -8.77999973         2.53183714E-07
  -8.66499996         2.69339012E-07
  -8.55000019         2.85741692E-07
  -8.43500042         3.02273833E-07
  -8.31999969         3.18915482E-07
  -8.20499992         3.35753271E-07
  -8.09000015         3.52977708E-07
  -7.97499990         3.70869714E-07
  -7.86000013         3.89777910E-07
  -7.74499989         4.10087125E-07
  -7.63000011         4.32182077E-07
  -7.51499987         4.56409651E-07
  -7.40000010         4.83043834E-07
  -7.28499985         5.12259021E-07
  -7.17000008         5.44112254E-07
  -7.05499983         5.78541801E-07
  -6.94000006         6.15379747E-07
  -6.82499981         6.54375754E-07
  -6.71000004         6.95234235E-07
  -6.59499979         7.37655114E-07
  -6.48000002         7.81374638E-07
  -6.36499977         8.26201187E-07
  -6.25000000         8.72043302E-07
  -6.13500023         9.18923206E-07
  -6.01999998         9.66979314E-07
  -5.90500021         1.01645514E-06
  -5.78999996         1.06767709E-06
  -5.67500019         1.12102452E-06
  -5.55999994         1.17689410E-06
  -5.44500017         1.23566224E-06
  -5.32999992         1.29764851E-06
  -5.21500015         1.36308586E-06
  -5.09999990         1.43209616E-06
  -4.98500013         1.50467895E-06
  -4.86999989         1.58071373E-06
  -4.75500011         1.65997312E-06
  -4.63999987         1.74214904E-06
  -4.52500010         1.82689246E-06
  -4.40999985         1.91385266E-06
  -4.29500008         2.00272189E-06
  -4.17999983         2.09327050E-06
  -4.06500006         2.18537321E-06
  -3.95000005         2.27902387E-06
  -3.83500004         2.37433346E-06
  -3.72000003         2.47151024E-06
  -3.60500002         2.57083252E-06
  -3.49000001         2.67260953E-06
  -3.37500000         2.77714685E-06
  -3.25999999         2.88470119E-06
  -3.14499998         2.99545241E-06
  -3.02999997         3.10947530E-06
  -2.91499996         3.22672645E-06
  -2.79999995         3.34704077E-06
  -2.68499994         3.47014065E-06
  -2.56999993         3.59564910E-06
  -2.45499992         3.72312252E-06
  -2.33999991         3.85207568E-06
  -2.22499990         3.98202292E-06
  -2.10999990         4.11250676E-06
  -1.99500000         4.24312884E-06
  -1.88000000         4.37357357E-06
  -1.76499999         4.50359994E-06
  -1.64999998         4.63304650E-06
  -1.53499997         4.76181049E-06
  -1.41999996         4.88981141E-06
  -1.30499995         5.01696513E-06
  -1.19000006         5.14313751E-06
  -1.07500005         5.26811755E-06
 -0.959999979         5.39159646E-06
 -0.845000029         5.51315179E-06
 -0.730000019         5.63224830E-06
 -0.615000010         5.74825071E-06
 -0.500000000         5.86044143E-06
 -0.384999990         5.96805785E-06
 -0.270000011         6.07031143E-06
 -0.155000001         6.16641864E-06
  -3.99999991E-02     6.25563325E-06
   7.50000030E-02     6.33726222E-06
  0.189999998         6.41067754E-06
  0.305000007         6.47531851E-06
  0.419999987         6.53067582E-06
  0.535000026         6.57628152E-06
  0.649999976         6.61167269E-06
  0.764999986         6.63636911E-06
  0.879999995         6.64981235E-06
  0.995000005         6.65135849E-06
   1.11000001         6.64025174E-06
   1.22500002         6.61559079E-06
   1.34000003         6.57634610E-06
   1.45500004         6.52136805E-06
   1.57000005         6.44941520E-06
   1.68499994         6.35918514E-06
   1.79999995         6.24935547E-06
   1.91499996         6.11861014E-06
   2.02999997         5.96568771E-06
   2.14499998         5.78939034E-06
   2.25999999         5.58859210E-06
   2.37500000         5.36223524E-06
   2.49000001         5.10932568E-06
   2.60500002         4.82890846E-06
   2.72000003         4.52001132E-06
   2.83500004         4.18164200E-06
   2.95000005         3.81274731E-06
   3.06500006         3.41215855E-06
   3.18000007         2.97860788E-06
   3.29500008         2.51068923E-06
   3.41000009         2.00685463E-06
   3.52500010         1.46548882E-06
   3.64000010         8.84867404E-07
   3.75500011         2.63229595E-07
   3.86999989        -4.01192665E-07
   3.98499990        -1.11009467E-06
   4.09999990        -1.86510078E-06
   4.21500015        -2.66772804E-06
   4.32999992        -3.51935341E-06
   4.44500017        -4.42122473E-06
   4.55999994        -5.37449159E-06
   4.67500019        -6.38021447E-06
   4.78999996        -7.43943201E-06
   4.90500021        -8.55318831E-06
   5.01999998        -9.72257385E-06
   5.13500023        -1.09488037E-05
   5.25000000        -1.22332031E-05
   5.36499977        -1.35772425E-05
   5.48000002        -1.49825637E-05
   5.59499979        -1.64509220E-05
   5.71000004        -1.79841700E-05
   5.82499981        -1.95842586E-05
   5.94000006        -2.12531231E-05
   6.05499983        -2.29926554E-05
   6.17000008        -2.48046817E-05
   6.28499985        -2.66908755E-05
   6.40000010        -2.86527811E-05
   6.51499987        -3.06917318E-05
   6.63000011        -3.28089154E-05
   6.74499989        -3.50053706E-05
   6.86000013        -3.72820359E-05
   6.97499990        -3.96397736E-05
   7.09000015        -4.20794531E-05
   7.20499992        -4.46019549E-05
   7.32000017        -4.72082975E-05
   7.43499994        -4.98995832E-05
   7.55000019        -5.26770382E-05
   7.66499996        -5.55420702E-05
   7.78000021        -5.84961817E-05
   7.89499998        -6.15410318E-05
   8.01000023        -6.46782792E-05
   8.12500000        -6.79096556E-05
   8.23999977        -7.12368492E-05
   8.35499954        -7.46614896E-05
   8.47000027        -7.81851122E-05
   8.58500004        -8.18091285E-05
   8.69999981        -8.55347898E-05
   8.81499958        -8.93632241E-05
   8.93000031        -9.32954572E-05
   9.04500008        -9.73324131E-05
   9.15999985        -1.01474972E-04
   9.27499962        -1.05724022E-04
   9.39000034        -1.10080480E-04
   9.50500011        -1.14545357E-04
   9.61999989        -1.19119708E-04
   9.73499966        -1.23804726E-04
   9.85000038        -1.28601721E-04
   9.96500015        -1.33512120E-04
   10.0799999        -1.38537362E-04
   10.1949997        -1.43679004E-04
   10.3100004        -1.48938561E-04
   10.4250002        -1.54317488E-04
   10.5400000        -1.59817282E-04
   10.6549997        -1.65439284E-04
   10.7700005        -1.71184671E-04
   10.8850002        -1.77054477E-04
   11.0000000        -1.83049633E-04
   11.1149998        -1.89170984E-04
   11.2299995        -1.95419154E-04
   11.3450003        -2.01794741E-04
   11.4600000        -2.08298312E-04
   11.5749998        -2.14930391E-04
   11.6899996        -2.21691531E-04
   11.8050003        -2.28582299E-04
   11.9200001        -2.35603351E-04
   12.0349998        -2.42755428E-04
   12.1499996        -2.50039244E-04
   12.2650003        -2.57455686E-04
   12.3800001        -2.65005627E-04
   12.4949999        -2.72689940E-04
   12.6099997        -2.80509557E-04
   12.7250004        -2.88465410E-04
   12.8400002        -2.96558370E-04
   12.9549999        -3.04789282E-04
   13.0699997        -3.13158758E-04
   13.1850004        -3.21667583E-04
   13.3000002        -3.30316252E-04
   13.4150000        -3.39105114E-04
   13.5299997        -3.48034548E-04
   13.6450005        -3.57104611E-04
   13.7600002        -3.66315508E-04
   13.8750000        -3.75667121E-04
   13.9899998        -3.85159394E-04
   14.1049995        -3.94792121E-04
   14.2200003        -4.04564955E-04
   14.3350000        -4.14477574E-04
   14.4499998        -4.24529542E-04
   14.5649996        -4.34720336E-04
   14.6800003        -4.45049373E-04
   14.7950001        -4.55515983E-04
   14.9099998        -4.66119498E-04
   15.0249996        -4.76859044E-04
   15.1400003        -4.87733749E-04
   15.2550001        -4.98742447E-04
   15.3699999        -5.09883976E-04
   15.4849997        -5.21157053E-04
   15.6000004        -5.32559818E-04
   15.7150002        -5.44090697E-04
   15.8299999        -5.55747421E-04
   15.9449997        -5.67527662E-04
   16.0599995        -5.79428859E-04
   16.1749992        -5.91448101E-04
   16.2900009        -6.03582244E-04
   16.4050007        -6.15827972E-04
   16.5200005        -6.28181617E-04
   16.6350002        -6.40639279E-04
   16.7500000        -6.53197116E-04
   16.8649998        -6.65850763E-04
   16.9799995        -6.78595912E-04
   17.0949993        -6.91428257E-04
   17.2099991        -7.04343081E-04
   17.3250008        -7.17335730E-04
   17.4400005        -7.30401371E-04
   17.5550003        -7.43535114E-04
   17.6700001        -7.56731431E-04
   17.7849998        -7.69985258E-04
   17.8999996        -7.83290481E-04
   18.0149994        -7.96641398E-04
   18.1299992        -8.10031430E-04
   18.2450008        -8.23453825E-04
   18.3600006        -8.36901483E-04
   18.4750004        -8.50366952E-04
   18.5900002        -8.63842026E-04
   18.7049999        -8.77318555E-04
   18.8199997        -8.90787866E-04
   18.9349995        -9.04240995E-04
   19.0499992        -9.17668804E-04
   19.1650009        -9.31061804E-04
   19.2800007        -9.44410334E-04
   19.3950005        -9.57704848E-04
   19.5100002        -9.70934925E-04
   19.6250000        -9.84090730E-04
   19.7399998        -9.97161958E-04
   19.8549995        -1.01013808E-03
   19.9699993        -1.02300837E-03
   20.0849991        -1.03576167E-03
   20.2000008        -1.04838668E-03
   20.3150005        -1.06087187E-03
   20.4300003        -1.07320491E-03
   20.5450001        -1.08537357E-03
   20.6599998        -1.09736482E-03
   20.7749996        -1.10916537E-03
   20.8899994        -1.12076162E-03
   21.0049992        -1.13213935E-03
   21.1200008        -1.14328461E-03
   21.2350006        -1.15418271E-03
   21.3500004        -1.16481888E-03
   21.4650002        -1.17517845E-03
   21.5799999        -1.18524663E-03
   21.6949997        -1.19500805E-03
   21.8099995        -1.20444817E-03
   21.9249992        -1.21355162E-03
   22.0400009        -1.22230372E-03
   22.1550007        -1.23068946E-03
   22.2700005        -1.23869383E-03
   22.3850002        -1.24630181E-03
   22.5000000        -1.25349860E-03
   22.6149998        -1.26026850E-03
   22.7299995        -1.26659661E-03
   22.8449993        -1.27246743E-03
   22.9599991        -1.27786584E-03
   23.0750008        -1.28277601E-03
   23.1900005        -1.28718244E-03
   23.3050003        -1.29107002E-03
   23.4200001        -1.29442301E-03
   23.5349998        -1.29722618E-03
   23.6499996        -1.29946426E-03
   23.7649994        -1.30112260E-03
   23.8799992        -1.30218605E-03
   23.9950008        -1.30264030E-03
   24.1100006        -1.30247115E-03
   24.2250004        -1.30166474E-03
   24.3400002        -1.30020734E-03
   24.4549999        -1.29808590E-03
   24.5699997        -1.29528774E-03
   24.6849995        -1.29179959E-03
   24.7999992        -1.28761004E-03
   24.9150009        -1.28270604E-03
   25.0300007        -1.27707655E-03
   25.1450005        -1.27070979E-03
   25.2600002        -1.26359460E-03
   25.3750000        -1.25571969E-03
   25.4899998        -1.24707480E-03
   25.6049995        -1.23764947E-03
   25.7199993        -1.22743333E-03
   25.8349991        -1.21641660E-03
   25.9500008        -1.20458985E-03
   26.0650005        -1.19194400E-03
   26.1800003        -1.17847009E-03
   26.2950001        -1.16415997E-03
   26.4099998        -1.14900607E-03
   26.5249996        -1.13300059E-03
   26.6399994        -1.11613644E-03
   26.7549992        -1.09840767E-03
   26.8700008        -1.07980764E-03
   26.9850006        -1.06033136E-03
   27.1000004        -1.03997346E-03
   27.2150002        -1.01872941E-03
   27.3299999        -9.96594667E-04
   27.4449997        -9.73565504E-04
   27.5599995        -9.49638197E-04
   27.6749992        -9.24809719E-04
   27.7900009        -8.99076811E-04
   27.9050007        -8.72436794E-04
   28.0200005        -8.44886992E-04
   28.1350002        -8.16424843E-04
   28.2500000        -7.87048077E-04
   28.3649998        -7.56754598E-04
   28.4799995        -7.25542021E-04
   28.5949993        -6.93408481E-04
   28.7099991        -6.60352060E-04
   28.8250008        -6.26371417E-04
   28.9400005        -5.91464574E-04
   29.0550003        -5.55630482E-04
   29.1700001        -5.18867979E-04
   29.2849998        -4.81176074E-04
   29.3999996        -4.42553952E-04
   29.5149994        -4.03001148E-04
   29.6299992        -3.62516701E-04
   29.7450008        -3.21100582E-04
   29.8600006        -2.78752384E-04
   29.9750004        -2.35471380E-04
   30.0900002        -1.91257670E-04
   30.2049999        -1.46110426E-04
   30.3199997        -1.00029109E-04
   30.4349995        -5.30128164E-05
   30.5499992        -5.06050128E-06
   30.6650009         4.38289571E-05
   30.7800007         9.36568249E-05
   30.8950005         1.44424703E-04
   31.0100002         1.96134410E-04
   31.1250000         2.48787168E-04
   31.2399998         3.02385306E-04
   31.3549995         3.56930541E-04
   31.4699993         4.12424706E-04
   31.5849991         4.68870043E-04
   31.7000008         5.26268326E-04
   31.8150005         5.84622147E-04
   31.9300003         6.43933192E-04
   32.0449982         7.04204140E-04
   32.1599998         7.65437027E-04
   32.2750015         8.27634358E-04
   32.3899994         8.90798983E-04
   32.5050011         9.54933465E-04
   32.6199989         1.02004083E-03
   32.7350006         1.08612445E-03
   32.8499985         1.15318736E-03
   32.9650002         1.22123305E-03
   33.0800018         1.29026477E-03
   33.1949997         1.36028614E-03
   33.3100014         1.43130077E-03
   33.4249992         1.50331098E-03
   33.5400009         1.57632050E-03
   33.6549988         1.65033073E-03
   33.7700005         1.72534469E-03
   33.8849983         1.80136284E-03
   34.0000000         1.87838601E-03
   34.1150017         1.95641373E-03
   34.2299995         2.03544507E-03
   34.3450012         2.11547734E-03
   34.4599991         2.19650776E-03
   34.5750008         2.27853144E-03
   34.6899986         2.36154278E-03
   34.8050003         2.44553457E-03
   34.9199982         2.53049843E-03
   35.0349998         2.61642458E-03
   35.1500015         2.70330021E-03
   35.2649994         2.79111322E-03
   35.3800011         2.87984684E-03
   35.4949989         2.96948547E-03
   35.6100006         3.06000910E-03
   35.7249985         3.15139606E-03
   35.8400002         3.24362237E-03
   35.9550018         3.33666243E-03
   36.0699997         3.43048712E-03
   36.1850014         3.52506526E-03
   36.2999992         3.62036191E-03
   36.4150009         3.71634029E-03
   36.5299988         3.81296035E-03
   36.6450005         3.91017925E-03
   36.7599983         4.00795043E-03
   36.8750000         4.10622405E-03
   36.9900017         4.20494704E-03
   37.1049995         4.30406351E-03
   37.2200012         4.40351479E-03
   37.3349991         4.50323801E-03
   37.4500008         4.60316753E-03
   37.5649986         4.70323302E-03
   37.6800003         4.80336323E-03
   37.7949982         4.90348227E-03
   37.9099998         5.00351097E-03
   38.0250015         5.10336692E-03
   38.1399994         5.20296488E-03
   38.2550011         5.30221593E-03
   38.3699989         5.40102879E-03
   38.4850006         5.49930846E-03
   38.5999985         5.59695670E-03
   38.7150002         5.69387246E-03
   38.8300018         5.78995282E-03
   38.9449997         5.88508882E-03
   39.0600014         5.97917289E-03
   39.1749992         6.07209001E-03
   39.2900009         6.16372563E-03
   39.4049988         6.25396147E-03
   39.5200005         6.34267880E-03
   39.6349983         6.42975327E-03
   39.7500000         6.51506009E-03
   39.8650017         6.59847492E-03
   39.9799995         6.67986693E-03
   40.0950012         6.75910758E-03
   40.2099991         6.83606556E-03
   40.3250008         6.91060862E-03
   40.4399986         6.98260451E-03
   40.5550003         7.05191866E-03
   40.6699982         7.11841835E-03
   40.7849998         7.18196901E-03
   40.9000015         7.24243745E-03
   41.0149994         7.29968958E-03
   41.1300011         7.35359080E-03
   41.2449989         7.40401121E-03
   41.3600006         7.45081669E-03
   41.4749985         7.49387592E-03
   41.5900002         7.53306132E-03
   41.7050018         7.56824296E-03
   41.8199997         7.59929325E-03
   41.9350014         7.62608880E-03
   42.0499992         7.64850620E-03
   42.1650009         7.66642485E-03
   42.2799988         7.67972646E-03
   42.3950005         7.68829649E-03
   42.5099983         7.69202411E-03
   42.6250000         7.69080035E-03
   42.7400017         7.68452324E-03
   42.8549995         7.67309172E-03
   42.9700012         7.65641034E-03
   43.0849991         7.63438875E-03
   43.2000008         7.60694081E-03
   43.3149986         7.57398643E-03
   43.4300003         7.53544969E-03
   43.5449982         7.49126077E-03
   43.6599998         7.44135538E-03
   43.7750015         7.38567393E-03
   43.8899994         7.32416287E-03
   44.0050011         7.25677563E-03
   44.1199989         7.18346983E-03
   44.2350006         7.10421009E-03
   44.3499985         7.01896893E-03
   44.4650002         6.92772307E-03
   44.5800018         6.83045667E-03
   44.6949997         6.72716135E-03
   44.8100014         6.61783479E-03
   44.9249992         6.50248304E-03
   45.0400009         6.38111867E-03
   45.1549988         6.25376124E-03
   45.2700005         6.12043822E-03
   45.3849983         5.98118454E-03
   45.5000000         5.83604164E-03
   45.6150017         5.68505889E-03
   45.7299995         5.52829495E-03
   45.8450012         5.36581315E-03
   45.9599991         5.19768521E-03
   46.0750008         5.02398843E-03
   46.1899986         4.84480849E-03
   46.3050003         4.66023665E-03
   46.4199982         4.47037397E-03
   46.5349998         4.27532429E-03
   46.6500015         4.07520076E-03
   46.7649994         3.87011934E-03
   46.8800011         3.66020575E-03
   46.9949989         3.44559015E-03
   47.1100006         3.22641060E-03
   47.2249985         3.00280657E-03
   47.3400002         2.77492823E-03
   47.4550018         2.54292716E-03
   47.5699997         2.30696262E-03
   47.6850014         2.06719851E-03
   47.7999992         1.82380411E-03
   47.9150009         1.57695101E-03
   48.0299988         1.32681639E-03
   48.1450005         1.07358198E-03
   48.2599983         8.17432418E-04
   48.3750000         5.58554428E-04
   48.4900017         2.97140214E-04
   48.6049995         3.33831413E-05
   48.7200012        -2.32520862E-04
   48.8349991        -5.00374939E-04
   48.9500008        -7.69977516E-04
   49.0649986        -1.04113016E-03
   49.1800003        -1.31362933E-03
   49.2949982        -1.58727402E-03
   49.4099998        -1.86186074E-03
   49.5250015        -2.13718647E-03
   49.6399994        -2.41304911E-03
   49.7550011        -2.68924539E-03
   49.8699989        -2.96557252E-03
   49.9850006        -3.24183051E-03
   50.0999985        -3.51781910E-03
   50.2150002        -3.79333878E-03
   50.3300018        -4.06819209E-03
   50.4449997        -4.34218626E-03
   50.5600014        -4.61512664E-03
   50.6749992        -4.88682184E-03
   50.7900009        -5.15708420E-03
   50.9049988        -5.42572886E-03
   51.0200005        -5.69257420E-03
   51.1349983        -5.95744234E-03
   51.2500000        -6.22015726E-03
   51.3650017        -6.48054946E-03
   51.4799995        -6.73845224E-03
   51.5950012        -6.99370168E-03
   51.7099991        -7.24614225E-03
   51.8250008        -7.49561610E-03
   51.9399986        -7.74197467E-03
   52.0550003        -7.98507128E-03
   52.1699982        -8.22476763E-03
   52.2849998        -8.46092589E-03
   52.4000015        -8.69341567E-03
   52.5149994        -8.92210938E-03
   52.6300011        -9.14688222E-03
   52.7449989        -9.36761685E-03
   52.8600006        -9.58420057E-03
   52.9749985        -9.79652256E-03
   53.0900002        -1.00044794E-02
   53.2050018        -1.02079669E-02
   53.3199997        -1.04068965E-02
   53.4350014        -1.06011704E-02
   53.5499992        -1.07907066E-02
   53.6650009        -1.09754205E-02
   53.7799988        -1.11552393E-02
   53.8950005        -1.13300905E-02
   54.0099983        -1.14999060E-02
   54.1250000        -1.16646253E-02
   54.2400017        -1.18241888E-02
   54.3549995        -1.19785462E-02
   54.4700012        -1.21276481E-02
   54.5849991        -1.22714527E-02
   54.7000008        -1.24099217E-02
   54.8149986        -1.25430208E-02
   54.9300003        -1.26707200E-02
   55.0449982        -1.27929952E-02
   55.1599998        -1.29098240E-02
   55.2750015        -1.30211916E-02
   55.3899994        -1.31270885E-02
   55.5050011        -1.32275056E-02
   55.6199989        -1.33224437E-02
   55.7350006        -1.34119028E-02
   55.8499985        -1.34958914E-02
   55.9650002        -1.35744242E-02
   56.0800018        -1.36475153E-02
   56.1949997        -1.37151880E-02
   56.3100014        -1.37774730E-02
   56.4249992        -1.38344010E-02
   56.5400009        -1.38860121E-02
   56.6549988        -1.39323510E-02
   56.7700005        -1.39734661E-02
   56.8849983        -1.40094142E-02
   57.0000000        -1.40402578E-02
   57.1150017        -1.40660657E-02
   57.2299995        -1.40869077E-02
   57.3450012        -1.41028706E-02
   57.4599991        -1.41140325E-02
   57.5750008        -1.41204931E-02
   57.6899986        -1.41223501E-02
   57.8050003        -1.41197070E-02
   57.9199982        -1.41126793E-02
   58.0349998        -1.41013805E-02
   58.1500015        -1.40859326E-02
   58.2649994        -1.40664708E-02
   58.3800011        -1.40431281E-02
   58.4949989        -1.40160490E-02
   58.6100006        -1.39853870E-02
   58.7249985        -1.39512969E-02
   58.8400002        -1.39139425E-02
   58.9550018        -1.38734905E-02
   59.0699997        -1.38301207E-02
   59.1850014        -1.37840156E-02
   59.2999992        -1.37353661E-02
   59.4150009        -1.36843668E-02
   59.5299988        -1.36312237E-02
   59.6450005        -1.35761406E-02
   59.7599983        -1.35193346E-02
   59.8750000        -1.34610273E-02
   59.9900017        -1.34014357E-02
   60.1049995        -1.33407954E-02
   60.2200012        -1.32793300E-02
   60.3349991        -1.32172843E-02
   60.4500008        -1.31548932E-02
   60.5649986        -1.30923977E-02
   60.6800003        -1.30300401E-02
   60.7949982        -1.29680643E-02
   60.9099998        -1.29067162E-02
   61.0250015        -1.28462454E-02
   61.1399994        -1.27868978E-02
   61.2550011        -1.27289183E-02
   61.3699989        -1.26725622E-02
   61.4850006        -1.26180686E-02
   61.5999985        -1.25656808E-02
   61.7150002        -1.25156417E-02
   61.8300018        -1.24681927E-02
   61.9449997        -1.24235628E-02
   62.0600014        -1.23819839E-02
   62.1749992        -1.23436749E-02
   62.2900009        -1.23088621E-02
   62.4049988        -1.22777494E-02
   62.5200005        -1.22505371E-02
   62.6349983        -1.22274216E-02
   62.7500000        -1.22085791E-02
   62.8650017        -1.21941809E-02
   62.9799995        -1.21843889E-02
   63.0950012        -1.21793542E-02
   63.2099991        -1.21792015E-02
   63.3250008        -1.21840537E-02
   63.4399986        -1.21940225E-02
   63.5550003        -1.22091938E-02
   63.6699982        -1.22296475E-02
   63.7849998        -1.22554479E-02
   63.9000015        -1.22866388E-02
   64.0149994        -1.23232510E-02
   64.1299973        -1.23652956E-02
   64.2450027        -1.24127688E-02
   64.3600006        -1.24656493E-02
   64.4749985        -1.25238905E-02
   64.5899963        -1.25874318E-02
   64.7050018        -1.26561960E-02
   64.8199997        -1.27300713E-02
   64.9349976        -1.28089432E-02
   65.0500031        -1.28926598E-02
   65.1650009        -1.29810590E-02
   65.2799988        -1.30739463E-02
   65.3949966        -1.31711187E-02
   65.5100021        -1.32723469E-02
   65.6250000        -1.33773759E-02
   65.7399979        -1.34859430E-02
   65.8550034        -1.35977529E-02
   65.9700012        -1.37124993E-02
   66.0849991        -1.38298515E-02
   66.1999969        -1.39494631E-02
   66.3150024        -1.40709691E-02
   66.4300003        -1.41939884E-02
   66.5449982        -1.43181244E-02
   66.6600037        -1.44429551E-02
   66.7750015        -1.45680550E-02
   66.8899994        -1.46929733E-02
   67.0049973        -1.48172434E-02
   67.1200027        -1.49403904E-02
   67.2350006        -1.50619252E-02
   67.3499985        -1.51813328E-02
   67.4649963        -1.52981086E-02
   67.5800018        -1.54117206E-02
   67.6949997        -1.55216334E-02
   67.8099976        -1.56273041E-02
   67.9250031        -1.57281794E-02
   68.0400009        -1.58236995E-02
   68.1549988        -1.59133077E-02
   68.2699966        -1.59964338E-02
   68.3850021        -1.60725098E-02
   68.5000000        -1.61409676E-02
   68.6149979        -1.62012354E-02
   68.7300034        -1.62527543E-02
   68.8450012        -1.62949469E-02
   68.9599991        -1.63272601E-02
   69.0749969        -1.63491312E-02
   69.1900024        -1.63600110E-02
   69.3050003        -1.63593460E-02
   69.4199982        -1.63465980E-02
   69.5350037        -1.63212363E-02
   69.6500015        -1.62827373E-02
   69.7649994        -1.62305832E-02
   69.8799973        -1.61642861E-02
   69.9950027        -1.60833485E-02
   70.1100006        -1.59873012E-02
   70.2249985        -1.58756860E-02
   70.3399963        -1.57480594E-02
   70.4550018        -1.56039940E-02
   70.5699997        -1.54430848E-02
   70.6849976        -1.52649367E-02
   70.8000031        -1.50691755E-02
   70.9150009        -1.48554556E-02
   71.0299988        -1.46234389E-02
   71.1449966        -1.43728182E-02
   71.2600021        -1.41033046E-02
   71.3750000        -1.38146291E-02
   71.4899979        -1.35065438E-02
   71.6050034        -1.31788310E-02
   71.7200012        -1.28312837E-02
   71.8349991        -1.24637261E-02
   71.9499969        -1.20760081E-02
   72.0650024        -1.16679948E-02
   72.1800003        -1.12395845E-02
   72.2949982        -1.07907020E-02
   72.4100037        -1.03212884E-02
   72.5250015        -9.83131211E-03
   72.6399994        -9.32076946E-03
   72.7549973        -8.78967904E-03
   72.8700027        -8.23808648E-03
   72.9850006        -7.66605139E-03
   73.0999985        -7.07367389E-03
   73.2149963        -6.46106107E-03
   73.3300018        -5.82835358E-03
   73.4449997        -5.17571438E-03
   73.5599976        -4.50332835E-03
   73.6750031        -3.81140760E-03
   73.7900009        -3.10017890E-03
   73.9049988        -2.36989837E-03
   74.0199966        -1.62084284E-03
   74.1350021        -8.53311038E-04