  -18.8999996       0.00000000    
  -18.7849998      -3.81531681E-22
  -18.6700001      -4.31341941E-12
  -18.5550003      -1.95421838E-11
  -18.4400005      -5.10171939E-11
  -18.3250008      -9.91694019E-11
  -18.2099991      -1.57335311E-10
  -18.0949993      -2.11914458E-10
  -17.9799995      -2.44839343E-10
  -17.8649998      -2.37404846E-10
  -17.7500000      -1.74030360E-10
  -17.6350002      -4.47070575E-11
  -17.5200005       1.54365853E-10
  -17.4050007       4.21464225E-10
  -17.2900009       7.50091989E-10
  -17.1749992       1.12842002E-09
  -17.0599995       1.53665214E-09
  -16.9449997       1.94275573E-09
  -16.8299999       2.29827579E-09
  -16.7150002       2.53675636E-09
  -16.6000004       2.57715738E-09
  -16.4850006       2.33347119E-09
  -16.3700008       1.72982895E-09
  -16.2549992       7.18333781E-10
  -16.1399994      -7.04556358E-10
  -16.0249996      -2.48748089E-09
  -15.9099998      -4.52268889E-09
  -15.7950001      -6.65458844E-09
  -15.6800003      -8.69674466E-09
  -15.5649996      -1.04536557E-08
  -15.4499998      -1.17427872E-08
  -15.3350000      -1.24129729E-08
  -15.2200003      -1.23570922E-08
  -15.1049995      -1.15191847E-08
  -14.9899998      -9.89806459E-09
  -14.8750000      -7.55003704E-09
  -14.7600002      -4.59260097E-09
  -14.6450005      -1.20907195E-09
  -14.5299997       2.34808684E-09
  -14.4150000       5.75909453E-09
  -14.3000002       8.64757421E-09
  -14.1850004       1.06022524E-08
  -14.0699997       1.12087326E-08
  -13.9549999       1.00868460E-08
  -13.8400002       6.92676405E-09
  -13.7250004       1.51606805E-09
  -13.6099997      -6.24813490E-09
  -13.4949999      -1.63648544E-08
  -13.3800001      -2.87505983E-08
  -13.2650003      -4.32710010E-08
  -13.1499996      -5.97746705E-08
  -13.0349998      -7.81217580E-08
  -12.9200001      -9.82019088E-08
  -12.8050003      -1.19940410E-07
  -12.6899996      -1.43294727E-07
  -12.5749998      -1.68246345E-07
  -12.4600000      -1.94792918E-07
  -12.3450003      -2.22944436E-07
  -12.2299995      -2.52723055E-07
  -12.1149998      -2.84164514E-07
  -12.0000000      -3.17316420E-07
  -11.8850002      -3.52229392E-07
  -11.7700005      -3.88940407E-07
  -11.6549997      -4.27450317E-07
  -11.5400000      -4.67702080E-07
  -11.4250002      -5.09567315E-07
  -11.3100004      -5.52848746E-07
  -11.1949997      -5.97302233E-07
  -11.0799999      -6.42676071E-07
  -10.9650002      -6.88761361E-07
  -10.8500004      -7.35442597E-07
  -10.7349997      -7.82737459E-07
  -10.6199999      -8.30815850E-07
  -10.5050001      -8.79996492E-07
  -10.3900003      -9.30721853E-07
  -10.2749996      -9.83518930E-07
  -10.1599998      -1.03895707E-06
  -10.0450001      -1.09760879E-06
  -9.93000031      -1.16002275E-06
  -9.81499958      -1.22670758E-06
  -9.69999981      -1.29812338E-06
  -9.58500004      -1.37467691E-06
  -9.47000027      -1.45671527E-06
  -9.35499954      -1.54451686E-06
  -9.23999977      -1.63828042E-06
  -9.12500000      -1.73812191E-06
  -9.01000023      -1.84408168E-06
  -8.89500046      -1.95614939E-06
  -8.77999973      -2.07430571E-06
  -8.66499996      -2.19857657E-06
  -8.55000019      -2.32908610E-06
  -8.43500042      -2.46609943E-06
  -8.31999969      -2.61004379E-06
  -8.20499992      -2.76149945E-06
  -8.09000015      -2.92116374E-06
  -7.97499990      -3.08979611E-06
  -7.86000013      -3.26815552E-06
  -7.74499989      -3.45694434E-06
  -7.63000011      -3.65676806E-06
  -7.51499987      -3.86811962E-06
  -7.40000010      -4.09138238E-06
  -7.28499985      -4.32685010E-06
  -7.17000008      -4.57474925E-06
  -7.05499983      -4.83526856E-06
  -6.94000006      -5.10857353E-06
  -6.82499981      -5.39482926E-06
  -6.71000004      -5.69421081E-06
  -6.59499979      -6.00693193E-06
  -6.48000002      -6.33326817E-06
  -6.36499977      -6.67359745E-06
  -6.25000000      -7.02843499E-06
  -6.13500023      -7.39845336E-06
  -6.01999998      -7.78449066E-06
  -5.90500021      -8.18752596E-06
  -5.78999996      -8.60862838E-06
  -5.67500019      -9.04888839E-06
  -5.55999994      -9.50933463E-06
  -5.44500017      -9.99086751E-06
  -5.32999992      -1.04942092E-05
  -5.21500015      -1.10198880E-05
  -5.09999990      -1.15682515E-05
  -4.98500013      -1.21395096E-05
  -4.86999989      -1.27338017E-05
  -4.75500011      -1.33512449E-05
  -4.63999987      -1.39919994E-05
  -4.52500010      -1.46563061E-05
  -4.40999985      -1.53445089E-05
  -4.29500008      -1.60570835E-05
  -4.17999983      -1.67946309E-05
  -4.06500006      -1.75578934E-05
  -3.95000005      -1.83477459E-05
  -3.83500004      -1.91651943E-05
  -3.72000003      -2.00113445E-05
  -3.60500002      -2.08873644E-05
  -3.49000001      -2.17944162E-05
  -3.37500000      -2.27335931E-05
  -3.25999999      -2.37058375E-05
  -3.14499998      -2.47118714E-05
  -3.02999997      -2.57521642E-05
  -2.91499996      -2.68269214E-05
  -2.79999995      -2.79361284E-05
  -2.68499994      -2.90796033E-05
  -2.56999993      -3.02571061E-05
  -2.45499992      -3.14684039E-05
  -2.33999991      -3.27133748E-05
  -2.22499990      -3.39920480E-05
  -2.10999990      -3.53046344E-05
  -1.99500000      -3.66515342E-05
  -1.88000000      -3.80333222E-05
  -1.76499999      -3.94507042E-05
  -1.64999998      -4.09044587E-05
  -1.53499997      -4.23954189E-05
  -1.41999996      -4.39243850E-05
  -1.30499995      -4.54921174E-05
  -1.19000006      -4.70992127E-05
  -1.07500005      -4.87460929E-05
 -0.959999979      -5.04329510E-05
 -0.845000029      -5.21597140E-05
 -0.730000019      -5.39260072E-05
 -0.615000010      -5.57312451E-05
 -0.500000000      -5.75746344E-05
 -0.384999990      -5.94552912E-05
 -0.270000011      -6.13723241E-05
 -0.155000001      -6.33249729E-05
  -3.99999991E-02  -6.53126554E-05
   7.50000030E-02  -6.73350369E-05
  0.189999998      -6.93920520E-05
  0.305000007      -7.14838898E-05
  0.419999987      -7.36109141E-05
  0.535000026      -7.57736198E-05
  0.649999976      -7.79725451E-05
  0.764999986      -8.02081777E-05
  0.879999995      -8.24808667E-05
  0.995000005      -8.47908086E-05
   1.11000001      -8.71379380E-05
   1.22500002      -8.95219491E-05
   1.34000003      -9.19422746E-05
   1.45500004      -9.43980413E-05
   1.57000005      -9.68881795E-05
   1.68499994      -9.94113871E-05
   1.79999995      -1.01966310E-04
   1.91499996      -1.04551509E-04
   2.02999997      -1.07165717E-04
   2.14499998      -1.09807799E-04
   2.25999999      -1.12476882E-04
   2.37500000      -1.15172414E-04
   2.49000001      -1.17894131E-04
   2.60500002      -1.20642057E-04
   2.72000003      -1.23416437E-04
   2.83500004      -1.26217637E-04
   2.95000005      -1.29046050E-04
   3.06500006      -1.31902052E-04
   3.18000007      -1.34785907E-04
   3.29500008      -1.37697658E-04
   3.41000009      -1.40637247E-04
   3.52500010      -1.43604339E-04
   3.64000010      -1.46598439E-04
   3.75500011      -1.49619009E-04
   3.86999989      -1.52665307E-04
   3.98499990      -1.55736649E-04
   4.09999990      -1.58832336E-04
   4.21500015      -1.61951844E-04
   4.32999992      -1.65094854E-04
   4.44500017      -1.68261322E-04
   4.55999994      -1.71451422E-04
   4.67500019      -1.74665707E-04
   4.78999996      -1.77904963E-04
   4.90500021      -1.81170282E-04
   5.01999998      -1.84462901E-04
   5.13500023      -1.87784157E-04
   5.25000000      -1.91135405E-04
   5.36499977      -1.94517910E-04
   5.48000002      -1.97932895E-04
   5.59499979      -2.01381408E-04
   5.71000004      -2.04864395E-04
   5.82499981      -2.08382597E-04
   5.94000006      -2.11936742E-04
   6.05499983      -2.15527572E-04
   6.17000008      -2.19155787E-04
   6.28499985      -2.22822229E-04
   6.40000010      -2.26527933E-04
   6.51499987      -2.30274120E-04
   6.63000011      -2.34062332E-04
   6.74499989      -2.37894419E-04
   6.86000013      -2.41772461E-04
   6.97499990      -2.45698990E-04
   7.09000015      -2.49676697E-04
   7.20499992      -2.53708364E-04
   7.32000017      -2.57797190E-04
   7.43499994      -2.61946290E-04
   7.55000019      -2.66158808E-04
   7.66499996      -2.70437886E-04
   7.78000021      -2.74786580E-04
   7.89499998      -2.79208005E-04
   8.01000023      -2.83705158E-04
   8.12500000      -2.88280920E-04
   8.23999977      -2.92938086E-04
   8.35499954      -2.97679740E-04
   8.47000027      -3.02508764E-04
   8.58500004      -3.07428185E-04
   8.69999981      -3.12441145E-04
   8.81499958      -3.17550846E-04
   8.93000031      -3.22760810E-04
   9.04500008      -3.28074413E-04
   9.15999985      -3.33495293E-04
   9.27499962      -3.39027290E-04
   9.39000034      -3.44674016E-04
   9.50500011      -3.50439281E-04
   9.61999989      -3.56326695E-04
   9.73499966      -3.62339837E-04
   9.85000038      -3.68482200E-04
   9.96500015      -3.74757074E-04
   10.0799999      -3.81167629E-04
   10.1949997      -3.87716980E-04
   10.3100004      -3.94408067E-04
   10.4250002      -4.01243713E-04
   10.5400000      -4.08226653E-04
   10.6549997      -4.15359391E-04
   10.7700005      -4.22644429E-04
   10.8850002      -4.30084154E-04
   11.0000000      -4.37680894E-04
   11.1149998      -4.45436832E-04
   11.2299995      -4.53354063E-04
   11.3450003      -4.61434422E-04
   11.4600000      -4.69679857E-04
   11.5749998      -4.78092028E-04
   11.6899996      -4.86672303E-04
   11.8050003      -4.95421991E-04
   11.9200001      -5.04342024E-04
   12.0349998      -5.13433188E-04
   12.1499996      -5.22695889E-04
   12.2650003      -5.32130303E-04
   12.3800001      -5.41736546E-04
   12.4949999      -5.51514269E-04
   12.6099997      -5.61462948E-04
   12.7250004      -5.71582059E-04
   12.8400002      -5.81870554E-04
   12.9549999      -5.92327211E-04
   13.0699997      -6.02950458E-04
   13.1850004      -6.13738317E-04
   13.3000002      -6.24688575E-04
   13.4150000      -6.35798497E-04
   13.5299997      -6.47064822E-04
   13.6450005      -6.58484176E-04
   13.7600002      -6.70052541E-04
   13.8750000      -6.81765727E-04
   13.9899998      -6.93619135E-04
   14.1049995      -7.05607585E-04
   14.2200003      -7.17725721E-04
   14.3350000      -7.29967724E-04
   14.4499998      -7.42327305E-04
   14.5649996      -7.54798297E-04
   14.6800003      -7.67373771E-04
   14.7950001      -7.80046976E-04
   14.9099998      -7.92810810E-04
   15.0249996      -8.05657939E-04
   15.1400003      -8.18580913E-04
   15.2550001      -8.31571815E-04
   15.3699999      -8.44622613E-04
   15.4849997      -8.57724692E-04
   15.6000004      -8.70869088E-04
   15.7150002      -8.84046545E-04
   15.8299999      -8.97247344E-04
   15.9449997      -9.10460833E-04
   16.0599995      -9.23676242E-04
   16.1749992      -9.36882512E-04
   16.2900009      -9.50067828E-04
   16.4050007      -9.63220373E-04
   16.5200005      -9.76327399E-04
   16.6350002      -9.89376684E-04
   16.7500000      -1.00235501E-03
   16.8649998      -1.01524952E-03
   16.9799995      -1.02804659E-03
   17.0949993      -1.04073295E-03
   17.2099991      -1.05329498E-03
   17.3250008      -1.06571941E-03
   17.4400005      -1.07799261E-03
   17.5550003      -1.09010120E-03
   17.6700001      -1.10203156E-03
   17.7849998      -1.11376971E-03
   17.8999996      -1.12530193E-03
   18.0149994      -1.13661389E-03
   18.1299992      -1.14769104E-03
   18.2450008      -1.15851895E-03
   18.3600006      -1.16908236E-03
   18.4750004      -1.17936626E-03
   18.5900002      -1.18935574E-03
   18.7049999      -1.19903521E-03
   18.8199997      -1.20838964E-03
   18.9349995      -1.21740368E-03
   19.0499992      -1.22606172E-03
   19.1650009      -1.23434898E-03
   19.2800007      -1.24225032E-03
   19.3950005      -1.24975073E-03
   19.5100002      -1.25683576E-03
   19.6250000      -1.26349146E-03
   19.7399998      -1.26970373E-03
   19.8549995      -1.27545907E-03
   19.9699993      -1.28074409E-03
   20.0849991      -1.28554588E-03
   20.2000008      -1.28985150E-03
   20.3150005      -1.29364792E-03
   20.4300003      -1.29692256E-03
   20.5450001      -1.29966240E-03
   20.6599998      -1.30185508E-03
   20.7749996      -1.30348839E-03
   20.8899994      -1.30455010E-03
   21.0049992      -1.30502821E-03
   21.1200008      -1.30491157E-03
   21.2350006      -1.30418886E-03
   21.3500004      -1.30284985E-03
   21.4650002      -1.30088441E-03
   21.5799999      -1.29828334E-03
   21.6949997      -1.29503780E-03
   21.8099995      -1.29113998E-03
   21.9249992      -1.28658256E-03
   22.0400009      -1.28135947E-03
   22.1550007      -1.27546478E-03
   22.2700005      -1.26889395E-03
   22.3850002      -1.26164255E-03
   22.5000000      -1.25370733E-03
   22.6149998      -1.24508515E-03
   22.7299995      -1.23577344E-03
   22.8449993      -1.22577033E-03
   22.9599991      -1.21507409E-03
   23.0750008      -1.20368379E-03
   23.1900005      -1.19159860E-03
   23.3050003      -1.17881875E-03
   23.4200001      -1.16534473E-03
   23.5349998      -1.15117815E-03
   23.6499996      -1.13632088E-03
   23.7649994      -1.12077571E-03
   23.8799992      -1.10454671E-03
   23.9950008      -1.08763832E-03
   24.1100006      -1.07005623E-03
   24.2250004      -1.05180673E-03
   24.3400002      -1.03289750E-03
   24.4549999      -1.01333705E-03
   24.5699997      -9.93134920E-04
   24.6849995      -9.72301583E-04
   24.7999992      -9.50848276E-04
   24.9150009      -9.28786991E-04
   25.0300007      -9.06130357E-04
   25.1450005      -8.82891880E-04
   25.2600002      -8.59085529E-04
   25.3750000      -8.34725564E-04
   25.4899998      -8.09827121E-04
   25.6049995      -7.84405973E-04
   25.7199993      -7.58478476E-04
   25.8349991      -7.32061570E-04
   25.9500008      -7.05173239E-04
   26.0650005      -6.77831529E-04
   26.1800003      -6.50055823E-04
   26.2950001      -6.21865795E-04
   26.4099998      -5.93281817E-04
   26.5249996      -5.64325193E-04
   26.6399994      -5.35018160E-04
   26.7549992      -5.05383476E-04
   26.8700008      -4.75444569E-04
   26.9850006      -4.45225945E-04
   27.1000004      -4.14752489E-04
   27.2150002      -3.84050101E-04
   27.3299999      -3.53144482E-04
   27.4449997      -3.22062289E-04
   27.5599995      -2.90830154E-04
   27.6749992      -2.59475433E-04
   27.7900009      -2.28025499E-04
   27.9050007      -1.96508205E-04
   28.0200005      -1.64951358E-04
   28.1350002      -1.33383306E-04
   28.2500000      -1.01832869E-04
   28.3649998      -7.03287806E-05
   28.4799995      -3.89002198E-05
   28.5949993      -7.57621137E-06
   28.7099991       2.36130036E-05
   28.8250008       5.46376286E-05
   28.9400005       8.54671453E-05
   29.0550003       1.16070412E-04
   29.1700001       1.46416234E-04
   29.2849998       1.76472182E-04
   29.3999996       2.06205965E-04
   29.5149994       2.35584434E-04
   29.6299992       2.64574133E-04
   29.7450008       2.93140969E-04
   29.8600006       3.21250700E-04
   29.9750004       3.48868954E-04
   30.0900002       3.75961012E-04
   30.2049999       4.02492151E-04
   30.3199997       4.28427884E-04
   30.4349995       4.53733286E-04
   30.5499992       4.78374248E-04
   30.6650009       5.02316747E-04
   30.7800007       5.25526702E-04
   30.8950005       5.47970994E-04
   31.0100002       5.69615979E-04
   31.1250000       5.90428826E-04
   31.2399998       6.10376475E-04
   31.3549995       6.29425747E-04
   31.4699993       6.47543930E-04
   31.5849991       6.64697611E-04
   31.7000008       6.80853846E-04
   31.8150005       6.95979339E-04
   31.9300003       7.10040389E-04
   32.0449982       7.23003352E-04
   32.1599998       7.34835048E-04
   32.2750015       7.45501951E-04
   32.3899994       7.54971057E-04
   32.5050011       7.63210177E-04
   32.6199989       7.70187587E-04
   32.7350006       7.75872730E-04
   32.8499985       7.80235510E-04
   32.9650002       7.83247582E-04
   33.0800018       7.84880191E-04
   33.1949997       7.85106444E-04
   33.3100014       7.83900497E-04
   33.4249992       7.81236740E-04
   33.5400009       7.77090434E-04
   33.6549988       7.71437481E-04
   33.7700005       7.64253375E-04
   33.8849983       7.55514600E-04
   34.0000000       7.45197234E-04
   34.1150017       7.33278110E-04
   34.2299995       7.19733769E-04
   34.3450012       7.04540987E-04
   34.4599991       6.87678054E-04
   34.5750008       6.69122732E-04
   34.6899986       6.48854591E-04
   34.8050003       6.26853784E-04
   34.9199982       6.03101857E-04
   35.0349998       5.77582163E-04
   35.1500015       5.50279568E-04
   35.2649994       5.21179871E-04
   35.3800011       4.90271428E-04
   35.4949989       4.57543181E-04
   35.6100006       4.22985846E-04
   35.7249985       3.86591622E-04
   35.8400002       3.48353176E-04
   35.9550018       3.08264600E-04
   36.0699997       2.66320916E-04
   36.1850014       2.22517818E-04
   36.2999992       1.76850983E-04
   36.4150009       1.29317530E-04
   36.5299988       7.99150002E-05
   36.6450005       2.86411523E-05
   36.7599983      -2.45041647E-05
   36.8750000      -7.95205051E-05
   36.9900017      -1.36406830E-04
   37.1049995      -1.95159620E-04
   37.2200012      -2.55773892E-04
   37.3349991      -3.18243139E-04
   37.4500008      -3.82559141E-04
   37.5649986      -4.48712148E-04
   37.6800003      -5.16690372E-04
   37.7949982      -5.86481299E-04
   37.9099998      -6.58070319E-04
   38.0250015      -7.31441367E-04
   38.1399994      -8.06579483E-04
   38.2550011      -8.83466040E-04
   38.3699989      -9.62083868E-04
   38.4850006      -1.04241504E-03
   38.5999985      -1.12444116E-03
   38.7150002      -1.20814180E-03
   38.8300018      -1.29349809E-03
   38.9449997      -1.38048851E-03
   39.0600014      -1.46909198E-03
   39.1749992      -1.55928684E-03
   39.2900009      -1.65104971E-03
   39.4049988      -1.74435636E-03
   39.5200005      -1.83918222E-03
   39.6349983      -1.93550170E-03
   39.7500000      -2.03328743E-03
   39.8650017      -2.13251240E-03
   39.9799995      -2.23314762E-03
   40.0950012      -2.33516493E-03
   40.2099991      -2.43853475E-03
   40.3250008      -2.54322845E-03
   40.4399986      -2.64921552E-03
   40.5550003      -2.75646709E-03
   40.6699982      -2.86495406E-03
   40.7849998      -2.97464640E-03
   40.9000015      -3.08551616E-03
   41.0149994      -3.19753308E-03
   41.1300011      -3.31066782E-03
   41.2449989      -3.42488987E-03
   41.3600006      -3.54016991E-03
   41.4749985      -3.65647767E-03
   41.5900002      -3.77378264E-03
   41.7050018      -3.89205292E-03
   41.8199997      -4.01126035E-03
   41.9350014      -4.13137255E-03
   42.0499992      -4.25235974E-03
   42.1650009      -4.37419163E-03
   42.2799988      -4.49683797E-03
   42.3950005      -4.62027034E-03
   42.5099983      -4.74445848E-03
   42.6250000      -4.86937445E-03
   42.7400017      -4.99498984E-03
   42.8549995      -5.12127578E-03
   42.9700012      -5.24820527E-03
   43.0849991      -5.37574757E-03
   43.2000008      -5.50387800E-03
   43.3149986      -5.63256815E-03
   43.4300003      -5.76178776E-03
   43.5449982      -5.89150982E-03
   43.6599998      -6.02170639E-03
   43.7750015      -6.15234952E-03
   43.8899994      -6.28341036E-03
   44.0050011      -6.41486095E-03
   44.1199989      -6.54667383E-03
   44.2350006      -6.67882292E-03
   44.3499985      -6.81128213E-03
   44.4650002      -6.94402726E-03
   44.5800018      -7.07703317E-03
   44.6949997      -7.21027842E-03
   44.8100014      -7.34373694E-03
   44.9249992      -7.47738872E-03
   45.0400009      -7.61120906E-03
   45.1549988      -7.74517609E-03
   45.2700005      -7.87926745E-03
   45.3849983      -8.01345799E-03
   45.5000000      -8.14772397E-03
   45.6150017      -8.28204118E-03
   45.7299995      -8.41638353E-03
   45.8450012      -8.55072401E-03
   45.9599991      -8.68503749E-03
   46.0750008      -8.81929416E-03
   46.1899986      -8.95347074E-03
   46.3050003      -9.08753555E-03
   46.4199982      -9.22146253E-03
   46.5349998      -9.35522653E-03
   46.6500015      -9.48879868E-03
   46.7649994      -9.62215569E-03
   46.8800011      -9.75526962E-03
   46.9949989      -9.88811348E-03
   47.1100006      -1.00206602E-02
   47.2249985      -1.01528829E-02
   47.3400002      -1.02847507E-02
   47.4550018      -1.04162348E-02
   47.5699997      -1.05473017E-02
   47.6850014      -1.06779179E-02
   47.7999992      -1.08080488E-02
   47.9150009      -1.09376526E-02
   48.0299988      -1.10666929E-02
   48.1450005      -1.11951260E-02
   48.2599983      -1.13229081E-02
   48.3750000      -1.14499973E-02
   48.4900017      -1.15763443E-02
   48.6049995      -1.17019024E-02
   48.7200012      -1.18266232E-02
   48.8349991      -1.19504575E-02
   48.9500008      -1.20733557E-02
   49.0649986      -1.21952649E-02
   49.1800003      -1.23161366E-02
   49.2949982      -1.24359159E-02
   49.4099998      -1.25545459E-02
   49.5250015      -1.26719708E-02
   49.6399994      -1.27881281E-02
   49.7550011      -1.29029583E-02
   49.8699989      -1.30163934E-02
   49.9850006      -1.31283645E-02
   50.0999985      -1.32388016E-02
   50.2150002      -1.33476304E-02
   50.3300018      -1.34547707E-02
   50.4449997      -1.35601461E-02
   50.5600014      -1.36636756E-02
   50.6749992      -1.37652745E-02
   50.7900009      -1.38648581E-02
   50.9049988      -1.39623405E-02
   51.0200005      -1.40576325E-02
   51.1349983      -1.41506465E-02
   51.2500000      -1.42412940E-02
   51.3650017      -1.43294819E-02
   51.4799995      -1.44151170E-02
   51.5950012      -1.44981043E-02
   51.7099991      -1.45783508E-02
   51.8250008      -1.46557568E-02
   51.9399986      -1.47302235E-02
   52.0550003      -1.48016484E-02
   52.1699982      -1.48699293E-02
   52.2849998      -1.49349608E-02
   52.4000015      -1.49966376E-02
   52.5149994      -1.50548527E-02
   52.6300011      -1.51094990E-02
   52.7449989      -1.51604703E-02
   52.8600006      -1.52076576E-02
   52.9749985      -1.52509538E-02
   53.0900002      -1.52902538E-02
   53.2050018      -1.53254494E-02
   53.3199997      -1.53564401E-02
   53.4350014      -1.53831188E-02
   53.5499992      -1.54053820E-02
   53.6650009      -1.54231321E-02
   53.7799988      -1.54362647E-02
   53.8950005      -1.54446829E-02
   54.0099983      -1.54482862E-02
   54.1250000      -1.54469842E-02
   54.2400017      -1.54406819E-02
   54.3549995      -1.54292863E-02
   54.4700012      -1.54127032E-02
   54.5849991      -1.53908581E-02
   54.7000008      -1.53636569E-02
   54.8149986      -1.53310243E-02
   54.9300003      -1.52928820E-02
   55.0449982      -1.52491573E-02
   55.1599998      -1.51997814E-02
   55.2750015      -1.51446844E-02
   55.3899994      -1.50838075E-02
   55.5050011      -1.50170913E-02
   55.6199989      -1.49444807E-02
   55.7350006      -1.48659283E-02
   55.8499985      -1.47813894E-02
   55.9650002      -1.46908173E-02
   56.0800018      -1.45941796E-02
   56.1949997      -1.44914417E-02
   56.3100014      -1.43825747E-02
   56.4249992      -1.42675592E-02
   56.5400009      -1.41463783E-02
   56.6549988      -1.40190264E-02
   56.7700005      -1.38855018E-02
   56.8849983      -1.37458043E-02
   57.0000000      -1.35999434E-02
   57.1150017      -1.34479357E-02
   57.2299995      -1.32898064E-02
   57.3450012      -1.31255807E-02
   57.4599991      -1.29552949E-02
   57.5750008      -1.27789890E-02
   57.6899986      -1.25967078E-02
   57.8050003      -1.24084987E-02
   57.9199982      -1.22144241E-02
   58.0349998      -1.20145399E-02
   58.1500015      -1.18089132E-02
   58.2649994      -1.15976213E-02
   58.3800011      -1.13807376E-02
   58.4949989      -1.11583499E-02
   58.6100006      -1.09305503E-02
   58.7249985      -1.06974319E-02
   58.8400002      -1.04591036E-02
   58.9550018      -1.02156755E-02
   59.0699997      -9.96726193E-03
   59.1850014      -9.71399061E-03
   59.2999992      -9.45599284E-03
   59.4150009      -9.19339806E-03
   59.5299988      -8.92635062E-03
   59.6450005      -8.65499862E-03
   59.7599983      -8.37949477E-03
   59.8750000      -8.09999183E-03
   59.9900017      -7.81664811E-03
   60.1049995      -7.52962707E-03
   60.2200012      -7.23909773E-03
   60.3349991      -6.94523193E-03
   60.4500008      -6.64820150E-03
   60.5649986      -6.34818617E-03
   60.6800003      -6.04536943E-03
   60.7949982      -5.73993661E-03
   60.9099998      -5.43207489E-03
   61.0250015      -5.12198219E-03
   61.1399994      -4.80985688E-03
   61.2550011      -4.49589780E-03
   61.3699989      -4.18031588E-03
   61.4850006      -3.86331463E-03
   61.5999985      -3.54511081E-03
   61.7150002      -3.22591490E-03
   61.8300018      -2.90594716E-03
   61.9449997      -2.58542178E-03
   62.0600014      -2.26455764E-03
   62.1749992      -1.94357196E-03
   62.2900009      -1.62268628E-03
   62.4049988      -1.30211283E-03
   62.5200005      -9.82072786E-04
   62.6349983      -6.62776816E-04
   62.7500000      -3.44441767E-04
   62.8650017      -2.72813195E-05
   62.9799995       2.88488751E-04
   63.0950012       6.02662854E-04
   63.2099991       9.15028795E-04
   63.3250008       1.22537604E-03
   63.4399986       1.53349759E-03
   63.5550003       1.83918944E-03
   63.6699982       2.14224961E-03
   63.7849998       2.44247657E-03
   63.9000015       2.73967651E-03
   64.0149994       3.03366012E-03
   64.1299973       3.32423788E-03
   64.2450027       3.61122936E-03
   64.3600006       3.89445783E-03
   64.4749985       4.17375378E-03
   64.5899963       4.44895262E-03
   64.7050018       4.71989717E-03
   64.8199997       4.98643331E-03
   64.9349976       5.24842134E-03
   65.0500031       5.50572295E-03
   65.1650009       5.75821241E-03
   65.2799988       6.00576540E-03
   65.3949966       6.24826737E-03
   65.5100021       6.48561446E-03
   65.6250000       6.71770936E-03
   65.7399979       6.94446079E-03
   65.8550034       7.16579054E-03
   65.9700012       7.38162315E-03
   66.0849991       7.59189716E-03
   66.1999969       7.79655855E-03
   66.3150024       7.99556077E-03
   66.4300003       8.18886887E-03
   66.5449982       8.37645866E-03
   66.6600037       8.55830684E-03
   66.7750015       8.73440690E-03
   66.8899994       8.90476257E-03
   67.0049973       9.06938408E-03
   67.1200027       9.22828726E-03
   67.2350006       9.38150566E-03
   67.3499985       9.52907559E-03
   67.4649963       9.67104547E-03
   67.5800018       9.80747212E-03
   67.6949997       9.93841607E-03
   67.8099976       1.00639546E-02
   67.9250031       1.01841651E-02
   68.0400009       1.02991387E-02
   68.1549988       1.04089649E-02
   68.2699966       1.05137480E-02
   68.3850021       1.06135970E-02
   68.5000000       1.07086226E-02
   68.6149979       1.07989460E-02
   68.7300034       1.08846854E-02
   68.8450012       1.09659713E-02
   68.9599991       1.10429265E-02
   69.0749969       1.11156888E-02
   69.1900024       1.11843897E-02
   69.3050003       1.12491604E-02
   69.4199982       1.13101397E-02
   69.5350037       1.13674663E-02
   69.6500015       1.14212809E-02
   69.7649994       1.14717195E-02
   69.8799973       1.15189264E-02
   69.9950027       1.15630338E-02
   70.1100006       1.16041796E-02
   70.2249985       1.16424970E-02
   70.3399963       1.16781192E-02
   70.4550018       1.17111783E-02
   70.5699997       1.17417937E-02
   70.6849976       1.17700910E-02
   70.8000031       1.17961811E-02
   70.9150009       1.18201710E-02
   71.0299988       1.18421698E-02
   71.1449966       1.18622696E-02
   71.2600021       1.18805664E-02
   71.3750000       1.18971383E-02
   71.4899979       1.19120600E-02
   71.6050034       1.19254030E-02
   71.7200012       1.19372206E-02
   71.8349991       1.19475676E-02
   71.9499969       1.19564822E-02
   72.0650024       1.19640082E-02
   72.1800003       1.19701726E-02
   72.2949982       1.19749932E-02
   72.4100037       1.19784791E-02
   72.5250015       1.19806351E-02
   72.6399994       1.19814528E-02
   72.7549973       1.19809201E-02
   72.8700027       1.19790155E-02
   72.9850006       1.19757056E-02
   73.0999985       1.19709540E-02
   73.2149963       1.19647160E-02
   73.3300018       1.19569357E-02
   73.4449997       1.19475452E-02
   73.5599976       1.19364858E-02
   73.6750031       1.19236736E-02
   73.7900009       1.19090257E-02
   73.9049988       1.18924510E-02
   74.0199966       1.18738515E-02
   74.1350021       1.18531194E-02
   74.2500000       1.18301464E-02
   74.3649979       1.18048191E-02
   74.4800034       1.17770126E-02
   74.5950012       1.17466021E-02
   74.7099991       1.17134666E-02
   74.8249969       1.16774645E-02
   74.9400024       1.16384635E-02
   75.0550003       1.15963295E-02
   75.1699982       1.15509229E-02
   75.2850037       1.15021029E-02
   75.4000015       1.14497254E-02
   75.5149994       1.13936495E-02
   75.6299973       1.13337291E-02
   75.7450027       1.12698209E-02
   75.8600006       1.12017803E-02
   75.9749985       1.11294705E-02
   76.0899963       1.10527398E-02
   76.2050018       1.09714465E-02
   76.3199997       1.08854510E-02
   76.4349976       1.07946135E-02
   76.5500031       1.06988009E-02
   76.6650009       1.05978716E-02
   76.7799988       1.04916962E-02
   76.8949966       1.03801480E-02
   77.0100021       1.02630882E-02
   77.1250000       1.01404060E-02
   77.2399979       1.00119775E-02
   77.3550034       9.87769384E-03
   77.4700012       9.73744225E-03
   77.5849991       9.59112309E-03
   77.6999969       9.43863206E-03
   77.8150024       9.27988160E-03
   77.9300003       9.11478605E-03
   78.0449982       8.94326158E-03
   78.1600037       8.76523461E-03
   78.2750015       8.58062971E-03
   78.3899994       8.38939007E-03
   78.5049973       8.19145795E-03
   78.6200027       7.98677001E-03
   78.7350006       7.77528621E-03
   78.8499985       7.55695254E-03
   78.9649963       7.33173406E-03
   79.0800018       7.09959492E-03
   79.1949997       6.86050160E-03
   79.3099976       6.61442475E-03
   79.4250031       6.36135042E-03
   79.5400009       6.10125391E-03