  -18.8999996         0.00000000    
  -18.7849998         1.10390141E-21
  -18.6700001        -4.45086719E-12
  -18.5550003        -1.73592859E-11
  -18.4400005        -3.54554129E-11
  -18.3250008        -4.46182917E-11
  -18.2099991        -2.36714728E-11
  -18.0949993         4.41168352E-11
  -17.9799995         1.56247099E-10
  -17.8649998         2.80647477E-10
  -17.7500000         3.57401692E-10
  -17.6350002         3.16072668E-10
  -17.5200005         1.05349292E-10
  -17.4050007        -2.75014400E-10
  -17.2900009        -7.53585971E-10
  -17.1749992        -1.18985177E-09
  -17.0599995        -1.40474188E-09
  -16.9449997        -1.23340482E-09
  -16.8299999        -5.84792936E-10
  -16.7150002         5.12444698E-10
  -16.6000004         1.89600269E-09
  -16.4850006         3.29660210E-09
  -16.3700008         4.40015535E-09
  -16.2549992         4.92697927E-09
  -16.1399994         4.70209338E-09
  -16.0249996         3.69219477E-09
  -15.9099998         1.99563432E-09
  -15.7950001        -2.11766132E-10
  -15.6800003        -2.75581891E-09
  -15.5649996        -5.53866597E-09
  -15.4499998        -8.58016591E-09
  -15.3350000        -1.20085071E-08
  -15.2200003        -1.60012856E-08
  -15.1049995        -2.06975823E-08
  -14.9899998        -2.61142663E-08
  -14.8750000        -3.21004094E-08
  -14.7600002        -3.83516934E-08
  -14.6450005        -4.44854820E-08
  -14.5299997        -5.01545543E-08
  -14.4150000        -5.51614399E-08
  -14.3000002        -5.95326135E-08
  -14.1850004        -6.35237427E-08
  -14.0699997        -6.75505163E-08
  -13.9549999        -7.20657738E-08
  -13.8400002        -7.74239410E-08
  -13.7250004        -8.37794119E-08
  -13.6099997        -9.10550568E-08
  -13.4949999        -9.89928424E-08
  -13.3800001        -1.07268988E-07
  -13.2650003        -1.15632773E-07
  -13.1499996        -1.24018271E-07
  -13.0349998        -1.32587203E-07
  -12.9200001        -1.41685433E-07
  -12.8050003        -1.51727122E-07
  -12.6899996        -1.63047602E-07
  -12.5749998        -1.75779078E-07
  -12.4600000        -1.89796268E-07
  -12.3450003        -2.04755338E-07
  -12.2299995        -2.20215242E-07
  -12.1149998        -2.35800627E-07
  -12.0000000        -2.51348467E-07
  -11.8850002        -2.66984841E-07
  -11.7700005        -2.83102025E-07
  -11.6549997        -3.00241567E-07
  -11.5400000        -3.18922986E-07
  -11.4250002        -3.39478532E-07
  -11.3100004        -3.61953681E-07
  -11.1949997        -3.86111111E-07
  -11.0799999        -4.11538224E-07
  -10.9650002        -4.37822251E-07
  -10.8500004        -4.64730306E-07
  -10.7349997        -4.92330230E-07
  -10.6199999        -5.21006655E-07
  -10.5050001        -5.51364451E-07
  -10.3900003        -5.84052259E-07
  -10.2749996        -6.19567629E-07
  -10.1599998        -6.58113152E-07
  -10.0450001        -6.99555699E-07
  -9.93000031        -7.43504927E-07
  -9.81499958        -7.89483693E-07
  -9.69999981        -8.37130926E-07
  -9.58500004        -8.86363239E-07
  -9.47000027        -9.37438244E-07
  -9.35499954        -9.90894250E-07
  -9.23999977        -1.04738888E-06
  -9.12500000        -1.10749272E-06
  -9.01000023        -1.17151387E-06
  -8.89500046        -1.23941675E-06
  -8.77999973        -1.31086881E-06
  -8.66499996        -1.38539781E-06
  -8.55000019        -1.46260675E-06
  -8.43500042        -1.54237046E-06
  -8.31999969        -1.62494086E-06
  -8.20499992        -1.71092256E-06
  -8.09000015        -1.80112420E-06
  -7.97499990        -1.89633568E-06
  -7.86000013        -1.99711053E-06
  -7.74499989        -2.10362577E-06
  -7.63000011        -2.21567461E-06
  -7.51499987        -2.33278865E-06
  -7.40000010        -2.45445335E-06
  -7.28499985        -2.58033674E-06
  -7.17000008        -2.71045337E-06
  -7.05499983        -2.84520593E-06
  -6.94000006        -2.98529108E-06
  -6.82499981        -3.13150213E-06
  -6.71000004        -3.28450437E-06
  -6.59499979        -3.44465820E-06
  -6.48000002        -3.61195816E-06
  -6.36499977        -3.78610457E-06
  -6.25000000        -3.96668702E-06
  -6.13500023        -4.15340764E-06
  -6.01999998        -4.34626736E-06
  -5.90500021        -4.54564179E-06
  -5.78999996        -4.75222578E-06
  -5.67500019        -4.96685470E-06
  -5.55999994        -5.19027526E-06
  -5.44500017        -5.42293901E-06
  -5.32999992        -5.66489734E-06
  -5.21500015        -5.91583284E-06
  -5.09999990        -6.17522028E-06
  -4.98500013        -6.44256079E-06
  -4.86999989        -6.71760699E-06
  -4.75500011        -7.00050350E-06
  -4.63999987        -7.29179101E-06
  -4.52500010        -7.59228442E-06
  -4.40999985        -7.90285321E-06
  -4.29500008        -8.22419588E-06
  -4.17999983        -8.55667622E-06
  -4.06500006        -8.90028332E-06
  -3.95000005        -9.25471613E-06
  -3.83500004        -9.61957358E-06
  -3.72000003        -9.99455460E-06
  -3.60500002        -1.03796201E-05
  -3.49000001        -1.07750420E-05
  -3.37500000        -1.11813279E-05
  -3.25999999        -1.15990479E-05
  -3.14499998        -1.20286322E-05
  -3.02999997        -1.24702101E-05
  -2.91499996        -1.29235477E-05
  -2.79999995        -1.33881222E-05
  -2.68499994        -1.38632913E-05
  -2.56999993        -1.43485140E-05
  -2.45499992        -1.48435420E-05
  -2.33999991        -1.53485180E-05
  -2.22499990        -1.58639305E-05
  -2.10999990        -1.63904933E-05
  -1.99500000        -1.69289124E-05
  -1.88000000        -1.74797042E-05
  -1.76499999        -1.80430525E-05
  -1.64999998        -1.86188099E-05
  -1.53499997        -1.92065854E-05
  -1.41999996        -1.98059261E-05
  -1.30499995        -2.04164953E-05
  -1.19000006        -2.10381877E-05
  -1.07500005        -2.16711560E-05
 -0.959999979        -2.23157276E-05
 -0.845000029        -2.29722464E-05
 -0.730000019        -2.36409051E-05
 -0.615000010        -2.43216309E-05
 -0.500000000        -2.50140529E-05
 -0.384999990        -2.57175907E-05
 -0.270000011        -2.64316077E-05
 -0.155000001        -2.71555818E-05
  -3.99999991E-02    -2.78892567E-05
   7.50000030E-02    -2.86326795E-05
  0.189999998        -2.93861485E-05
  0.305000007        -3.01500677E-05
  0.419999987        -3.09247844E-05
  0.535000026        -3.17104204E-05
  0.649999976        -3.25068104E-05
  0.764999986        -3.33135249E-05
  0.879999995        -3.41299710E-05
  0.995000005        -3.49555594E-05
   1.11000001        -3.57898389E-05
   1.22500002        -3.66325949E-05
   1.34000003        -3.74838492E-05
   1.45500004        -3.83437618E-05
   1.57000005        -3.92125112E-05
   1.68499994        -4.00901445E-05
   1.79999995        -4.09765016E-05
   1.91499996        -4.18711898E-05
   2.02999997        -4.27736595E-05
   2.14499998        -4.36832961E-05
   2.25999999        -4.45995647E-05
   2.37500000        -4.55220870E-05
   2.49000001        -4.64506666E-05
   2.60500002        -4.73852378E-05
   2.72000003        -4.83257354E-05
   2.83500004        -4.92720283E-05
   2.95000005        -5.02237672E-05
   3.06500006        -5.11803737E-05
   3.18000007        -5.21411312E-05
   3.29500008        -5.31052356E-05
   3.41000009        -5.40719375E-05
   3.52500010        -5.50406839E-05
   3.64000010        -5.60111403E-05
   3.75500011        -5.69831827E-05
   3.86999989        -5.79568696E-05
   3.98499990        -5.89323390E-05
   4.09999990        -5.99097075E-05
   4.21500015        -6.08890114E-05
   4.32999992        -6.18702179E-05
   4.44500017        -6.28532362E-05
   4.55999994        -6.38380079E-05
   4.67500019        -6.48245623E-05
   4.78999996        -6.58131103E-05
   4.90500021        -6.68039647E-05
   5.01999998        -6.77976204E-05
   5.13500023        -6.87946012E-05
   5.25000000        -6.97954238E-05
   5.36499977        -7.08005682E-05
   5.48000002        -7.18104347E-05
   5.59499979        -7.28252926E-05
   5.71000004        -7.38454182E-05
   5.82499981        -7.48710518E-05
   5.94000006        -7.59024333E-05
   6.05499983        -7.69397666E-05
   6.17000008        -7.79832117E-05
   6.28499985        -7.90328995E-05
   6.40000010        -8.00887719E-05
   6.51499987        -8.11506179E-05
   6.63000011        -8.22180155E-05
   6.74499989        -8.32903097E-05
   6.86000013        -8.43666494E-05
   6.97499990        -8.54460159E-05
   7.09000015        -8.65272668E-05
   7.20499992        -8.76092236E-05
   7.32000017        -8.86906710E-05
   7.43499994        -8.97704886E-05
   7.55000019        -9.08476650E-05
   7.66499996        -9.19213198E-05
   7.78000021        -9.29907037E-05
   7.89499998        -9.40552709E-05
   8.01000023        -9.51145921E-05
   8.12500000        -9.61683909E-05
   8.23999977        -9.72164562E-05
   8.35499954        -9.82585843E-05
   8.47000027        -9.92946661E-05
   8.58500004        -1.00324600E-04
   8.69999981        -1.01348407E-04
   8.81499958        -1.02366117E-04
   8.93000031        -1.03377846E-04
   9.04500008        -1.04383762E-04
   9.15999985        -1.05384017E-04
   9.27499962        -1.06378837E-04
   9.39000034        -1.07368403E-04
   9.50500011        -1.08352782E-04
   9.61999989        -1.09332104E-04
   9.73499966        -1.10306464E-04
   9.85000038        -1.11276029E-04
   9.96500015        -1.12241112E-04
   10.0799999        -1.13202128E-04
   10.1949997        -1.14159695E-04
   10.3100004        -1.15114497E-04
   10.4250002        -1.16067233E-04
   10.5400000        -1.17018441E-04
   10.6549997        -1.17968339E-04
   10.7700005        -1.18916847E-04
   10.8850002        -1.19863544E-04
   11.0000000        -1.20807650E-04
   11.1149998        -1.21748162E-04
   11.2299995        -1.22683865E-04
   11.3450003        -1.23613558E-04
   11.4600000        -1.24535843E-04
   11.5749998        -1.25449500E-04
   11.6899996        -1.26353058E-04
   11.8050003        -1.27245003E-04
   11.9200001        -1.28123706E-04
   12.0349998        -1.28987391E-04
   12.1499996        -1.29834400E-04
   12.2650003        -1.30663189E-04
   12.3800001        -1.31472494E-04
   12.4949999        -1.32261383E-04
   12.6099997        -1.33029374E-04
   12.7250004        -1.33776310E-04
   12.8400002        -1.34502217E-04
   12.9549999        -1.35207098E-04
   13.0699997        -1.35890892E-04
   13.1850004        -1.36553499E-04
   13.3000002        -1.37194656E-04
   13.4150000        -1.37814146E-04
   13.5299997        -1.38411750E-04
   13.6450005        -1.38987598E-04
   13.7600002        -1.39542055E-04
   13.8750000        -1.40075703E-04
   13.9899998        -1.40589327E-04
   14.1049995        -1.41083801E-04
   14.2200003        -1.41559794E-04
   14.3350000        -1.42017874E-04
   14.4499998        -1.42458419E-04
   14.5649996        -1.42881632E-04
   14.6800003        -1.43287602E-04
   14.7950001        -1.43676647E-04
   14.9099998        -1.44048943E-04
   15.0249996        -1.44404927E-04
   15.1400003        -1.44744932E-04
   15.2550001        -1.45069178E-04
   15.3699999        -1.45377489E-04
   15.4849997        -1.45669313E-04
   15.6000004        -1.45943719E-04
   15.7150002        -1.46199338E-04
   15.8299999        -1.46434730E-04
   15.9449997        -1.46648512E-04
   16.0599995        -1.46839477E-04
   16.1749992        -1.47006867E-04
   16.2900009        -1.47150145E-04
   16.4050007        -1.47268889E-04
   16.5200005        -1.47362865E-04
   16.6350002        -1.47431478E-04
   16.7500000        -1.47474027E-04
   16.8649998        -1.47489758E-04
   16.9799995        -1.47477651E-04
   17.0949993        -1.47437037E-04
   17.2099991        -1.47367100E-04
   17.3250008        -1.47267579E-04
   17.4400005        -1.47138562E-04
   17.5550003        -1.46980005E-04
   17.6700001        -1.46792023E-04
   17.7849998        -1.46574486E-04
   17.8999996        -1.46327075E-04
   18.0149994        -1.46048988E-04
   18.1299992        -1.45739323E-04
   18.2450008        -1.45396916E-04
   18.3600006        -1.45021011E-04
   18.4750004        -1.44610953E-04
   18.5900002        -1.44166566E-04
   18.7049999        -1.43687837E-04
   18.8199997        -1.43174693E-04
   18.9349995        -1.42626901E-04
   19.0499992        -1.42043777E-04
   19.1650009        -1.41424331E-04
   19.2800007        -1.40767312E-04
   19.3950005        -1.40071206E-04
   19.5100002        -1.39334574E-04
   19.6250000        -1.38556177E-04
   19.7399998        -1.37735013E-04
   19.8549995        -1.36870542E-04
   19.9699993        -1.35962211E-04
   20.0849991        -1.35009439E-04
   20.2000008        -1.34011862E-04
   20.3150005        -1.32968577E-04
   20.4300003        -1.31878565E-04
   20.5450001        -1.30740431E-04
   20.6599998        -1.29553024E-04
   20.7749996        -1.28315354E-04
   20.8899994        -1.27026666E-04
   21.0049992        -1.25686347E-04
   21.1200008        -1.24293962E-04
   21.2350006        -1.22848898E-04
   21.3500004        -1.21350553E-04
   21.4650002        -1.19797718E-04
   21.5799999        -1.18189084E-04
   21.6949997        -1.16523064E-04
   21.8099995        -1.14798138E-04
   21.9249992        -1.13012917E-04
   22.0400009        -1.11166242E-04
   22.1550007        -1.09257620E-04
   22.2700005        -1.07287073E-04
   22.3850002        -1.05254876E-04
   22.5000000        -1.03161423E-04
   22.6149998        -1.01007274E-04
   22.7299995        -9.87932581E-05
   22.8449993        -9.65198124E-05
   22.9599991        -9.41873368E-05
   23.0750008        -9.17965153E-05
   23.1900005        -8.93483157E-05
   23.3050003        -8.68443458E-05
   23.4200001        -8.42861700E-05
   23.5349998        -8.16759057E-05
   23.6499996        -7.90155682E-05
   23.7649994        -7.63072312E-05
   23.8799992        -7.35530411E-05
   23.9950008        -7.07555591E-05
   24.1100006        -6.79171717E-05
   24.2250004        -6.50408547E-05
   24.3400002        -6.21304280E-05
   24.4549999        -5.91900534E-05
   24.5699997        -5.62251189E-05
   24.6849995        -5.32415797E-05
   24.7999992        -5.02460316E-05
   24.9150009        -4.72454412E-05
   25.0300007        -4.42471319E-05
   25.1450005        -4.12587215E-05
   25.2600002        -3.82876678E-05
   25.3750000        -3.53424075E-05
   25.4899998        -3.24314024E-05
   25.6049995        -2.95633963E-05
   25.7199993        -2.67476898E-05
   25.8349991        -2.39935744E-05
   25.9500008        -2.13111016E-05
   26.0650005        -1.87097048E-05
   26.1800003        -1.61997868E-05
   26.2950001        -1.37912384E-05
   26.4099998        -1.14945333E-05
   26.5249996        -9.32059902E-06
   26.6399994        -7.28043869E-06
   26.7549992        -5.38562426E-06
   26.8700008        -3.64799303E-06
   26.9850006        -2.08010101E-06
   27.1000004        -6.94459629E-07
   27.2150002         4.96146470E-07
   27.3299999         1.47888670E-06
   27.4449997         2.24066321E-06
   27.5599995         2.76863216E-06
   27.6749992         3.04970013E-06
   27.7900009         3.07085861E-06
   27.9050007         2.81846246E-06
   28.0200005         2.27898158E-06
   28.1350002         1.43881482E-06
   28.2500000         2.84379780E-07
   28.3649998        -1.19833715E-06
   28.4799995        -3.02337753E-06
   28.5949993        -5.20433287E-06
   28.7099991        -7.75605531E-06
   28.8250008        -1.06928119E-05
   28.9400005        -1.40294251E-05
   29.0550003        -1.77802685E-05
   29.1700001        -2.19598733E-05
   29.2849998        -2.65826839E-05
   29.3999996        -3.16623227E-05
   29.5149994        -3.72118557E-05
   29.6299992        -4.32444322E-05
   29.7450008        -4.97715810E-05
   29.8600006        -5.68046198E-05
   29.9750004        -6.43542298E-05
   30.0900002        -7.24293786E-05
   30.2049999        -8.10391357E-05
   30.3199997        -9.01911626E-05
   30.4349995        -9.98922260E-05
   30.5499992        -1.10147892E-04
   30.6650009        -1.20962766E-04
   30.7800007        -1.32340720E-04
   30.8950005        -1.44284932E-04
   31.0100002        -1.56797309E-04
   31.1250000        -1.69878665E-04
   31.2399998        -1.83529381E-04
   31.3549995        -1.97749032E-04
   31.4699993        -2.12535408E-04
   31.5849991        -2.27886194E-04
   31.7000008        -2.43798044E-04
   31.8150005        -2.60266766E-04
   31.9300003        -2.77286337E-04
   32.0449982        -2.94851314E-04
   32.1599998        -3.12954391E-04
   32.2750015        -3.31587769E-04
   32.3899994        -3.50743037E-04
   32.5050011        -3.70411231E-04
   32.6199989        -3.90582311E-04
   32.7350006        -4.11246321E-04
   32.8499985        -4.32391505E-04
   32.9650002        -4.54006105E-04
   33.0800018        -4.76077868E-04
   33.1949997        -4.98592621E-04
   33.3100014        -5.21536916E-04
   33.4249992        -5.44895360E-04
   33.5400009        -5.68652700E-04
   33.6549988        -5.92792057E-04
   33.7700005        -6.17296610E-04
   33.8849983        -6.42147905E-04
   34.0000000        -6.67327666E-04
   34.1150017        -6.92816044E-04
   34.2299995        -7.18593365E-04
   34.3450012        -7.44638557E-04
   34.4599991        -7.70931190E-04
   34.5750008        -7.97449902E-04
   34.6899986        -8.24173738E-04
   34.8050003        -8.51082092E-04
   34.9199982        -8.78153602E-04
   35.0349998        -9.05367604E-04
   35.1500015        -9.32702329E-04
   35.2649994        -9.60138044E-04
   35.3800011        -9.87654319E-04
   35.4949989        -1.01523008E-03
   35.6100006        -1.04284508E-03
   35.7249985        -1.07047858E-03
   35.8400002        -1.09811150E-03
   35.9550018        -1.12572499E-03
   36.0699997        -1.15330028E-03
   36.1850014        -1.18082040E-03
   36.2999992        -1.20826904E-03
   36.4150009        -1.23563036E-03
   36.5299988        -1.26289017E-03
   36.6450005        -1.29003590E-03
   36.7599983        -1.31705636E-03
   36.8750000        -1.34394143E-03
   36.9900017        -1.37068378E-03
   37.1049995        -1.39727711E-03
   37.2200012        -1.42371736E-03
   37.3349991        -1.45000301E-03
   37.4500008        -1.47613313E-03
   37.5649986        -1.50210841E-03
   37.6800003        -1.52793084E-03
   37.7949982        -1.55360438E-03
   37.9099998        -1.57913286E-03
   38.0250015        -1.60452258E-03
   38.1399994        -1.62977912E-03
   38.2550011        -1.65490992E-03
   38.3699989        -1.67992234E-03
   38.4850006        -1.70482509E-03
   38.5999985        -1.72962761E-03
   38.7150002        -1.75434083E-03
   38.8300018        -1.77897664E-03
   38.9449997        -1.80354761E-03
   39.0600014        -1.82806677E-03
   39.1749992        -1.85254810E-03
   39.2900009        -1.87700626E-03
   39.4049988        -1.90145534E-03
   39.5200005        -1.92591106E-03
   39.6349983        -1.95038936E-03
   39.7500000        -1.97490794E-03
   39.8650017        -1.99948438E-03
   39.9799995        -2.02413765E-03
   40.0950012        -2.04888429E-03
   40.2099991        -2.07374152E-03
   40.3250008        -2.09872588E-03
   40.4399986        -2.12385412E-03
   40.5550003        -2.14914070E-03
   40.6699982        -2.17460073E-03
   40.7849998        -2.20024865E-03
   40.9000015        -2.22609844E-03
   41.0149994        -2.25216383E-03
   41.1300011        -2.27845693E-03
   41.2449989        -2.30498682E-03
   41.3600006        -2.33176420E-03
   41.4749985        -2.35879514E-03
   41.5900002        -2.38608359E-03
   41.7050018        -2.41363281E-03
   41.8199997        -2.44144164E-03
   41.9350014        -2.46950681E-03
   42.0499992        -2.49782158E-03
   42.1650009        -2.52637640E-03
   42.2799988        -2.55515869E-03
   42.3950005        -2.58415169E-03
   42.5099983        -2.61333399E-03
   42.6250000        -2.64268019E-03
   42.7400017        -2.67216004E-03
   42.8549995        -2.70173978E-03
   42.9700012        -2.73137982E-03
   43.0849991        -2.76103732E-03
   43.2000008        -2.79066502E-03
   43.3149986        -2.82021007E-03
   43.4300003        -2.84961541E-03
   43.5449982        -2.87882006E-03
   43.6599998        -2.90775695E-03
   43.7750015        -2.93635484E-03
   43.8899994        -2.96453596E-03
   44.0050011        -2.99221929E-03
   44.1199989        -3.01931775E-03
   44.2350006        -3.04573914E-03
   44.3499985        -3.07138497E-03
   44.4650002        -3.09615280E-03
   44.5800018        -3.11993319E-03
   44.6949997        -3.14261531E-03
   44.8100014        -3.16408230E-03
   44.9249992        -3.18421447E-03
   45.0400009        -3.20288585E-03
   45.1549988        -3.21996864E-03
   45.2700005        -3.23532964E-03
   45.3849983        -3.24883265E-03
   45.5000000        -3.26033891E-03
   45.6150017        -3.26970546E-03
   45.7299995        -3.27679096E-03
   45.8450012        -3.28145013E-03
   45.9599991        -3.28353909E-03
   46.0750008        -3.28290812E-03
   46.1899986        -3.27941193E-03
   46.3050003        -3.27289966E-03
   46.4199982        -3.26322042E-03
   46.5349998        -3.25022521E-03
   46.6500015        -3.23376502E-03
   46.7649994        -3.21369222E-03
   46.8800011        -3.18986224E-03
   46.9949989        -3.16213188E-03
   47.1100006        -3.13036144E-03
   47.2249985        -3.09441565E-03
   47.3400002        -3.05416225E-03
   47.4550018        -3.00947297E-03
   47.5699997        -2.96022161E-03
   47.6850014        -2.90628755E-03
   47.7999992        -2.84755602E-03
   47.9150009        -2.78391852E-03
   48.0299988        -2.71527492E-03
   48.1450005        -2.64153141E-03
   48.2599983        -2.56260135E-03
   48.3750000        -2.47840560E-03
   48.4900017        -2.38887314E-03
   48.6049995        -2.29394203E-03
   48.7200012        -2.19355943E-03
   48.8349991        -2.08768202E-03
   48.9500008        -1.97627628E-03
   49.0649986        -1.85931858E-03
   49.1800003        -1.73679960E-03
   49.2949982        -1.60872168E-03
   49.4099998        -1.47509261E-03
   49.5250015        -1.33593928E-03
   49.6399994        -1.19129557E-03
   49.7550011        -1.04120804E-03
   49.8699989        -8.85735499E-04
   49.9850006        -7.24945450E-04
   50.0999985        -5.58915664E-04
   50.2150002        -3.87735345E-04
   50.3300018        -2.11503109E-04
   50.4449997        -3.03277175E-05
   50.5600014         1.55669899E-04
   50.6749992         3.46363318E-04
   50.7900009         5.41611575E-04
   50.9049988         7.41271768E-04
   51.0200005         9.45192529E-04
   51.1349983         1.15321716E-03
   51.2500000         1.36518036E-03
   51.3650017         1.58091076E-03
   51.4799995         1.80022698E-03
   51.5950012         2.02294416E-03
   51.7099991         2.24886951E-03
   51.8250008         2.47780792E-03
   51.9399986         2.70955707E-03
   52.0550003         2.94391834E-03
   52.1699982         3.18068545E-03
   52.2849998         3.41965584E-03
   52.4000015         3.66062718E-03
   52.5149994         3.90339317E-03
   52.6300011         4.14775172E-03
   52.7449989         4.39350121E-03
   52.8600006         4.64043627E-03
   52.9749985         4.88835899E-03
   53.0900002         5.13707753E-03
   53.2050018         5.38640423E-03
   53.3199997         5.63615933E-03
   53.4350014         5.88616682E-03
   53.5499992         6.13626372E-03
   53.6650009         6.38628937E-03
   53.7799988         6.63609756E-03
   53.8950005         6.88554160E-03
   54.0099983         7.13448878E-03
   54.1250000         7.38281151E-03
   54.2400017         7.63039570E-03
   54.3549995         7.87714124E-03
   54.4700012         8.12295731E-03
   54.5849991         8.36776756E-03
   54.7000008         8.61151237E-03
   54.8149986         8.85413960E-03
   54.9300003         9.09561571E-03
   55.0449982         9.33591183E-03
   55.1599998         9.57501307E-03
   55.2750015         9.81291849E-03
   55.3899994         1.00496393E-02
   55.5050011         1.02851996E-02
   55.6199989         1.05196405E-02
   55.7350006         1.07530151E-02
   55.8499985         1.09853931E-02
   55.9650002         1.12168565E-02
   56.0800018         1.14474967E-02
   56.1949997         1.16774188E-02
   56.3100014         1.19067384E-02
   56.4249992         1.21355793E-02
   56.5400009         1.23640765E-02
   56.6549988         1.25923771E-02
   56.7700005         1.28206378E-02
   56.8849983         1.30490297E-02
   57.0000000         1.32777290E-02
   57.1150017         1.35069285E-02
   57.2299995         1.37368143E-02
   57.3450012         1.39675904E-02
   57.4599991         1.41994525E-02
   57.5750008         1.44326063E-02
   57.6899986         1.46672623E-02
   57.8050003         1.49036264E-02
   57.9199982         1.51419165E-02
   58.0349998         1.53823448E-02
   58.1500015         1.56251322E-02
   58.2649994         1.58704910E-02
   58.3800011         1.61186289E-02
   58.4949989         1.63697563E-02
   58.6100006         1.66240744E-02
   58.7249985         1.68817807E-02
   58.8400002         1.71430670E-02
   58.9550018         1.74081177E-02
   59.0699997         1.76771171E-02
   59.1850014         1.79502387E-02
   59.2999992         1.82276480E-02
   59.4150009         1.85094979E-02
   59.5299988         1.87959336E-02
   59.6450005         1.90870836E-02
   59.7599983         1.93830729E-02
   59.8750000         1.96840093E-02
   59.9900017         1.99899916E-02
   60.1049995         2.03011110E-02
   60.2200012         2.06174329E-02
   60.3349991         2.09390167E-02
   60.4500008         2.12659091E-02
   60.5649986         2.15981379E-02
   60.6800003         2.19357219E-02
   60.7949982         2.22786572E-02
   60.9099998         2.26269308E-02
   61.0250015         2.29805112E-02
   61.1399994         2.33393535E-02
   61.2550011         2.37033926E-02
   61.3699989         2.40725521E-02
   61.4850006         2.44467389E-02
   61.5999985         2.48258431E-02
   61.7150002         2.52097454E-02
   61.8300018         2.55982969E-02
   61.9449997         2.59913430E-02
   62.0600014         2.63887160E-02
   62.1749992         2.67902240E-02
   62.2900009         2.71956697E-02
   62.4049988         2.76048407E-02
   62.5200005         2.80175079E-02
   62.6349983         2.84334328E-02
   62.7500000         2.88523640E-02
   62.8650017         2.92740408E-02
   62.9799995         2.96981912E-02
   63.0950012         3.01245395E-02
   63.2099991         3.05527877E-02
   63.3250008         3.09826378E-02
   63.4399986         3.14137749E-02
   63.5550003         3.18458863E-02
   63.6699982         3.22786532E-02
   63.7849998         3.27117331E-02
   63.9000015         3.31448093E-02
   64.0149994         3.35775316E-02
   64.1299973         3.40095609E-02
   64.2450027         3.44405398E-02
   64.3600006         3.48701142E-02
   64.4749985         3.52979153E-02
   64.5899963         3.57235856E-02
   64.7050018         3.61467637E-02
   64.8199997         3.65670957E-02
   64.9349976         3.69842239E-02
   65.0500031         3.73977870E-02
   65.1650009         3.78074422E-02
   65.2799988         3.82128246E-02
   65.3949966         3.86135913E-02
   65.5100021         3.90093960E-02
   65.6250000         3.93998958E-02
   65.7399979         3.97847630E-02
   65.8550034         4.01636697E-02
   65.9700012         4.05363068E-02
   66.0849991         4.09023650E-02
   66.1999969         4.12615500E-02
   66.3150024         4.16135676E-02
   66.4300003         4.19581383E-02
   66.5449982         4.22949865E-02
   66.6600037         4.26238403E-02
   66.7750015         4.29444499E-02
   66.8899994         4.32565697E-02
   67.0049973         4.35599722E-02
   67.1200027         4.38544340E-02
   67.2350006         4.41397652E-02
   67.3499985         4.44157757E-02
   67.4649963         4.46822792E-02
   67.5800018         4.49391045E-02
   67.6949997         4.51860875E-02
   67.8099976         4.54230718E-02
   67.9250031         4.56499271E-02
   68.0400009         4.58665155E-02
   68.1549988         4.60727327E-02
   68.2699966         4.62684892E-02
   68.3850021         4.64537032E-02
   68.5000000         4.66283038E-02
   68.6149979         4.67922315E-02
   68.7300034         4.69454229E-02
   68.8450012         4.70878258E-02
   68.9599991         4.72194068E-02
   69.0749969         4.73401323E-02
   69.1900024         4.74499911E-02
   69.3050003         4.75489907E-02
   69.4199982         4.76371348E-02
   69.5350037         4.77144495E-02
   69.6500015         4.77809608E-02
   69.7649994         4.78367135E-02
   69.8799973         4.78817374E-02
   69.9950027         4.79160771E-02
   70.1100006         4.79397699E-02
   70.2249985         4.79528755E-02
   70.3399963         4.79554646E-02
   70.4550018         4.79476117E-02
   70.5699997         4.79293987E-02
   70.6849976         4.79009226E-02
   70.8000031         4.78622690E-02
   70.9150009         4.78135347E-02
   71.0299988         4.77548204E-02
   71.1449966         4.76862192E-02
   71.2600021         4.76078317E-02
   71.3750000         4.75197658E-02
   71.4899979         4.74221371E-02
   71.6050034         4.73150685E-02
   71.7200012         4.71986867E-02
   71.8349991         4.70731184E-02
   71.9499969         4.69385087E-02
   72.0650024         4.67949770E-02
   72.1800003         4.66426648E-02
   72.2949982         4.64816988E-02
   72.4100037         4.63122167E-02
   72.5250015         4.61343564E-02
   72.6399994         4.59482521E-02
   72.7549973         4.57540676E-02
   72.8700027         4.55519482E-02
   72.9850006         4.53420542E-02
   73.0999985         4.51245457E-02
   73.2149963         4.48995754E-02
   73.3300018         4.46673110E-02
   73.4449997         4.44279090E-02
   73.5599976         4.41815257E-02
   73.6750031         4.39283326E-02
   73.7900009         4.36685011E-02
   73.9049988         4.34022024E-02
   74.0199966         4.31296267E-02
   74.1350021         4.28509600E-02