  -18.8999996      -0.00000000    
  -18.7849998       9.12373450E-22
  -18.6700001       4.26542785E-12
  -18.5550003       1.99722912E-11
  -18.4400005       5.44405042E-11
  -18.3250008       1.11572675E-10
  -18.2099991       1.88367238E-10
  -18.0949993       2.72467493E-10
  -17.9799995       3.41603801E-10
  -17.8649998       3.65483643E-10
  -17.7500000       3.10222042E-10
  -17.6350002       1.44865328E-10
  -17.5200005      -1.50943369E-10
  -17.4050007      -5.79467863E-10
  -17.2900009      -1.11898857E-09
  -17.1749992      -1.72081027E-09
  -17.0599995      -2.31008035E-09
  -16.9449997      -2.79078449E-09
  -16.8299999      -3.05470316E-09
  -16.7150002      -2.99357827E-09
  -16.6000004      -2.51334398E-09
  -16.4850006      -1.54902990E-09
  -16.3700008      -7.88423771E-11
  -16.2549992       1.86408711E-09
  -16.1399994       4.18374402E-09
  -16.0249996       6.71842360E-09
  -15.9099998       9.24422405E-09
  -15.7950001       1.14856187E-08
  -15.6800003       1.31333175E-08
  -15.5649996       1.38687897E-08
  -15.4499998       1.33938469E-08
  -15.3350000       1.14626468E-08
  -15.2200003       7.91271848E-09
  -15.1049995       2.69107137E-09
  -14.9899998      -4.12826173E-09
  -14.8750000      -1.23382398E-08
  -14.7600002      -2.16060005E-08
  -14.6450005      -3.14931583E-08
  -14.5299997      -4.14874286E-08
  -14.4150000      -5.10423810E-08
  -14.3000002      -5.96210015E-08
  -14.1850004      -6.67386075E-08
  -14.0699997      -7.20006952E-08
  -13.9549999      -7.51321991E-08
  -13.8400002      -7.59956009E-08
  -13.7250004      -7.45963007E-08
  -13.6099997      -7.10749219E-08
  -13.4949999      -6.56871819E-08
  -13.3800001      -5.87726454E-08
  -13.2650003      -5.07150268E-08
  -13.1499996      -4.18972803E-08
  -13.0349998      -3.26558478E-08
  -12.9200001      -2.32389237E-08
  -12.8050003      -1.37738905E-08
  -12.6899996      -4.24866942E-09
  -12.5749998       5.48977752E-09
  -12.4600000       1.57183315E-08
  -12.3450003       2.68029741E-08
  -12.2299995       3.91500556E-08
  -12.1149998       5.31493534E-08
  -12.0000000       6.91159130E-08
  -11.8850002       8.72380213E-08
  -11.7700005       1.07538135E-07
  -11.6549997       1.29851472E-07
  -11.5400000       1.53825368E-07
  -11.4250002       1.78939189E-07
  -11.3100004       2.04543781E-07
  -11.1949997       2.29915955E-07
  -11.0799999       2.54323936E-07
  -10.9650002       2.77097143E-07
  -10.8500004       2.97694498E-07
  -10.7349997       3.15764964E-07
  -10.6199999       3.31192808E-07
  -10.5050001       3.44124317E-07
  -10.3900003       3.54969586E-07
  -10.2749996       3.64378820E-07
  -10.1599998       3.73192648E-07
  -10.0450001       3.82371866E-07
  -9.93000031       3.92911090E-07
  -9.81499958       4.05747727E-07
  -9.69999981       4.21674685E-07
  -9.58500004       4.41268412E-07
  -9.47000027       4.64840895E-07
  -9.35499954       4.92420440E-07
  -9.23999977       5.23765095E-07
  -9.12500000       5.58405304E-07
  -9.01000023       5.95710844E-07
  -8.89500046       6.34975663E-07
  -8.77999973       6.75508488E-07
  -8.66499996       7.16721956E-07
  -8.55000019       7.58209865E-07
  -8.43500042       7.99804525E-07
  -8.31999969       8.41610756E-07
  -8.20499992       8.84008728E-07
  -8.09000015       9.27629515E-07
  -7.97499990       9.73303486E-07
  -7.86000013       1.02198294E-06
  -7.74499989       1.07465257E-06
  -7.63000011       1.13222882E-06
  -7.51499987       1.19546928E-06
  -7.40000010       1.26489374E-06
  -7.28499985       1.34073366E-06
  -7.17000008       1.42291378E-06
  -7.05499983       1.51106917E-06
  -6.94000006       1.60459990E-06
  -6.82499981       1.70275177E-06
  -6.71000004       1.80471875E-06
  -6.59499979       1.90975038E-06
  -6.48000002       2.01724970E-06
  -6.36499977       2.12686064E-06
  -6.25000000       2.23852271E-06
  -6.13500023       2.35248967E-06
  -6.01999998       2.46931700E-06
  -5.90500021       2.58981731E-06
  -5.78999996       2.71498016E-06
  -5.67500019       2.84588418E-06
  -5.55999994       2.98358555E-06
  -5.44500017       3.12901443E-06
  -5.32999992       3.28288093E-06
  -5.21500015       3.44560158E-06
  -5.09999990       3.61725529E-06
  -4.98500013       3.79757080E-06
  -4.86999989       3.98596148E-06
  -4.75500011       4.18157924E-06
  -4.63999987       4.38341431E-06
  -4.52500010       4.59040029E-06
  -4.40999985       4.80152767E-06
  -4.29500008       5.01595696E-06
  -4.17999983       5.23309927E-06
  -4.06500006       5.45267494E-06
  -3.95000005       5.67471943E-06
  -3.83500004       5.89957381E-06
  -3.72000003       6.12780968E-06
  -3.60500002       6.36015511E-06
  -3.49000001       6.59736816E-06
  -3.37500000       6.84014867E-06
  -3.25999999       7.08901325E-06
  -3.14499998       7.34421928E-06
  -3.02999997       7.60570038E-06
  -2.91499996       7.87303725E-06
  -2.79999995       8.14545820E-06
  -2.68499994       8.42189093E-06
  -2.56999993       8.70101576E-06
  -2.45499992       8.98135750E-06
  -2.33999991       9.26140092E-06
  -2.22499990       9.53966719E-06
  -2.10999990       9.81481935E-06
  -1.99500000       1.00857269E-05
  -1.88000000       1.03514913E-05
  -1.76499999       1.06114649E-05
  -1.64999998       1.08651857E-05
  -1.53499997       1.11123318E-05
  -1.41999996       1.13526266E-05
  -1.30499995       1.15857338E-05
  -1.19000006       1.18111311E-05
  -1.07500005       1.20280702E-05
 -0.959999979       1.22354741E-05
 -0.845000029       1.24319376E-05
 -0.730000019       1.26157092E-05
 -0.615000010       1.27847579E-05
 -0.500000000       1.29367882E-05
 -0.384999990       1.30693988E-05
 -0.270000011       1.31801116E-05
 -0.155000001       1.32665136E-05
  -3.99999991E-02   1.33263247E-05
   7.50000030E-02   1.33574295E-05
  0.189999998       1.33579442E-05
  0.305000007       1.33262074E-05
  0.419999987       1.32607256E-05
  0.535000026       1.31601109E-05
  0.649999976       1.30230001E-05
  0.764999986       1.28479369E-05
  0.879999995       1.26332734E-05
  0.995000005       1.23770888E-05
   1.11000001       1.20770592E-05
   1.22500002       1.17305208E-05
   1.34000003       1.13343831E-05
   1.45500004       1.08851937E-05
   1.57000005       1.03792336E-05
   1.68499994       9.81260382E-06
   1.79999995       9.18131809E-06
   1.91499996       8.48142190E-06
   2.02999997       7.70911629E-06
   2.14499998       6.86080602E-06
   2.25999999       5.93311734E-06
   2.37500000       4.92294112E-06
   2.49000001       3.82739836E-06
   2.60500002       2.64371192E-06
   2.72000003       1.36917402E-06
   2.83500004       1.01843578E-09
   2.95000005      -1.46366801E-06
   3.06500006      -3.02805825E-06
   3.18000007      -4.69566021E-06
   3.29500008      -6.47029401E-06
   3.41000009      -8.35615538E-06
   3.52500010      -1.03577486E-05
   3.64000010      -1.24797725E-05
   3.75500011      -1.47270202E-05
   3.86999989      -1.71043175E-05
   3.98499990      -1.96163128E-05
   4.09999990      -2.22673953E-05
   4.21500015      -2.50616213E-05
   4.32999992      -2.80026597E-05
   4.44500017      -3.10937357E-05
   4.55999994      -3.43377760E-05
   4.67500019      -3.77373835E-05
   4.78999996      -4.12950212E-05
   4.90500021      -4.50131156E-05
   5.01999998      -4.88942169E-05
   5.13500023      -5.29410536E-05
   5.25000000      -5.71567180E-05
   5.36499977      -6.15446916E-05
   5.48000002      -6.61087834E-05
   5.59499979      -7.08532025E-05
   5.71000004      -7.57824600E-05
   5.82499981      -8.09011544E-05
   5.94000006      -8.62139641E-05
   6.05499983      -9.17253565E-05
   6.17000008      -9.74395080E-05
   6.28499985      -1.03360246E-04
   6.40000010      -1.09490778E-04
   6.51499987      -1.15833864E-04
   6.63000011      -1.22391662E-04
   6.74499989      -1.29165768E-04
   6.86000013      -1.36157410E-04
   6.97499990      -1.43367593E-04
   7.09000015      -1.50797088E-04
   7.20499992      -1.58446681E-04
   7.32000017      -1.66317346E-04
   7.43499994      -1.74410336E-04
   7.55000019      -1.82727192E-04
   7.66499996      -1.91269719E-04
   7.78000021      -2.00040144E-04
   7.89499998      -2.09040780E-04
   8.01000023      -2.18274174E-04
   8.12500000      -2.27742639E-04
   8.23999977      -2.37448476E-04
   8.35499954      -2.47393647E-04
   8.47000027      -2.57579522E-04
   8.58500004      -2.68007105E-04
   8.69999981      -2.78676685E-04
   8.81499958      -2.89588119E-04
   8.93000031      -3.00740649E-04
   9.04500008      -3.12133227E-04
   9.15999985      -3.23764398E-04
   9.27499962      -3.35632532E-04
   9.39000034      -3.47736117E-04
   9.50500011      -3.60073609E-04
   9.61999989      -3.72643728E-04
   9.73499966      -3.85445426E-04
   9.85000038      -3.98477860E-04
   9.96500015      -4.11740592E-04
   10.0799999      -4.25233186E-04
   10.1949997      -4.38955234E-04
   10.3100004      -4.52906388E-04
   10.4250002      -4.67085891E-04
   10.5400000      -4.81492927E-04
   10.6549997      -4.96125838E-04
   10.7700005      -5.10982762E-04
   10.8850002      -5.26060932E-04
   11.0000000      -5.41357207E-04
   11.1149998      -5.56867919E-04
   11.2299995      -5.72588586E-04
   11.3450003      -5.88514726E-04
   11.4600000      -6.04641507E-04
   11.5749998      -6.20963867E-04
   11.6899996      -6.37476973E-04
   11.8050003      -6.54175994E-04
   11.9200001      -6.71056332E-04
   12.0349998      -6.88113563E-04
   12.1499996      -7.05343613E-04
   12.2650003      -7.22742581E-04
   12.3800001      -7.40306801E-04
   12.4949999      -7.58032431E-04
   12.6099997      -7.75916094E-04
   12.7250004      -7.93953834E-04
   12.8400002      -8.12141632E-04
   12.9549999      -8.30475241E-04
   13.0699997      -8.48949712E-04
   13.1850004      -8.67560331E-04
   13.3000002      -8.86301510E-04
   13.4150000      -9.05167311E-04
   13.5299997      -9.24151565E-04
   13.6450005      -9.43247695E-04
   13.7600002      -9.62449412E-04
   13.8750000      -9.81749967E-04
   13.9899998      -1.00114278E-03
   14.1049995      -1.02062104E-03
   14.2200003      -1.04017858E-03
   14.3350000      -1.05980888E-03
   14.4499998      -1.07950589E-03
   14.5649996      -1.09926332E-03
   14.6800003      -1.11907523E-03
   14.7950001      -1.13893556E-03
   14.9099998      -1.15883839E-03
   15.0249996      -1.17877743E-03
   15.1400003      -1.19874650E-03
   15.2550001      -1.21873908E-03
   15.3699999      -1.23874831E-03
   15.4849997      -1.25876698E-03
   15.6000004      -1.27878773E-03
   15.7150002      -1.29880279E-03
   15.8299999      -1.31880399E-03
   15.9449997      -1.33878307E-03
   16.0599995      -1.35873165E-03
   16.1749992      -1.37864077E-03
   16.2900009      -1.39850192E-03
   16.4050007      -1.41830614E-03
   16.5200005      -1.43804494E-03
   16.6350002      -1.45770982E-03
   16.7500000      -1.47729181E-03
   16.8649998      -1.49678276E-03
   16.9799995      -1.51617429E-03
   17.0949993      -1.53545826E-03
   17.2099991      -1.55462662E-03
   17.3250008      -1.57367159E-03
   17.4400005      -1.59258489E-03
   17.5550003      -1.61135907E-03
   17.6700001      -1.62998575E-03
   17.7849998      -1.64845691E-03
   17.8999996      -1.66676391E-03
   18.0149994      -1.68489839E-03
   18.1299992      -1.70285127E-03
   18.2450008      -1.72061322E-03
   18.3600006      -1.73817459E-03
   18.4750004      -1.75552629E-03
   18.5900002      -1.77265774E-03
   18.7049999      -1.78955914E-03
   18.8199997      -1.80622027E-03
   18.9349995      -1.82263099E-03
   19.0499992      -1.83878152E-03
   19.1650009      -1.85466150E-03
   19.2800007      -1.87026092E-03
   19.3950005      -1.88557035E-03
   19.5100002      -1.90058048E-03
   19.6250000      -1.91528187E-03
   19.7399998      -1.92966545E-03
   19.8549995      -1.94372202E-03
   19.9699993      -1.95744284E-03
   20.0849991      -1.97081850E-03
   20.2000008      -1.98384025E-03
   20.3150005      -1.99649786E-03
   20.4300003      -2.00878223E-03
   20.5450001      -2.02068337E-03
   20.6599998      -2.03219079E-03
   20.7749996      -2.04329379E-03
   20.8899994      -2.05398211E-03
   21.0049992      -2.06424459E-03
   21.1200008      -2.07407051E-03
   21.2350006      -2.08344869E-03
   21.3500004      -2.09236844E-03
   21.4650002      -2.10081902E-03
   21.5799999      -2.10879021E-03
   21.6949997      -2.11627199E-03
   21.8099995      -2.12325389E-03
   21.9249992      -2.12972704E-03
   22.0400009      -2.13568215E-03
   22.1550007      -2.14111013E-03
   22.2700005      -2.14600191E-03
   22.3850002      -2.15034885E-03
   22.5000000      -2.15414260E-03
   22.6149998      -2.15737382E-03
   22.7299995      -2.16003438E-03
   22.8449993      -2.16211448E-03
   22.9599991      -2.16360553E-03
   23.0750008      -2.16449751E-03
   23.1900005      -2.16478156E-03
   23.3050003      -2.16444791E-03
   23.4200001      -2.16348725E-03
   23.5349998      -2.16188957E-03
   23.6499996      -2.15964578E-03
   23.7649994      -2.15674681E-03
   23.8799992      -2.15318357E-03
   23.9950008      -2.14894745E-03
   24.1100006      -2.14403006E-03
   24.2250004      -2.13842373E-03
   24.3400002      -2.13212078E-03
   24.4549999      -2.12511350E-03
   24.5699997      -2.11739540E-03
   24.6849995      -2.10895925E-03
   24.7999992      -2.09979876E-03
   24.9150009      -2.08990742E-03
   25.0300007      -2.07927916E-03
   25.1450005      -2.06790748E-03
   25.2600002      -2.05578585E-03
   25.3750000      -2.04290845E-03
   25.4899998      -2.02926900E-03
   25.6049995      -2.01486144E-03
   25.7199993      -1.99967972E-03
   25.8349991      -1.98371732E-03
   25.9500008      -1.96696934E-03
   26.0650005      -1.94943009E-03
   26.1800003      -1.93109410E-03
   26.2950001      -1.91195635E-03
   26.4099998      -1.89201266E-03
   26.5249996      -1.87125884E-03
   26.6399994      -1.84969127E-03
   26.7549992      -1.82730716E-03
   26.8700008      -1.80410361E-03
   26.9850006      -1.78007886E-03
   27.1000004      -1.75523129E-03
   27.2150002      -1.72955974E-03
   27.3299999      -1.70306396E-03
   27.4449997      -1.67574314E-03
   27.5599995      -1.64759788E-03
   27.6749992      -1.61862816E-03
   27.7900009      -1.58883468E-03
   27.9050007      -1.55821803E-03
   28.0200005      -1.52677915E-03
   28.1350002      -1.49451906E-03
   28.2500000      -1.46143883E-03
   28.3649998      -1.42753962E-03
   28.4799995      -1.39282329E-03
   28.5949993      -1.35729159E-03
   28.7099991      -1.32094673E-03
   28.8250008      -1.28379138E-03
   28.9400005      -1.24582823E-03
   29.0550003      -1.20706134E-03
   29.1700001      -1.16749515E-03
   29.2849998      -1.12713443E-03
   29.3999996      -1.08598499E-03
   29.5149994      -1.04405324E-03
   29.6299992      -1.00134604E-03
   29.7450008      -9.57871496E-04
   29.8600006      -9.13637341E-04
   29.9750004      -8.68652831E-04
   30.0900002      -8.22926755E-04
   30.2049999      -7.76468718E-04
   30.3199997      -7.29288673E-04
   30.4349995      -6.81395875E-04
   30.5499992      -6.32801268E-04
   30.6650009      -5.83514688E-04
   30.7800007      -5.33546670E-04
   30.8950005      -4.82907577E-04
   31.0100002      -4.31608467E-04
   31.1250000      -3.79661127E-04
   31.2399998      -3.27076996E-04
   31.3549995      -2.73869082E-04
   31.4699993      -2.20050541E-04
   31.5849991      -1.65635211E-04
   31.7000008      -1.10637950E-04
   31.8150005      -5.50741934E-05
   31.9300003       1.03978425E-06
   32.0449982       5.76862330E-05
   32.1599998       1.14848001E-04
   32.2750015       1.72505970E-04
   32.3899994       2.30641424E-04
   32.5050011       2.89234536E-04
   32.6199989       3.48266243E-04
   32.7350006       4.07716288E-04
   32.8499985       4.67565143E-04
   32.9650002       5.27792727E-04
   33.0800018       5.88379160E-04
   33.1949997       6.49303722E-04
   33.3100014       7.10545864E-04
   33.4249992       7.72085448E-04
   33.5400009       8.33900354E-04
   33.6549988       8.95968697E-04
   33.7700005       9.58268240E-04
   33.8849983       1.02077541E-03
   34.0000000       1.08346576E-03
   34.1150017       1.14631420E-03
   34.2299995       1.20929442E-03
   34.3450012       1.27238000E-03
   34.4599991       1.33554358E-03
   34.5750008       1.39875570E-03
   34.6899986       1.46198797E-03
   34.8050003       1.52521080E-03
   34.9199982       1.58839452E-03
   35.0349998       1.65150873E-03
   35.1500015       1.71452353E-03
   35.2649994       1.77740830E-03
   35.3800011       1.84013194E-03
   35.4949989       1.90266420E-03
   35.6100006       1.96497445E-03
   35.7249985       2.02703173E-03
   35.8400002       2.08880450E-03
   35.9550018       2.15026108E-03
   36.0699997       2.21136957E-03
   36.1850014       2.27209693E-03
   36.2999992       2.33240961E-03
   36.4150009       2.39227293E-03
   36.5299988       2.45165243E-03
   36.6450005       2.51051062E-03
   36.7599983       2.56881118E-03
   36.8750000       2.62651616E-03
   36.9900017       2.68358667E-03
   37.1049995       2.73998268E-03
   37.2200012       2.79566552E-03
   37.3349991       2.85059470E-03
   37.4500008       2.90472922E-03
   37.5649986       2.95802834E-03
   37.6800003       3.01045249E-03
   37.7949982       3.06195975E-03
   37.9099998       3.11250985E-03
   38.0250015       3.16206296E-03
   38.1399994       3.21057788E-03
   38.2550011       3.25801480E-03
   38.3699989       3.30433063E-03
   38.4850006       3.34948464E-03
   38.5999985       3.39343445E-03
   38.7150002       3.43613839E-03
   38.8300018       3.47755151E-03
   38.9449997       3.51763098E-03
   39.0600014       3.55633092E-03
   39.1749992       3.59360641E-03
   39.2900009       3.62941064E-03
   39.4049988       3.66369658E-03
   39.5200005       3.69641720E-03
   39.6349983       3.72752524E-03
   39.7500000       3.75697319E-03
   39.8650017       3.78471590E-03
   39.9799995       3.81070562E-03
   40.0950012       3.83489649E-03
   40.2099991       3.85724311E-03
   40.3250008       3.87770194E-03
   40.4399986       3.89622757E-03
   40.5550003       3.91277904E-03
   40.6699982       3.92731093E-03
   40.7849998       3.93978460E-03
   40.9000015       3.95015581E-03
   41.0149994       3.95838451E-03
   41.1300011       3.96442832E-03
   41.2449989       3.96824628E-03
   41.3600006       3.96979786E-03
   41.4749985       3.96904163E-03
   41.5900002       3.96593753E-03
   41.7050018       3.96044459E-03
   41.8199997       3.95252462E-03
   41.9350014       3.94213852E-03
   42.0499992       3.92924761E-03
   42.1650009       3.91381700E-03
   42.2799988       3.89581057E-03
   42.3950005       3.87519482E-03
   42.5099983       3.85193806E-03
   42.6250000       3.82601121E-03
   42.7400017       3.79738468E-03
   42.8549995       3.76603170E-03
   42.9700012       3.73192760E-03
   43.0849991       3.69505049E-03
   43.2000008       3.65537708E-03
   43.3149986       3.61288874E-03
   43.4300003       3.56756779E-03
   43.5449982       3.51939769E-03
   43.6599998       3.46836238E-03
   43.7750015       3.41444998E-03
   43.8899994       3.35764792E-03
   44.0050011       3.29794874E-03
   44.1199989       3.23534338E-03
   44.2350006       3.16982646E-03
   44.3499985       3.10139474E-03
   44.4650002       3.03004798E-03
   44.5800018       2.95578875E-03
   44.6949997       2.87861959E-03
   44.8100014       2.79854867E-03
   44.9249992       2.71558599E-03
   45.0400009       2.62974482E-03
   45.1549988       2.54104007E-03
   45.2700005       2.44949223E-03
   45.3849983       2.35512154E-03
   45.5000000       2.25795317E-03
   45.6150017       2.15801247E-03
   45.7299995       2.05533230E-03
   45.8450012       1.94994325E-03
   45.9599991       1.84188073E-03
   46.0750008       1.73118222E-03
   46.1899986       1.61788869E-03
   46.3050003       1.50204380E-03
   46.4199982       1.38369191E-03
   46.5349998       1.26288214E-03
   46.6500015       1.13966514E-03
   46.7649994       1.01409445E-03
   46.8800011       8.86225316E-04
   46.9949989       7.56116700E-04
   47.1100006       6.23830070E-04
   47.2249985       4.89429105E-04
   47.3400002       3.52980831E-04
   47.4550018       2.14553656E-04
   47.5699997       7.42198754E-05
   47.6850014      -6.79457080E-05
   47.7999992      -2.11867839E-04
   47.9150009      -3.57466808E-04
   48.0299988      -5.04662632E-04
   48.1450005      -6.53369876E-04
   48.2599983      -8.03505653E-04
   48.3750000      -9.54981835E-04
   48.4900017      -1.10770867E-03
   48.6049995      -1.26159517E-03
   48.7200012      -1.41654885E-03
   48.8349991      -1.57247507E-03
   48.9500008      -1.72927906E-03
   49.0649986      -1.88686501E-03
   49.1800003      -2.04513525E-03
   49.2949982      -2.20399001E-03
   49.4099998      -2.36333092E-03
   49.5250015      -2.52305763E-03
   49.6399994      -2.68306886E-03
   49.7550011      -2.84326146E-03
   49.8699989      -3.00353137E-03
   49.9850006      -3.16377566E-03
   50.0999985      -3.32388887E-03
   50.2150002      -3.48376576E-03
   50.3300018      -3.64329945E-03
   50.4449997      -3.80238285E-03
   50.5600014      -3.96090839E-03
   50.6749992      -4.11876757E-03
   50.7900009      -4.27585235E-03
   50.9049988      -4.43205563E-03
   51.0200005      -4.58727125E-03
   51.1349983      -4.74138744E-03
   51.2500000      -4.89430176E-03
   51.3650017      -5.04590478E-03
   51.4799995      -5.19609312E-03
   51.5950012      -5.34476200E-03
   51.7099991      -5.49180945E-03
   51.8250008      -5.63713489E-03
   51.9399986      -5.78063587E-03
   52.0550003      -5.92221320E-03
   52.1699982      -6.06176956E-03
   52.2849998      -6.19920809E-03
   52.4000015      -6.33443380E-03
   52.5149994      -6.46734890E-03
   52.6300011      -6.59785885E-03
   52.7449989      -6.72587147E-03
   52.8600006      -6.85129128E-03
   52.9749985      -6.97402982E-03
   53.0900002      -7.09399674E-03
   53.2050018      -7.21110031E-03
   53.3199997      -7.32525764E-03
   53.4350014      -7.43638072E-03
   53.5499992      -7.54438806E-03
   53.6650009      -7.64919864E-03
   53.7799988      -7.75073469E-03
   53.8950005      -7.84892216E-03
   54.0099983      -7.94368610E-03
   54.1250000      -8.03495757E-03
   54.2400017      -8.12266953E-03
   54.3549995      -8.20675772E-03
   54.4700012      -8.28715879E-03
   54.5849991      -8.36381596E-03
   54.7000008      -8.43667239E-03
   54.8149986      -8.50567780E-03
   54.9300003      -8.57077911E-03
   55.0449982      -8.63193069E-03
   55.1599998      -8.68908875E-03
   55.2750015      -8.74221325E-03
   55.3899994      -8.79126601E-03
   55.5050011      -8.83621816E-03
   55.6199989      -8.87703709E-03
   55.7350006      -8.91369581E-03
   55.8499985      -8.94617476E-03
   55.9650002      -8.97445623E-03
   56.0800018      -8.99852626E-03
   56.1949997      -9.01837926E-03
   56.3100014      -9.03401151E-03
   56.4249992      -9.04542580E-03
   56.5400009      -9.05263051E-03
   56.6549988      -9.05563962E-03
   56.7700005      -9.05447267E-03
   56.8849983      -9.04915668E-03
   57.0000000      -9.03972518E-03
   57.1150017      -9.02621355E-03
   57.2299995      -9.00866464E-03
   57.3450012      -8.98713060E-03
   57.4599991      -8.96166265E-03
   57.5750008      -8.93232320E-03
   57.6899986      -8.89917836E-03
   57.8050003      -8.86229984E-03
   57.9199982      -8.82176403E-03
   58.0349998      -8.77765566E-03
   58.1500015      -8.73006321E-03
   58.2649994      -8.67907889E-03
   58.3800011      -8.62480607E-03
   58.4949989      -8.56735092E-03
   58.6100006      -8.50682519E-03
   58.7249985      -8.44334811E-03
   58.8400002      -8.37704819E-03
   58.9550018      -8.30805581E-03
   59.0699997      -8.23651161E-03
   59.1850014      -8.16255808E-03
   59.2999992      -8.08634516E-03
   59.4150009      -8.00803024E-03
   59.5299988      -7.92777445E-03
   59.6450005      -7.84574449E-03
   59.7599983      -7.76210846E-03
   59.8750000      -7.67703820E-03
   59.9900017      -7.59071019E-03
   60.1049995      -7.50330463E-03
   60.2200012      -7.41500314E-03
   60.3349991      -7.32598733E-03
   60.4500008      -7.23644299E-03
   60.5649986      -7.14655500E-03
   60.6800003      -7.05650821E-03
   60.7949982      -6.96649123E-03
   60.9099998      -6.87669218E-03
   61.0250015      -6.78729406E-03
   61.1399994      -6.69848686E-03
   61.2550011      -6.61045453E-03
   61.3699989      -6.52338052E-03
   61.4850006      -6.43744972E-03
   61.5999985      -6.35283953E-03
   61.7150002      -6.26972970E-03
   61.8300018      -6.18828926E-03
   61.9449997      -6.10868819E-03
   62.0600014      -6.03108620E-03
   62.1749992      -5.95564302E-03
   62.2900009      -5.88250253E-03
   62.4049988      -5.81180817E-03
   62.5200005      -5.74369170E-03
   62.6349983      -5.67827607E-03
   62.7500000      -5.61567489E-03
   62.8650017      -5.55599108E-03
   62.9799995      -5.49931778E-03
   63.0950012      -5.44573739E-03
   63.2099991      -5.39532024E-03
   63.3250008      -5.34812128E-03
   63.4399986      -5.30419406E-03
   63.5550003      -5.26357535E-03
   63.6699982      -5.22628799E-03
   63.7849998      -5.19234687E-03
   63.9000015      -5.16174873E-03
   64.0149994      -5.13448799E-03
   64.1299973      -5.11053624E-03
   64.2450027      -5.08985249E-03
   64.3600006      -5.07238926E-03
   64.4749985      -5.05807577E-03
   64.5899963      -5.04683377E-03
   64.7050018      -5.03856549E-03
   64.8199997      -5.03316056E-03
   64.9349976      -5.03049232E-03
   65.0500031      -5.03042061E-03
   65.1650009      -5.03279176E-03
   65.2799988      -5.03743254E-03
   65.3949966      -5.04416600E-03
   65.5100021      -5.05279005E-03
   65.6250000      -5.06310211E-03
   65.7399979      -5.07487915E-03
   65.8550034      -5.08788647E-03
   65.9700012      -5.10188146E-03
   66.0849991      -5.11661125E-03
   66.1999969      -5.13181183E-03
   66.3150024      -5.14720939E-03
   66.4300003      -5.16252033E-03
   66.5449982      -5.17745549E-03
   66.6600037      -5.19171637E-03
   66.7750015      -5.20499190E-03
   66.8899994      -5.21697151E-03
   67.0049973      -5.22733154E-03
   67.1200027      -5.23574790E-03
   67.2350006      -5.24188532E-03
   67.3499985      -5.24540711E-03
   67.4649963      -5.24597149E-03
   67.5800018      -5.24323247E-03
   67.6949997      -5.23684127E-03
   67.8099976      -5.22644632E-03
   67.9250031      -5.21169463E-03
   68.0400009      -5.19223465E-03
   68.1549988      -5.16771572E-03
   68.2699966      -5.13778254E-03
   68.3850021      -5.10209380E-03
   68.5000000      -5.06029511E-03
   68.6149979      -5.01204608E-03
   68.7300034      -4.95700538E-03
   68.8450012      -4.89483681E-03
   68.9599991      -4.82520601E-03
   69.0749969      -4.74778842E-03
   69.1900024      -4.66226367E-03
   69.3050003      -4.56831651E-03
   69.4199982      -4.46563587E-03
   69.5350037      -4.35392512E-03
   69.6500015      -4.23288904E-03
   69.7649994      -4.10224358E-03
   69.8799973      -3.96170886E-03
   69.9950027      -3.81101854E-03
   70.1100006      -3.64991277E-03
   70.2249985      -3.47814406E-03
   70.3399963      -3.29546747E-03
   70.4550018      -3.10165226E-03
   70.5699997      -2.89647980E-03
   70.6849976      -2.67973798E-03
   70.8000031      -2.45123473E-03
   70.9150009      -2.21077981E-03
   71.0299988      -1.95820094E-03
   71.1449966      -1.69333618E-03
   71.2600021      -1.41603348E-03
   71.3750000      -1.12616119E-03
   71.4899979      -8.23598995E-04
   71.6050034      -5.08237805E-04
   71.7200012      -1.79985727E-04
   71.8349991       1.61237520E-04
   71.9499969       5.15495485E-04
   72.0650024       8.82836641E-04
   72.1800003       1.26329414E-03
   72.2949982       1.65689224E-03
   72.4100037       2.06363550E-03
   72.5250015       2.48351949E-03
   72.6399994       2.91651930E-03
   72.7549973       3.36259766E-03
   72.8700027       3.82170570E-03
   72.9850006       4.29377565E-03
   73.0999985       4.77872277E-03
   73.2149963       5.27645275E-03
   73.3300018       5.78685151E-03
   73.4449997       6.30979240E-03
   73.5599976       6.84512639E-03
   73.6750031       7.39269890E-03
   73.7900009       7.95233063E-03
   73.9049988       8.52382183E-03
   74.0199966       9.10697319E-03
   74.1350021       9.70155466E-03
   74.2500000       1.03073316E-02
   74.3649979       1.09240413E-02
   74.4800034       1.15514165E-02
   74.5950012       1.21891750E-02
   74.7099991       1.28370188E-02
   74.8249969       1.34946313E-02
   74.9400024       1.41616939E-02
   75.0550003       1.48378629E-02
   75.1699982       1.55227957E-02
   75.2850037       1.62161347E-02
   75.4000015       1.69175044E-02
   75.5149994       1.76265165E-02
   75.6299973       1.83427818E-02
   75.7450027       1.90658979E-02
   75.8600006       1.97954439E-02
   75.9749985       2.05309875E-02
   76.0899963       2.12721061E-02
   76.2050018       2.20183507E-02
   76.3199997       2.27692742E-02
   76.4349976       2.35244110E-02
   76.5500031       2.42833067E-02
   76.6650009       2.50454824E-02
   76.7799988       2.58104615E-02
   76.8949966       2.65777688E-02
   77.0100021       2.73469184E-02
   77.1250000       2.81174295E-02
   77.2399979       2.88888048E-02
   77.3550034       2.96605602E-02
   77.4700012       3.04322001E-02
   77.5849991       3.12032476E-02
   77.6999969       3.19732092E-02
   77.8150024       3.27415988E-02
   77.9300003       3.35079394E-02
   78.0449982       3.42717469E-02
   78.1600037       3.50325555E-02
   78.2750015       3.57898921E-02
   78.3899994       3.65433022E-02
   78.5049973       3.72923128E-02
   78.6200027       3.80364880E-02
   78.7350006       3.87753770E-02
   78.8499985       3.95085588E-02
   78.9649963       4.02355865E-02
   79.0800018       4.09560539E-02
   79.1949997       4.16695476E-02
   79.3099976       4.23756614E-02
   79.4250031       4.30740044E-02
   79.5400009       4.37641963E-02