  -18.8999996       0.00000000    
  -18.7849998      -3.10103620E-22
  -18.6700001      -1.00992331E-11
  -18.5550003      -3.93264171E-11
  -18.4400005      -8.00886232E-11
  -18.3250008      -1.00129446E-10
  -18.2099991      -5.13757648E-11
  -18.0949993       1.03636981E-10
  -17.9799995       3.57971180E-10
  -17.8649998       6.36900310E-10
  -17.7500000       8.02382383E-10
  -17.6350002       6.93360758E-10
  -17.5200005       1.94198796E-10
  -17.4050007      -6.91957380E-10
  -17.2900009      -1.79626380E-09
  -17.1749992      -2.79098655E-09
  -17.0599995      -3.26072569E-09
  -16.9449997      -2.82478885E-09
  -16.8299999      -1.27500421E-09
  -16.7150002       1.31829414E-09
  -16.6000004       4.57411087E-09
  -16.4850006       7.86243071E-09
  -16.3700008       1.04477271E-08
  -16.2549992       1.16719105E-08
  -16.1399994       1.11170175E-08
  -16.0249996       8.69157724E-09
  -15.9099998       4.60926941E-09
  -15.7950001      -7.33634098E-10
  -15.6800003      -6.93795155E-09
  -15.5649996      -1.37712632E-08
  -15.4499998      -2.12615294E-08
  -15.3350000      -2.96748937E-08
  -15.2200003      -3.93808186E-08
  -15.1049995      -5.06518809E-08
  -14.9899998      -6.34744453E-08
  -14.8750000      -7.74478792E-08
  -14.7600002      -9.18218959E-08
  -14.6450005      -1.05673280E-07
  -14.5299997      -1.18170554E-07
  -14.4150000      -1.28838977E-07
  -14.3000002      -1.37731647E-07
  -14.1850004      -1.45440652E-07
  -14.0699997      -1.52935627E-07
  -13.9549999      -1.61277995E-07
  -13.8400002      -1.71305217E-07
  -13.7250004      -1.83393354E-07
  -13.6099997      -1.97381283E-07
  -13.4949999      -2.12684526E-07
  -13.3800001      -2.28558861E-07
  -13.2650003      -2.44419311E-07
  -13.1499996      -2.60097806E-07
  -13.0349998      -2.75943250E-07
  -12.9200001      -2.92723342E-07
  -12.8050003      -3.11360736E-07
  -12.6899996      -3.32597267E-07
  -12.5749998      -3.56711354E-07
  -12.4600000      -3.83396639E-07
  -12.3450003      -4.11854870E-07
  -12.2299995      -4.41077844E-07
  -12.1149998      -4.70223256E-07
  -12.0000000      -4.98950669E-07
  -11.8850002      -5.27594352E-07
  -11.7700005      -5.57103590E-07
  -11.6549997      -5.88765431E-07
  -11.5400000      -6.23801157E-07
  -11.4250002      -6.62978778E-07
  -11.3100004      -7.06379240E-07
  -11.1949997      -7.53404606E-07
  -11.0799999      -8.03028968E-07
  -10.9650002      -8.54207883E-07
  -10.8500004      -9.06301977E-07
  -10.7349997      -9.59363888E-07
  -10.6199999      -1.01418368E-06
  -10.5050001      -1.07207279E-06
  -10.3900003      -1.13446208E-06
  -10.2749996      -1.20245465E-06
  -10.1599998      -1.27649525E-06
  -10.0450001      -1.35627579E-06
  -9.93000031      -1.44091428E-06
  -9.81499958      -1.52934501E-06
  -9.69999981      -1.62077959E-06
  -9.58500004      -1.71507247E-06
  -9.47000027      -1.81285736E-06
  -9.35499954      -1.91539652E-06
  -9.23999977      -2.02419642E-06
  -9.12500000      -2.14052352E-06
  -9.01000023      -2.26499287E-06
  -8.89500046      -2.39738529E-06
  -8.77999973      -2.53675762E-06
  -8.66499996      -2.68182271E-06
  -8.55000019      -2.83146233E-06
  -8.43500042      -2.98519831E-06
  -8.31999969      -3.14345289E-06
  -8.20499992      -3.30750436E-06
  -8.09000015      -3.47914920E-06
  -7.97499990      -3.66018821E-06
  -7.86000013      -3.85191288E-06
  -7.74499989      -4.05477704E-06
  -7.63000011      -4.26835823E-06
  -7.51499987      -4.49163826E-06
  -7.40000010      -4.72348120E-06
  -7.28499985      -4.96315533E-06
  -7.17000008      -5.21070615E-06
  -7.05499983      -5.46704086E-06
  -6.94000006      -5.73370835E-06
  -6.82499981      -6.01244164E-06
  -6.71000004      -6.30463683E-06
  -6.59499979      -6.61094782E-06
  -6.48000002      -6.93115817E-06
  -6.36499977      -7.26436565E-06
  -6.25000000      -7.60942521E-06
  -6.13500023      -7.96548375E-06
  -6.01999998      -8.33242939E-06
  -5.90500021      -8.71108296E-06
  -5.78999996      -9.10305789E-06
  -5.67500019      -9.51035508E-06
  -5.55999994      -9.93479989E-06
  -5.44500017      -1.03775574E-05
  -5.32999992      -1.08388549E-05
  -5.21500015      -1.13180431E-05
  -5.09999990      -1.18139533E-05
  -4.98500013      -1.23254322E-05
  -4.86999989      -1.28518650E-05
  -4.75500011      -1.33935046E-05
  -4.63999987      -1.39515014E-05
  -4.52500010      -1.45276208E-05
  -4.40999985      -1.51237591E-05
  -4.29500008      -1.57414397E-05
  -4.17999983      -1.63814420E-05
  -4.06500006      -1.70437270E-05
  -3.95000005      -1.77276597E-05
  -3.83500004      -1.84324308E-05
  -3.72000003      -1.91575527E-05
  -3.60500002      -1.99032238E-05
  -3.49000001      -2.06704135E-05
  -3.37500000      -2.14606898E-05
  -3.25999999      -2.22757881E-05
  -3.14499998      -2.31170961E-05
  -3.02999997      -2.39852779E-05
  -2.91499996      -2.48801116E-05
  -2.79999995      -2.58006385E-05
  -2.68499994      -2.67455689E-05
  -2.56999993      -2.77138170E-05
  -2.45499992      -2.87049497E-05
  -2.33999991      -2.97194401E-05
  -2.22499990      -3.07586197E-05
  -2.10999990      -3.18243656E-05
  -1.99500000      -3.29186259E-05
  -1.88000000      -3.40429760E-05
  -1.76499999      -3.51983144E-05
  -1.64999998      -3.63848521E-05
  -1.53499997      -3.76023381E-05
  -1.41999996      -3.88504268E-05
  -1.30499995      -4.01291109E-05
  -1.19000006      -4.14389506E-05
  -1.07500005      -4.27811283E-05
 -0.959999979      -4.41571974E-05
 -0.845000029      -4.55687441E-05
 -0.730000019      -4.70169471E-05
 -0.615000010      -4.85023411E-05
 -0.500000000      -5.00247697E-05
 -0.384999990      -5.15835782E-05
 -0.270000011      -5.31780133E-05
 -0.155000001      -5.48076714E-05
  -3.99999991E-02  -5.64728507E-05
   7.50000030E-02  -5.81746499E-05
  0.189999998      -5.99148625E-05
  0.305000007      -6.16956604E-05
  0.419999987      -6.35191464E-05
  0.535000026      -6.53870302E-05
  0.649999976      -6.73003669E-05
  0.764999986      -6.92596659E-05
  0.879999995      -7.12650581E-05
  0.995000005      -7.33166598E-05
   1.11000001      -7.54149150E-05
   1.22500002      -7.75607623E-05
   1.34000003      -7.97556713E-05
   1.45500004      -8.20013811E-05
   1.57000005      -8.42996960E-05
   1.68499994      -8.66520932E-05
   1.79999995      -8.90596857E-05
   1.91499996      -9.15231140E-05
   2.02999997      -9.40428363E-05
   2.14499998      -9.66193984E-05
   2.25999999      -9.92537680E-05
   2.37500000      -1.01947488E-04
   2.49000001      -1.04702762E-04
   2.60500002      -1.07522254E-04
   2.72000003      -1.10408837E-04
   2.83500004      -1.13365197E-04
   2.95000005      -1.16393625E-04
   3.06500006      -1.19495846E-04
   3.18000007      -1.22673140E-04
   3.29500008      -1.25926468E-04
   3.41000009      -1.29256790E-04
   3.52500010      -1.32665256E-04
   3.64000010      -1.36153394E-04
   3.75500011      -1.39723110E-04
   3.86999989      -1.43376543E-04
   3.98499990      -1.47115832E-04
   4.09999990      -1.50943000E-04
   4.21500015      -1.54859837E-04
   4.32999992      -1.58867901E-04
   4.44500017      -1.62968689E-04
   4.55999994      -1.67163802E-04
   4.67500019      -1.71455162E-04
   4.78999996      -1.75845009E-04
   4.90500021      -1.80336050E-04
   5.01999998      -1.84931268E-04
   5.13500023      -1.89633705E-04
   5.25000000      -1.94446402E-04
   5.36499977      -1.99372109E-04
   5.48000002      -2.04413343E-04
   5.59499979      -2.09572463E-04
   5.71000004      -2.14851636E-04
   5.82499981      -2.20253030E-04
   5.94000006      -2.25779004E-04
   6.05499983      -2.31432059E-04
   6.17000008      -2.37214932E-04
   6.28499985      -2.43130315E-04
   6.40000010      -2.49180855E-04
   6.51499987      -2.55369145E-04
   6.63000011      -2.61697453E-04
   6.74499989      -2.68167758E-04
   6.86000013      -2.74781865E-04
   6.97499990      -2.81541317E-04
   7.09000015      -2.88447365E-04
   7.20499992      -2.95501173E-04
   7.32000017      -3.02703731E-04
   7.43499994      -3.10055882E-04
   7.55000019      -3.17558355E-04
   7.66499996      -3.25211877E-04
   7.78000021      -3.33017000E-04
   7.89499998      -3.40974220E-04
   8.01000023      -3.49083944E-04
   8.12500000      -3.57346493E-04
   8.23999977      -3.65762040E-04
   8.35499954      -3.74330732E-04
   8.47000027      -3.83052597E-04
   8.58500004      -3.91927460E-04
   8.69999981      -4.00955207E-04
   8.81499958      -4.10135806E-04
   8.93000031      -4.19469172E-04
   9.04500008      -4.28954983E-04
   9.15999985      -4.38593037E-04
   9.27499962      -4.48382780E-04
   9.39000034      -4.58323280E-04
   9.50500011      -4.68413229E-04
   9.61999989      -4.78650880E-04
   9.73499966      -4.89034108E-04
   9.85000038      -4.99560556E-04
   9.96500015      -5.10227983E-04
   10.0799999      -5.21034119E-04
   10.1949997      -5.31976693E-04
   10.3100004      -5.43053902E-04
   10.4250002      -5.54263417E-04
   10.5400000      -5.65602793E-04
   10.6549997      -5.77069004E-04
   10.7700005      -5.88658673E-04
   10.8850002      -6.00367668E-04
   11.0000000      -6.12191507E-04
   11.1149998      -6.24125241E-04
   11.2299995      -6.36163866E-04
   11.3450003      -6.48302375E-04
   11.4600000      -6.60535588E-04
   11.5749998      -6.72858383E-04
   11.6899996      -6.85265288E-04
   11.8050003      -6.97750307E-04
   11.9200001      -7.10306747E-04
   12.0349998      -7.22927740E-04
   12.1499996      -7.35605776E-04
   12.2650003      -7.48333405E-04
   12.3800001      -7.61103409E-04
   12.4949999      -7.73909036E-04
   12.6099997      -7.86743767E-04
   12.7250004      -7.99601490E-04
   12.8400002      -8.12475977E-04
   12.9549999      -8.25360883E-04
   13.0699997      -8.38248699E-04
   13.1850004      -8.51131626E-04
   13.3000002      -8.64000933E-04
   13.4150000      -8.76847189E-04
   13.5299997      -8.89661023E-04
   13.6450005      -9.02433123E-04
   13.7600002      -9.15154582E-04
   13.8750000      -9.27816553E-04
   13.9899998      -9.40410770E-04
   14.1049995      -9.52928211E-04
   14.2200003      -9.65359795E-04
   14.3350000      -9.77696152E-04
   14.4499998      -9.89926979E-04
   14.5649996      -1.00204221E-03
   14.6800003      -1.01403147E-03
   14.7950001      -1.02588546E-03
   14.9099998      -1.03759521E-03
   15.0249996      -1.04915211E-03
   15.1400003      -1.06054847E-03
   15.2550001      -1.07177626E-03
   15.3699999      -1.08282699E-03
   15.4849997      -1.09369133E-03
   15.6000004      -1.10435882E-03
   15.7150002      -1.11481827E-03
   15.8299999      -1.12505804E-03
   15.9449997      -1.13506615E-03
   16.0599995      -1.14483119E-03
   16.1749992      -1.15434255E-03
   16.2900009      -1.16359012E-03
   16.4050007      -1.17256376E-03
   16.5200005      -1.18125370E-03
   16.6350002      -1.18964922E-03
   16.7500000      -1.19773974E-03
   16.8649998      -1.20551360E-03
   16.9799995      -1.21295929E-03
   17.0949993      -1.22006563E-03
   17.2099991      -1.22682215E-03
   17.3250008      -1.23321940E-03
   17.4400005      -1.23924902E-03
   17.5550003      -1.24490343E-03
   17.6700001      -1.25017518E-03
   17.7849998      -1.25505670E-03
   17.8999996      -1.25953951E-03
   18.0149994      -1.26361463E-03
   18.1299992      -1.26727310E-03
   18.2450008      -1.27050525E-03
   18.3600006      -1.27330248E-03
   18.4750004      -1.27565733E-03
   18.5900002      -1.27756305E-03
   18.7049999      -1.27901405E-03
   18.8199997      -1.28000544E-03
   18.9349995      -1.28053268E-03
   19.0499992      -1.28059089E-03
   19.1650009      -1.28017447E-03
   19.2800007      -1.27927761E-03
   19.3950005      -1.27789483E-03
   19.5100002      -1.27602031E-03
   19.6250000      -1.27364974E-03
   19.7399998      -1.27077999E-03
   19.8549995      -1.26740872E-03
   19.9699993      -1.26353477E-03
   20.0849991      -1.25915697E-03
   20.2000008      -1.25427439E-03
   20.3150005      -1.24888506E-03
   20.4300003      -1.24298665E-03
   20.5450001      -1.23657694E-03
   20.6599998      -1.22965313E-03
   20.7749996      -1.22221350E-03
   20.8899994      -1.21425756E-03
   21.0049992      -1.20578578E-03
   21.1200008      -1.19679980E-03
   21.2350006      -1.18730206E-03
   21.3500004      -1.17729499E-03
   21.4650002      -1.16678071E-03
   21.5799999      -1.15576084E-03
   21.6949997      -1.14423665E-03
   21.8099995      -1.13220979E-03
   21.9249992      -1.11968222E-03
   22.0400009      -1.10665732E-03
   22.1550007      -1.09314010E-03
   22.2700005      -1.07913709E-03
   22.3850002      -1.06465572E-03
   22.5000000      -1.04970415E-03
   22.6149998      -1.03429041E-03
   22.7299995      -1.01842231E-03
   22.8449993      -1.00210786E-03
   22.9599991      -9.85354418E-04
   23.0750008      -9.68170119E-04
   23.1900005      -9.50564339E-04
   23.3050003      -9.32547962E-04
   23.4200001      -9.14132805E-04
   23.5349998      -8.95332545E-04
   23.6499996      -8.76161037E-04
   23.7649994      -8.56633123E-04
   23.8799992      -8.36762891E-04
   23.9950008      -8.16564541E-04
   24.1100006      -7.96052394E-04
   24.2250004      -7.75241526E-04
   24.3400002      -7.54148234E-04
   24.4549999      -7.32790562E-04
   24.5699997      -7.11188652E-04
   24.6849995      -6.89364097E-04
   24.7999992      -6.67340064E-04
   24.9150009      -6.45139487E-04
   25.0300007      -6.22786174E-04
   25.1450005      -6.00303232E-04
   25.2600002      -5.77713712E-04
   25.3750000      -5.55040955E-04
   25.4899998      -5.32308477E-04
   25.6049995      -5.09541074E-04
   25.7199993      -4.86764766E-04
   25.8349991      -4.64006938E-04
   25.9500008      -4.41295153E-04
   26.0650005      -4.18657262E-04
   26.1800003      -3.96121526E-04
   26.2950001      -3.73715273E-04
   26.4099998      -3.51465511E-04
   26.5249996      -3.29399452E-04
   26.6399994      -3.07544891E-04
   26.7549992      -2.85930466E-04
   26.8700008      -2.64586095E-04
   26.9850006      -2.43542730E-04
   27.1000004      -2.22832110E-04
   27.2150002      -2.02486277E-04
   27.3299999      -1.82536984E-04
   27.4449997      -1.63015546E-04
   27.5599995      -1.43952522E-04
   27.6749992      -1.25377846E-04
   27.7900009      -1.07320884E-04
   27.9050007      -8.98114959E-05
   28.0200005      -7.28796003E-05
   28.1350002      -5.65553673E-05
   28.2500000      -4.08697269E-05
   28.3649998      -2.58533637E-05
   28.4799995      -1.15368412E-05
   28.5949993       2.05009087E-06
   28.7099991       1.48782156E-05
   28.8250008       2.69194497E-05
   28.9400005       3.81464852E-05
   29.0550003       4.85318815E-05
   29.1700001       5.80488995E-05
   29.2849998       6.66715860E-05
   29.3999996       7.43729761E-05
   29.5149994       8.11279097E-05
   29.6299992       8.69121577E-05
   29.7450008       9.17026919E-05
   29.8600006       9.54783100E-05
   29.9750004       9.82208439E-05
   30.0900002       9.99132608E-05
   30.2049999       1.00540296E-04
   30.3199997       1.00088859E-04
   30.4349995       9.85460574E-05
   30.5499992       9.59008175E-05
   30.6650009       9.21431565E-05
   30.7800007       8.72640376E-05
   30.8950005       8.12569342E-05
   31.0100002       7.41161784E-05
   31.1250000       6.58382996E-05
   31.2399998       5.64220172E-05
   31.3549995       4.58685863E-05
   31.4699993       3.41802770E-05
   31.5849991       2.13609492E-05
   31.7000008       7.41589020E-06
   31.8150005      -7.64791093E-06
   31.9300003      -2.38222838E-05
   32.0449982      -4.10964567E-05
   32.1599998      -5.94586054E-05
   32.2750015      -7.88939942E-05
   32.3899994      -9.93863796E-05
   32.5050011      -1.20916804E-04
   32.6199989      -1.43465120E-04
   32.7350006      -1.67009362E-04
   32.8499985      -1.91526357E-04
   32.9650002      -2.16991015E-04
   33.0800018      -2.43377159E-04
   33.1949997      -2.70656950E-04
   33.3100014      -2.98801810E-04
   33.4249992      -3.27779562E-04
   33.5400009      -3.57557554E-04
   33.6549988      -3.88099928E-04
   33.7700005      -4.19369695E-04
   33.8849983      -4.51327098E-04
   34.0000000      -4.83931013E-04
   34.1150017      -5.17139095E-04
   34.2299995      -5.50907163E-04
   34.3450012      -5.85190079E-04
   34.4599991      -6.19941275E-04
   34.5750008      -6.55112788E-04
   34.6899986      -6.90655375E-04
   34.8050003      -7.26518454E-04
   34.9199982      -7.62650627E-04
   35.0349998      -7.98999099E-04
   35.1500015      -8.35510436E-04
   35.2649994      -8.72130680E-04
   35.3800011      -9.08804941E-04
   35.4949989      -9.45477746E-04
   35.6100006      -9.82092577E-04
   35.7249985      -1.01859227E-03
   35.8400002      -1.05492061E-03
   35.9550018      -1.09101925E-03
   36.0699997      -1.12683128E-03
   36.1850014      -1.16229896E-03
   36.2999992      -1.19736395E-03
   36.4150009      -1.23196968E-03
   36.5299988      -1.26605865E-03
   36.6450005      -1.29957334E-03
   36.7599983      -1.33245962E-03
   36.8750000      -1.36466324E-03
   36.9900017      -1.39613135E-03
   37.1049995      -1.42681366E-03
   37.2200012      -1.45666092E-03
   37.3349991      -1.48562458E-03
   37.4500008      -1.51365832E-03
   37.5649986      -1.54071522E-03
   37.6800003      -1.56674918E-03
   37.7949982      -1.59171468E-03
   37.9099998      -1.61556643E-03
   38.0250015      -1.63826148E-03
   38.1399994      -1.65975594E-03
   38.2550011      -1.68000883E-03
   38.3699989      -1.69898034E-03
   38.4850006      -1.71662925E-03
   38.5999985      -1.73291669E-03
   38.7150002      -1.74780516E-03
   38.8300018      -1.76125718E-03
   38.9449997      -1.77323760E-03
   39.0600014      -1.78371160E-03
   39.1749992      -1.79264590E-03
   39.2900009      -1.80000975E-03
   39.4049988      -1.80577557E-03
   39.5200005      -1.80991704E-03
   39.6349983      -1.81241054E-03
   39.7500000      -1.81323325E-03
   39.8650017      -1.81236514E-03
   39.9799995      -1.80978572E-03
   40.0950012      -1.80547708E-03
   40.2099991      -1.79942138E-03
   40.3250008      -1.79160060E-03
   40.4399986      -1.78200006E-03
   40.5550003      -1.77060638E-03
   40.6699982      -1.75740779E-03
   40.7849998      -1.74239592E-03
   40.9000015      -1.72556296E-03
   41.0149994      -1.70690322E-03
   41.1300011      -1.68641261E-03
   41.2449989      -1.66408857E-03
   41.3600006      -1.63992727E-03
   41.4749985      -1.61392672E-03
   41.5900002      -1.58608728E-03
   41.7050018      -1.55641034E-03
   41.8199997      -1.52489811E-03
   41.9350014      -1.49155466E-03
   42.0499992      -1.45638373E-03
   42.1650009      -1.41939032E-03
   42.2799988      -1.38057640E-03
   42.3950005      -1.33994594E-03
   42.5099983      -1.29749975E-03
   42.6250000      -1.25323422E-03
   42.7400017      -1.20715064E-03
   42.8549995      -1.15924655E-03
   42.9700012      -1.10951811E-03
   43.0849991      -1.05796487E-03
   43.2000008      -1.00458297E-03
   43.3149986      -9.49367706E-04
   43.4300003      -8.92314827E-04
   43.5449982      -8.33417173E-04
   43.6599998      -7.72665080E-04
   43.7750015      -7.10046093E-04
   43.8899994      -6.45547640E-04
   44.0050011      -5.79153071E-04
   44.1199989      -5.10847021E-04
   44.2350006      -4.40613541E-04
   44.3499985      -3.68433422E-04
   44.4650002      -2.94285826E-04
   44.5800018      -2.18147994E-04
   44.6949997      -1.39992306E-04
   44.8100014      -5.97902363E-05
   44.9249992       2.24899140E-05
   45.0400009       1.06881402E-04
   45.1549988       1.93417029E-04
   45.2700005       2.82133260E-04
   45.3849983       3.73062852E-04
   45.5000000       4.66241763E-04
   45.6150017       5.61706023E-04
   45.7299995       6.59491983E-04
   45.8450012       7.59641407E-04
   45.9599991       8.62192072E-04
   46.0750008       9.67186643E-04
   46.1899986       1.07466616E-03
   46.3050003       1.18467072E-03
   46.4199982       1.29724073E-03
   46.5349998       1.41241413E-03
   46.6500015       1.53022748E-03
   46.7649994       1.65072153E-03
   46.8800011       1.77393388E-03
   46.9949989       1.89990096E-03
   47.1100006       2.02865829E-03
   47.2249985       2.16024206E-03
   47.3400002       2.29468453E-03
   47.4550018       2.43201316E-03
   47.5699997       2.57225591E-03
   47.6850014       2.71543418E-03
   47.7999992       2.86156684E-03
   47.9150009       3.01066949E-03
   48.0299988       3.16275656E-03
   48.1450005       3.31783597E-03
   48.2599983       3.47591541E-03
   48.3750000       3.63699859E-03
   48.4900017       3.80108249E-03
   48.6049995       3.96816060E-03
   48.7200012       4.13821498E-03
   48.8349991       4.31122724E-03
   48.9500008       4.48717363E-03
   49.0649986       4.66602063E-03
   49.1800003       4.84772772E-03
   49.2949982       5.03225299E-03
   49.4099998       5.21954708E-03
   49.5250015       5.40955365E-03
   49.6399994       5.60220378E-03
   49.7550011       5.79742761E-03
   49.8699989       5.99514227E-03
   49.9850006       6.19526021E-03
   50.0999985       6.39768830E-03
   50.2150002       6.60232641E-03
   50.3300018       6.80906931E-03
   50.4449997       7.01780571E-03
   50.5600014       7.22842338E-03
   50.6749992       7.44079985E-03
   50.7900009       7.65480893E-03
   50.9049988       7.87032116E-03
   51.0200005       8.08719825E-03
   51.1349983       8.30530096E-03
   51.2500000       8.52448959E-03
   51.3650017       8.74461606E-03
   51.4799995       8.96552764E-03
   51.5950012       9.18707624E-03
   51.7099991       9.40910634E-03
   51.8250008       9.63146333E-03
   51.9399986       9.85398609E-03
   52.0550003       1.00765144E-02
   52.1699982       1.02988863E-02
   52.2849998       1.05209379E-02
   52.4000015       1.07425079E-02
   52.5149994       1.09634381E-02
   52.6300011       1.11835683E-02
   52.7449989       1.14027448E-02
   52.8600006       1.16208177E-02
   52.9749985       1.18376361E-02
   53.0900002       1.20530548E-02
   53.2050018       1.22669302E-02
   53.3199997       1.24791265E-02
   53.4350014       1.26895094E-02
   53.5499992       1.28979525E-02
   53.6650009       1.31043363E-02
   53.7799988       1.33085474E-02
   53.8950005       1.35104824E-02
   54.0099983       1.37100434E-02
   54.1250000       1.39071420E-02
   54.2400017       1.41016990E-02
   54.3549995       1.42936409E-02
   54.4700012       1.44829042E-02
   54.5849991       1.46694351E-02
   54.7000008       1.48531860E-02
   54.8149986       1.50341270E-02
   54.9300003       1.52122341E-02
   55.0449982       1.53874969E-02
   55.1599998       1.55599136E-02
   55.2750015       1.57294981E-02
   55.3899994       1.58962645E-02
   55.5050011       1.60602480E-02
   55.6199989       1.62214842E-02
   55.7350006       1.63800176E-02
   55.8499985       1.65359098E-02
   55.9650002       1.66892316E-02
   56.0800018       1.68400556E-02
   56.1949997       1.69884749E-02
   56.3100014       1.71345863E-02
   56.4249992       1.72784999E-02
   56.5400009       1.74203292E-02
   56.6549988       1.75602045E-02
   56.7700005       1.76982526E-02
   56.8849983       1.78346187E-02
   57.0000000       1.79694425E-02
   57.1150017       1.81028750E-02
   57.2299995       1.82350781E-02
   57.3450012       1.83662176E-02
   57.4599991       1.84964593E-02
   57.5750008       1.86259877E-02
   57.6899986       1.87549777E-02
   57.8050003       1.88836139E-02
   57.9199982       1.90120824E-02
   58.0349998       1.91405620E-02
   58.1500015       1.92692373E-02
   58.2649994       1.93982925E-02
   58.3800011       1.95279084E-02
   58.4949989       1.96582749E-02
   58.6100006       1.97895691E-02
   58.7249985       1.99219789E-02
   58.8400002       2.00556833E-02
   58.9550018       2.01908611E-02
   59.0699997       2.03276873E-02
   59.1850014       2.04663277E-02
   59.2999992       2.06069481E-02
   59.4150009       2.07497030E-02
   59.5299988       2.08947416E-02
   59.6450005       2.10422110E-02
   59.7599983       2.11922433E-02
   59.8750000       2.13449746E-02
   59.9900017       2.15005297E-02
   60.1049995       2.16590278E-02
   60.2200012       2.18205769E-02
   60.3349991       2.19852775E-02
   60.4500008       2.21532155E-02
   60.5649986       2.23244764E-02
   60.6800003       2.24991273E-02
   60.7949982       2.26772260E-02
   60.9099998       2.28588246E-02
   61.0250015       2.30439585E-02
   61.1399994       2.32326593E-02
   61.2550011       2.34249458E-02
   61.3699989       2.36208308E-02
   61.4850006       2.38203108E-02
   61.5999985       2.40233652E-02
   61.7150002       2.42299717E-02
   61.8300018       2.44400837E-02
   61.9449997       2.46536452E-02
   62.0600014       2.48705857E-02
   62.1749992       2.50908285E-02
   62.2900009       2.53142864E-02
   62.4049988       2.55408511E-02
   62.5200005       2.57704146E-02
   62.6349983       2.60028560E-02
   62.7500000       2.62380484E-02
   62.8650017       2.64758449E-02
   62.9799995       2.67160945E-02
   63.0950012       2.69586332E-02
   63.2099991       2.72032861E-02
   63.3250008       2.74498686E-02
   63.4399986       2.76981909E-02
   63.5550003       2.79480536E-02
   63.6699982       2.81992555E-02
   63.7849998       2.84515768E-02
   63.9000015       2.87047941E-02
   64.0149994       2.89586820E-02
   64.1299973       2.92129945E-02
   64.2450027       2.94674896E-02
   64.3600006       2.97219101E-02
   64.4749985       2.99759954E-02
   64.5899963       3.02294828E-02
   64.7050018       3.04821078E-02
   64.8199997       3.07335928E-02
   64.9349976       3.09836697E-02
   65.0500031       3.12320683E-02
   65.1650009       3.14785093E-02
   65.2799988       3.17227244E-02
   65.3949966       3.19644362E-02
   65.5100021       3.22033763E-02
   65.6250000       3.24392691E-02
   65.7399979       3.26718502E-02
   65.8550034       3.29008438E-02
   65.9700012       3.31259891E-02
   66.0849991       3.33470330E-02
   66.1999969       3.35637145E-02
   66.3150024       3.37757915E-02
   66.4300003       3.39830257E-02
   66.5449982       3.41851898E-02
   66.6600037       3.43820527E-02
   66.7750015       3.45733948E-02
   66.8899994       3.47590074E-02
   67.0049973       3.49386856E-02
   67.1200027       3.51122394E-02
   67.2350006       3.52794789E-02
   67.3499985       3.54402438E-02
   67.4649963       3.55943628E-02
   67.5800018       3.57417017E-02
   67.6949997       3.58821154E-02
   67.8099976       3.60154808E-02
   67.9250031       3.61416861E-02
   68.0400009       3.62606198E-02
   68.1549988       3.63721810E-02
   68.2699966       3.64762843E-02
   68.3850021       3.65728512E-02
   68.5000000       3.66618223E-02
   68.6149979       3.67431492E-02
   68.7300034       3.68167870E-02
   68.8450012       3.68827097E-02
   68.9599991       3.69409025E-02
   69.0749969       3.69913541E-02
   69.1900024       3.70340645E-02
   69.3050003       3.70690413E-02
   69.4199982       3.70963104E-02
   69.5350037       3.71159017E-02
   69.6500015       3.71278599E-02
   69.7649994       3.71322371E-02
   69.8799973       3.71290892E-02
   69.9950027       3.71184759E-02
   70.1100006       3.71004790E-02
   70.2249985       3.70751694E-02
   70.3399963       3.70426327E-02
   70.4550018       3.70029658E-02
   70.5699997       3.69562581E-02
   70.6849976       3.69026139E-02
   70.8000031       3.68421562E-02
   70.9150009       3.67749892E-02
   71.0299988       3.67012322E-02
   71.1449966       3.66210081E-02
   71.2600021       3.65344398E-02
   71.3750000       3.64416577E-02
   71.4899979       3.63427997E-02
   71.6050034       3.62379998E-02
   71.7200012       3.61274108E-02
   71.8349991       3.60111780E-02
   71.9499969       3.58894467E-02
   72.0650024       3.57623696E-02
   72.1800003       3.56300958E-02
   72.2949982       3.54927815E-02
   72.4100037       3.53505611E-02
   72.5250015       3.52035873E-02
   72.6399994       3.50520089E-02
   72.7549973       3.48959900E-02
   72.8700027       3.47356796E-02
   72.9850006       3.45712416E-02
   73.0999985       3.44028361E-02
   73.2149963       3.42306234E-02
   73.3300018       3.40547562E-02
   73.4449997       3.38753834E-02
   73.5599976       3.36926654E-02
   73.6750031       3.35067585E-02
   73.7900009       3.33178155E-02
   73.9049988       3.31259966E-02
   74.0199966       3.29314619E-02
   74.1350021       3.27343829E-02
   74.2500000       3.25349160E-02
   74.3649979       3.23332399E-02
   74.4800034       3.21295112E-02
   74.5950012       3.19238827E-02
   74.7099991       3.17165181E-02
   74.8249969       3.15075628E-02
   74.9400024       3.12971808E-02
   75.0550003       3.10855340E-02
   75.1699982       3.08727846E-02
   75.2850037       3.06591112E-02
   75.4000015       3.04446816E-02
   75.5149994       3.02296728E-02
   75.6299973       3.00142523E-02
   75.7450027       2.97985878E-02
   75.8600006       2.95828376E-02
   75.9749985       2.93671656E-02
   76.0899963       2.91517302E-02
   76.2050018       2.89367009E-02
   76.3199997       2.87222359E-02
   76.4349976       2.85085123E-02
   76.5500031       2.82956921E-02
   76.6650009       2.80839354E-02
   76.7799988       2.78734006E-02
   76.8949966       2.76642311E-02
   77.0100021       2.74565704E-02
   77.1250000       2.72505507E-02
   77.2399979       2.70463098E-02
   77.3550034       2.68439837E-02
   77.4700012       2.66437158E-02
   77.5849991       2.64456309E-02
   77.6999969       2.62498613E-02
   77.8150024       2.60565337E-02
   77.9300003       2.58657634E-02
   78.0449982       2.56776623E-02
   78.1600037       2.54923254E-02
   78.2750015       2.53098533E-02
   78.3899994       2.51303278E-02
   78.5049973       2.49538440E-02
   78.6200027       2.47804727E-02
   78.7350006       2.46102978E-02
   78.8499985       2.44433861E-02
   78.9649963       2.42797974E-02
   79.0800018       2.41195783E-02
   79.1949997       2.39627734E-02
   79.3099976       2.38094106E-02
   79.4250031       2.36595199E-02
   79.5400009       2.35131159E-02