  -18.8999996         0.00000000    
  -18.7849998         5.85390126E-22
  -18.6700001        -1.82842955E-12
  -18.5550003        -8.32664840E-12
  -18.4400005        -2.18911139E-11
  -18.3250008        -4.29409078E-11
  -18.2099991        -6.89065680E-11
  -18.0949993        -9.41282816E-11
  -17.9799995        -1.10697000E-10
  -17.8649998        -1.09923813E-10
  -17.7500000        -8.39272402E-11
  -17.6350002        -2.68691666E-11
  -17.5200005         6.43769899E-11
  -17.4050007         1.89996990E-10
  -17.2900009         3.47049806E-10
  -17.1749992         5.28885991E-10
  -17.0599995         7.23968552E-10
  -16.9449997         9.14332943E-10
  -16.8299999         1.07439280E-09
  -16.7150002         1.17106735E-09
  -16.6000004         1.16611187E-09
  -16.4850006         1.02102882E-09
  -16.3700008         7.04142966E-10
  -16.2549992         1.98591227E-10
  -16.1399994        -4.90581908E-10
  -16.0249996        -1.33210665E-09
  -15.9099998        -2.26830998E-09
  -15.7950001        -3.21949889E-09
  -15.6800003        -4.09220569E-09
  -15.5649996        -4.78970952E-09
  -15.4499998        -5.22282217E-09
  -15.3350000        -5.31918154E-09
  -15.2200003        -5.02998398E-09
  -15.1049995        -4.33404512E-09
  -14.9899998        -3.23984684E-09
  -14.8750000        -1.78655102E-09
  -14.7600002        -4.46898074E-11
  -14.6450005         1.88344895E-09
  -14.5299997         3.86454690E-09
  -14.4150000         5.73746428E-09
  -14.3000002         7.32022531E-09
  -14.1850004         8.42134185E-09
  -14.0699997         8.85483242E-09
  -13.9549999         8.45682901E-09
  -13.8400002         7.10081771E-09
  -13.7250004         4.70826311E-09
  -13.6099997         1.25217925E-09
  -13.4949999        -3.24735039E-09
  -13.3800001        -8.73467521E-09
  -13.2650003        -1.51346029E-08
  -13.1499996        -2.23693579E-08
  -13.0349998        -3.03730339E-08
  -12.9200001        -3.91011632E-08
  -12.8050003        -4.85344174E-08
  -12.6899996        -5.86773687E-08
  -12.5749998        -6.95539555E-08
  -12.4600000        -8.12020176E-08
  -12.3450003        -9.36682056E-08
  -12.2299995        -1.07003871E-07
  -12.1149998        -1.21261252E-07
  -12.0000000        -1.36488538E-07
  -11.8850002        -1.52722862E-07
  -11.7700005        -1.69981249E-07
  -11.6549997        -1.88250397E-07
  -11.5400000        -2.07478664E-07
  -11.4250002        -2.27572883E-07
  -11.3100004        -2.48403239E-07
  -11.1949997        -2.69816979E-07
  -11.0799999        -2.91660456E-07
  -10.9650002        -3.13805373E-07
  -10.8500004        -3.36174736E-07
  -10.7349997        -3.58763430E-07
  -10.6199999        -3.81648761E-07
  -10.5050001        -4.04989663E-07
  -10.3900003        -4.29014904E-07
  -10.2749996        -4.54003640E-07
  -10.1599998        -4.80262599E-07
  -10.0450001        -5.08104108E-07
  -9.93000031        -5.37827873E-07
  -9.81499958        -5.69707709E-07
  -9.69999981        -6.03983267E-07
  -9.58500004        -6.40853955E-07
  -9.47000027        -6.80474272E-07
  -9.35499954        -7.22950858E-07
  -9.23999977        -7.68341579E-07
  -9.12500000        -8.16658655E-07
  -9.01000023        -8.67878668E-07
  -8.89500046        -9.21960634E-07
  -8.77999973        -9.78871867E-07
  -8.66499996        -1.03861623E-06
  -8.55000019        -1.10126257E-06
  -8.43500042        -1.16696492E-06
  -8.31999969        -1.23597147E-06
  -8.20499992        -1.30861667E-06
  -8.09000015        -1.38530277E-06
  -7.97499990        -1.46646551E-06
  -7.86000013        -1.55254111E-06
  -7.74499989        -1.64393225E-06
  -7.63000011        -1.74098284E-06
  -7.51499987        -1.84396458E-06
  -7.40000010        -1.95307439E-06
  -7.28499985        -2.06844129E-06
  -7.17000008        -2.19014009E-06
  -7.05499983        -2.31820877E-06
  -6.94000006        -2.45266392E-06
  -6.82499981        -2.59352078E-06
  -6.71000004        -2.74081071E-06
  -6.59499979        -2.89460195E-06
  -6.48000002        -3.05502272E-06
  -6.36499977        -3.22228084E-06
  -6.25000000        -3.39668281E-06
  -6.13500023        -3.57864315E-06
  -6.01999998        -3.76867911E-06
  -5.90500021        -3.96739324E-06
  -5.78999996        -4.17543833E-06
  -5.67500019        -4.39347514E-06
  -5.55999994        -4.62212574E-06
  -5.44500017        -4.86192857E-06
  -5.32999992        -5.11331291E-06
  -5.21500015        -5.37658298E-06
  -5.09999990        -5.65192749E-06
  -4.98500013        -5.93944105E-06
  -4.86999989        -6.23915639E-06
  -4.75500011        -6.55108897E-06
  -4.63999987        -6.87526835E-06
  -4.52500010        -7.21177366E-06
  -4.40999985        -7.56076133E-06
  -4.29500008        -7.92247738E-06
  -4.17999983        -8.29727378E-06
  -4.06500006        -8.68560892E-06
  -3.95000005        -9.08804668E-06
  -3.83500004        -9.50524827E-06
  -3.72000003        -9.93793947E-06
  -3.60500002        -1.03868906E-05
  -3.49000001        -1.08528593E-05
  -3.37500000        -1.13365559E-05
  -3.25999999        -1.18385851E-05
  -3.14499998        -1.23594136E-05
  -3.02999997        -1.28993461E-05
  -2.91499996        -1.34585280E-05
  -2.79999995        -1.40369639E-05
  -2.68499994        -1.46345601E-05
  -2.56999993        -1.52511793E-05
  -2.45499992        -1.58866987E-05
  -2.33999991        -1.65410620E-05
  -2.22499990        -1.72143100E-05
  -2.10999990        -1.79066228E-05
  -1.99500000        -1.86183170E-05
  -1.88000000        -1.93498345E-05
  -1.76499999        -2.01017265E-05
  -1.64999998        -2.08746333E-05
  -1.53499997        -2.16692206E-05
  -1.41999996        -2.24861706E-05
  -1.30499995        -2.33261162E-05
  -1.19000006        -2.41896068E-05
  -1.07500005        -2.50770645E-05
 -0.959999979        -2.59887565E-05
 -0.845000029        -2.69247666E-05
 -0.730000019        -2.78850148E-05
 -0.615000010        -2.88692572E-05
 -0.500000000        -2.98771392E-05
 -0.384999990        -3.09082607E-05
 -0.270000011        -3.19622268E-05
 -0.155000001        -3.30387084E-05
  -3.99999991E-02    -3.41375307E-05
   7.50000030E-02    -3.52586649E-05
  0.189999998        -3.64022635E-05
  0.305000007        -3.75686468E-05
  0.419999987        -3.87582659E-05
  0.535000026        -3.99716591E-05
  0.649999976        -4.12093941E-05
  0.764999986        -4.24719983E-05
  0.879999995        -4.37599410E-05
  0.995000005        -4.50735497E-05
   1.11000001        -4.64129917E-05
   1.22500002        -4.77782742E-05
   1.34000003        -4.91691972E-05
   1.45500004        -5.05853932E-05
   1.57000005        -5.20263529E-05
   1.68499994        -5.34914543E-05
   1.79999995        -5.49800425E-05
   1.91499996        -5.64914808E-05
   2.02999997        -5.80252236E-05
   2.14499998        -5.95808597E-05
   2.25999999        -6.11581636E-05
   2.37500000        -6.27571353E-05
   2.49000001        -6.43779713E-05
   2.60500002        -6.60210135E-05
   2.72000003        -6.76867567E-05
   2.83500004        -6.93757465E-05
   2.95000005        -7.10885215E-05
   3.06500006        -7.28255400E-05
   3.18000007        -7.45871585E-05
   3.29500008        -7.63735443E-05
   3.41000009        -7.81847411E-05
   3.52500010        -8.00205889E-05
   3.64000010        -8.18808039E-05
   3.75500011        -8.37649568E-05
   3.86999989        -8.56725455E-05
   3.98499990        -8.76030826E-05
   4.09999990        -8.95561243E-05
   4.21500015        -9.15312849E-05
   4.32999992        -9.35283460E-05
   4.44500017        -9.55472497E-05
   4.55999994        -9.75881267E-05
   4.67500019        -9.96513263E-05
   4.78999996        -1.01737314E-04
   4.90500021        -1.03846687E-04
   5.01999998        -1.05980100E-04
   5.13500023        -1.08138200E-04
   5.25000000        -1.10321576E-04
   5.36499977        -1.12530768E-04
   5.48000002        -1.14766146E-04
   5.59499979        -1.17027936E-04
   5.71000004        -1.19316319E-04
   5.82499981        -1.21631332E-04
   5.94000006        -1.23973005E-04
   6.05499983        -1.26341329E-04
   6.17000008        -1.28736399E-04
   6.28499985        -1.31158376E-04
   6.40000010        -1.33607609E-04
   6.51499987        -1.36084593E-04
   6.63000011        -1.38590054E-04
   6.74499989        -1.41124896E-04
   6.86000013        -1.43690195E-04
   6.97499990        -1.46287173E-04
   7.09000015        -1.48917126E-04
   7.20499992        -1.51581393E-04
   7.32000017        -1.54281253E-04
   7.43499994        -1.57017945E-04
   7.55000019        -1.59792660E-04
   7.66499996        -1.62606360E-04
   7.78000021        -1.65459962E-04
   7.89499998        -1.68354250E-04
   8.01000023        -1.71290027E-04
   8.12500000        -1.74267931E-04
   8.23999977        -1.77288646E-04
   8.35499954        -1.80352974E-04
   8.47000027        -1.83461758E-04
   8.58500004        -1.86615885E-04
   8.69999981        -1.89816506E-04
   8.81499958        -1.93064770E-04
   8.93000031        -1.96362016E-04
   9.04500008        -1.99709539E-04
   9.15999985        -2.03108764E-04
   9.27499962        -2.06561017E-04
   9.39000034        -2.10067534E-04
   9.50500011        -2.13629435E-04
   9.61999989        -2.17247696E-04
   9.73499966        -2.20923030E-04
   9.85000038        -2.24656018E-04
   9.96500015        -2.28447156E-04
   10.0799999        -2.32296734E-04
   10.1949997        -2.36204942E-04
   10.3100004        -2.40171939E-04
   10.4250002        -2.44198076E-04
   10.5400000        -2.48283643E-04
   10.6549997        -2.52428872E-04
   10.7700005        -2.56634259E-04
   10.8850002        -2.60900386E-04
   11.0000000        -2.65227747E-04
   11.1149998        -2.69616838E-04
   11.2299995        -2.74068327E-04
   11.3450003        -2.78582564E-04
   11.4600000        -2.83159869E-04
   11.5749998        -2.87800416E-04
   11.6899996        -2.92503944E-04
   11.8050003        -2.97270133E-04
   11.9200001        -3.02098226E-04
   12.0349998        -3.06987145E-04
   12.1499996        -3.11935844E-04
   12.2650003        -3.16942780E-04
   12.3800001        -3.22006352E-04
   12.4949999        -3.27124959E-04
   12.6099997        -3.32296942E-04
   12.7250004        -3.37520556E-04
   12.8400002        -3.42794083E-04
   12.9549999        -3.48115864E-04
   13.0699997        -3.53484094E-04
   13.1850004        -3.58897028E-04
   13.3000002        -3.64352687E-04
   13.4150000        -3.69849091E-04
   13.5299997        -3.75383766E-04
   13.6450005        -3.80954327E-04
   13.7600002        -3.86557833E-04
   13.8750000        -3.92191170E-04
   13.9899998        -3.97850876E-04
   14.1049995        -4.03533224E-04
   14.2200003        -4.09233995E-04
   14.3350000        -4.14949056E-04
   14.4499998        -4.20673867E-04
   14.5649996        -4.26403887E-04
   14.6800003        -4.32134548E-04
   14.7950001        -4.37861250E-04
   14.9099998        -4.43579600E-04
   15.0249996        -4.49284969E-04
   15.1400003        -4.54973255E-04
   15.2550001        -4.60640120E-04
   15.3699999        -4.66281199E-04
   15.4849997        -4.71892126E-04
   15.6000004        -4.77468362E-04
   15.7150002        -4.83005017E-04
   15.8299999        -4.88496968E-04
   15.9449997        -4.93938860E-04
   16.0599995        -4.99324931E-04
   16.1749992        -5.04649070E-04
   16.2900009        -5.09904872E-04
   16.4050007        -5.15085587E-04
   16.5200005        -5.20184170E-04
   16.6350002        -5.25193813E-04
   16.7500000        -5.30106830E-04
   16.8649998        -5.34916297E-04
   16.9799995        -5.39614994E-04
   17.0949993        -5.44195762E-04
   17.2099991        -5.48651675E-04
   17.3250008        -5.52975922E-04
   17.4400005        -5.57162159E-04
   17.5550003        -5.61203633E-04
   17.6700001        -5.65093884E-04
   17.7849998        -5.68826392E-04
   17.8999996        -5.72394812E-04
   18.0149994        -5.75792219E-04
   18.1299992        -5.79011859E-04
   18.2450008        -5.82046516E-04
   18.3600006        -5.84889029E-04
   18.4750004        -5.87531831E-04
   18.5900002        -5.89967414E-04
   18.7049999        -5.92188095E-04
   18.8199997        -5.94186014E-04
   18.9349995        -5.95953665E-04
   19.0499992        -5.97483246E-04
   19.1650009        -5.98767365E-04
   19.2800007        -5.99798863E-04
   19.3950005        -6.00570580E-04
   19.5100002        -6.01075939E-04
   19.6250000        -6.01308479E-04
   19.7399998        -6.01262029E-04
   19.8549995        -6.00930653E-04
   19.9699993        -6.00308587E-04
   20.0849991        -5.99390245E-04
   20.2000008        -5.98170212E-04
   20.3150005        -5.96642960E-04
   20.4300003        -5.94802957E-04
   20.5450001        -5.92644908E-04
   20.6599998        -5.90163283E-04
   20.7749996        -5.87352901E-04
   20.8899994        -5.84208523E-04
   21.0049992        -5.80725202E-04
   21.1200008        -5.76898048E-04
   21.2350006        -5.72722580E-04
   21.3500004        -5.68194431E-04
   21.4650002        -5.63309819E-04
   21.5799999        -5.58064901E-04
   21.6949997        -5.52456826E-04
   21.8099995        -5.46482683E-04
   21.9249992        -5.40140201E-04
   22.0400009        -5.33427228E-04
   22.1550007        -5.26342192E-04
   22.2700005        -5.18883870E-04
   22.3850002        -5.11051039E-04
   22.5000000        -5.02842828E-04
   22.6149998        -4.94258362E-04
   22.7299995        -4.85297176E-04
   22.8449993        -4.75958601E-04
   22.9599991        -4.66242083E-04
   23.0750008        -4.56147565E-04
   23.1900005        -4.45674494E-04
   23.3050003        -4.34823130E-04
   23.4200001        -4.23593359E-04
   23.5349998        -4.11985762E-04
   23.6499996        -4.00000717E-04
   23.7649994        -3.87638836E-04
   23.8799992        -3.74901167E-04
   23.9950008        -3.61788669E-04
   24.1100006        -3.48302769E-04
   24.2250004        -3.34445067E-04
   24.3400002        -3.20217310E-04
   24.4549999        -3.05621448E-04
   24.5699997        -2.90659693E-04
   24.6849995        -2.75334285E-04
   24.7999992        -2.59647612E-04
   24.9150009        -2.43602088E-04
   25.0300007        -2.27200275E-04
   25.1450005        -2.10444909E-04
   25.2600002        -1.93338085E-04
   25.3750000        -1.75882829E-04
   25.4899998        -1.58081617E-04
   25.6049995        -1.39937038E-04
   25.7199993        -1.21451827E-04
   25.8349991        -1.02628488E-04
   25.9500008        -8.34699313E-05
   26.0650005        -6.39783975E-05
   26.1800003        -4.41568263E-05
   26.2950001        -2.40074878E-05
   26.4099998        -3.53288488E-06
   26.5249996         1.72644650E-05
   26.6399994         3.83818115E-05
   26.7549992         5.98170154E-05
   26.8700008         8.15673266E-05
   26.9850006         1.03630460E-04
   27.1000004         1.26003695E-04
   27.2150002         1.48684921E-04
   27.3299999         1.71671607E-04
   27.4449997         1.94961234E-04
   27.5599995         2.18551577E-04
   27.6749992         2.42440437E-04
   27.7900009         2.66625750E-04
   27.9050007         2.91105272E-04
   28.0200005         3.15876940E-04
   28.1350002         3.40938801E-04
   28.2500000         3.66289198E-04
   28.3649998         3.91926151E-04
   28.4799995         4.17847798E-04
   28.5949993         4.44052712E-04
   28.7099991         4.70538565E-04
   28.8250008         4.97303670E-04
   28.9400005         5.24346018E-04
   29.0550003         5.51663339E-04
   29.1700001         5.79253363E-04
   29.2849998         6.07113179E-04
   29.3999996         6.35239761E-04
   29.5149994         6.63630082E-04
   29.6299992         6.92279777E-04
   29.7450008         7.21185002E-04
   29.8600006         7.50340871E-04
   29.9750004         7.79742317E-04
   30.0900002         8.09384510E-04
   30.2049999         8.39261338E-04
   30.3199997         8.69366457E-04
   30.4349995         8.99693696E-04
   30.5499992         9.30236420E-04
   30.6650009         9.60987411E-04
   30.7800007         9.91939567E-04
   30.8950005         1.02308451E-03
   31.0100002         1.05441432E-03
   31.1250000         1.08592038E-03
   31.2399998         1.11759303E-03
   31.3549995         1.14942202E-03
   31.4699993         1.18139712E-03
   31.5849991         1.21350598E-03
   31.7000008         1.24573684E-03
   31.8150005         1.27807586E-03
   31.9300003         1.31050928E-03
   32.0449982         1.34302082E-03
   32.1599998         1.37559487E-03
   32.2750015         1.40821387E-03
   32.3899994         1.44085952E-03
   32.5050011         1.47351262E-03
   32.6199989         1.50615303E-03
   32.7350006         1.53875945E-03
   32.8499985         1.57131045E-03
   32.9650002         1.60378322E-03
   33.0800018         1.63615355E-03
   33.1949997         1.66839769E-03
   33.3100014         1.70049025E-03
   33.4249992         1.73240528E-03
   33.5400009         1.76411495E-03
   33.6549988         1.79559225E-03
   33.7700005         1.82680739E-03
   33.8849983         1.85773091E-03
   34.0000000         1.88833196E-03
   34.1150017         1.91857864E-03
   34.2299995         1.94843882E-03
   34.3450012         1.97787839E-03
   34.4599991         2.00686301E-03
   34.5750008         2.03535822E-03
   34.6899986         2.06332747E-03
   34.8050003         2.09073513E-03
   34.9199982         2.11754395E-03
   35.0349998         2.14371760E-03
   35.1500015         2.16921838E-03
   35.2649994         2.19401042E-03
   35.3800011         2.21805414E-03
   35.4949989         2.24131392E-03
   35.6100006         2.26375181E-03
   35.7249985         2.28533056E-03
   35.8400002         2.30601244E-03
   35.9550018         2.32576113E-03
   36.0699997         2.34454055E-03
   36.1850014         2.36231321E-03
   36.2999992         2.37904279E-03
   36.4150009         2.39469367E-03
   36.5299988         2.40922999E-03
   36.6450005         2.42261635E-03
   36.7599983         2.43481738E-03
   36.8750000         2.44579883E-03
   36.9900017         2.45552603E-03
   37.1049995         2.46396521E-03
   37.2200012         2.47108284E-03
   37.3349991         2.47684633E-03
   37.4500008         2.48122355E-03
   37.5649986         2.48418399E-03
   37.6800003         2.48569646E-03
   37.7949982         2.48573162E-03
   37.9099998         2.48426083E-03
   38.0250015         2.48125591E-03
   38.1399994         2.47668941E-03
   38.2550011         2.47053523E-03
   38.3699989         2.46276800E-03
   38.4850006         2.45336210E-03
   38.5999985         2.44229473E-03
   38.7150002         2.42954213E-03
   38.8300018         2.41508172E-03
   38.9449997         2.39889254E-03
   39.0600014         2.38095247E-03
   39.1749992         2.36124126E-03
   39.2900009         2.33973889E-03
   39.4049988         2.31642602E-03
   39.5200005         2.29128310E-03
   39.6349983         2.26429245E-03
   39.7500000         2.23543588E-03
   39.8650017         2.20469479E-03
   39.9799995         2.17205333E-03
   40.0950012         2.13749404E-03
   40.2099991         2.10100133E-03
   40.3250008         2.06255913E-03
   40.4399986         2.02215137E-03
   40.5550003         1.97976315E-03
   40.6699982         1.93537958E-03
   40.7849998         1.88898668E-03
   40.9000015         1.84056989E-03
   41.0149994         1.79011526E-03
   41.1300011         1.73760927E-03
   41.2449989         1.68303750E-03
   41.3600006         1.62638654E-03
   41.4749985         1.56764174E-03
   41.5900002         1.50678912E-03
   41.7050018         1.44381484E-03
   41.8199997         1.37870410E-03
   41.9350014         1.31144188E-03
   42.0499992         1.24201423E-03
   42.1650009         1.17040472E-03
   42.2799988         1.09659857E-03
   42.3950005         1.02057995E-03
   42.5099983         9.42332787E-04
   42.6250000         8.61842535E-04
   42.7400017         7.79094175E-04
   42.8549995         6.94071758E-04
   42.9700012         6.06760732E-04
   43.0849991         5.17146313E-04
   43.2000008         4.25214996E-04
   43.3149986         3.30951880E-04
   43.4300003         2.34343694E-04
   43.5449982         1.35377282E-04
   43.6599998         3.40386759E-05
   43.7750015        -6.96843490E-05
   43.8899994        -1.75804948E-04
   44.0050011        -2.84335809E-04
   44.1199989        -3.95289389E-04
   44.2350006        -5.08676516E-04
   44.3499985        -6.24509936E-04
   44.4650002        -7.42799661E-04
   44.5800018        -8.63557798E-04
   44.6949997        -9.86793195E-04
   44.8100014        -1.11251615E-03
   44.9249992        -1.24073320E-03
   45.0400009        -1.37145130E-03
   45.1549988        -1.50467479E-03
   45.2700005        -1.64040783E-03
   45.3849983        -1.77865103E-03
   45.5000000        -1.91940437E-03
   45.6150017        -2.06266739E-03
   45.7299995        -2.20843405E-03
   45.8450012        -2.35669734E-03
   45.9599991        -2.50744959E-03
   46.0750008        -2.66068080E-03
   46.1899986        -2.81637814E-03
   46.3050003        -2.97452603E-03
   46.4199982        -3.13510839E-03
   46.5349998        -3.29810660E-03
   46.6500015        -3.46349855E-03
   46.7649994        -3.63126118E-03
   46.8800011        -3.80136818E-03
   46.9949989        -3.97379138E-03
   47.1100006        -4.14849771E-03
   47.2249985        -4.32545319E-03
   47.3400002        -4.50461823E-03
   47.4550018        -4.68595279E-03
   47.5699997        -4.86940984E-03
   47.6850014        -5.05494233E-03
   47.7999992        -5.24249626E-03
   47.9150009        -5.43201575E-03
   48.0299988        -5.62344072E-03
   48.1450005        -5.81670739E-03
   48.2599983        -6.01174636E-03
   48.3750000        -6.20849011E-03
   48.4900017        -6.40685949E-03
   48.6049995        -6.60677906E-03
   48.7200012        -6.80816593E-03
   48.8349991        -7.01093301E-03
   48.9500008        -7.21499231E-03
   49.0649986        -7.42025021E-03
   49.1800003        -7.62661267E-03
   49.2949982        -7.83397723E-03
   49.4099998        -8.04223958E-03
   49.5250015        -8.25129449E-03
   49.6399994        -8.46102927E-03
   49.7550011        -8.67133029E-03
   49.8699989        -8.88207648E-03
   49.9850006        -9.09314863E-03
   50.0999985        -9.30441730E-03
   50.2150002        -9.51575302E-03
   50.3300018        -9.72702168E-03
   50.4449997        -9.93808918E-03
   50.5600014        -1.01488149E-02
   50.6749992        -1.03590535E-02
   50.7900009        -1.05686607E-02
   50.9049988        -1.07774865E-02
   51.0200005        -1.09853819E-02
   51.1349983        -1.11921905E-02
   51.2500000        -1.13977566E-02
   51.3650017        -1.16019240E-02
   51.4799995        -1.18045295E-02
   51.5950012        -1.20054111E-02
   51.7099991        -1.22044049E-02
   51.8250008        -1.24013470E-02
   51.9399986        -1.25960670E-02
   52.0550003        -1.27883991E-02
   52.1699982        -1.29781738E-02
   52.2849998        -1.31652188E-02
   52.4000015        -1.33493645E-02
   52.5149994        -1.35304360E-02
   52.6300011        -1.37082664E-02
   52.7449989        -1.38826836E-02
   52.8600006        -1.40535142E-02
   52.9749985        -1.42205842E-02
   53.0900002        -1.43837323E-02
   53.2050018        -1.45427752E-02
   53.3199997        -1.46975555E-02
   53.4350014        -1.48478970E-02
   53.5499992        -1.49936369E-02
   53.6650009        -1.51346056E-02
   53.7799988        -1.52706420E-02
   53.8950005        -1.54015822E-02
   54.0099983        -1.55272642E-02
   54.1250000        -1.56475324E-02
   54.2400017        -1.57622285E-02
   54.3549995        -1.58712026E-02
   54.4700012        -1.59743000E-02
   54.5849991        -1.60713829E-02
   54.7000008        -1.61623023E-02
   54.8149986        -1.62469205E-02
   54.9300003        -1.63251013E-02
   55.0449982        -1.63967106E-02
   55.1599998        -1.64616201E-02
   55.2750015        -1.65197030E-02
   55.3899994        -1.65708326E-02
   55.5050011        -1.66148953E-02
   55.6199989        -1.66517776E-02
   55.7350006        -1.66813657E-02
   55.8499985        -1.67035572E-02
   55.9650002        -1.67182460E-02
   56.0800018        -1.67253390E-02
   56.1949997        -1.67247448E-02
   56.3100014        -1.67163759E-02
   56.4249992        -1.67001523E-02
   56.5400009        -1.66760013E-02
   56.6549988        -1.66438464E-02
   56.7700005        -1.66036282E-02
   56.8849983        -1.65552907E-02
   57.0000000        -1.64987780E-02
   57.1150017        -1.64340492E-02
   57.2299995        -1.63610578E-02
   57.3450012        -1.62797756E-02
   57.4599991        -1.61901750E-02
   57.5750008        -1.60922371E-02
   57.6899986        -1.59859452E-02
   57.8050003        -1.58712883E-02
   57.9199982        -1.57482699E-02
   58.0349998        -1.56168863E-02
   58.1500015        -1.54771553E-02
   58.2649994        -1.53290834E-02
   58.3800011        -1.51727013E-02
   58.4949989        -1.50080323E-02
   58.6100006        -1.48351137E-02
   58.7249985        -1.46539891E-02
   58.8400002        -1.44647053E-02
   58.9550018        -1.42673226E-02
   59.0699997        -1.40619064E-02
   59.1850014        -1.38485273E-02
   59.2999992        -1.36272712E-02
   59.4150009        -1.33982254E-02
   59.5299988        -1.31614879E-02
   59.6450005        -1.29171582E-02
   59.7599983        -1.26653556E-02
   59.8750000        -1.24061955E-02
   59.9900017        -1.21398000E-02
   60.1049995        -1.18663041E-02
   60.2200012        -1.15858447E-02
   60.3349991        -1.12985633E-02
   60.4500008        -1.10046128E-02
   60.5649986        -1.07041476E-02
   60.6800003        -1.03973327E-02
   60.7949982        -1.00843403E-02
   60.9099998        -9.76534560E-03
   61.0250015        -9.44053475E-03
   61.1399994        -9.11009870E-03
   61.2550011        -8.77423957E-03
   61.3699989        -8.43315944E-03
   61.4850006        -8.08707438E-03
   61.5999985        -7.73620512E-03
   61.7150002        -7.38077983E-03
   61.8300018        -7.02103227E-03
   61.9449997        -6.65719621E-03
   62.0600014        -6.28952123E-03
   62.1749992        -5.91825228E-03
   62.2900009        -5.54364361E-03
   62.4049988        -5.16595459E-03
   62.5200005        -4.78544086E-03
   62.6349983        -4.40237112E-03
   62.7500000        -4.01700800E-03
   62.8650017        -3.62962345E-03
   62.9799995        -3.24048894E-03
   63.0950012        -2.84988503E-03
   63.2099991        -2.45809206E-03
   63.3250008        -2.06538779E-03
   63.4399986        -1.67206000E-03
   63.5550003        -1.27839902E-03
   63.6699982        -8.84692185E-04
   63.7849998        -4.91232146E-04
   63.9000015        -9.83099453E-05
   64.0149994         2.93776859E-04
   64.1299973         6.84739556E-04
   64.2450027         1.07428292E-03
   64.3600006         1.46211730E-03
   64.4749985         1.84795214E-03
   64.5899963         2.23150104E-03
   64.7050018         2.61247926E-03
   64.8199997         2.99060601E-03
   64.9349976         3.36560491E-03
   65.0500031         3.73720564E-03
   65.1650009         4.10513626E-03
   65.2799988         4.46913159E-03
   65.3949966         4.82893363E-03
   65.5100021         5.18428348E-03
   65.6250000         5.53492922E-03
   65.7399979         5.88063244E-03
   65.8550034         6.22115098E-03
   65.9700012         6.55625388E-03
   66.0849991         6.88571390E-03
   66.1999969         7.20930751E-03
   66.3150024         7.52682891E-03
   66.4300003         7.83807039E-03
   66.5449982         8.14284198E-03
   66.6600037         8.44095554E-03
   66.7750015         8.73223599E-03
   66.8899994         9.01652407E-03
   67.0049973         9.29365680E-03
   67.1200027         9.56348982E-03
   67.2350006         9.82589182E-03
   67.3499985         1.00807324E-02
   67.4649963         1.03278980E-02
   67.5800018         1.05672795E-02
   67.6949997         1.07987868E-02
   67.8099976         1.10223293E-02
   67.9250031         1.12378327E-02
   68.0400009         1.14452336E-02
   68.1549988         1.16444752E-02
   68.2699966         1.18355118E-02
   68.3850021         1.20183118E-02
   68.5000000         1.21928472E-02
   68.6149979         1.23591116E-02
   68.7300034         1.25170937E-02
   68.8450012         1.26668038E-02
   68.9599991         1.28082521E-02
   69.0749969         1.29414666E-02
   69.1900024         1.30664790E-02
   69.3050003         1.31833311E-02
   69.4199982         1.32920714E-02
   69.5350037         1.33927520E-02
   69.6500015         1.34854428E-02
   69.7649994         1.35702174E-02
   69.8799973         1.36471419E-02
   69.9950027         1.37163047E-02
   70.1100006         1.37777952E-02
   70.2249985         1.38317030E-02
   70.3399963         1.38781331E-02
   70.4550018         1.39171872E-02
   70.5699997         1.39489770E-02
   70.6849976         1.39736170E-02
   70.8000031         1.39912199E-02
   70.9150009         1.40019096E-02
   71.0299988         1.40058026E-02
   71.1449966         1.40030263E-02
   71.2600021         1.39937047E-02
   71.3750000         1.39779607E-02
   71.4899979         1.39559200E-02
   71.6050034         1.39277093E-02
   71.7200012         1.38934534E-02
   71.8349991         1.38532743E-02
   71.9499969         1.38072949E-02
   72.0650024         1.37556326E-02
   72.1800003         1.36984140E-02
   72.2949982         1.36357509E-02
   72.4100037         1.35677550E-02
   72.5250015         1.34945437E-02
   72.6399994         1.34162260E-02
   72.7549973         1.33329052E-02
   72.8700027         1.32446922E-02
   72.9850006         1.31516764E-02
   73.0999985         1.30539574E-02
   73.2149963         1.29516339E-02
   73.3300018         1.28447935E-02
   73.4449997         1.27335135E-02
   73.5599976         1.26178814E-02
   73.6750031         1.24979699E-02
   73.7900009         1.23738544E-02
   73.9049988         1.22455861E-02
   74.0199966         1.21132387E-02
   74.1350021         1.19768642E-02