  -18.8999996        -0.00000000    
  -18.7849998        -0.00000000    
  -18.6700001        -0.00000000    
  -18.5550003        -0.00000000    
  -18.4400005        -0.00000000    
  -18.3250008        -0.00000000    
  -18.2099991        -0.00000000    
  -18.0949993        -0.00000000    
  -17.9799995        -0.00000000    
  -17.8649998        -0.00000000    
  -17.7500000        -0.00000000    
  -17.6350002        -0.00000000    
  -17.5200005        -0.00000000    
  -17.4050007        -0.00000000    
  -17.2900009        -0.00000000    
  -17.1749992        -0.00000000    
  -17.0599995        -0.00000000    
  -16.9449997        -0.00000000    
  -16.8299999        -0.00000000    
  -16.7150002        -0.00000000    
  -16.6000004        -0.00000000    
  -16.4850006        -0.00000000    
  -16.3700008        -0.00000000    
  -16.2549992        -0.00000000    
  -16.1399994        -0.00000000    
  -16.0249996        -0.00000000    
  -15.9099998        -0.00000000    
  -15.7950001        -0.00000000    
  -15.6800003        -0.00000000    
  -15.5649996         1.28869869E-31
  -15.4499998         4.13509243E-31
  -15.3350000         8.78164810E-31
  -15.2200003         1.38267053E-30
  -15.1049995         1.75381782E-30
  -14.9899998         1.93350088E-30
  -14.8750000         1.47907019E-30
  -14.7600002        -1.31773258E-31
  -14.6450005        -3.40225756E-30
  -14.5299997        -8.84408923E-30
  -14.4150000        -1.70502217E-29
  -14.3000002        -2.84989423E-29
  -14.1850004        -4.34424615E-29
  -14.0699997        -6.22316474E-29
  -13.9549999        -8.47302286E-29
  -13.8400002        -1.10076911E-28
  -13.7250004        -1.35306317E-28
  -13.6099997        -1.55872504E-28
  -13.4949999        -1.61978605E-28
  -13.3800001        -1.38201447E-28
  -13.2650003        -5.94215652E-29
  -13.1499996         1.11028778E-28
  -13.0349998         4.23109475E-28
  -12.9200001         9.39329960E-28
  -12.8050003         1.72809553E-27
  -12.6899996         2.84966180E-27
  -12.5749998         4.32905410E-27
  -12.4600000         6.11414811E-27
  -12.3450003         8.01794372E-27
  -12.2299995         9.64867483E-27
  -12.1149998         1.03346356E-26
  -12.0000000         9.06406881E-27
  -11.8850002         4.46706662E-27
  -11.7700005        -5.12122799E-27
  -11.6549997        -2.14699388E-26
  -11.5400000        -4.60865237E-26
  -11.4250002        -7.96402292E-26
  -11.3100004        -1.21167125E-25
  -11.1949997        -1.67099907E-25
  -11.0799999        -2.10237816E-25
  -10.9650002        -2.38864666E-25
  -10.8500004        -2.36322143E-25
  -10.7349997        -1.81434569E-25
  -10.6199999        -5.02294609E-26
  -10.5050001         1.80627910E-25
  -10.3900003         5.28405560E-25
  -10.2749996         9.96881652E-25
  -10.1599998         1.56736495E-24
  -10.0450001         2.18918013E-24
  -9.93000031         2.77131056E-24
  -9.81499958         3.17756289E-24
  -9.69999981         3.22812808E-24
  -9.58500004         2.71058662E-24
  -9.47000027         1.40305252E-24
  -9.35499954        -8.88940730E-25
  -9.23999977        -4.28211330E-24
  -9.12500000        -8.75472153E-24
  -9.01000023        -1.40818866E-23
  -8.89500046        -1.97771152E-23
  -8.77999973        -2.50534840E-23
  -8.66499996        -2.88203137E-23
  -8.55000019        -2.97315049E-23
  -8.43500042        -2.62991837E-23
  -8.31999969        -1.70806167E-23
  -8.20499992        -9.36427494E-25
  -8.09000015         2.26545517E-23
  -7.97499990         5.32541822E-23
  -7.86000013         8.91439581E-23
  -7.74499989         1.27084293E-22
  -7.63000011         1.62223666E-22
  -7.51499987         1.88227501E-22
  -7.40000010         1.97686397E-22
  -7.28499985         1.82839454E-22
  -7.17000008         1.36610590E-22
  -7.05499983         5.39066711E-23
  -6.94000006        -6.69315977E-23
  -6.82499981        -2.22694045E-22
  -6.71000004        -4.04099489E-22
  -6.59499979        -5.95081730E-22
  -6.48000002        -7.72821861E-22
  -6.36499977        -9.08754636E-22
  -6.25000000        -9.70703214E-22
  -6.13500023        -9.26178037E-22
  -6.01999998        -7.46722909E-22
  -5.90500021        -4.13004883E-22
  -5.78999996         7.98405049E-23
  -5.67500019         7.17270049E-22
  -5.55999994         1.46158311E-21
  -5.44500017         2.25019279E-21
  -5.32999992         2.99670209E-21
  -5.21500015         3.59537729E-21
  -5.09999990         3.92934540E-21
  -4.98500013         3.88239563E-21
  -4.86999989         3.35381086E-21
  -4.75500011         2.27506455E-21
  -4.63999987         6.26764100E-22
  -4.52500010        -1.54625583E-21
  -4.40999985        -4.12400184E-21
  -4.29500008        -6.90691692E-21
  -4.17999983        -9.62009437E-21
  -4.06500006        -1.19275801E-20
  -3.95000005        -1.34574143E-20
  -3.83500004        -1.38368269E-20
  -3.72000003        -1.27357340E-20
  -3.60500002        -9.91517247E-21
  -3.49000001        -5.27621799E-21
  -3.37500000         1.09634500E-21
  -3.25999999         8.90165973E-21
  -3.14499998         1.76079546E-20
  -3.02999997         2.64605578E-20
  -2.91499996         3.45167606E-20
  -2.79999995         4.07089927E-20
  -2.68499994         4.39354042E-20
  -2.56999993         4.31730248E-20
  -2.45499992         3.76059151E-20
  -2.33999991         2.67572717E-20
  -2.22499990         1.06116303E-20
  -2.10999990        -1.02873109E-20
  -1.99500000        -3.47790932E-20
  -1.88000000        -6.10823769E-20
  -1.76499999        -8.68551986E-20
  -1.64999998        -1.09325062E-19
  -1.53499997        -1.25488146E-19
  -1.41999996        -1.32370431E-19
  -1.30499995        -1.27333443E-19
  -1.19000006        -1.08403189E-19
  -1.07500005        -7.45921620E-20
 -0.959999979        -2.61804570E-20
 -0.845000029         3.50779251E-20
 -0.730000019         1.05857282E-19
 -0.615000010         1.81297905E-19
 -0.500000000         2.55198402E-19
 -0.384999990         3.20366922E-19
 -0.270000011         3.69124256E-19
 -0.155000001         3.93932359E-19
  -3.99999991E-02     3.88108930E-19
   7.50000030E-02     3.46572211E-19
  0.189999998         2.66553627E-19
  0.305000007         1.48204710E-19
  0.419999987        -4.96777534E-21
  0.535000026        -1.85903518E-19
  0.649999976        -3.84072547E-19
  0.764999986        -5.85870108E-19
  0.879999995        -7.75324401E-19
  0.995000005        -9.35091804E-19
   1.11000001        -1.04768442E-18
   1.22500002        -1.09685090E-18
   1.34000003        -1.06900914E-18
   1.45500004        -9.54619056E-19
   1.57000005        -7.49367215E-19
   1.68499994        -4.55067003E-19
   1.79999995        -8.01640119E-20
   1.91499996         3.60213194E-19
   2.02999997         8.44694301E-19
   2.14499998         1.34660082E-18
   2.25999999         1.83531505E-18
   2.37500000         2.27801901E-18
   2.49000001         2.64167677E-18
   2.60500002         2.89512863E-18
   2.72000003         3.01114650E-18
   2.83500004         2.96832646E-18
   2.95000005         2.75264656E-18
   3.06500006         2.35863748E-18
   3.18000007         1.79007385E-18
   3.29500008         1.06014704E-18
   3.41000009         1.91154719E-19
   3.52500010        -7.86249700E-19
   3.64000010        -1.83416444E-18
   3.75500011        -2.90880854E-18
   3.86999989        -3.96204790E-18
   3.98499990        -4.94297078E-18
   4.09999990        -5.79943400E-18
   4.21500015        -6.47953859E-18
   4.32999992        -6.93299487E-18
   4.44500017        -7.11239504E-18
   4.55999994        -6.97444034E-18
   4.67500019        -6.48120701E-18
   4.78999996        -5.60142681E-18
   4.90500021        -4.31201478E-18
   5.01999998        -2.59968825E-18
   5.13500023        -4.62842088E-19
   5.25000000         2.08642744E-18
   5.36499977         5.02023689E-18
   5.48000002         8.29286035E-18
   5.59499979         1.18389365E-17
   5.71000004         1.55721019E-17
   5.82499981         1.93842812E-17
   5.94000006         2.31458039E-17
   6.05499983         2.67066610E-17
   6.17000008         2.98988337E-17
   6.28499985         3.25399353E-17
   6.40000010         3.44381362E-17
   6.51499987         3.53981785E-17
   6.63000011         3.52284345E-17
   6.74499989         3.37488830E-17
   6.86000013         3.07994646E-17
   6.97499990         2.62487288E-17
   7.09000015         2.00026003E-17
   7.20499992         1.20125534E-17
   7.32000017         2.28329849E-18
   7.43499994        -9.12050667E-18
   7.55000019        -2.20685203E-17
   7.66499996        -3.63603252E-17
   7.78000021        -5.17225813E-17
   7.89499998        -6.78077469E-17
   8.01000023        -8.41946581E-17
   8.12500000        -1.00391324E-16
   8.23999977        -1.15839816E-16
   8.35499954        -1.29924147E-16
   8.47000027        -1.41980827E-16
   8.58500004        -1.51312550E-16
   8.69999981        -1.57205689E-16
   8.81499958        -1.58951013E-16
   8.93000031        -1.55867972E-16
   9.04500008        -1.47332090E-16
   9.15999985        -1.32805316E-16
   9.27499962        -1.11867866E-16
   9.39000034        -8.42510453E-17
   9.50500011        -4.98687901E-17
   9.61999989        -8.84702091E-18
   9.73499966         3.84509912E-17
   9.85000038         9.14063230E-17
   9.96500015         1.49133676E-16
   10.0799999         2.10480832E-16
   10.1949997         2.74039458E-16
   10.3100004         3.38167766E-16
   10.4250002         4.01026267E-16
   10.5400000         4.60625358E-16
   10.6549997         5.14884912E-16
   10.7700005         5.61702593E-16
   10.8850002         5.99030329E-16
   11.0000000         6.24955626E-16
   11.1149998         6.37782563E-16
   11.2299995         6.36113591E-16
   11.3450003         6.18921363E-16
   11.4600000         5.85615975E-16
   11.5749998         5.36095623E-16
   11.6899996         4.70785465E-16
   11.8050003         3.90657286E-16
   11.9200001         2.97231061E-16
   12.0349998         1.92555603E-16
   12.1499996         7.91728644E-17
   12.2650003        -3.99387681E-17
   12.3800001        -1.61438709E-16
   12.4949999        -2.81712173E-16
   12.6099997        -3.96971573E-16
   12.7250004        -5.03368705E-16
   12.8400002        -5.97110794E-16
   12.9549999        -6.74582439E-16
   13.0699997        -7.32463694E-16
   13.1850004        -7.67845478E-16
   13.3000002        -7.78337199E-16
   13.4150000        -7.62157493E-16
   13.5299997        -7.18211359E-16
   13.6450005        -6.46151725E-16
   13.7600002        -5.46410472E-16
   13.8750000        -4.20213151E-16
   13.9899998        -2.69548489E-16
   14.1049995        -9.71357796E-17
   14.2200003         9.36615681E-17
   14.3350000         2.98944344E-16
   14.4499998         5.14408403E-16
   14.5649996         7.35508778E-16
   14.6800003         9.57646768E-16
   14.7950001         1.17636327E-15
   14.9099998         1.38756512E-15
   15.0249996         1.58773552E-15
   15.1400003         1.77415773E-15
   15.2550001         1.94512201E-15
   15.3699999         2.10011740E-15
   15.4849997         2.24000150E-15
   15.6000004         2.36713437E-15
   15.7150002         2.48547461E-15
   15.8299999         2.60062239E-15
   15.9449997         2.71982533E-15
   16.0599995         2.85192012E-15
   16.1749992         3.00721091E-15
   16.2900009         3.19729781E-15
   16.4050007         3.43485413E-15
   16.5200005         3.73332736E-15
   16.6350002         4.10661309E-15
   16.7500000         4.56866787E-15
   16.8649998         5.13309843E-15
   16.9799995         5.81272972E-15
   17.0949993         6.61914744E-15
   17.2099991         7.56225425E-15
   17.3250008         8.64984625E-15
   17.4400005         9.88720722E-15
   17.5550003         1.12767919E-14
   17.6700001         1.28179463E-14
   17.7849998         1.45067216E-14
   17.8999996         1.63357893E-14
   18.0149994         1.82944920E-14
   18.1299992         2.03689740E-14
   18.2450008         2.25424842E-14
   18.3600006         2.47958121E-14
   18.4750004         2.71077851E-14
   18.5900002         2.94559841E-14
   18.7049999         3.18174679E-14
   18.8199997         3.41696445E-14
   18.9349995         3.64911958E-14
   19.0499992         3.87629517E-14
   19.1650009         4.09689067E-14
   19.2800007         4.30970059E-14
   19.3950005         4.51400459E-14
   19.5100002         4.70962516E-14
   19.6250000         4.89699359E-14
   19.7399998         5.07716563E-14
   19.8549995         5.25185703E-14
   19.9699993         5.42341169E-14
   20.0849991         5.59477798E-14
   20.2000008         5.76944159E-14
   20.3150005         5.95134836E-14
   20.4300003         6.14478832E-14
   20.5450001         6.35426363E-14
   20.6599998         6.58436250E-14
   20.7749996         6.83957014E-14
   20.8899994         7.12413933E-14
   21.0049992         7.44189459E-14
   21.1200008         7.79608447E-14
   21.2350006         8.18922973E-14
   21.3500004         8.62300005E-14
   21.4650002         9.09809066E-14
   21.5799999         9.61415192E-14
   21.6949997         1.01697540E-13
   21.8099995         1.07623613E-13
   21.9249992         1.13884013E-13
   22.0400009         1.20433232E-13
   22.1550007         1.27217152E-13
   22.2700005         1.34174952E-13
   22.3850002         1.41240887E-13
   22.5000000         1.48346708E-13
   22.6149998         1.55424312E-13
   22.7299995         1.62408390E-13
   22.8449993         1.69239405E-13
   22.9599991         1.75866239E-13
   23.0750008         1.82249045E-13
   23.1900005         1.88361615E-13
   23.3050003         1.94193701E-13
   23.4200001         1.99752026E-13
   23.5349998         2.05062286E-13
   23.6499996         2.10168905E-13
   23.7649994         2.15135472E-13
   23.8799992         2.20043330E-13
   23.9950008         2.24990545E-13
   24.1100006         2.30089114E-13
   24.2250004         2.35462501E-13
   24.3400002         2.41242275E-13
   24.4549999         2.47563661E-13
   24.5699997         2.54561427E-13
   24.6849995         2.62365758E-13
   24.7999992         2.71096839E-13
   24.9150009         2.80860946E-13
   25.0300007         2.91745686E-13
   25.1450005         3.03816271E-13
   25.2600002         3.17111626E-13
   25.3750000         3.31642266E-13
   25.4899998         3.47387863E-13
   25.6049995         3.64296375E-13
   25.7199993         3.82283886E-13
   25.8349991         4.01235631E-13
   25.9500008         4.21008335E-13
   26.0650005         4.41432427E-13
   26.1800003         4.62316708E-13
   26.2950001         4.83453555E-13
   26.4099998         5.04623849E-13
   26.5249996         5.25603432E-13
   26.6399994         5.46170585E-13
   26.7549992         5.66112153E-13
   26.8700008         5.85230107E-13
   26.9850006         6.03349347E-13
   27.1000004         6.20322804E-13
   27.2150002         6.36036688E-13
   27.3299999         6.50415919E-13
   27.4449997         6.63425424E-13
   27.5599995         6.75073170E-13
   27.6749992         6.85409737E-13
   27.7900009         6.94527010E-13
   27.9050007         7.02554876E-13
   28.0200005         7.09656617E-13
   28.1350002         7.16022619E-13
   28.2500000         7.21862023E-13
   28.3649998         7.27394273E-13
   28.4799995         7.32839245E-13
   28.5949993         7.38406515E-13
   28.7099991         7.44284192E-13
   28.8250008         7.50629268E-13
   28.9400005         7.57555910E-13
   29.0550003         7.65127219E-13
   29.1700001         7.73346556E-13
   29.2849998         7.82151904E-13
   29.3999996         7.91410340E-13
   29.5149994         8.00916842E-13
   29.6299992         8.10394503E-13
   29.7450008         8.19495838E-13
   29.8600006         8.27810693E-13
   29.9750004         8.34873186E-13
   30.0900002         8.40171465E-13
   30.2049999         8.43160719E-13
   30.3199997         8.43278735E-13
   30.4349995         8.39959233E-13
   30.5499992         8.32651602E-13
   30.6650009         8.20835804E-13
   30.7800007         8.04041187E-13
   30.8950005         7.81860742E-13
   31.0100002         7.53967364E-13
   31.1250000         7.20125782E-13
   31.2399998         6.80204157E-13
   31.3549995         6.34180642E-13
   31.4699993         5.82145280E-13
   31.5849991         5.24304558E-13
   31.7000008         4.60973924E-13
   31.8150005         3.92572802E-13
   31.9300003         3.19611958E-13
   32.0449982         2.42678924E-13
   32.1599998         1.62421373E-13
   32.2750015         7.95246166E-14
   32.3899994        -5.30946001E-15
   32.5050011        -9.13868590E-14
   32.6199989        -1.78046624E-13
   32.7350006        -2.64683186E-13
   32.8499985        -3.50770790E-13
   32.9650002        -4.35882504E-13
   33.0800018        -5.19711390E-13
   33.1949997        -6.02080668E-13
   33.3100014        -6.82955970E-13
   33.4249992        -7.62451734E-13
   33.5400009        -8.40827950E-13
   33.6549988        -9.18488267E-13
   33.7700005        -9.95969149E-13
   33.8849983        -1.07392112E-12
   34.0000000        -1.15309325E-12
   34.1150017        -1.23430671E-12
   34.2299995        -1.31842844E-12
   34.3450012        -1.40633945E-12
   34.4599991        -1.49890668E-12
   34.5750008        -1.59694827E-12
   34.6899986        -1.70120515E-12
   34.8050003        -1.81231137E-12
   34.9199982        -1.93076653E-12
   35.0349998        -2.05691627E-12
   35.1500015        -2.19093580E-12
   35.2649994        -2.33281623E-12
   35.3800011        -2.48236110E-12
   35.4949989        -2.63918661E-12
   35.6100006        -2.80273157E-12
   35.7249985        -2.97227000E-12
   35.8400002        -3.14693540E-12
   35.9550018        -3.32574246E-12
   36.0699997        -3.50762475E-12
   36.1850014        -3.69146597E-12
   36.2999992        -3.87613856E-12
   36.4150009        -4.06054400E-12
   36.5299988        -4.24365664E-12
   36.6450005        -4.42455534E-12
   36.7599983        -4.60246511E-12
   36.8750000        -4.77679094E-12
   36.9900017        -4.94713732E-12
   37.1049995        -5.11333857E-12
   37.2200012        -5.27546756E-12
   37.3349991        -5.43384001E-12
   37.4500008        -5.58902230E-12
   37.5649986        -5.74181414E-12
   37.6800003        -5.89322341E-12
   37.7949982        -6.04446181E-12
   37.9099998        -6.19688762E-12
   38.0250015        -6.35198665E-12
   38.1399994        -6.51131232E-12
   38.2550011        -6.67645973E-12
   38.3699989        -6.84899186E-12
   38.4850006        -7.03040664E-12
   38.5999985        -7.22208664E-12
   38.7150002        -7.42524098E-12
   38.8300018        -7.64089052E-12
   38.9449997        -7.86980897E-12
   39.0600014        -8.11250112E-12
   39.1749992        -8.36919509E-12
   39.2900009        -8.63981543E-12
   39.4049988        -8.92399262E-12
   39.5200005        -9.22107182E-12
   39.6349983        -9.53012495E-12
   39.7500000        -9.84998888E-12
   39.8650017        -1.01792906E-11
   39.9799995        -1.05164931E-11
   40.0950012        -1.08599527E-11
   40.2099991        -1.12079616E-11
   40.3250008        -1.15588129E-11
   40.4399986        -1.19108534E-11
   40.5550003        -1.22625365E-11
   40.6699982        -1.26124779E-11
   40.7849998        -1.29595145E-11
   40.9000015        -1.33027322E-11
   41.0149994        -1.36415098E-11
   41.1300011        -1.39755334E-11
   41.2449989        -1.43048247E-11
   41.3600006        -1.46297349E-11
   41.4749985        -1.49509467E-11
   41.5900002        -1.52694472E-11
   41.7050018        -1.55865060E-11
   41.8199997        -1.59036499E-11
   41.9350014        -1.62225927E-11
   42.0499992        -1.65451750E-11
   42.1650009        -1.68733569E-11
   42.2799988        -1.72090866E-11
   42.3950005        -1.75542844E-11
   42.5099983        -1.79107458E-11
   42.6250000        -1.82801101E-11
   42.7400017        -1.86637650E-11
   42.8549995        -1.90628104E-11
   42.9700012        -1.94780320E-11
   43.0849991        -1.99098169E-11
   43.2000008        -2.03581874E-11
   43.3149986        -2.08227255E-11
   43.4300003        -2.13026090E-11
   43.5449982        -2.17965975E-11
   43.6599998        -2.23030795E-11
   43.7750015        -2.28200549E-11
   43.8899994        -2.33452199E-11
   44.0050011        -2.38759845E-11
   44.1199989        -2.44095352E-11
   44.2350006        -2.49429054E-11
   44.3499985        -2.54730213E-11
   44.4650002        -2.59967707E-11
   44.5800018        -2.65110607E-11
   44.6949997        -2.70128989E-11
   44.8100014        -2.74994125E-11
   44.9249992        -2.79679301E-11
   45.0400009        -2.84159953E-11
   45.1549988        -2.88414032E-11
   45.2700005        -2.92422406E-11
   45.3849983        -2.96168749E-11
   45.5000000        -2.99639515E-11
   45.6150017        -3.02823877E-11
   45.7299995        -3.05713441E-11
   45.8450012        -3.08302099E-11
   45.9599991        -3.10585099E-11
   46.0750008        -3.12559111E-11
   46.1899986        -3.14221218E-11
   46.3050003        -3.15568509E-11
   46.4199982        -3.16597408E-11
   46.5349998        -3.17303024E-11
   46.6500015        -3.17678314E-11
   46.7649994        -3.17713668E-11
   46.8800011        -3.17396526E-11
   46.9949989        -3.16710339E-11
   47.1100006        -3.15634706E-11
   47.2249985        -3.14144682E-11
   47.3400002        -3.12210743E-11
   47.4550018        -3.09798888E-11
   47.5699997        -3.06870154E-11
   47.6850014        -3.03381348E-11
   47.7999992        -2.99284972E-11
   47.9150009        -2.94529644E-11
   48.0299988        -2.89060876E-11
   48.1450005        -2.82821509E-11
   48.2599983        -2.75752459E-11
   48.3750000        -2.67793600E-11
   48.4900017        -2.58884615E-11
   48.6049995        -2.48965813E-11
   48.7200012        -2.37979445E-11
   48.8349991        -2.25870277E-11
   48.9500008        -2.12586684E-11
   49.0649986        -1.98081742E-11
   49.1800003        -1.82313817E-11
   49.2949982        -1.65247642E-11
   49.4099998        -1.46854803E-11
   49.5250015        -1.27114309E-11
   49.6399994        -1.06013063E-11
   49.7550011        -8.35463469E-12
   49.8699989        -5.97175087E-12
   49.9850006        -3.45383444E-12
   50.0999985        -8.02840433E-13
   50.2150002         1.97851457E-12
   50.3300018         4.88683399E-12
   50.4449997         7.91807245E-12
   50.5600014         1.10677127E-11
   50.6749992         1.43308039E-11
   50.7900009         1.77021210E-11
   50.9049988         2.11762760E-11
   51.0200005         2.47478531E-11
   51.1349983         2.84115648E-11
   51.2500000         3.21623769E-11
   51.3650017         3.59956474E-11
   51.4799995         3.99072303E-11
   51.5950012         4.38936110E-11
   51.7099991         4.79519965E-11
   51.8250008         5.20803366E-11
   51.9399986         5.62774896E-11
   52.0550003         6.05430983E-11
   52.1699982         6.48777143E-11
   52.2849998         6.92826976E-11
   52.4000015         7.37601646E-11
   52.5149994         7.83128840E-11
   52.6300011         8.29442209E-11
   52.7449989         8.76579503E-11
   52.8600006         9.24580273E-11
   52.9749985         9.73485736E-11
   53.0900002         1.02333503E-10
   53.2050018         1.07416423E-10
   53.3199997         1.12600401E-10
   53.4350014         1.17887769E-10
   53.5499992         1.23279928E-10
   53.6650009         1.28777156E-10
   53.7799988         1.34378453E-10
   53.8950005         1.40081488E-10
   54.0099983         1.45882362E-10
   54.1250000         1.51775703E-10
   54.2400017         1.57754559E-10
   54.3549995         1.63810451E-10
   54.4700012         1.69933345E-10
   54.5849991         1.76111875E-10
   54.7000008         1.82333440E-10
   54.8149986         1.88584315E-10
   54.9300003         1.94849969E-10
   55.0449982         2.01115138E-10
   55.1599998         2.07364140E-10
   55.2750015         2.13581111E-10
   55.3899994         2.19750315E-10
   55.5050011         2.25856223E-10
   55.6199989         2.31883845E-10
   55.7350006         2.37818959E-10
   55.8499985         2.43648102E-10
   55.9650002         2.49358756E-10
   56.0800018         2.54939680E-10
   56.1949997         2.60380523E-10
   56.3100014         2.65672151E-10
   56.4249992         2.70806433E-10
   56.5400009         2.75776152E-10
   56.6549988         2.80574869E-10
   56.7700005         2.85196700E-10
   56.8849983         2.89636204E-10
   57.0000000         2.93888136E-10
   57.1150017         2.97947000E-10
   57.2299995         3.01807024E-10
   57.3450012         3.05461739E-10
   57.4599991         3.08903930E-10
   57.5750008         3.12125242E-10
   57.6899986         3.15116017E-10
   57.8050003         3.17865290E-10
   57.9199982         3.20360738E-10
   58.0349998         3.22588206E-10
   58.1500015         3.24532401E-10
   58.2649994         3.26176558E-10
   58.3800011         3.27502608E-10
   58.4949989         3.28491484E-10
   58.6100006         3.29123340E-10
   58.7249985         3.29377914E-10
   58.8400002         3.29234695E-10
   58.9550018         3.28673366E-10
   59.0699997         3.27674332E-10
   59.1850014         3.26218857E-10
   59.2999992         3.24289540E-10
   59.4150009         3.21870558E-10
   59.5299988         3.18948146E-10
   59.6450005         3.15510729E-10
   59.7599983         3.11549092E-10
   59.8750000         3.07056519E-10
   59.9900017         3.02029013E-10
   60.1049995         2.96465075E-10
   60.2200012         2.90365704E-10
   60.3349991         2.83734175E-10
   60.4500008         2.76576012E-10
   60.5649986         2.68898237E-10
   60.6800003         2.60709565E-10
   60.7949982         2.52019489E-10
   60.9099998         2.42838250E-10
   61.0250015         2.33176006E-10
   61.1399994         2.23042793E-10
   61.2550011         2.12447629E-10
   61.3699989         2.01398412E-10
   61.4850006         1.89901331E-10
   61.5999985         1.77960660E-10
   61.7150002         1.65578412E-10
   61.8300018         1.52754129E-10
   61.9449997         1.39484785E-10
   62.0600014         1.25764774E-10
   62.1749992         1.11585949E-10
   62.2900009         9.69377079E-11
   62.4049988         8.18073387E-11
   62.5200005         6.61802418E-11
   62.6349983         5.00403330E-11
   62.7500000         3.33705182E-11
   62.8650017         1.61531327E-11
   62.9799995        -1.62950556E-12
   63.0950012        -1.99945373E-11
   63.2099991        -3.89580590E-11
   63.3250008        -5.85345106E-11
   63.4399986        -7.87362744E-11
   63.5550003        -9.95730720E-11
   63.6699982        -1.21051669E-10
   63.7849998        -1.43175444E-10
   63.9000015        -1.65944147E-10
   64.0149994        -1.89353699E-10
   64.1299973        -2.13396134E-10
   64.2450027        -2.38059433E-10
   64.3600006        -2.63327832E-10
   64.4749985        -2.89181679E-10
   64.5899963        -3.15597992E-10
   64.7050018        -3.42550432E-10
   64.8199997        -3.70009828E-10
   64.9349976        -3.97944649E-10
   65.0500031        -4.26321173E-10
   65.1650009        -4.55104260E-10
   65.2799988        -4.84257523E-10
   65.3949966        -5.13743881E-10
   65.5100021        -5.43526057E-10
   65.6250000        -5.73566805E-10
   65.7399979        -6.03829320E-10
   65.8550034        -6.34277297E-10
   65.9700012        -6.64875766E-10
   66.0849991        -6.95590474E-10
   66.1999969        -7.26388172E-10
   66.3150024        -7.57236884E-10
   66.4300003        -7.88105581E-10
   66.5449982        -8.18964008E-10
   66.6600037        -8.49782633E-10
   66.7750015        -8.80532203E-10
   66.8899994        -9.11183407E-10
   67.0049973        -9.41706824E-10
   67.1200027        -9.72072423E-10
   67.2350006        -1.00224906E-09
   67.3499985        -1.03220432E-09
   67.4649963        -1.06190412E-09
   67.5800018        -1.09131271E-09
   67.6949997        -1.12039167E-09
   67.8099976        -1.14910048E-09
   67.9250031        -1.17739607E-09
   68.0400009        -1.20523302E-09
   68.1549988        -1.23256305E-09
   68.2699966        -1.25933552E-09
   68.3850021        -1.28549749E-09
   68.5000000        -1.31099398E-09
   68.6149979        -1.33576794E-09
   68.7300034        -1.35976164E-09
   68.8450012        -1.38291523E-09
   68.9599991        -1.40516887E-09
   69.0749969        -1.42646239E-09
   69.1900024        -1.44673584E-09
   69.3050003        -1.46593027E-09
   69.4199982        -1.48398793E-09
   69.5350037        -1.50085255E-09
   69.6500015        -1.51646984E-09
   69.7649994        -1.53078861E-09
   69.8799973        -1.54376056E-09
   69.9950027        -1.55533963E-09
   70.1100006        -1.56548419E-09
   70.2249985        -1.57415558E-09
   70.3399963        -1.58131852E-09
   70.4550018        -1.58694191E-09
   70.5699997        -1.59099789E-09
   70.6849976        -1.59346181E-09
   70.8000031        -1.59431257E-09
   70.9150009        -1.59353186E-09
   71.0299988        -1.59110414E-09
   71.1449966        -1.58701607E-09
   71.2600021        -1.58125668E-09
   71.3750000        -1.57381574E-09
   71.4899979        -1.56468460E-09
   71.6050034        -1.55385493E-09
   71.7200012        -1.54131941E-09
   71.8349991        -1.52706925E-09
   71.9499969        -1.51109603E-09
   72.0650024        -1.49339030E-09
   72.1800003        -1.47394086E-09
   72.2949982        -1.45273538E-09
   72.4100037        -1.42975931E-09
   72.5250015        -1.40499667E-09
   72.6399994        -1.37842981E-09
   72.7549973        -1.35003886E-09
   72.8700027        -1.31980171E-09
   72.9850006        -1.28769584E-09
   73.0999985        -1.25369626E-09
   73.2149963        -1.21777799E-09
   73.3300018        -1.17991505E-09
   73.4449997        -1.14008136E-09
   73.5599976        -1.09825227E-09
   73.6750031        -1.05440368E-09
   73.7900009        -1.00851338E-09
   73.9049988        -9.60562185E-10
   74.0199966        -9.10534426E-10
   74.1350021        -8.58418059E-10