  -18.8999996         0.00000000    
  -18.7849998         0.00000000    
  -18.6700001         0.00000000    
  -18.5550003         0.00000000    
  -18.4400005         0.00000000    
  -18.3250008         0.00000000    
  -18.2099991         0.00000000    
  -18.0949993         0.00000000    
  -17.9799995         0.00000000    
  -17.8649998         0.00000000    
  -17.7500000         0.00000000    
  -17.6350002         0.00000000    
  -17.5200005         0.00000000    
  -17.4050007         0.00000000    
  -17.2900009         0.00000000    
  -17.1749992         0.00000000    
  -17.0599995         0.00000000    
  -16.9449997         0.00000000    
  -16.8299999         0.00000000    
  -16.7150002         0.00000000    
  -16.6000004         0.00000000    
  -16.4850006         0.00000000    
  -16.3700008         0.00000000    
  -16.2549992         0.00000000    
  -16.1399994         0.00000000    
  -16.0249996         0.00000000    
  -15.9099998         0.00000000    
  -15.7950001         0.00000000    
  -15.6800003         0.00000000    
  -15.5649996        -4.15332835E-32
  -15.4499998        -1.33907485E-31
  -15.3350000        -2.21499505E-31
  -15.2200003        -2.07760915E-31
  -15.1049995        -1.40726563E-31
  -14.9899998        -6.34270891E-32
  -14.8750000        -1.66528288E-32
  -14.7600002        -8.34685390E-32
  -14.6450005        -1.77914079E-31
  -14.5299997        -1.59702286E-31
  -14.4150000        -3.32368112E-31
  -14.3000002        -6.93990800E-31
  -14.1850004        -1.43557690E-30
  -14.0699997        -2.76093493E-30
  -13.9549999        -5.16680210E-30
  -13.8400002        -9.01319566E-30
  -13.7250004        -1.44850094E-29
  -13.6099997        -2.23368181E-29
  -13.4949999        -3.36705728E-29
  -13.3800001        -4.97806548E-29
  -13.2650003        -7.04263048E-29
  -13.1499996        -9.45209523E-29
  -13.0349998        -1.19627285E-28
  -12.9200001        -1.40040469E-28
  -12.8050003        -1.45417629E-28
  -12.6899996        -1.18825592E-28
  -12.5749998        -3.74948708E-29
  -12.4600000         1.30424554E-28
  -12.3450003         4.23068838E-28
  -12.2299995         8.81243142E-28
  -12.1149998         1.53979678E-27
  -12.0000000         2.41307601E-27
  -11.8850002         3.47323439E-27
  -11.7700005         4.62156010E-27
  -11.6549997         5.65421832E-27
  -11.5400000         6.22880911E-27
  -11.4250002         5.83913609E-27
  -11.3100004         3.81244766E-27
  -11.1949997        -6.53885572E-28
  -11.0799999        -8.39696211E-27
  -10.9650002        -2.01160517E-26
  -10.8500004        -3.61128628E-26
  -10.7349997        -5.59472726E-26
  -10.6199999        -7.80342563E-26
  -10.5050001        -9.92382705E-26
  -10.3900003        -1.14554868E-25
  -10.2749996        -1.17005181E-25
  -10.1599998        -9.78921656E-26
  -10.0450001        -4.75732923E-26
  -9.93000031         4.31192850E-26
  -9.81499958         1.80757813E-25
  -9.69999981         3.66547030E-25
  -9.58500004         5.93128984E-25
  -9.47000027         8.41385828E-25
  -9.35499954         1.07787183E-24
  -9.23999977         1.25368122E-24
  -9.12500000         1.30567484E-24
  -9.01000023         1.16094628E-24
  -8.89500046         7.45188777E-25
  -8.77999973        -4.81915127E-27
  -8.66499996        -1.12498113E-24
  -8.55000019        -2.60530228E-24
  -8.43500042        -4.37112758E-24
  -8.31999969        -6.26740444E-24
  -8.20499992        -8.04995477E-24
  -8.09000015        -9.38795280E-24
  -7.97499990        -9.88163142E-24
  -7.86000013        -9.09810479E-24
  -7.74499989        -6.62619337E-24
  -7.63000011        -2.14863622E-24
  -7.51499987         4.47351344E-24
  -7.40000010         1.31132916E-23
  -7.28499985         2.32990636E-23
  -7.17000008         3.41597724E-23
  -7.05499983         4.44101868E-23
  -6.94000006         5.23915407E-23
  -6.82499981         5.61789250E-23
  -6.71000004         5.37618678E-23
  -6.59499979         4.32946807E-23
  -6.48000002         2.34029661E-23
  -6.36499977        -6.47908501E-24
  -6.25000000        -4.57751118E-23
  -6.13500023        -9.24863555E-23
  -6.01999998        -1.43011167E-22
  -5.90500021        -1.92122467E-22
  -5.78999996        -2.33141643E-22
  -5.67500019        -2.58347655E-22
  -5.55999994        -2.59630759E-22
  -5.44500017        -2.29379521E-22
  -5.32999992        -1.61544224E-22
  -5.21500015        -5.28239437E-23
  -5.09999990         9.61619676E-23
  -4.98500013         2.79822317E-22
  -4.86999989         4.86868896E-22
  -4.75500011         6.99998362E-22
  -4.63999987         8.96205664E-22
  -4.52500010         1.04779419E-21
  -4.40999985         1.12419772E-21
  -4.29500008         1.09458260E-21
  -4.17999983         9.31165354E-22
  -4.06500006         6.13110672E-22
  -3.95000005         1.30671717E-22
  -3.83500004        -5.10689113E-22
  -3.72000003        -1.28684080E-21
  -3.60500002        -2.15237545E-21
  -3.49000001        -3.03975203E-21
  -3.37500000        -3.86038851E-21
  -3.25999999        -4.50832336E-21
  -3.14499998        -4.86660283E-21
  -3.02999997        -4.81651923E-21
  -2.91499996        -4.24930718E-21
  -2.79999995        -3.08006679E-21
  -2.68499994        -1.26255711E-21
  -2.56999993         1.19605954E-21
  -2.45499992         4.22216007E-21
  -2.33999991         7.66650621E-21
  -2.22499990         1.12997210E-20
  -2.10999990         1.48157709E-20
  -1.99500000         1.78433198E-20
  -1.88000000         1.99666989E-20
  -1.76499999         2.07560828E-20
  -1.64999998         1.98060562E-20
  -1.53499997         1.67814121E-20
  -1.41999996         1.14640754E-20
  -1.30499995         3.80165747E-21
  -1.19000006        -6.05157258E-21
  -1.07500005        -1.77049916E-20
 -0.959999979        -3.05172196E-20
 -0.845000029        -4.36042508E-20
 -0.730000019        -5.58718046E-20
 -0.615000010        -6.60739724E-20
 -0.500000000        -7.28952398E-20
 -0.384999990        -7.50575158E-20
 -0.270000011        -7.14392662E-20
 -0.155000001        -6.12042244E-20
  -3.99999991E-02    -4.39241694E-20
   7.50000030E-02    -1.96875642E-20
  0.189999998         1.08217196E-20
  0.305000007         4.62823095E-20
  0.419999987         8.47431545E-20
  0.535000026         1.23684866E-19
  0.649999976         1.60135653E-19
  0.764999986         1.90840377E-19
  0.879999995         2.12472753E-19
  0.995000005         2.21879464E-19
   1.11000001         2.16341477E-19
   1.22500002         1.93830726E-19
   1.34000003         1.53246272E-19
   1.45500004         9.45979646E-20
   1.57000005         1.91617294E-20
   1.68499994        -7.04765895E-20
   1.79999995        -1.70422626E-19
   1.91499996        -2.75571602E-19
   2.02999997        -3.79784158E-19
   2.14499998        -4.76121180E-19
   2.25999999        -5.57153705E-19
   2.37500000        -6.15306674E-19
   2.49000001        -6.43234204E-19
   2.60500002        -6.34214885E-19
   2.72000003        -5.82563867E-19
   2.83500004        -4.83990614E-19
   2.95000005        -3.36019609E-19
   3.06500006        -1.38310492E-19
   3.18000007         1.07024350E-19
   3.29500008         3.95132055E-19
   3.41000009         7.18180542E-19
   3.52500010         1.06519522E-18
   3.64000010         1.42198820E-18
   3.75500011         1.77119408E-18
   3.86999989         2.09244001E-18
   3.98499990         2.36268260E-18
   4.09999990         2.55677640E-18
   4.21500015         2.64822866E-18
   4.32999992         2.61020172E-18
   4.44500017         2.41679241E-18
   4.55999994         2.04451875E-18
   4.67500019         1.47391508E-18
   4.78999996         6.91472017E-19
   4.90500021        -3.08657999E-19
   5.01999998        -1.52273053E-18
   5.13500023        -2.93574134E-18
   5.25000000        -4.52008503E-18
   5.36499977        -6.23443133E-18
   5.48000002        -8.02327144E-18
   5.59499979        -9.81691168E-18
   5.71000004        -1.15321898E-17
   5.82499981        -1.30739155E-17
   5.94000006        -1.43371179E-17
   6.05499983        -1.52098331E-17
   6.17000008        -1.55768532E-17
   6.28499985        -1.53239642E-17
   6.40000010        -1.43427427E-17
   6.51499987        -1.25358817E-17
   6.63000011        -9.82289054E-18
   6.74499989        -6.14573316E-18
   6.86000013        -1.47492507E-18
   6.97499990         4.18476669E-18
   7.09000015         1.07891392E-17
   7.20499992         1.82494986E-17
   7.32000017         2.64283660E-17
   7.43499994         3.51364553E-17
   7.55000019         4.41307210E-17
   7.66499996         5.31140910E-17
   7.78000021         6.17368368E-17
   7.89499998         6.96003002E-17
   8.01000023         7.62628629E-17
   8.12500000         8.12485650E-17
   8.23999977         8.40585306E-17
   8.35499954         8.41850164E-17
   8.47000027         8.11280944E-17
   8.58500004         7.44153384E-17
   8.69999981         6.36230402E-17
   8.81499958         4.83987711E-17
   8.93000031         2.84853342E-17
   9.04500008         3.74459038E-18
   9.15999985        -2.58206182E-17
   9.27499962        -6.00458281E-17
   9.39000034        -9.85892021E-17
   9.50500011        -1.40917324E-16
   9.61999989        -1.86299391E-16
   9.73499966        -2.33807563E-16
   9.85000038        -2.82322328E-16
   9.96500015        -3.30548123E-16
   10.0799999        -3.77036176E-16
   10.1949997        -4.20214501E-16
   10.3100004        -4.58427148E-16
   10.4250002        -4.89978331E-16
   10.5400000        -5.13184864E-16
   10.6549997        -5.26431030E-16
   10.7700005        -5.28229175E-16
   10.8850002        -5.17279315E-16
   11.0000000        -4.92530018E-16
   11.1149998        -4.53237272E-16
   11.2299995        -3.99017793E-16
   11.3450003        -3.29899798E-16
   11.4600000        -2.46361227E-16
   11.5749998        -1.49364771E-16
   11.6899996        -4.03759099E-17
   11.8050003         7.86252576E-17
   11.9200001         2.05146245E-16
   12.0349998         3.36192459E-16
   12.1499996         4.68297517E-16
   12.2650003         5.97559616E-16
   12.3800001         7.19685726E-16
   12.4949999         8.30050148E-16
   12.6099997         9.23755498E-16
   12.7250004         9.95698029E-16
   12.8400002         1.04064064E-15
   12.9549999         1.05327488E-15
   13.0699997         1.02829048E-15
   13.1850004         9.60428954E-16
   13.3000002         8.44529224E-16
   13.4150000         6.75572938E-16
   13.5299997         4.48707869E-16
   13.6450005         1.59248229E-16
   13.7600002        -1.97321990E-16
   13.8750000        -6.25383219E-16
   13.9899998        -1.12918714E-15
   14.1049995        -1.71294001E-15
   14.2200003        -2.38085418E-15
   14.3350000        -3.13720781E-15
   14.4499998        -3.98643944E-15
   14.5649996        -4.93322619E-15
   14.6800003        -5.98256067E-15
   14.7950001        -7.13985586E-15
   14.9099998        -8.41099312E-15
   15.0249996        -9.80241160E-15
   15.1400003        -1.13211535E-14
   15.2550001        -1.29749244E-14
   15.3699999        -1.47721106E-14
   15.4849997        -1.67218009E-14
   15.6000004        -1.88337606E-14
   15.7150002        -2.11184304E-14
   15.8299999        -2.35868792E-14
   15.9449997        -2.62507403E-14
   16.0599995        -2.91221244E-14
   16.1749992        -3.22135303E-14
   16.2900009        -3.55377586E-14
   16.4050007        -3.91077551E-14
   16.5200005        -4.29365134E-14
   16.6350002        -4.70369186E-14
   16.7500000        -5.14216321E-14
   16.8649998        -5.61029460E-14
   16.9799995        -6.10926308E-14
   17.0949993        -6.64018875E-14
   17.2099991        -7.20411686E-14
   17.3250008        -7.80201438E-14
   17.4400005        -8.43477306E-14
   17.5550003        -9.10319116E-14
   17.6700001        -9.80798559E-14
   17.7849998        -1.05497960E-13
   17.8999996        -1.13291965E-13
   18.0149994        -1.21467005E-13
   18.1299992        -1.30027865E-13
   18.2450008        -1.38979201E-13
   18.3600006        -1.48325633E-13
   18.4750004        -1.58072204E-13
   18.5900002        -1.68224565E-13
   18.7049999        -1.78789329E-13
   18.8199997        -1.89774344E-13
   18.9349995        -2.01189027E-13
   19.0499992        -2.13044724E-13
   19.1650009        -2.25354891E-13
   19.2800007        -2.38135412E-13
   19.3950005        -2.51404718E-13
   19.5100002        -2.65184061E-13
   19.6250000        -2.79497508E-13
   19.7399998        -2.94371922E-13
   19.8549995        -3.09837171E-13
   19.9699993        -3.25925593E-13
   20.0849991        -3.42672207E-13
   20.2000008        -3.60114309E-13
   20.3150005        -3.78290850E-13
   20.4300003        -3.97242596E-13
   20.5450001        -4.17011179E-13
   20.6599998        -4.37638830E-13
   20.7749996        -4.59168077E-13
   20.8899994        -4.81640769E-13
   21.0049992        -5.05097971E-13
   21.1200008        -5.29579527E-13
   21.2350006        -5.55123493E-13
   21.3500004        -5.81765701E-13
   21.4650002        -6.09539708E-13
   21.5799999        -6.38476847E-13
   21.6949997        -6.68605687E-13
   21.8099995        -6.99952412E-13
   21.9249992        -7.32541089E-13
   22.0400009        -7.66393351E-13
   22.1550007        -8.01529687E-13
   22.2700005        -8.37968854E-13
   22.3850002        -8.75729068E-13
   22.5000000        -9.14828326E-13
   22.6149998        -9.55284788E-13
   22.7299995        -9.97117102E-13
   22.8449993        -1.04034533E-12
   22.9599991        -1.08499082E-12
   23.0750008        -1.13107635E-12
   23.1900005        -1.17862642E-12
   23.3050003        -1.22766727E-12
   23.4200001        -1.27822611E-12
   23.5349998        -1.33033146E-12
   23.6499996        -1.38401161E-12
   23.7649994        -1.43929400E-12
   23.8799992        -1.49620507E-12
   23.9950008        -1.55476825E-12
   24.1100006        -1.61500284E-12
   24.2250004        -1.67692282E-12
   24.3400002        -1.74053545E-12
   24.4549999        -1.80583987E-12
   24.5699997        -1.87282568E-12
   24.6849995        -1.94147107E-12
   24.7999992        -2.01174320E-12
   24.9150009        -2.08359458E-12
   25.0300007        -2.15696449E-12
   25.1450005        -2.23177748E-12
   25.2600002        -2.30794268E-12
   25.3750000        -2.38535385E-12
   25.4899998        -2.46388955E-12
   25.6049995        -2.54341318E-12
   25.7199993        -2.62377403E-12
   25.8349991        -2.70480752E-12
   25.9500008        -2.78633692E-12
   26.0650005        -2.86817423E-12
   26.1800003        -2.95012148E-12
   26.2950001        -3.03197181E-12
   26.4099998        -3.11351205E-12
   26.5249996        -3.19452234E-12
   26.6399994        -3.27477889E-12
   26.7549992        -3.35405488E-12
   26.8700008        -3.43211982E-12
   26.9850006        -3.50874278E-12
   27.1000004        -3.58369020E-12
   27.2150002        -3.65672770E-12
   27.3299999        -3.72761934E-12
   27.4449997        -3.79612661E-12
   27.5599995        -3.86200663E-12
   27.6749992        -3.92501396E-12
   27.7900009        -3.98489575E-12
   27.9050007        -4.04139135E-12
   28.0200005        -4.09423060E-12
   28.1350002        -4.14313245E-12
   28.2500000        -4.18780028E-12
   28.3649998        -4.22792357E-12
   28.4799995        -4.26317358E-12
   28.5949993        -4.29320208E-12
   28.7099991        -4.31764086E-12
   28.8250008        -4.33610006E-12
   28.9400005        -4.34816723E-12
   29.0550003        -4.35340826E-12
   29.1700001        -4.35136866E-12
   29.2849998        -4.34157007E-12
   29.3999996        -4.32351724E-12
   29.5149994        -4.29669451E-12
   29.6299992        -4.26057540E-12
   29.7450008        -4.21461737E-12
   29.8600006        -4.15827095E-12
   29.9750004        -4.09098059E-12
   30.0900002        -4.01218815E-12
   30.2049999        -3.92133982E-12
   30.3199997        -3.81788568E-12
   30.4349995        -3.70128754E-12
   30.5499992        -3.57102065E-12
   30.6650009        -3.42657716E-12
   30.7800007        -3.26746638E-12
   30.8950005        -3.09322359E-12
   31.0100002        -2.90340625E-12
   31.1250000        -2.69759735E-12
   31.2399998        -2.47540573E-12
   31.3549995        -2.23646362E-12
   31.4699993        -1.98043209E-12
   31.5849991        -1.70699034E-12
   31.7000008        -1.41584032E-12
   31.8150005        -1.10670186E-12
   31.9300003        -7.79311674E-13
   32.0449982        -4.33419034E-13
   32.1599998        -6.87788720E-14
   32.2750015         3.14844857E-13
   32.3899994         7.17688116E-13
   32.5050011         1.13998492E-12
   32.6199989         1.58197099E-12
   32.7350006         2.04388568E-12
   32.8499985         2.52597379E-12
   32.9650002         3.02848241E-12
   33.0800018         3.55166135E-12
   33.1949997         4.09576062E-12
   33.3100014         4.66102677E-12
   33.4249992         5.24769551E-12
   33.5400009         5.85599538E-12
   33.6549988         6.48613108E-12
   33.7700005         7.13828215E-12
   33.8849983         7.81259866E-12
   34.0000000         8.50918381E-12
   34.1150017         9.22809572E-12
   34.2299995         9.96933699E-12
   34.3450012         1.07328417E-11
   34.4599991         1.15184737E-11
   34.5750008         1.23260221E-11
   34.6899986         1.31551905E-11
   34.8050003         1.40056014E-11
   34.9199982         1.48767838E-11
   35.0349998         1.57681819E-11
   35.1500015         1.66791459E-11
   35.2649994         1.76089438E-11
   35.3800011         1.85567551E-11
   35.4949989         1.95216829E-11
   35.6100006         2.05027592E-11
   35.7249985         2.14989502E-11
   35.8400002         2.25091681E-11
   35.9550018         2.35322716E-11
   36.0699997         2.45670879E-11
   36.1850014         2.56124080E-11
   36.2999992         2.66670019E-11
   36.4150009         2.77296346E-11
   36.5299988         2.87990517E-11
   36.6450005         2.98740060E-11
   36.7599983         3.09532538E-11
   36.8750000         3.20355478E-11
   36.9900017         3.31196529E-11
   37.1049995         3.42043338E-11
   37.2200012         3.52883521E-11
   37.3349991         3.63704726E-11
   37.4500008         3.74494255E-11
   37.5649986         3.85239410E-11
   37.6800003         3.95927006E-11
   37.7949982         4.06543479E-11
   37.9099998         4.17074708E-11
   38.0250015         4.27505878E-11
   38.1399994         4.37821515E-11
   38.2550011         4.48005175E-11
   38.3699989         4.58039405E-11
   38.4850006         4.67905888E-11
   38.5999985         4.77585263E-11
   38.7150002         4.87057027E-11
   38.8300018         4.96299668E-11
   38.9449997         5.05290601E-11
   39.0600014         5.14006511E-11
   39.1749992         5.22423042E-11
   39.2900009         5.30515250E-11
   39.4049988         5.38257702E-11
   39.5200005         5.45624587E-11
   39.6349983         5.52589779E-11
   39.7500000         5.59127501E-11
   39.8650017         5.65211836E-11
   39.9799995         5.70817803E-11
   40.0950012         5.75920665E-11
   40.2099991         5.80496866E-11
   40.3250008         5.84523679E-11
   40.4399986         5.87979596E-11
   40.5550003         5.90844526E-11
   40.6699982         5.93099736E-11
   40.7849998         5.94727878E-11
   40.9000015         5.95712923E-11
   41.0149994         5.96040786E-11
   41.1300011         5.95698074E-11
   41.2449989         5.94673200E-11
   41.3600006         5.92955476E-11
   41.4749985         5.90535398E-11
   41.5900002         5.87404153E-11
   41.7050018         5.83553830E-11
   41.8199997         5.78976485E-11
   41.9350014         5.73665039E-11
   42.0499992         5.67612277E-11
   42.1650009         5.60810981E-11
   42.2799988         5.53253589E-11
   42.3950005         5.44932433E-11
   42.5099983         5.35839359E-11
   42.6250000         5.25965764E-11
   42.7400017         5.15302488E-11
   42.8549995         5.03840095E-11
   42.9700012         4.91568730E-11
   43.0849991         4.78478299E-11
   43.2000008         4.64558635E-11
   43.3149986         4.49799538E-11
   43.4300003         4.34191190E-11
   43.5449982         4.17724189E-11
   43.6599998         4.00389930E-11
   43.7750015         3.82180676E-11
   43.8899994         3.63090114E-11
   44.0050011         3.43113246E-11
   44.1199989         3.22246674E-11
   44.2350006         3.00489009E-11
   44.3499985         2.77840806E-11
   44.4650002         2.54304910E-11
   44.5800018         2.29886214E-11
   44.6949997         2.04591986E-11
   44.8100014         1.78431766E-11
   44.9249992         1.51417455E-11
   45.0400009         1.23562957E-11
   45.1549988         9.48842827E-12
   45.2700005         6.53994003E-12
   45.3849983         3.51278338E-12
   45.5000000         4.09059505E-13
   45.6150017        -2.76900378E-12
   45.7299995        -6.01908584E-12
   45.8450012        -9.33879276E-12
   45.9599991        -1.27256920E-11
   46.0750008        -1.61773164E-11
   46.1899986        -1.96912087E-11
   46.3050003        -2.32649282E-11
   46.4199982        -2.68960739E-11
   46.5349998        -3.05822798E-11
   46.6500015        -3.43212507E-11
   46.7649994        -3.81107333E-11
   46.8800011        -4.19485384E-11
   46.9949989        -4.58325183E-11
   47.1100006        -4.97605811E-11
   47.2249985        -5.37306241E-11
   47.3400002        -5.77405797E-11
   47.4550018        -6.17883383E-11
   47.5699997        -6.58717317E-11
   47.6850014        -6.99885219E-11
   47.7999992        -7.41363637E-11
   47.9150009        -7.83127452E-11
   48.0299988        -8.25150087E-11
   48.1450005        -8.67402747E-11
   48.2599983        -9.09854553E-11
   48.3750000        -9.52471713E-11
   48.4900017        -9.95218075E-11
   48.6049995        -1.03805423E-10
   48.7200012        -1.08093832E-10
   48.8349991        -1.12382527E-10
   48.9500008        -1.16666704E-10
   49.0649986        -1.20941326E-10
   49.1800003        -1.25201016E-10
   49.2949982        -1.29440292E-10
   49.4099998        -1.33653338E-10
   49.5250015        -1.37834272E-10
   49.6399994        -1.41977055E-10
   49.7550011        -1.46075624E-10
   49.8699989        -1.50123830E-10
   49.9850006        -1.54115609E-10
   50.0999985        -1.58044952E-10
   50.2150002        -1.61905989E-10
   50.3300018        -1.65693043E-10
   50.4449997        -1.69400632E-10
   50.5600014        -1.73023526E-10
   50.6749992        -1.76556839E-10
   50.7900009        -1.79995949E-10
   50.9049988        -1.83336582E-10
   51.0200005        -1.86574867E-10
   51.1349983        -1.89707181E-10
   51.2500000        -1.92730332E-10
   51.3650017        -1.95641447E-10
   51.4799995        -1.98437947E-10
   51.5950012        -2.01117539E-10
   51.7099991        -2.03678255E-10
   51.8250008        -2.06118261E-10
   51.9399986        -2.08436005E-10
   52.0550003        -2.10630027E-10
   52.1699982        -2.12698997E-10
   52.2849998        -2.14641721E-10
   52.4000015        -2.16456950E-10
   52.5149994        -2.18143531E-10
   52.6300011        -2.19700258E-10
   52.7449989        -2.21125881E-10
   52.8600006        -2.22419166E-10
   52.9749985        -2.23578711E-10
   53.0900002        -2.24603197E-10
   53.2050018        -2.25491070E-10
   53.3199997        -2.26240929E-10
   53.4350014        -2.26851149E-10
   53.5499992        -2.27320204E-10
   53.6650009        -2.27646568E-10
   53.7799988        -2.27828728E-10
   53.8950005        -2.27865282E-10
   54.0099983        -2.27754871E-10
   54.1250000        -2.27496327E-10
   54.2400017        -2.27088626E-10
   54.3549995        -2.26530947E-10
   54.4700012        -2.25822666E-10
   54.5849991        -2.24963437E-10
   54.7000008        -2.23953106E-10
   54.8149986        -2.22791841E-10
   54.9300003        -2.21480084E-10
   55.0449982        -2.20018531E-10
   55.1599998        -2.18408194E-10
   55.2750015        -2.16650295E-10
   55.3899994        -2.14746290E-10
   55.5050011        -2.12697915E-10
   55.6199989        -2.10507070E-10
   55.7350006        -2.08175810E-10
   55.8499985        -2.05706369E-10
   55.9650002        -2.03100980E-10
   56.0800018        -2.00362046E-10
   56.1949997        -1.97491912E-10
   56.3100014        -1.94492922E-10
   56.4249992        -1.91367394E-10
   56.5400009        -1.88117522E-10
   56.6549988        -1.84745372E-10
   56.7700005        -1.81252860E-10
   56.8849983        -1.77641749E-10
   57.0000000        -1.73913606E-10
   57.1150017        -1.70069833E-10
   57.2299995        -1.66111597E-10
   57.3450012        -1.62039909E-10
   57.4599991        -1.57855659E-10
   57.5750008        -1.53559554E-10
   57.6899986        -1.49152274E-10
   57.8050003        -1.44634443E-10
   57.9199982        -1.40006728E-10
   58.0349998        -1.35269865E-10
   58.1500015        -1.30424782E-10
   58.2649994        -1.25472674E-10
   58.3800011        -1.20415067E-10
   58.4949989        -1.15253862E-10
   58.6100006        -1.09991495E-10
   58.7249985        -1.04630957E-10
   58.8400002        -9.91758620E-11
   58.9550018        -9.36305200E-11
   59.0699997        -8.79999823E-11
   59.1850014        -8.22900845E-11
   59.2999992        -7.65073629E-11
   59.4150009        -7.06591730E-11
   59.5299988        -6.47535844E-11
   59.6450005        -5.87993265E-11
   59.7599983        -5.28057251E-11
   59.8750000        -4.67826229E-11
   59.9900017        -4.07402480E-11
   60.1049995        -3.46890815E-11
   60.2200012        -2.86396948E-11
   60.3349991        -2.26026073E-11
   60.4500008        -1.65881406E-11
   60.5649986        -1.06061583E-11
   60.6800003        -4.66601063E-12
   60.7949982         1.22376415E-12
   60.9099998         7.05546038E-12
   61.0250015         1.28224757E-11
   61.1399994         1.85193458E-11
   61.2550011         2.41418933E-11
   61.3699989         2.96873255E-11
   61.4850006         3.51542545E-11
   61.5999985         4.05427220E-11
   61.7150002         4.58542128E-11
   61.8300018         5.10916448E-11
   61.9449997         5.62593062E-11
   62.0600014         6.13627066E-11
   62.1749992         6.64085523E-11
   62.2900009         7.14046322E-11
   62.4049988         7.63596061E-11
   62.5200005         8.12828832E-11
   62.6349983         8.61845456E-11
   62.7500000         9.10750572E-11
   62.8650017         9.59652219E-11
   62.9799995         1.00866024E-10
   63.0950012         1.05788510E-10
   63.2099991         1.10743567E-10
   63.3250008         1.15741985E-10
   63.4399986         1.20794291E-10
   63.5550003         1.25910699E-10
   63.6699982         1.31101130E-10
   63.7849998         1.36375078E-10
   63.9000015         1.41741827E-10
   64.0149994         1.47210272E-10
   64.1299973         1.52789087E-10
   64.2450027         1.58486724E-10
   64.3600006         1.64311523E-10
   64.4749985         1.70271602E-10
   64.5899963         1.76375275E-10
   64.7050018         1.82630661E-10
   64.8199997         1.89046195E-10
   64.9349976         1.95630345E-10
   65.0500031         2.02391701E-10
   65.1650009         2.09339129E-10
   65.2799988         2.16481680E-10
   65.3949966         2.23828470E-10
   65.5100021         2.31388853E-10
   65.6250000         2.39172154E-10
   65.7399979         2.47187798E-10
   65.8550034         2.55444943E-10
   65.9700012         2.63952749E-10
   66.0849991         2.72719847E-10
   66.1999969         2.81754592E-10
   66.3150024         2.91064728E-10
   66.4300003         3.00657332E-10
   66.5449982         3.10538595E-10
   66.6600037         3.20713844E-10
   66.7750015         3.31187411E-10
   66.8899994         3.41962347E-10
   67.0049973         3.53040541E-10
   67.1200027         3.64422659E-10
   67.2350006         3.76107895E-10
   67.3499985         3.88094140E-10
   67.4649963         4.00377981E-10
   67.5800018         4.12954476E-10
   67.6949997         4.25817437E-10
   67.8099976         4.38959424E-10
   67.9250031         4.52371751E-10
   68.0400009         4.66044814E-10
   68.1549988         4.79967954E-10
   68.2699966         4.94129737E-10
   68.3850021         5.08518117E-10
   68.5000000         5.23120658E-10
   68.6149979         5.37924538E-10
   68.7300034         5.52916990E-10
   68.8450012         5.68085246E-10
   68.9599991         5.83416926E-10
   69.0749969         5.98899930E-10
   69.1900024         6.14523044E-10
   69.3050003         6.30275665E-10
   69.4199982         6.46148024E-10
   69.5350037         6.62131239E-10
   69.6500015         6.78217649E-10
   69.7649994         6.94400315E-10
   69.8799973         7.10673520E-10
   69.9950027         7.27031990E-10
   70.1100006         7.43471784E-10
   70.2249985         7.59989072E-10
   70.3399963         7.76580467E-10
   70.4550018         7.93243027E-10
   70.5699997         8.09973422E-10
   70.6849976         8.26767987E-10
   70.8000031         8.43622339E-10
   70.9150009         8.60531091E-10
   71.0299988         8.77487527E-10
   71.1449966         8.94483265E-10
   71.2600021         9.11507869E-10
   71.3750000         9.28548627E-10
   71.4899979         9.45590495E-10
   71.6050034         9.62615432E-10
   71.7200012         9.79603065E-10
   71.8349991         9.96529304E-10
   71.9499969         1.01336783E-09
   72.0650024         1.03008868E-09
   72.1800003         1.04665920E-09
   72.2949982         1.06304376E-09
   72.4100037         1.07920406E-09
   72.5250015         1.09509934E-09
   72.6399994         1.11068654E-09
   72.7549973         1.12592091E-09
   72.8700027         1.14075571E-09
   72.9850006         1.15514320E-09
   73.0999985         1.16903465E-09
   73.2149963         1.18238086E-09
   73.3300018         1.19513233E-09
   73.4449997         1.20723964E-09
   73.5599976         1.21865407E-09
   73.6750031         1.22932753E-09
   73.7900009         1.23921284E-09
   73.9049988         1.24826394E-09
   74.0199966         1.25643629E-09
   74.1350021         1.26368682E-09