  -18.8999996       0.00000000    
  -18.7849998       0.00000000    
  -18.6700001       0.00000000    
  -18.5550003       0.00000000    
  -18.4400005       0.00000000    
  -18.3250008       0.00000000    
  -18.2099991       0.00000000    
  -18.0949993       0.00000000    
  -17.9799995       0.00000000    
  -17.8649998       0.00000000    
  -17.7500000       0.00000000    
  -17.6350002       6.20577496E-39
  -17.5200005       6.24500880E-38
  -17.4050007       4.48201794E-37
  -17.2900009       2.44218207E-36
  -17.1749992       1.05901566E-35
  -17.0599995       3.88749040E-35
  -16.9449997       1.24633109E-34
  -16.8299999       3.56030469E-34
  -16.7150002       9.18731487E-34
  -16.6000004       2.16134473E-33
  -16.4850006       4.66253406E-33
  -16.3700008       9.24872931E-33
  -16.2549992       1.68569181E-32
  -16.1399994       2.80688303E-32
  -16.0249996       4.20815458E-32
  -15.9099998       5.48727463E-32
  -15.7950001       5.64370178E-32
  -15.6800003       2.73052673E-32
  -15.5649996      -6.47991085E-32
  -15.4499998      -2.66327030E-31
  -15.3350000      -6.34190722E-31
  -15.2200003      -1.22259425E-30
  -15.1049995      -2.05526799E-30
  -14.9899998      -3.07855312E-30
  -14.8750000      -4.09379694E-30
  -14.7600002      -4.67413794E-30
  -14.6450005      -4.08188890E-30
  -14.5299997      -1.21826937E-30
  -14.4150000       5.34430701E-30
  -14.3000002       1.71801813E-29
  -14.1850004       3.56030238E-29
  -14.0699997       6.09683457E-29
  -13.9549999       9.16639556E-29
  -13.8400002       1.22853133E-28
  -13.7250004       1.45172591E-28
  -13.6099997       1.43770538E-28
  -13.4949999       9.82749027E-29
  -13.3800001      -1.55426233E-29
  -13.2650003      -2.21570994E-28
  -13.1499996      -5.35934111E-28
  -13.0349998      -9.56091906E-28
  -12.9200001      -1.44707626E-27
  -12.8050003      -1.92674673E-27
  -12.6899996      -2.25356356E-27
  -12.5749998      -2.22206652E-27
  -12.4600000      -1.57261463E-27
  -12.3450003      -2.23817946E-29
  -12.2299995       2.67655478E-27
  -12.1149998       6.64958822E-27
  -12.0000000       1.17859556E-26
  -11.8850002       1.76112196E-26
  -11.7700005       2.31682516E-26
  -11.6549997       2.69395845E-26
  -11.5400000       2.68523537E-26
  -11.4250002       2.04100518E-26
  -11.3100004       4.99037222E-27
  -11.1949997      -2.16673790E-26
  -11.0799999      -6.07890790E-26
  -10.9650002      -1.11748890E-25
  -10.8500004      -1.71195007E-25
  -10.7349997      -2.32250215E-25
  -10.6199999      -2.83957977E-25
  -10.5050001      -3.11166307E-25
  -10.3900003      -2.95041892E-25
  -10.2749996      -2.14381678E-25
  -10.1599998      -4.78351386E-26
  -10.0450001       2.22918311E-25
  -9.93000031       6.09070088E-25
  -9.81499958       1.10977958E-24
  -9.69999981       1.70666152E-24
  -9.58500004       2.35794193E-24
  -9.47000027       2.99267578E-24
  -9.35499954       3.50559728E-24
  -9.23999977       3.75347552E-24
  -9.12500000       3.55429406E-24
  -9.01000023       2.69117018E-24
  -8.89500046       9.23658794E-25
  -8.77999973      -1.99024577E-24
  -8.66499996      -6.25773419E-24
  -8.55000019      -1.19970463E-23
  -8.43500042      -1.91635597E-23
  -8.31999969      -2.74571432E-23
  -8.20499992      -3.62165947E-23
  -8.09000015      -4.43138291E-23
  -7.97499990      -5.00690143E-23
  -7.86000013      -5.12165103E-23
  -7.74499989      -4.49596158E-23
  -7.63000011      -2.81561276E-23
  -7.51499987       2.32532746E-24
  -7.40000010       4.90501247E-23
  -7.28499985       1.13259247E-22
  -7.17000008       1.93940229E-22
  -7.05499983       2.86809958E-22
  -6.94000006       3.83350201E-22
  -6.82499981       4.70096930E-22
  -6.71000004       5.28435832E-22
  -6.59499979       5.35182676E-22
  -6.48000002       4.64220283E-22
  -6.36499977       2.89396211E-22
  -6.25000000      -1.12405429E-23
  -6.13500023      -4.49983628E-22
  -6.01999998      -1.02317445E-21
  -5.90500021      -1.70475058E-21
  -5.78999996      -2.44063032E-21
  -5.67500019      -3.14519252E-21
  -5.55999994      -3.70127781E-21
  -5.44500017      -3.96513187E-21
  -5.32999992      -3.77746446E-21
  -5.21500015      -2.98129888E-21
  -5.09999990      -1.44645192E-21
  -4.98500013       9.00587540E-22
  -4.86999989       4.04390467E-21
  -4.75500011       7.84640426E-21
  -4.63999987       1.20241656E-20
  -4.52500010       1.61329090E-20
  -4.40999985       1.95728656E-20
  -4.29500008       2.16178451E-20
  -4.17999983       2.14726975E-20
  -4.06500006       1.83607730E-20
  -3.95000005       1.16392180E-20
  -3.83500004       9.35303580E-22
  -3.72000003      -1.37080856E-20
  -3.60500002      -3.16947500E-20
  -3.49000001      -5.17665686E-20
  -3.37500000      -7.19478789E-20
  -3.25999999      -8.95672589E-20
  -3.14499998      -1.01378215E-19
  -3.02999997      -1.03793996E-19
  -2.91499996      -9.32415370E-20
  -2.79999995      -6.66259668E-20
  -2.68499994      -2.18805444E-20
  -2.56999993       4.14406436E-20
  -2.45499992       1.21587731E-19
  -2.33999991       2.14132698E-19
  -2.22499990       3.11664543E-19
  -2.10999990       4.03748951E-19
  -1.99500000       4.77232652E-19
  -1.88000000       5.16953193E-19
  -1.76499999       5.06886095E-19
  -1.64999998       4.31720244E-19
  -1.53499997       2.78800657E-19
  -1.41999996       4.03251066E-20
  -1.30499995      -2.84378077E-19
  -1.19000006      -6.86712678E-19
  -1.07500005      -1.14708186E-18
 -0.959999979      -1.63384187E-18
 -0.845000029      -2.10322561E-18
 -0.730000019      -2.50048365E-18
 -0.615000010      -2.76242528E-18
 -0.500000000      -2.82145103E-18
 -0.384999990      -2.61103407E-18
 -0.270000011      -2.07246401E-18
 -0.155000001      -1.16250257E-18
  -3.99999991E-02   1.38562265E-19
   7.50000030E-02   1.81912423E-18
  0.189999998       3.82950378E-18
  0.305000007       6.07707055E-18
  0.419999987       8.42409090E-18
  0.535000026       1.06890686E-17
  0.649999976       1.26521973E-17
  0.764999986       1.40652931E-17
  0.879999995       1.46662762E-17
  0.995000005       1.41978753E-17
   1.11000001       1.24298189E-17
   1.22500002       9.18335585E-18
   1.34000003       4.35653033E-18
   1.45500004      -2.05168296E-18
   1.57000005      -9.92051605E-18
   1.68499994      -1.89920520E-17
   1.79999995      -2.88635278E-17
   1.91499996      -3.89891780E-17
   2.02999997      -4.86931018E-17
   2.14499998      -5.71938814E-17
   2.25999999      -6.36410926E-17
   2.37500000      -6.71627048E-17
   2.49000001      -6.69216644E-17
   2.60500002      -6.21788358E-17
   2.72000003      -5.23587924E-17
   2.83500004      -3.71141780E-17
   2.95000005      -1.63840309E-17
   3.06500006       9.55864935E-18
   3.18000007       4.00746144E-17
   3.29500008       7.41452209E-17
   3.41000009       1.10381410E-16
   3.52500010       1.47056460E-16
   3.64000010       1.82162813E-16
   3.75500011       2.13491650E-16
   3.86999989       2.38732080E-16
   3.98499990       2.55585892E-16
   4.09999990       2.61891655E-16
   4.21500015       2.55752096E-16
   4.32999992       2.35657298E-16
   4.44500017       2.00596923E-16
   4.55999994       1.50154775E-16
   4.67500019       8.45801110E-17
   4.78999996       4.83160084E-18
   4.90500021      -8.74089099E-17
   5.01999998      -1.89753380E-16
   5.13500023      -2.99154540E-16
   5.25000000      -4.11980308E-16
   5.36499977      -5.24111642E-16
   5.48000002      -6.31059345E-16
   5.59499979      -7.28094381E-16
   5.71000004      -8.10386861E-16
   5.82499981      -8.73148720E-16
   5.94000006      -9.11776969E-16
   6.05499983      -9.21994093E-16
   6.17000008      -8.99984683E-16
   6.28499985      -8.42527367E-16
   6.40000010      -7.47123135E-16
   6.51499987      -6.12119635E-16
   6.63000011      -4.36833023E-16
   6.74499989      -2.21666444E-16
   6.86000013       3.17755278E-17
   6.97499990       3.20579339E-16
   7.09000015       6.40427053E-16
   7.20499992       9.85518387E-16
   7.32000017       1.34851923E-15
   7.43499994       1.72054478E-15
   7.55000019       2.09118882E-15
   7.66499996       2.44860666E-15
   7.78000021       2.77966292E-15
   7.89499998       3.07014884E-15
   8.01000023       3.30507513E-15
   8.12500000       3.46904101E-15
   8.23999977       3.54667645E-15
   8.35499954       3.52315265E-15
   8.47000027       3.38474937E-15
   8.58500004       3.11946670E-15
   8.69999981       2.71766286E-15
   8.81499958       2.17270388E-15
   8.93000031       1.48159795E-15
   9.04500008       6.45597660E-16
   9.15999985      -3.29254571E-16
   9.27499962      -1.43166038E-15
   9.39000034      -2.64470241E-15
   9.50500011      -3.94560610E-15
   9.61999989      -5.30564879E-15
   9.73499966      -6.69023806E-15
   9.85000038      -8.05918307E-15
   9.96500015      -9.36717727E-15
   10.0799999      -1.05645015E-14
   10.1949997      -1.15979808E-14
   10.3100004      -1.24121836E-14
   10.4250002      -1.29508678E-14
   10.5400000      -1.31586738E-14
   10.6549997      -1.29830390E-14
   10.7700005      -1.23762796E-14
   10.8850002      -1.12978212E-14
   11.0000000      -9.71648858E-15
   11.1149998      -7.61276113E-15
   11.2299995      -4.98092939E-15
   11.3450003      -1.83101418E-15
   11.4600000       1.80966112E-15
   11.5749998       5.89535778E-15
   11.6899996       1.03613822E-14
   11.8050003       1.51242256E-14
   11.9200001       2.00824549E-14
   12.0349998       2.51184131E-14
   12.1499996       3.01007523E-14
   12.2650003       3.48877692E-14
   12.3800001       3.93315040E-14
   12.4949999       4.32824756E-14
   12.6099997       4.65949470E-14
   12.7250004       4.91325290E-14
   12.8400002       5.07738959E-14
   12.9549999       5.14184540E-14
   13.0699997       5.09916274E-14
   13.1850004       4.94496412E-14
   13.3000002       4.67834694E-14
   13.4150000       4.30217995E-14
   13.5299997       3.82328141E-14
   13.6450005       3.25246455E-14
   13.7600002       2.60443997E-14
   13.8750000       1.89757251E-14
   13.9899998       1.15348921E-14
   14.1049995       3.96542286E-15
   14.2200003      -3.46858785E-15
   14.3350000      -1.04903345E-14
   14.4499998      -1.68192334E-14
   14.5649996      -2.21805301E-14
   14.6800003      -2.63154909E-14
   14.7950001      -2.89917626E-14
   14.9099998      -3.00135859E-14
   15.0249996      -2.92316356E-14
   15.1400003      -2.65520265E-14
   15.2550001      -2.19440809E-14
   15.3699999      -1.54466605E-14
   15.4849997      -7.17261825E-15
   15.6000004       2.68890863E-15
   15.7150002       1.38726124E-14
   15.8299999       2.60398037E-14
   15.9449997       3.87838802E-14
   16.0599995       5.16386894E-14
   16.1749992       6.40895892E-14
   16.2900009       7.55871873E-14
   16.4050007       8.55633652E-14
   16.5200005       9.34493368E-14
   16.6350002       9.86951880E-14
   16.7500000       1.00790199E-13
   16.8649998       9.92836794E-14
   16.9799995       9.38050026E-14
   17.0949993       8.40826432E-14
   17.2099991       6.99606931E-14
   17.3250008       5.14131279E-14
   17.4400005       2.85540634E-14
   17.5550003       1.64388396E-15
   17.6700001      -2.89092582E-14
   17.7849998      -6.25533018E-14
   17.8999996      -9.86012555E-14
   18.0149994      -1.36246022E-13
   18.1299992      -1.74580009E-13
   18.2450008      -2.12620123E-13
   18.3600006      -2.49337226E-13
   18.4750004      -2.83689169E-13
   18.5900002      -3.14656775E-13
   18.7049999      -3.41281772E-13
   18.8199997      -3.62704983E-13
   18.9349995      -3.78204412E-13
   19.0499992      -3.87231073E-13
   19.1650009      -3.89441544E-13
   19.2800007      -3.84725726E-13
   19.3950005      -3.73228846E-13
   19.5100002      -3.55365965E-13
   19.6250000      -3.31828179E-13
   19.7399998      -3.03580403E-13
   19.8549995      -2.71848489E-13
   19.9699993      -2.38097519E-13
   20.0849991      -2.03998792E-13
   20.2000008      -1.71388904E-13
   20.3150005      -1.42218512E-13
   20.4300003      -1.18494746E-13
   20.5450001      -1.02216948E-13
   20.6599998      -9.53081337E-14
   20.7749996      -9.95450196E-14
   20.8899994      -1.16487725E-13
   21.0049992      -1.47412966E-13
   21.1200008      -1.93253074E-13
   21.2350006      -2.54542725E-13
   21.3500004      -3.31376799E-13
   21.4650002      -4.23382033E-13
   21.5799999      -5.29702692E-13
   21.6949997      -6.49004342E-13
   21.8099995      -7.79493386E-13
   21.9249992      -9.18956317E-13
   22.0400009      -1.06481620E-12
   22.1550007      -1.21420582E-12
   22.2700005      -1.36405590E-12
   22.3850002      -1.51119698E-12
   22.5000000      -1.65247015E-12
   22.6149998      -1.78484462E-12
   22.7299995      -1.90553866E-12
   22.8449993      -2.01213677E-12
   22.9599991      -2.10270256E-12
   23.0750008      -2.17587905E-12
   23.1900005      -2.23097560E-12
   23.3050003      -2.26803428E-12
   23.4200001      -2.28787323E-12
   23.5349998      -2.29210683E-12
   23.6499996      -2.28313332E-12
   23.7649994      -2.26409820E-12
   23.8799992      -2.23882458E-12
   23.9950008      -2.21171670E-12
   24.1100006      -2.18763614E-12
   24.2250004      -2.17175366E-12
   24.3400002      -2.16938360E-12
   24.4549999      -2.18580102E-12
   24.5699997      -2.22605246E-12
   24.6849995      -2.29476182E-12
   24.7999992      -2.39594369E-12
   24.9150009      -2.53282660E-12
   25.0300007      -2.70769626E-12
   25.1450005      -2.92176179E-12
   25.2600002      -3.17505809E-12
   25.3750000      -3.46637996E-12
   25.4899998      -3.79326128E-12
   25.6049995      -4.15199472E-12
   25.7199993      -4.53770051E-12
   25.8349991      -4.94443549E-12
   25.9500008      -5.36534922E-12
   26.0650005      -5.79287660E-12
   26.1800003      -6.21896675E-12
   26.2950001      -6.63533898E-12
   26.4099998      -7.03375682E-12
   26.5249996      -7.40631601E-12
   26.6399994      -7.74573027E-12
   26.7549992      -8.04560845E-12
   26.8700008      -8.30071602E-12
   26.9850006      -8.50720015E-12
   27.1000004      -8.66278143E-12
   27.2150002      -8.76689173E-12
   27.3299999      -8.82076703E-12
   27.4449997      -8.82746740E-12
   27.5599995      -8.79184312E-12
   27.6749992      -8.72042976E-12
   27.7900009      -8.62127904E-12
   27.9050007      -8.50372550E-12
   28.0200005      -8.37810810E-12
   28.1350002      -8.25542152E-12
   28.2500000      -8.14694926E-12
   28.3649998      -8.06385774E-12
   28.4799995      -8.01677821E-12
   28.5949993      -8.01538870E-12
   28.7099991      -8.06800893E-12
   28.8250008      -8.18122913E-12
   28.9400005      -8.35957865E-12
   29.0550003      -8.60525626E-12
   29.1700001      -8.91792716E-12
   29.2849998      -9.29460415E-12
   29.3999996      -9.72961382E-12
   29.5149994      -1.02146616E-11
   29.6299992      -1.07389852E-11
   29.7450008      -1.12896038E-11
   29.8600006      -1.18516585E-11
   29.9750004      -1.24088257E-11
   30.0900002      -1.29438057E-11
   30.2049999      -1.34388585E-11
   30.3199997      -1.38763792E-11
   30.4349995      -1.42394846E-11
   30.5499992      -1.45126081E-11
   30.6650009      -1.46820542E-11
   30.7800007      -1.47365245E-11
   30.8950005      -1.46675640E-11
   31.0100002      -1.44699296E-11
   31.1250000      -1.41418682E-11
   31.2399998      -1.36852708E-11
   31.3549995      -1.31057066E-11
   31.4699993      -1.24123420E-11
   31.5849991      -1.16177207E-11
   31.7000008      -1.07374248E-11
   31.8150005      -9.78961530E-12
   31.9300003      -8.79447643E-12
   32.0449982      -7.77356911E-12
   32.1599998      -6.74910735E-12
   32.2750015      -5.74320366E-12
   32.3899994      -4.77708368E-12
   32.5050011      -3.87031596E-12
   32.6199989      -3.04006234E-12
   32.7350006      -2.30040097E-12
   32.8499985      -1.66172935E-12
   32.9650002      -1.13028109E-12
   33.0800018      -7.07766202E-13
   33.1949997      -3.91168705E-13
   33.3100014      -1.72691207E-13
   33.4249992      -3.98721007E-14
   33.5400009       2.41377946E-14
   33.6549988       4.01196478E-14
   33.7700005       3.22048059E-14
   33.8849983       2.71367876E-14
   34.0000000       5.34330745E-14
   34.1150017       1.40446858E-13
   34.2299995       3.17390401E-13
   34.3450012       6.12322964E-13
   34.4599991       1.05113520E-12
   34.5750008       1.65661517E-12
   34.6899986       2.44756060E-12
   34.8050003       3.43801940E-12
   34.9199982       4.63666735E-12
   35.0349998       6.04635569E-12
   35.1500015       7.66383311E-12
   35.2649994       9.47968960E-12
   35.3800011       1.14784727E-11
   35.4949989       1.36390343E-11
   35.6100006       1.59350658E-11
   35.7249985       1.83358051E-11
   35.8400002       2.08069239E-11
   35.9550018       2.33115333E-11
   36.0699997       2.58112958E-11
   36.1850014       2.82676018E-11
   36.2999992       3.06427834E-11
   36.4150009       3.29012997E-11
   36.5299988       3.50108866E-11
   36.6450005       3.69435836E-11
   36.7599983       3.86766938E-11
   36.8750000       4.01935152E-11
   36.9900017       4.14839413E-11
   37.1049995       4.25448045E-11
   37.2200012       4.33800565E-11
   37.3349991       4.40006503E-11
   37.4500008       4.44242594E-11
   37.5649986       4.46747084E-11
   37.6800003       4.47812516E-11
   37.7949982       4.47776399E-11
   37.9099998       4.47010172E-11
   38.0250015       4.45907304E-11
   38.1399994       4.44869974E-11
   38.2550011       4.44295850E-11
   38.3699989       4.44564559E-11
   38.4850006       4.46024537E-11
   38.5999985       4.48980783E-11
   38.7150002       4.53684035E-11
   38.8300018       4.60321052E-11
   38.9449997       4.69007506E-11
   39.0600014       4.79782429E-11
   39.1749992       4.92605505E-11
   39.2900009       5.07356483E-11
   39.4049988       5.23837571E-11
   39.5200005       5.41777630E-11
   39.6349983       5.60839569E-11
   39.7500000       5.80629017E-11
   39.8650017       6.00705805E-11
   39.9799995       6.20596005E-11
   40.0950012       6.39805917E-11
   40.2099991       6.57836424E-11
   40.3250008       6.74197920E-11
   40.4399986       6.88424387E-11
   40.5550003       7.00087835E-11
   40.6699982       7.08810857E-11
   40.7849998       7.14278289E-11
   40.9000015       7.16246923E-11
   41.0149994       7.14552514E-11
   41.1300011       7.09115683E-11
   41.2449989       6.99944408E-11
   41.3600006       6.87133961E-11
   41.4749985       6.70864544E-11
   41.5900002       6.51396714E-11
   41.7050018       6.29063607E-11
   41.8199997       6.04261780E-11
   41.9350014       5.77439936E-11
   42.0499992       5.49085916E-11
   42.1650009       5.19712814E-11
   42.2799988       4.89844415E-11
   42.3950005       4.59999920E-11
   42.5099983       4.30679138E-11
   42.6250000       4.02348120E-11
   42.7400017       3.75425489E-11
   42.8549995       3.50270681E-11
   42.9700012       3.27173254E-11
   43.0849991       3.06344360E-11
   43.2000008       2.87910720E-11
   43.3149986       2.71910480E-11
   43.4300003       2.58291739E-11
   43.5449982       2.46913809E-11
   43.6599998       2.37550726E-11
   43.7750015       2.29897160E-11
   43.8899994       2.23576661E-11
   44.0050011       2.18152250E-11
   44.1199989       2.13137841E-11
   44.2350006       2.08012149E-11
   44.3499985       2.02233022E-11
   44.4650002       1.95252946E-11
   44.5800018       1.86534468E-11
   44.6949997       1.75565656E-11
   44.8100014       1.61875253E-11
   44.9249992       1.45046726E-11
   45.0400009       1.24730885E-11
   45.1549988       1.00657599E-11
   45.2700005       7.26446464E-12
   45.3849983       4.06050497E-12
   45.5000000       4.55196102E-13
   45.6150017      -3.53992963E-12
   45.7299995      -7.90314775E-12
   45.8450012      -1.26028459E-11
   45.9599991      -1.75981001E-11
   46.0750008      -2.28394907E-11
   46.1899986      -2.82701588E-11
   46.3050003      -3.38270731E-11
   46.4199982      -3.94425118E-11
   46.5349998      -4.50456790E-11
   46.6500015      -5.05644138E-11
   46.7649994      -5.59270789E-11
   46.8800011      -6.10643688E-11
   46.9949989      -6.59111932E-11
   47.1100006      -7.04084915E-11
   47.2249985      -7.45049161E-11
   47.3400002      -7.81583895E-11
   47.4550018      -8.13375131E-11
   47.5699997      -8.40226291E-11
   47.6850014      -8.62067293E-11
   47.7999992      -8.78959891E-11
   47.9150009      -8.91099694E-11
   48.0299988      -8.98815189E-11
   48.1450005      -9.02561775E-11
   48.2599983      -9.02913716E-11
   48.3750000      -9.00550814E-11
   48.4900017      -8.96242802E-11
   48.6049995      -8.90830118E-11
   48.7200012      -8.85201218E-11
   48.8349991      -8.80268150E-11
   48.9500008      -8.76940465E-11
   49.0649986      -8.76097805E-11
   49.1800003      -8.78561598E-11
   49.2949982      -8.85068685E-11
   49.4099998      -8.96244814E-11
   49.5250015      -9.12581122E-11
   49.6399994      -9.34413588E-11
   49.7550011      -9.61906318E-11
   49.8699989      -9.95039398E-11
   49.9850006      -1.03360161E-10
   50.0999985      -1.07718952E-10
   50.2150002      -1.12521187E-10
   50.3300018      -1.17690052E-10
   50.4449997      -1.23132712E-10
   50.5600014      -1.28742600E-10
   50.6749992      -1.34402198E-10
   50.7900009      -1.39986273E-10
   50.9049988      -1.45365595E-10
   51.0200005      -1.50410753E-10
   51.1349983      -1.54996321E-10
   51.2500000      -1.59004934E-10
   51.3650017      -1.62331301E-10
   51.4799995      -1.64886022E-10
   51.5950012      -1.66598957E-10
   51.7099991      -1.67422215E-10
   51.8250008      -1.67332412E-10
   51.9399986      -1.66332337E-10
   52.0550003      -1.64451716E-10
   52.1699982      -1.61747268E-10
   52.2849998      -1.58301788E-10
   52.4000015      -1.54222385E-10
   52.5149994      -1.49637858E-10
   52.6300011      -1.44695367E-10
   52.7449989      -1.39556186E-10
   52.8600006      -1.34391193E-10
   52.9749985      -1.29375483E-10
   53.0900002      -1.24683042E-10
   53.2050018      -1.20481083E-10
   53.3199997      -1.16924387E-10
   53.4350014      -1.14150078E-10
   53.5499992      -1.12272580E-10
   53.6650009      -1.11379253E-10
   53.7799988      -1.11526843E-10
   53.8950005      -1.12738707E-10
   54.0099983      -1.15003125E-10
   54.1250000      -1.18272683E-10
   54.2400017      -1.22464802E-10
   54.3549995      -1.27463443E-10
   54.4700012      -1.33121972E-10
   54.5849991      -1.39267028E-10
   54.7000008      -1.45703505E-10
   54.8149986      -1.52220209E-10
   54.9300003      -1.58596358E-10
   55.0449982      -1.64608396E-10
   55.1599998      -1.70037193E-10
   55.2750015      -1.74675149E-10
   55.3899994      -1.78333182E-10
   55.5050011      -1.80847226E-10
   55.6199989      -1.82084028E-10
   55.7350006      -1.81946111E-10
   55.8499985      -1.80375603E-10
   55.9650002      -1.77356935E-10
   56.0800018      -1.72918097E-10
   56.1949997      -1.67130629E-10
   56.3100014      -1.60108135E-10
   56.4249992      -1.52003327E-10
   56.5400009      -1.43003914E-10
   56.6549988      -1.33327141E-10
   56.7700005      -1.23213384E-10
   56.8849983      -1.12918778E-10
   57.0000000      -1.02707363E-10
   57.1150017      -9.28427266E-11
   57.2299995      -8.35796085E-11
   57.3450012      -7.51555970E-11
   57.4599991      -6.77833345E-11
   57.5750008      -6.16433432E-11
   57.6899986      -5.68777803E-11
   57.8050003      -5.35853792E-11
   57.9199982      -5.18176335E-11
   58.0349998      -5.15765451E-11
   58.1500015      -5.28138644E-11
   58.2649994      -5.54318952E-11
   58.3800011      -5.92860136E-11
   58.4949989      -6.41885989E-11
   58.6100006      -6.99144700E-11
   58.7249985      -7.62076027E-11
   58.8400002      -8.27888730E-11
   58.9550018      -8.93646893E-11
   59.0699997      -9.56361518E-11
   59.1850014      -1.01308524E-10
   59.2999992      -1.06100691E-10
   59.4150009      -1.09754199E-10
   59.5299988      -1.12041688E-10
   59.6450005      -1.12774477E-10
   59.7599983      -1.11808882E-10
   59.8750000      -1.09051088E-10
   59.9900017      -1.04460586E-10
   60.1049995      -9.80517403E-11
   60.2200012      -8.98936967E-11
   60.3349991      -8.01084268E-11
   60.4500008      -6.88670787E-11
   60.5649986      -5.63847163E-11
   60.6800003      -4.29134679E-11
   60.7949982      -2.87346726E-11
   60.9099998      -1.41497647E-11
   61.0250015       5.29314819E-13
   61.1399994       1.49901896E-11
   61.2550011       2.89301447E-11
   61.3699989       4.20658994E-11
   61.4850006       5.41428569E-11
   61.5999985       6.49432938E-11
   61.7150002       7.42934880E-11
   61.8300018       8.20693721E-11
   61.9449997       8.82006204E-11
   62.0600014       9.26729804E-11
   62.1749992       9.55288071E-11
   62.2900009       9.68658209E-11
   62.4049988       9.68340824E-11
   62.5200005       9.56312945E-11
   62.6349983       9.34967104E-11
   62.7500000       9.07035974E-11
   62.8650017       8.75507999E-11
   62.9799995       8.43534895E-11
   63.0950012       8.14334711E-11
   63.2099991       7.91093024E-11
   63.3250008       7.76866488E-11
   63.4399986       7.74490055E-11
   63.5550003       7.86492468E-11
   63.6699982       8.15021731E-11
   63.7849998       8.61783006E-11
   63.9000015       9.27989491E-11
   64.0149994       1.01433036E-10
   64.1299973       1.12095389E-10
   64.2450027       1.24746657E-10
   64.3600006       1.39294992E-10
   64.4749985       1.55599145E-10
   64.5899963       1.73473028E-10
   64.7050018       1.92691585E-10
   64.8199997       2.12997633E-10
   64.9349976       2.34109621E-10
   65.0500031       2.55729826E-10
   65.1650009       2.77553064E-10
   65.2799988       2.99275438E-10
   65.3949966       3.20602656E-10
   65.5100021       3.41258216E-10
   65.6250000       3.60990737E-10
   65.7399979       3.79580561E-10
   65.8550034       3.96845251E-10
   65.9700012       4.12644002E-10
   66.0849991       4.26880836E-10
   66.1999969       4.39506515E-10
   66.3150024       4.50519150E-10
   66.4300003       4.59963734E-10
   66.5449982       4.67930028E-10
   66.6600037       4.74550010E-10
   66.7750015       4.79993600E-10
   66.8899994       4.84464135E-10
   67.0049973       4.88192542E-10
   67.1200027       4.91431507E-10
   67.2350006       4.94448593E-10
   67.3499985       4.97519470E-10
   67.4649963       5.00921027E-10
   67.5800018       5.04924269E-10
   67.6949997       5.09787546E-10
   67.8099976       5.15749610E-10
   67.9250031       5.23024124E-10
   68.0400009       5.31793443E-10
   68.1549988       5.42203726E-10
   68.2699966       5.54360724E-10
   68.3850021       5.68326386E-10
   68.5000000       5.84116144E-10
   68.6149979       6.01697081E-10
   68.7300034       6.20987761E-10
   68.8450012       6.41858511E-10
   68.9599991       6.64133026E-10
   69.0749969       6.87590984E-10
   69.1900024       7.11972092E-10
   69.3050003       7.36980643E-10
   69.4199982       7.62291785E-10
   69.5350037       7.87557908E-10
   69.6500015       8.12416578E-10
   69.7649994       8.36498648E-10
   69.8799973       8.59437022E-10
   69.9950027       8.80875539E-10
   70.1100006       9.00478025E-10
   70.2249985       9.17937226E-10
   70.3399963       9.32982802E-10
   70.4550018       9.45389655E-10
   70.5699997       9.54983870E-10
   70.6849976       9.61648539E-10
   70.8000031       9.65328151E-10
   70.9150009       9.66030256E-10
   71.0299988       9.63827129E-10
   71.1449966       9.58854107E-10
   71.2600021       9.51306700E-10
   71.3750000       9.41436040E-10
   71.4899979       9.29541777E-10
   71.6050034       9.15964360E-10
   71.7200012       9.01074659E-10
   71.8349991       8.85263141E-10
   71.9499969       8.68927985E-10
   72.0650024       8.52462156E-10
   72.1800003       8.36240799E-10
   72.2949982       8.20607915E-10
   72.4100037       8.05864542E-10
   72.5250015       7.92257149E-10
   72.6399994       7.79967591E-10
   72.7549973       7.69104891E-10
   72.8700027       7.59698138E-10
   72.9850006       7.51693430E-10
   73.0999985       7.44951378E-10
   73.2149963       7.39248440E-10
   73.3300018       7.34280581E-10
   73.4449997       7.29669769E-10
   73.5599976       7.24973082E-10
   73.6750031       7.19693694E-10
   73.7900009       7.13295312E-10
   73.9049988       7.05216330E-10
   74.0199966       6.94887925E-10
   74.1350021       6.81750378E-10
   74.2500000       6.65272226E-10
   74.3649979       6.44967191E-10
   74.4800034       6.20411555E-10
   74.5950012       5.91259430E-10
   74.7099991       5.57257018E-10
   74.8249969       5.18253773E-10
   74.9400024       4.74210504E-10
   75.0550003       4.25205399E-10
   75.1699982       3.71435688E-10
   75.2850037       3.13215426E-10
   75.4000015       2.50970966E-10
   75.5149994       1.85231538E-10
   75.6299973       1.16616855E-10
   75.7450027       4.58219539E-11
   75.8600006      -2.64010064E-11
   75.9749985      -9.92634308E-11
   76.0899963      -1.71961487E-10
   76.2050018      -2.43699505E-10
   76.3199997      -3.13713056E-10
   76.4349976      -3.81291249E-10
   76.5500031      -4.45798343E-10
   76.6650009      -5.06693354E-10
   76.7799988      -5.63547153E-10
   76.8949966      -6.16056151E-10
   77.0100021      -6.64052868E-10
   77.1250000      -7.07511549E-10
   77.2399979      -7.46551099E-10
   77.3550034      -7.81431642E-10
   77.4700012      -8.12547918E-10
   77.5849991      -8.40418124E-10
   77.6999969      -8.65667982E-10
   77.8150024      -8.89011809E-10
   77.9300003      -9.11230202E-10
   78.0449982      -9.33144784E-10
   78.1600037      -9.55591828E-10
   78.2750015      -9.79394454E-10
   78.3899994      -1.00533482E-09
   78.5049973      -1.03412678E-09
   78.6200027      -1.06639075E-09
   78.7350006      -1.10263065E-09
   78.8499985      -1.14321441E-09
   78.9649963      -1.18835819E-09
   79.0800018      -1.23811561E-09
   79.1949997      -1.29237188E-09
   79.3099976      -1.35084355E-09
   79.4250031      -1.41308321E-09
   79.5400009      -1.47849000E-09