  -18.8999996       0.00000000    
  -18.7849998       0.00000000    
  -18.6700001       0.00000000    
  -18.5550003       0.00000000    
  -18.4400005       0.00000000    
  -18.3250008       0.00000000    
  -18.2099991       0.00000000    
  -18.0949993       0.00000000    
  -17.9799995       0.00000000    
  -17.8649998       0.00000000    
  -17.7500000       0.00000000    
  -17.6350002       0.00000000    
  -17.5200005       0.00000000    
  -17.4050007       0.00000000    
  -17.2900009       0.00000000    
  -17.1749992       0.00000000    
  -17.0599995       0.00000000    
  -16.9449997       0.00000000    
  -16.8299999       0.00000000    
  -16.7150002      -1.05134940E-39
  -16.6000004       1.00404703E-38
  -16.4850006       2.37037342E-38
  -16.3700008       3.70640445E-38
  -16.2549992       5.74711793E-38
  -16.1399994       8.35525218E-38
  -16.0249996       1.35232555E-37
  -15.9099998       2.67354788E-37
  -15.7950001       5.60544004E-37
  -15.6800003       1.11568092E-36
  -15.5649996       2.11828527E-36
  -15.4499998       3.80475609E-36
  -15.3350000       6.61628832E-36
  -15.2200003       1.12223184E-35
  -15.1049995       1.86513043E-35
  -14.9899998       3.05381178E-35
  -14.8750000       4.94475085E-35
  -14.7600002       7.93406685E-35
  -14.6450005       1.26023406E-34
  -14.5299997       1.97303788E-34
  -14.4150000       3.02225705E-34
  -14.3000002       4.47935944E-34
  -14.1850004       6.32124016E-34
  -14.0699997       8.27615247E-34
  -13.9549999       9.54761583E-34
  -13.8400002       8.36916988E-34
  -13.7250004       1.36141474E-34
  -13.6099997      -1.72890681E-33
  -13.4949999      -5.66921860E-33
  -13.3800001      -1.29832308E-32
  -13.2650003      -2.53243566E-32
  -13.1499996      -4.44789988E-32
  -13.0349998      -7.18161279E-32
  -12.9200001      -1.07240408E-31
  -12.8050003      -1.47486913E-31
  -12.6899996      -1.83668124E-31
  -12.5749998      -1.98166624E-31
  -12.4600000      -1.61298972E-31
  -12.3450003      -2.86829673E-32
  -12.2299995       2.59091721E-31
  -12.1149998       7.72142319E-31
  -12.0000000       1.57932613E-30
  -11.8850002       2.72538252E-30
  -11.7700005       4.19450878E-30
  -11.6549997       5.85957415E-30
  -11.5400000       7.41985877E-30
  -11.4250002       8.33602289E-30
  -11.3100004       7.77884308E-30
  -11.1949997       4.61740275E-30
  -11.0799999      -2.51870654E-30
  -10.9650002      -1.50629298E-29
  -10.8500004      -3.41817898E-29
  -10.7349997      -6.02646169E-29
  -10.6199999      -9.22343559E-29
  -10.5050001      -1.26728116E-28
  -10.3900003      -1.57262773E-28
  -10.2749996      -1.73582790E-28
  -10.1599998      -1.61473217E-28
  -10.0450001      -1.03392586E-28
  -9.93000031       1.96891866E-29
  -9.81499958       2.24904586E-28
  -9.69999981       5.22358375E-28
  -9.58500004       9.08340110E-28
  -9.47000027       1.35739292E-27
  -9.35499954       1.81430709E-27
  -9.23999977       2.18774934E-27
  -9.12500000       2.34784380E-27
  -9.01000023       2.13049182E-27
  -8.89500046       1.35129158E-27
  -8.77999973      -1.68494748E-28
  -8.66499996      -2.56270613E-27
  -8.55000019      -5.86859242E-27
  -8.43500042      -9.96644942E-27
  -8.31999969      -1.45179927E-26
  -8.20499992      -1.89148862E-26
  -8.09000015      -2.22525228E-26
  -7.97499990      -2.33466328E-26
  -7.86000013      -2.08106376E-26
  -7.74499989      -1.32087147E-26
  -7.63000011       7.07615551E-28
  -7.51499987       2.16833411E-26
  -7.40000010       4.95845055E-26
  -7.28499985       8.30035993E-26
  -7.17000008       1.18907050E-25
  -7.05499983       1.52405400E-25
  -6.94000006       1.76740058E-25
  -6.82499981       1.83582613E-25
  -6.71000004       1.63729807E-25
  -6.59499979       1.08243697E-25
  -6.48000002       1.00325966E-26
  -6.36499977      -1.34207710E-25
  -6.25000000      -3.21863163E-25
  -6.13500023      -5.42351437E-25
  -6.01999998      -7.75513132E-25
  -5.90500021      -9.90872011E-25
  -5.78999996      -1.14821693E-24
  -5.67500019      -1.19991571E-24
  -5.55999994      -1.09525310E-24
  -5.44500017      -7.86880716E-25
  -5.32999992      -2.39168131E-25
  -5.21500015       5.62111515E-25
  -5.09999990       1.59973379E-24
  -4.98500013       2.81596936E-24
  -4.86999989       4.10620008E-24
  -4.75500011       5.31705030E-24
  -4.63999987       6.25082850E-24
  -4.52500010       6.67777304E-24
  -4.40999985       6.35692990E-24
  -4.29500008       5.06556933E-24
  -4.17999983       2.63578150E-24
  -4.06500006      -1.00449672E-24
  -3.95000005      -5.79026942E-24
  -3.83500004      -1.14836075E-23
  -3.72000003      -1.76495842E-23
  -3.60500002      -2.36508214E-23
  -3.49000001      -2.86669024E-23
  -3.37500000      -3.17434820E-23
  -3.25999999      -3.18733096E-23
  -3.14499998      -2.81078650E-23
  -3.02999997      -1.96940482E-23
  -2.91499996      -6.22546741E-24
  -2.79999995       1.22066356E-23
  -2.68499994       3.48817979E-23
  -2.56999993       6.03596480E-23
  -2.45499992       8.64520744E-23
  -2.33999991       1.10278084E-22
  -2.22499990       1.28416004E-22
  -2.10999990       1.37159536E-22
  -1.99500000       1.32873194E-22
  -1.88000000       1.12429580E-22
  -1.76499999       7.36974368E-23
  -1.64999998       1.60355574E-23
  -1.53499997      -5.92625129E-23
  -1.41999996      -1.48635354E-22
  -1.30499995      -2.46095572E-22
  -1.19000006      -3.43303128E-22
  -1.07500005      -4.29913340E-22
 -0.959999979      -4.94220777E-22
 -0.845000029      -5.24090004E-22
 -0.730000019      -5.08133658E-22
 -0.615000010      -4.37059284E-22
 -0.500000000      -3.05075610E-22
 -0.384999990      -1.11219883E-22
 -0.270000011       1.39548989E-22
 -0.155000001       4.35650947E-22
  -3.99999991E-02   7.58723187E-22
   7.50000030E-02   1.08411117E-21
  0.189999998       1.38207572E-21
  0.305000007       1.61971536E-21
  0.419999987       1.76352928E-21
  0.535000026       1.78246295E-21
  0.649999976       1.65120921E-21
  0.764999986       1.35347044E-21
  0.879999995       8.84847986E-22
  0.995000005       2.55019268E-22
   1.11000001      -5.11116738E-22
   1.22500002      -1.37358157E-21
   1.34000003      -2.27890056E-21
   1.45500004      -3.16315704E-21
   1.57000005      -3.95638831E-21
   1.68499994      -4.58803603E-21
   1.79999995      -4.99303585E-21
   1.91499996      -5.11796638E-21
   2.02999997      -4.92665057E-21
   2.14499998      -4.40454451E-21
   2.25999999      -3.56132031E-21
   2.37500000      -2.43116823E-21
   2.49000001      -1.07055508E-21
   2.60500002       4.46599175E-22
   2.72000003       2.03604025E-21
   2.83500004       3.61202712E-21
   2.95000005       5.09701141E-21
   3.06500006       6.43111924E-21
   3.18000007       7.58014500E-21
   3.29500008       8.54083289E-21
   3.41000009       9.34234424E-21
   3.52500010       1.00430042E-20
   3.64000010       1.07219498E-20
   3.75500011       1.14657169E-20
   3.86999989       1.23504778E-20
   3.98499990       1.34212373E-20
   4.09999990       1.46700288E-20
   4.21500015       1.60153411E-20
   4.32999992       1.72856870E-20
   4.44500017       1.82100193E-20
   4.55999994       1.84176303E-20
   4.67500019       1.74496513E-20
   4.78999996       1.47834866E-20
   4.90500021       9.87022280E-21
   5.01999998       2.18438427E-21
   5.13500023      -8.71670893E-21
   5.25000000      -2.31274222E-20
   5.36499977      -4.11270259E-20
   5.48000002      -6.25175417E-20
   5.59499979      -8.67718860E-20
   5.71000004      -1.12999412E-19
   5.82499981      -1.39933356E-19
   5.94000006      -1.65945524E-19
   6.05499983      -1.89090451E-19
   6.17000008      -2.07180089E-19
   6.28499985      -2.17887025E-19
   6.40000010      -2.18872145E-19
   6.51499987      -2.07930665E-19
   6.63000011      -1.83147649E-19
   6.74499989      -1.43052835E-19
   6.86000013      -8.67655917E-20
   6.97499990      -1.41177403E-20
   7.09000015       7.42541554E-20
   7.20499992       1.76853852E-19
   7.32000017       2.91314840E-19
   7.43499994       4.14433488E-19
   7.55000019       5.42247084E-19
   7.66499996       6.70151023E-19
   7.78000021       7.93044523E-19
   7.89499998       9.05501795E-19
   8.01000023       1.00194971E-18
   8.12500000       1.07684792E-18
   8.23999977       1.12485376E-18
   8.35499954       1.14097085E-18
   8.47000027       1.12066895E-18
   8.58500004       1.05997860E-18
   8.69999981       9.55558113E-19
   8.81499958       8.04741839E-19
   8.93000031       6.05575256E-19
   9.04500008       3.56849800E-19
   9.15999985       5.81483349E-20
   9.27499962      -2.90091724E-19
   9.39000034      -6.86477707E-19
   9.50500011      -1.12853306E-18
   9.61999989      -1.61253112E-18
   9.73499966      -2.13328908E-18
   9.85000038      -2.68395872E-18
   9.96500015      -3.25579240E-18
   10.0799999      -3.83793813E-18
   10.1949997      -4.41726276E-18
   10.3100004      -4.97824507E-18
   10.4250002      -5.50295096E-18
   10.5400000      -5.97110954E-18
   10.6549997      -6.36032201E-18
   10.7700005      -6.64639002E-18
   10.8850002      -6.80378181E-18
   11.0000000      -6.80621744E-18
   11.1149998      -6.62736817E-18
   11.2299995      -6.24163648E-18
   11.3450003      -5.62499691E-18
   11.4600000      -4.75586294E-18
   11.5749998      -3.61592782E-18
   11.6899996      -2.19097459E-18
   11.8050003      -4.71584456E-19
   11.9200001       1.54624924E-18
   12.0349998       3.86066988E-18
   12.1499996       6.46366872E-18
   12.2650003       9.34093707E-18
   12.3800001       1.24719795E-17
   12.4949999       1.58303476E-17
   12.6099997       1.93841290E-17
   12.7250004       2.30966247E-17
   12.8400002       2.69271642E-17
   12.9549999       3.08321746E-17
   13.0699997       3.47663681E-17
   13.1850004       3.86840873E-17
   13.3000002       4.25408136E-17
   13.4150000       4.62947015E-17
   13.5299997       4.99081838E-17
   13.6450005       5.33496390E-17
   13.7600002       5.65948902E-17
   13.8750000       5.96286512E-17
   13.9899998       6.24457173E-17
   14.1049995       6.50519517E-17
   14.2200003       6.74647316E-17
   14.3350000       6.97131740E-17
   14.4499998       7.18376782E-17
   14.5649996       7.38890597E-17
   14.6800003       7.59270871E-17
   14.7950001       7.80184379E-17
   14.9099998       8.02343026E-17
   15.0249996       8.26475193E-17
   15.1400003       8.53292653E-17
   15.2550001       8.83459136E-17
   15.3699999       9.17555852E-17
   15.4849997       9.56051315E-17
   15.6000004       9.99272958E-17
   15.7150002       1.04738370E-16
   15.8299999       1.10036594E-16
   15.9449997       1.15801183E-16
   16.0599995       1.21992134E-16
   16.1749992       1.28550842E-16
   16.2900009       1.35401499E-16
   16.4050007       1.42453141E-16
   16.5200005       1.49602205E-16
   16.6350002       1.56735493E-16
   16.7500000       1.63733414E-16
   16.8649998       1.70473348E-16
   16.9799995       1.76832779E-16
   17.0949993       1.82692222E-16
   17.2099991       1.87938109E-16
   17.3250008       1.92464692E-16
   17.4400005       1.96176126E-16
   17.5550003       1.98987614E-16
   17.6700001       2.00826641E-16
   17.7849998       2.01633374E-16
   17.8999996       2.01361053E-16
   18.0149994       1.99976313E-16
   18.1299992       1.97459196E-16
   18.2450008       1.93803031E-16
   18.3600006       1.89014171E-16
   18.4750004       1.83111913E-16
   18.5900002       1.76127968E-16
   18.7049999       1.68105534E-16
   18.8199997       1.59098172E-16
   18.9349995       1.49168153E-16
   19.0499992       1.38384127E-16
   19.1650009       1.26818038E-16
   19.2800007       1.14541314E-16
   19.3950005       1.01620548E-16
   19.5100002       8.81122516E-17
   19.6250000       7.40571825E-17
   19.7399998       5.94745971E-17
   19.8549995       4.43562402E-17
   19.9699993       2.86605873E-17
   20.0849991       1.23080736E-17
   20.2000008      -4.82324672E-18
   20.3150005      -2.29004655E-17
   20.4300003      -4.21371627E-17
   20.5450001      -6.27930604E-17
   20.6599998      -8.51717569E-17
   20.7749996      -1.09616638E-16
   20.8899994      -1.36504998E-16
   21.0049992      -1.66240195E-16
   21.1200008      -1.99242729E-16
   21.2350006      -2.35939704E-16
   21.3500004      -2.76754013E-16
   21.4650002      -3.22092616E-16
   21.5799999      -3.72335328E-16
   21.6949997      -4.27823557E-16
   21.8099995      -4.88851089E-16
   21.9249992      -5.55654990E-16
   22.0400009      -6.28409455E-16
   22.1550007      -7.07220895E-16
   22.2700005      -7.92127213E-16
   22.3850002      -8.83096910E-16
   22.5000000      -9.80034061E-16
   22.6149998      -1.08278487E-15
   22.7299995      -1.19114665E-15
   22.8449993      -1.30488051E-15
   22.9599991      -1.42372707E-15
   23.0750008      -1.54742183E-15
   23.1900005      -1.67571503E-15
   23.3050003      -1.80839120E-15
   23.4200001      -1.94528740E-15
   23.5349998      -2.08631351E-15
   23.6499996      -2.23147167E-15
   23.7649994      -2.38086837E-15
   23.8799992      -2.53472810E-15
   23.9950008      -2.69340066E-15
   24.1100006      -2.85736570E-15
   24.2250004      -3.02722757E-15
   24.3400002      -3.20371048E-15
   24.4549999      -3.38764284E-15
   24.5699997      -3.57993901E-15
   24.6849995      -3.78157351E-15
   24.7999992      -3.99355536E-15
   24.9150009      -4.21689297E-15
   25.0300007      -4.45256209E-15
   25.1450005      -4.70147247E-15
   25.2600002      -4.96443003E-15
   25.3750000      -5.24211285E-15
   25.4899998      -5.53503505E-15
   25.6049995      -5.84353080E-15
   25.7199993      -6.16774029E-15
   25.8349991      -6.50759277E-15
   25.9500008      -6.86281383E-15
   26.0650005      -7.23292614E-15
   26.1800003      -7.61726480E-15
   26.2950001      -8.01499421E-15
   26.4099998      -8.42514535E-15
   26.5249996      -8.84663318E-15
   26.6399994      -9.27830319E-15
   26.7549992      -9.71895345E-15
   26.8700008      -1.01673845E-14
   26.9850006      -1.06224310E-14
   27.1000004      -1.10829865E-14
   27.2150002      -1.15480372E-14
   27.3299999      -1.20166819E-14
   27.4449997      -1.24881481E-14
   27.5599995      -1.29617962E-14
   27.6749992      -1.34371316E-14
   27.7900009      -1.39137816E-14
   27.9050007      -1.43914896E-14
   28.0200005      -1.48700903E-14
   28.1350002      -1.53494754E-14
   28.2500000      -1.58295753E-14
   28.3649998      -1.63103021E-14
   28.4799995      -1.67915049E-14
   28.5949993      -1.72729415E-14
   28.7099991      -1.77542256E-14
   28.8250008      -1.82347779E-14
   28.9400005      -1.87137818E-14
   29.0550003      -1.91901531E-14
   29.1700001      -1.96624943E-14
   29.2849998      -2.01290790E-14
   29.3999996      -2.05878185E-14
   29.5149994      -2.10362462E-14
   29.6299992      -2.14715093E-14
   29.7450008      -2.18903790E-14
   29.8600006      -2.22892349E-14
   29.9750004      -2.26640978E-14
   30.0900002      -2.30106275E-14
   30.2049999      -2.33241652E-14
   30.3199997      -2.35997575E-14
   30.4349995      -2.38321783E-14
   30.5499992      -2.40159929E-14
   30.6650009      -2.41455602E-14
   30.7800007      -2.42151100E-14
   30.8950005      -2.42187641E-14
   31.0100002      -2.41505831E-14
   31.1250000      -2.40046088E-14
   31.2399998      -2.37749240E-14
   31.3549995      -2.34556738E-14
   31.4699993      -2.30411122E-14
   31.5849991      -2.25256384E-14
   31.7000008      -2.19038299E-14
   31.8150005      -2.11704721E-14
   31.9300003      -2.03205830E-14
   32.0449982      -1.93494343E-14
   32.1599998      -1.82525504E-14
   32.2750015      -1.70257214E-14
   32.3899994      -1.56649782E-14
   32.5050011      -1.41666099E-14
   32.6199989      -1.25270955E-14
   32.7350006      -1.07430908E-14
   32.8499985      -8.81138559E-15
   32.9650002      -6.72884498E-15
   33.0800018      -4.49236756E-15
   33.1949997      -2.09879666E-15
   33.3100014       4.55109214E-16
   33.4249992       3.17274740E-15
   33.5400009       6.05772680E-15
   33.6549988       9.11390680E-15
   33.7700005       1.23454247E-14
   33.8849983       1.57567424E-14
   34.0000000       1.93526225E-14
   34.1150017       2.31381280E-14
   34.2299995       2.71185713E-14
   34.3450012       3.12995276E-14
   34.4599991       3.56866771E-14
   34.5750008       4.02857882E-14
   34.6899986       4.51026037E-14
   34.8050003       5.01426632E-14
   34.9199982       5.54112488E-14
   35.0349998       6.09132292E-14
   35.1500015       6.66528803E-14
   35.2649994       7.26337664E-14
   35.3800011       7.88586115E-14
   35.4949989       8.53291369E-14
   35.6100006       9.20459794E-14
   35.7249985       9.90085157E-14
   35.8400002       1.06214821E-13
   35.9550018       1.13661569E-13
   36.0699997       1.21344056E-13
   36.1850014       1.29256103E-13
   36.2999992       1.37390086E-13
   36.4150009       1.45737019E-13
   36.5299988       1.54286577E-13
   36.6450005       1.63027185E-13
   36.7599983       1.71946116E-13
   36.8750000       1.81029684E-13
   36.9900017       1.90263373E-13
   37.1049995       1.99631896E-13
   37.2200012       2.09119519E-13
   37.3349991       2.18709965E-13
   37.4500008       2.28386781E-13
   37.5649986       2.38133406E-13
   37.6800003       2.47933049E-13
   37.7949982       2.57769039E-13
   37.9099998       2.67624681E-13
   38.0250015       2.77483223E-13
   38.1399994       2.87327941E-13
   38.2550011       2.97141923E-13
   38.3699989       3.06908036E-13
   38.4850006       3.16608854E-13
   38.5999985       3.26226351E-13
   38.7150002       3.35741851E-13
   38.8300018       3.45135867E-13
   38.9449997       3.54387906E-13
   39.0600014       3.63476230E-13
   39.1749992       3.72377937E-13
   39.2900009       3.81068522E-13
   39.4049988       3.89522073E-13
   39.5200005       3.97710971E-13
   39.6349983       4.05606104E-13
   39.7500000       4.13176546E-13
   39.8650017       4.20389770E-13
   39.9799995       4.27211895E-13
   40.0950012       4.33607170E-13
   40.2099991       4.39538569E-13
   40.3250008       4.44967874E-13
   40.4399986       4.49855620E-13
   40.5550003       4.54161367E-13
   40.6699982       4.57843941E-13
   40.7849998       4.60861492E-13
   40.9000015       4.63171819E-13
   41.0149994       4.64732636E-13
   41.1300011       4.65501715E-13
   41.2449989       4.65437259E-13
   41.3600006       4.64497906E-13
   41.4749985       4.62643270E-13
   41.5900002       4.59834211E-13
   41.7050018       4.56032673E-13
   41.8199997       4.51202335E-13
   41.9350014       4.45308585E-13
   42.0499992       4.38318788E-13
   42.1650009       4.30202179E-13
   42.2799988       4.20930353E-13
   42.3950005       4.10476910E-13
   42.5099983       3.98817589E-13
   42.6250000       3.85930220E-13
   42.7400017       3.71794826E-13
   42.8549995       3.56393056E-13
   42.9700012       3.39708432E-13
   43.0849991       3.21725936E-13
   43.2000008       3.02432016E-13
   43.3149986       2.81814042E-13
   43.4300003       2.59860465E-13
   43.5449982       2.36560473E-13
   43.6599998       2.11903628E-13
   43.7750015       1.85880201E-13
   43.8899994       1.58480637E-13
   44.0050011       1.29695801E-13
   44.1199989       9.95168845E-14
   44.2350006       6.79353898E-14
   44.3499985       3.49434532E-14
   44.4650002       5.33851091E-16
   44.5800018      -3.52995628E-14
   44.6949997      -7.25618093E-14
   44.8100014      -1.11256219E-13
   44.9249992      -1.51384154E-13
   45.0400009      -1.92944483E-13
   45.1549988      -2.35933208E-13
   45.2700005      -2.80343023E-13
   45.3849983      -3.26162871E-13
   45.5000000      -3.73377327E-13
   45.6150017      -4.21966444E-13
   45.7299995      -4.71905338E-13
   45.8450012      -5.23163815E-13
   45.9599991      -5.75706204E-13
   46.0750008      -6.29491359E-13
   46.1899986      -6.84472715E-13
   46.3050003      -7.40597904E-13
   46.4199982      -7.97809898E-13
   46.5349998      -8.56046462E-13
   46.6500015      -9.15241299E-13
   46.7649994      -9.75323771E-13
   46.8800011      -1.03622070E-12
   46.9949989      -1.09785586E-12
   47.1100006      -1.16015140E-12
   47.2249985      -1.22302797E-12
   47.3400002      -1.28640631E-12
   47.4550018      -1.35020695E-12
   47.5699997      -1.41435084E-12
   47.6850014      -1.47876026E-12
   47.7999992      -1.54335919E-12
   47.9150009      -1.60807272E-12
   48.0299988      -1.67282757E-12
   48.1450005      -1.73755216E-12
   48.2599983      -1.80217625E-12
   48.3750000      -1.86663033E-12
   48.4900017      -1.93084546E-12
   48.6049995      -1.99475245E-12
   48.7200012      -2.05828150E-12
   48.8349991      -2.12136190E-12
   48.9500008      -2.18391993E-12
   49.0649986      -2.24588100E-12
   49.1800003      -2.30716618E-12
   49.2949982      -2.36769350E-12
   49.4099998      -2.42737709E-12
   49.5250015      -2.48612719E-12
   49.6399994      -2.54384925E-12
   49.7550011      -2.60044547E-12
   49.8699989      -2.65581350E-12
   49.9850006      -2.70984689E-12
   50.0999985      -2.76243720E-12
   50.2150002      -2.81347211E-12
   50.3300018      -2.86283779E-12
   50.4449997      -2.91041930E-12
   50.5600014      -2.95610043E-12
   50.6749992      -2.99976623E-12
   50.7900009      -3.04130267E-12
   50.9049988      -3.08059849E-12
   51.0200005      -3.11754507E-12
   51.1349983      -3.15203766E-12
   51.2500000      -3.18397695E-12
   51.3650017      -3.21326819E-12
   51.4799995      -3.23982421E-12
   51.5950012      -3.26356281E-12
   51.7099991      -3.28440877E-12
   51.8250008      -3.30229507E-12
   51.9399986      -3.31716035E-12
   52.0550003      -3.32895083E-12
   52.1699982      -3.33761924E-12
   52.2849998      -3.34312439E-12
   52.4000015      -3.34543049E-12
   52.5149994      -3.34450653E-12
   52.6300011      -3.34032498E-12
   52.7449989      -3.33286198E-12
   52.8600006      -3.32209585E-12
   52.9749985      -3.30800621E-12
   53.0900002      -3.29057376E-12
   53.2050018      -3.26977811E-12
   53.3199997      -3.24559867E-12
   53.4350014      -3.21801266E-12
   53.5499992      -3.18699602E-12
   53.6650009      -3.15252295E-12
   53.7799988      -3.11456395E-12
   53.8950005      -3.07308822E-12
   54.0099983      -3.02806218E-12
   54.1250000      -2.97945067E-12
   54.2400017      -2.92721641E-12
   54.3549995      -2.87132210E-12
   54.4700012      -2.81172958E-12
   54.5849991      -2.74840155E-12
   54.7000008      -2.68130223E-12
   54.8149986      -2.61039801E-12
   54.9300003      -2.53565853E-12
   55.0449982      -2.45705756E-12
   55.1599998      -2.37457450E-12
   55.2750015      -2.28819329E-12
   55.3899994      -2.19790527E-12
   55.5050011      -2.10370848E-12
   55.6199989      -2.00560749E-12
   55.7350006      -1.90361507E-12
   55.8499985      -1.79775118E-12
   55.9650002      -1.68804239E-12
   56.0800018      -1.57452198E-12
   56.1949997      -1.45722930E-12
   56.3100014      -1.33620805E-12
   56.4249992      -1.21150540E-12
   56.5400009      -1.08317142E-12
   56.6549988      -9.51256977E-13
   56.7700005      -8.15812966E-13
   56.8849983      -6.76887040E-13
   57.0000000      -5.34525224E-13
   57.1150017      -3.88767306E-13
   57.2299995      -2.39647928E-13
   57.3450012      -8.71948930E-14
   57.4599991       6.85719249E-14
   57.5750008       2.27641419E-13
   57.6899986       3.90009558E-13
   57.8050003       5.55681857E-13
   57.9199982       7.24670486E-13
   58.0349998       8.96994989E-13
   58.1500015       1.07268122E-12
   58.2649994       1.25175857E-12
   58.3800011       1.43426005E-12
   58.4949989       1.62021893E-12
   58.6100006       1.80966863E-12
   58.7249985       2.00263807E-12
   58.8400002       2.19915340E-12
   58.9550018       2.39923381E-12
   59.0699997       2.60288839E-12
   59.1850014       2.81011846E-12
   59.2999992       3.02091360E-12
   59.4150009       3.23525126E-12
   59.5299988       3.45309653E-12
   59.6450005       3.67440063E-12
   59.7599983       3.89910413E-12
   59.8750000       4.12713310E-12
   59.9900017       4.35840513E-12
   60.1049995       4.59282395E-12
   60.2200012       4.83028678E-12
   60.3349991       5.07068302E-12
   60.4500008       5.31389602E-12
   60.5649986       5.55980739E-12
   60.6800003       5.80829525E-12
   60.7949982       6.05923731E-12
   60.9099998       6.31251388E-12
   61.0250015       6.56800829E-12
   61.1399994       6.82560865E-12
   61.2550011       7.08520785E-12
   61.3699989       7.34670397E-12
   61.4850006       7.61000204E-12
   61.5999985       7.87501227E-12
   61.7150002       8.14164881E-12
   61.8300018       8.40983359E-12
   61.9449997       8.67948942E-12
   62.0600014       8.95054170E-12
   62.1749992       9.22291583E-12
   62.2900009       9.49653550E-12
   62.4049988       9.77132091E-12
   62.5200005       1.00471888E-11
   62.6349983       1.03240428E-11
   62.7500000       1.06017859E-11
   62.8650017       1.08803027E-11
   62.9799995       1.11594683E-11
   63.0950012       1.14391430E-11
   63.2099991       1.17191725E-11
   63.3250008       1.19993815E-11
   63.4399986       1.22795862E-11
   63.5550003       1.25595766E-11
   63.6699982       1.28391273E-11
   63.7849998       1.31179954E-11
   63.9000015       1.33959207E-11
   64.0149994       1.36726238E-11
   64.1299973       1.39478091E-11
   64.2450027       1.42211668E-11
   64.3600006       1.44923717E-11
   64.4749985       1.47610830E-11
   64.5899963       1.50269502E-11
   64.7050018       1.52896168E-11
   64.8199997       1.55487099E-11
   64.9349976       1.58038530E-11
   65.0500031       1.60546663E-11
   65.1650009       1.63007628E-11
   65.2799988       1.65417610E-11
   65.3949966       1.67772688E-11
   65.5100021       1.70068994E-11
   65.6250000       1.72302728E-11
   65.7399979       1.74470039E-11
   65.8550034       1.76567129E-11
   65.9700012       1.78590268E-11
   66.0849991       1.80535743E-11
   66.1999969       1.82399859E-11
   66.3150024       1.84179009E-11
   66.4300003       1.85869584E-11
   66.5449982       1.87467993E-11
   66.6600037       1.88970662E-11
   66.7750015       1.90374053E-11
   66.8899994       1.91674593E-11
   67.0049973       1.92868707E-11
   67.1200027       1.93952823E-11
   67.2350006       1.94923331E-11
   67.3499985       1.95776555E-11
   67.4649963       1.96508799E-11
   67.5800018       1.97116334E-11
   67.6949997       1.97595343E-11
   67.8099976       1.97941993E-11
   67.9250031       1.98152380E-11
   68.0400009       1.98222567E-11
   68.1549988       1.98148546E-11
   68.2699966       1.97926293E-11
   68.3850021       1.97551767E-11
   68.5000000       1.97020924E-11
   68.6149979       1.96329689E-11
   68.7300034       1.95474002E-11
   68.8450012       1.94449873E-11
   68.9599991       1.93253382E-11
   69.0749969       1.91880626E-11
   69.1900024       1.90327806E-11
   69.3050003       1.88591261E-11
   69.4199982       1.86667400E-11
   69.5350037       1.84552807E-11
   69.6500015       1.82244202E-11
   69.7649994       1.79738429E-11
   69.8799973       1.77032486E-11
   69.9950027       1.74123528E-11
   70.1100006       1.71008867E-11
   70.2249985       1.67685900E-11
   70.3399963       1.64152233E-11
   70.4550018       1.60405508E-11
   70.5699997       1.56443556E-11
   70.6849976       1.52264208E-11
   70.8000031       1.47865470E-11
   70.9150009       1.43245363E-11
   71.0299988       1.38402016E-11
   71.1449966       1.33333587E-11
   71.2600021       1.28038283E-11
   71.3750000       1.22514368E-11
   71.4899979       1.16760135E-11
   71.6050034       1.10773925E-11
   71.7200012       1.04554065E-11
   71.8349991       9.80989248E-12
   71.9499969       9.14069168E-12
   72.0650024       8.44764189E-12
   72.1800003       7.73058093E-12
   72.2949982       6.98934487E-12
   72.4100037       6.22377063E-12
   72.5250015       5.43368779E-12
   72.6399994       4.61892460E-12
   72.7549973       3.77930673E-12
   72.8700027       2.91464986E-12
   72.9850006       2.02476902E-12
   73.0999985       1.10947655E-12
   73.2149963       1.68581850E-13
   73.3300018      -7.98115697E-13
   73.4449997      -1.79080774E-12
   73.5599976      -2.80968413E-12
   73.6750031      -3.85493243E-12
   73.7900009      -4.92672569E-12
   73.9049988      -6.02523326E-12
   74.0199966      -7.15059435E-12
   74.1350021      -8.30294600E-12
   74.2500000      -9.48239057E-12
   74.3649979      -1.06889992E-11
   74.4800034      -1.19228299E-11
   74.5950012      -1.31839036E-11
   74.7099991      -1.44721969E-11
   74.8249969      -1.57876611E-11
   74.9400024      -1.71302139E-11
   75.0550003      -1.84997365E-11
   75.1699982      -1.98960813E-11
   75.2850037      -2.13190628E-11
   75.4000015      -2.27684711E-11
   75.5149994      -2.42440703E-11
   75.6299973      -2.57456088E-11
   75.7450027      -2.72728073E-11
   75.8600006      -2.88253796E-11
   75.9749985      -3.04030238E-11
   76.0899963      -3.20054365E-11
   76.2050018      -3.36323192E-11
   76.3199997      -3.52833596E-11
   76.4349976      -3.69582455E-11
   76.5500031      -3.86566855E-11
   76.6650009      -4.03783638E-11
   76.7799988      -4.21230030E-11
   76.8949966      -4.38902838E-11
   77.0100021      -4.56799078E-11
   77.1250000      -4.74915628E-11
   77.2399979      -4.93249122E-11
   77.3550034      -5.11795883E-11
   77.4700012      -5.30551887E-11
   77.5849991      -5.49512900E-11
   77.6999969      -5.68673685E-11
   77.8150024      -5.88028792E-11
   77.9300003      -6.07571701E-11
   78.0449982      -6.27295091E-11
   78.1600037      -6.47190634E-11
   78.2750015      -6.67248964E-11
   78.3899994      -6.87459534E-11
   78.5049973      -7.07810616E-11
   78.6200027      -7.28289096E-11
   78.7350006      -7.48880680E-11
   78.8499985      -7.69569686E-11
   78.9649963      -7.90339044E-11
   79.0800018      -8.11170575E-11
   79.1949997      -8.32044433E-11
   79.3099976      -8.52939941E-11
   79.4250031      -8.73834963E-11
   79.5400009      -8.94706462E-11