  -18.8999996      -0.00000000    
  -18.7849998      -0.00000000    
  -18.6700001      -0.00000000    
  -18.5550003      -0.00000000    
  -18.4400005      -0.00000000    
  -18.3250008      -0.00000000    
  -18.2099991      -0.00000000    
  -18.0949993      -0.00000000    
  -17.9799995      -0.00000000    
  -17.8649998      -0.00000000    
  -17.7500000      -0.00000000    
  -17.6350002      -0.00000000    
  -17.5200005      -0.00000000    
  -17.4050007      -0.00000000    
  -17.2900009      -0.00000000    
  -17.1749992      -0.00000000    
  -17.0599995      -0.00000000    
  -16.9449997      -0.00000000    
  -16.8299999      -0.00000000    
  -16.7150002      -2.10058844E-40
  -16.6000004       9.00905993E-40
  -16.4850006      -7.27901685E-40
  -16.3700008      -2.87890183E-39
  -16.2549992       6.35749075E-39
  -16.1399994       2.81893383E-38
  -16.0249996       4.59727631E-38
  -15.9099998       9.85692846E-38
  -15.7950001       1.49689157E-37
  -15.6800003       2.37129766E-37
  -15.5649996       3.25970833E-37
  -15.4499998       3.96655400E-37
  -15.3350000       4.27946058E-37
  -15.2200003       4.51200662E-37
  -15.1049995       7.46529044E-37
  -14.9899998       2.25081196E-36
  -14.8750000       7.26550501E-36
  -14.7600002       2.07248163E-35
  -14.6450005       5.21663845E-35
  -14.5299997       1.18504915E-34
  -14.4150000       2.47201526E-34
  -14.3000002       4.78968443E-34
  -14.1850004       8.67997518E-34
  -14.0699997       1.47596586E-33
  -13.9549999       2.35414050E-33
  -13.8400002       3.50556770E-33
  -13.7250004       4.81804278E-33
  -13.6099997       5.95921710E-33
  -13.4949999       6.22948015E-33
  -13.3800001       4.38008113E-33
  -13.2650003      -1.57565173E-33
  -13.1499996      -1.44983916E-32
  -13.0349998      -3.81039638E-32
  -12.9200001      -7.66377001E-32
  -12.8050003      -1.34044795E-31
  -12.6899996      -2.12414368E-31
  -12.5749998      -3.09499081E-31
  -12.4600000      -4.15217754E-31
  -12.3450003      -5.07272362E-31
  -12.2299995      -5.46384397E-31
  -12.1149998      -4.72188887E-31
  -12.0000000      -2.01490123E-31
  -11.8850002       3.68701467E-31
  -11.7700005       1.35033080E-30
  -11.6549997       2.84239274E-30
  -11.5400000       4.89512937E-30
  -11.4250002       7.45900405E-30
  -11.3100004       1.03200083E-29
  -11.1949997       1.30273994E-29
  -11.0799999       1.48261142E-29
  -10.9650002       1.46133847E-29
  -10.8500004       1.09465389E-29
  -10.7349997       2.13491629E-30
  -10.6199999      -1.35492286E-29
  -10.5050001      -3.75105070E-29
  -10.3900003      -7.03053624E-29
  -10.2749996      -1.10963236E-28
  -10.1599998      -1.56205931E-28
  -10.0450001      -1.99670245E-28
  -9.93000031      -2.31300768E-28
  -9.81499958      -2.37141487E-28
  -9.69999981      -1.99803303E-28
  -9.58500004      -9.99025603E-29
  -9.47000027       8.12673284E-29
  -9.35499954       3.57671552E-28
  -9.23999977       7.33109856E-28
  -9.12500000       1.19474823E-27
  -9.01000023       1.70629497E-27
  -8.89500046       2.20193131E-27
  -8.77999973       2.58254437E-27
  -8.66499996       2.71614324E-27
  -8.55000019       2.44452472E-27
  -8.43500042       1.59809497E-27
  -8.31999969       2.02224645E-29
  -8.20499992      -2.39859360E-27
  -8.09000015      -5.67804669E-27
  -7.97499990      -9.70029283E-27
  -7.86000013      -1.41630669E-26
  -7.74499989      -1.85421463E-26
  -7.63000011      -2.20738365E-26
  -7.51499987      -2.37695007E-26
  -7.40000010      -2.24740756E-26
  -7.28499985      -1.69782758E-26
  -7.17000008      -6.18951128E-27
  -7.05499983       1.06410218E-26
  -6.94000006       3.36477618E-26
  -6.82499981       6.20617767E-26
  -6.71000004       9.39414454E-26
  -6.59499979       1.25973272E-25
  -6.48000002       1.53402422E-25
  -6.36499977       1.70155646E-25
  -6.25000000       1.69214189E-25
  -6.13500023       1.43277626E-25
  -6.01999998       8.57314064E-26
  -5.90500021      -8.11076584E-27
  -5.78999996      -1.39570744E-25
  -5.67500019      -3.05113895E-25
  -5.55999994      -4.95000653E-25
  -5.44500017      -6.92329327E-25
  -5.32999992      -8.72749557E-25
  -5.21500015      -1.00512742E-24
  -5.09999990      -1.05340462E-24
  -4.98500013      -9.79804589E-25
  -4.86999989      -7.49403759E-25
  -4.75500011      -3.35897072E-25
  -4.63999987       2.71838978E-25
  -4.52500010       1.06302015E-24
  -4.40999985       1.99892798E-24
  -4.29500008       3.00863838E-24
  -4.17999983       3.98763902E-24
  -4.06500006       4.80045448E-24
  -3.95000005       5.28818903E-24
  -3.83500004       5.28153341E-24
  -3.72000003       4.61919160E-24
  -3.60500002       3.17099187E-24
  -3.49000001       8.64055521E-25
  -3.37500000      -2.29044896E-24
  -3.25999999      -6.17325902E-24
  -3.14499998      -1.05395745E-23
  -3.02999997      -1.50123670E-23
  -2.91499996      -1.90903598E-23
  -2.79999995      -2.21738782E-23
  -2.68499994      -2.36102535E-23
  -2.56999993      -2.27585014E-23
  -2.45499992      -1.90704473E-23
  -2.33999991      -1.21825770E-23
  -2.22499990      -2.00994639E-24
  -2.10999990       1.11688702E-23
  -1.99500000       2.66490151E-23
  -1.88000000       4.32720751E-23
  -1.76499999       5.94472136E-23
  -1.64999998       7.32303049E-23
  -1.53499997       8.24662379E-23
  -1.41999996       8.49926943E-23
  -1.30499995       7.88957904E-23
  -1.19000006       6.27986166E-23
  -1.07500005       3.61555810E-23
 -0.959999979      -4.82901302E-25
 -0.845000029      -4.52752612E-23
 -0.730000019      -9.50043805E-23
 -0.615000010      -1.45141761E-22
 -0.500000000      -1.90088884E-22
 -0.384999990      -2.23608770E-22
 -0.270000011      -2.39441247E-22
 -0.155000001      -2.32070509E-22
  -3.99999991E-02  -1.97587291E-22
   7.50000030E-02  -1.34562505E-22
  0.189999998      -4.48272418E-23
  0.305000007       6.59585914E-23
  0.419999987       1.88072606E-22
  0.535000026       3.07939213E-22
  0.649999976       4.08867339E-22
  0.764999986       4.72355370E-22
  0.879999995       4.79947367E-22
  0.995000005       4.15552866E-22
   1.11000001       2.68069703E-22
   1.22500002       3.40773238E-23
   1.34000003      -2.79696503E-22
   1.45500004      -6.54473288E-22
   1.57000005      -1.05843424E-21
   1.68499994      -1.44697265E-21
   1.79999995      -1.76445480E-21
   1.91499996      -1.94763936E-21
   2.02999997      -1.93077243E-21
   2.14499998      -1.65219280E-21
   2.25999999      -1.06208547E-21
   2.37500000      -1.30832657E-22
   2.49000001       1.14275597E-21
   2.60500002       2.72420161E-21
   2.72000003       4.53802189E-21
   2.83500004       6.46521136E-21
   2.95000005       8.34433791E-21
   3.06500006       9.97686367E-21
   3.18000007       1.11369796E-20
   3.29500008       1.15858697E-20
   3.41000009       1.10899265E-20
   3.52500010       9.44193307E-21
   3.64000010       6.48389845E-21
   3.75500011       2.12976490E-21
   3.86999989      -3.61391494E-21
   3.98499990      -1.06314099E-20
   4.09999990      -1.86872670E-20
   4.21500015      -2.74235447E-20
   4.32999992      -3.63659326E-20
   4.44500017      -4.49394948E-20
   4.55999994      -5.24937767E-20
   4.67500019      -5.83364280E-20
   4.78999996      -6.17735573E-20
   4.90500021      -6.21545128E-20
   5.01999998      -5.89179748E-20
   5.13500023      -5.16363588E-20
   5.25000000      -4.00549675E-20
   5.36499977      -2.41231005E-20
   5.48000002      -4.01455793E-21
   5.59499979       1.98642270E-20
   5.71000004       4.68788165E-20
   5.82499981       7.61840453E-20
   5.94000006       1.06752395E-19
   6.05499983       1.37410623E-19
   6.17000008       1.66882241E-19
   6.28499985       1.93831462E-19
   6.40000010       2.16905678E-19
   6.51499987       2.34772909E-19
   6.63000011       2.46152019E-19
   6.74499989       2.49834627E-19
   6.86000013       2.44698327E-19
   6.97499990       2.29713588E-19
   7.09000015       2.03946472E-19
   7.20499992       1.66561153E-19
   7.32000017       1.16827797E-19
   7.43499994       5.41389549E-20
   7.55000019      -2.19595127E-20
   7.66499996      -1.11720875E-19
   7.78000021      -2.15132203E-19
   7.89499998      -3.31830766E-19
   8.01000023      -4.61006729E-19
   8.12500000      -6.01296561E-19
   8.23999977      -7.50676384E-19
   8.35499954      -9.06365268E-19
   8.47000027      -1.06474699E-18
   8.58500004      -1.22132597E-18
   8.69999981      -1.37072482E-18
   8.81499958      -1.50673440E-18
   8.93000031      -1.62242161E-18
   9.04500008      -1.71029962E-18
   9.15999985      -1.76255893E-18
   9.27499962      -1.77135538E-18
   9.39000034      -1.72914342E-18
   9.50500011      -1.62904598E-18
   9.61999989      -1.46524385E-18
   9.73499966      -1.23336517E-18
   9.85000038      -9.30863256E-19
   9.96500015      -5.57356520E-19
   10.0799999      -1.14922852E-19
   10.1949997       3.91669477E-19
   10.3100004       9.54802173E-19
   10.4250002       1.56392702E-18
   10.5400000       2.20556771E-18
   10.6549997       2.86339550E-18
   10.7700005       3.51839123E-18
   10.8850002       4.14906682E-18
   11.0000000       4.73176179E-18
   11.1149998       5.24098162E-18
   11.2299995       5.64979951E-18
   11.3450003       5.93028032E-18
   11.4600000       6.05395954E-18
   11.5749998       5.99233624E-18
   11.6899996       5.71739423E-18
   11.8050003       5.20214590E-18
   11.9200001       4.42117325E-18
   12.0349998       3.35117791E-18
   12.1499996       1.97151323E-18
   12.2650003       2.64674170E-19
   12.3800001      -1.78324837E-18
   12.4949999      -4.18221277E-18
   12.6099997      -6.93795671E-18
   12.7250004      -1.00518508E-17
   12.8400002      -1.35209338E-17
   12.9549999      -1.73380828E-17
   13.0699997      -2.14924056E-17
   13.1850004      -2.59697671E-17
   13.3000002      -3.07535925E-17
   13.4150000      -3.58256853E-17
   13.5299997      -4.11673663E-17
   13.6450005      -4.67605763E-17
   13.7600002      -5.25890365E-17
   13.8750000      -5.86395152E-17
   13.9899998      -6.49028871E-17
   14.1049995      -7.13752048E-17
   14.2200003      -7.80584668E-17
   14.3350000      -8.49612824E-17
   14.4499998      -9.20991960E-17
   14.5649996      -9.94948127E-17
   14.6800003      -1.07177534E-16
   14.7950001      -1.15183087E-16
   14.9099998      -1.23552765E-16
   15.0249996      -1.32332421E-16
   15.1400003      -1.41571221E-16
   15.2550001      -1.51320332E-16
   15.3699999      -1.61631396E-16
   15.4849997      -1.72554905E-16
   15.6000004      -1.84138663E-16
   15.7150002      -1.96426199E-16
   15.8299999      -2.09455141E-16
   15.9449997      -2.23255809E-16
   16.0599995      -2.37849790E-16
   16.1749992      -2.53248716E-16
   16.2900009      -2.69453039E-16
   16.4050007      -2.86451349E-16
   16.5200005      -3.04219453E-16
   16.6350002      -3.22720215E-16
   16.7500000      -3.41903287E-16
   16.8649998      -3.61705515E-16
   16.9799995      -3.82051484E-16
   17.0949993      -4.02854931E-16
   17.2099991      -4.24020114E-16
   17.3250008      -4.45443933E-16
   17.4400005      -4.67018656E-16
   17.5550003      -4.88634461E-16
   17.6700001      -5.10183455E-16
   17.7849998      -5.31562408E-16
   17.8999996      -5.52676769E-16
   18.0149994      -5.73444058E-16
   18.1299992      -5.93797572E-16
   18.2450008      -6.13688499E-16
   18.3600006      -6.33088783E-16
   18.4750004      -6.51992335E-16
   18.5900002      -6.70415513E-16
   18.7049999      -6.88397070E-16
   18.8199997      -7.05995979E-16
   18.9349995      -7.23289269E-16
   19.0499992      -7.40368100E-16
   19.1650009      -7.57333217E-16
   19.2800007      -7.74289440E-16
   19.3950005      -7.91339684E-16
   19.5100002      -8.08578446E-16
   19.6250000      -8.26085187E-16
   19.7399998      -8.43918142E-16
   19.8549995      -8.62108228E-16
   19.9699993      -8.80653644E-16
   20.0849991      -8.99515532E-16
   20.2000008      -9.18614855E-16
   20.3150005      -9.37829691E-16
   20.4300003      -9.56995506E-16
   20.5450001      -9.75905622E-16
   20.6599998      -9.94313236E-16
   20.7749996      -1.01193544E-15
   20.8899994      -1.02845830E-15
   21.0049992      -1.04354311E-15
   21.1200008      -1.05683359E-15
   21.2350006      -1.06796402E-15
   21.3500004      -1.07656755E-15
   21.4650002      -1.08228534E-15
   21.5799999      -1.08477455E-15
   21.6949997      -1.08371619E-15
   21.8099995      -1.07882235E-15
   21.9249992      -1.06984200E-15
   22.0400009      -1.05656433E-15
   22.1550007      -1.03882143E-15
   22.2700005      -1.01648814E-15
   22.3850002      -9.89478796E-16
   22.5000000      -9.57743330E-16
   22.6149998      -9.21259186E-16
   22.7299995      -8.80021969E-16
   22.8449993      -8.34033744E-16
   22.9599991      -7.83290012E-16
   23.0750008      -7.27764620E-16
   23.1900005      -6.67394835E-16
   23.3050003      -6.02066519E-16
   23.4200001      -5.31597931E-16
   23.5349998      -4.55727601E-16
   23.6499996      -3.74102424E-16
   23.7649994      -2.86267119E-16
   23.8799992      -1.91658833E-16
   23.9950008      -8.96032149E-17
   24.1100006       2.06852808E-17
   24.2250004       1.40099964E-16
   24.3400002       2.69634145E-16
   24.4549999       4.10371131E-16
   24.5699997       5.63469822E-16
   24.6849995       7.30149759E-16
   24.7999992       9.11670878E-16
   24.9150009       1.10931511E-15
   25.0300007       1.32436502E-15
   25.1450005       1.55808418E-15
   25.2600002       1.81169781E-15
   25.3750000       2.08637090E-15
   25.4899998       2.38319919E-15
   25.6049995       2.70318791E-15
   25.7199993       3.04724783E-15
   25.8349991       3.41618912E-15
   25.9500008       3.81071737E-15
   26.0650005       4.23144203E-15
   26.1800003       4.67887913E-15
   26.2950001       5.15347169E-15
   26.4099998       5.65559748E-15
   26.5249996       6.18560379E-15
   26.6399994       6.74381544E-15
   26.7549992       7.33057888E-15
   26.8700008       7.94627696E-15
   26.9850006       8.59135947E-15
   27.1000004       9.26637781E-15
   27.2150002       9.97199522E-15
   27.3299999       1.07090155E-14
   27.4449997       1.14783900E-14
   27.5599995       1.22812256E-14
   27.6749992       1.31187853E-14
   27.7900009       1.39924693E-14
   27.9050007       1.49038056E-14
   28.0200005       1.58544053E-14
   28.1350002       1.68459403E-14
   28.2500000       1.78800879E-14
   28.3649998       1.89584845E-14
   28.4799995       2.00826616E-14
   28.5949993       2.12539964E-14
   28.7099991       2.24736391E-14
   28.8250008       2.37424606E-14
   28.9400005       2.50610029E-14
   29.0550003       2.64294236E-14
   29.1700001       2.78474668E-14
   29.2849998       2.93144042E-14
   29.3999996       3.08290719E-14
   29.5149994       3.23898115E-14
   29.6299992       3.39945154E-14
   29.7450008       3.56406358E-14
   29.8600006       3.73252149E-14
   29.9750004       3.90449392E-14
   30.0900002       4.07962035E-14
   30.2049999       4.25751692E-14
   30.3199997       4.43778213E-14
   30.4349995       4.62000569E-14
   30.5499992       4.80377457E-14
   30.6650009       4.98867983E-14
   30.7800007       5.17432404E-14
   30.8950005       5.36032197E-14
   31.0100002       5.54631143E-14
   31.1250000       5.73194446E-14
   31.2399998       5.91689986E-14
   31.3549995       6.10087000E-14
   31.4699993       6.28356552E-14
   31.5849991       6.46470453E-14
   31.7000008       6.64400853E-14
   31.8150005       6.82119021E-14
   31.9300003       6.99594733E-14
   32.0449982       7.16794652E-14
   32.1599998       7.33681440E-14
   32.2750015       7.50213016E-14
   32.3899994       7.66340523E-14
   32.5050011       7.82008261E-14
   32.6199989       7.97152261E-14
   32.7350006       8.11700086E-14
   32.8499985       8.25570013E-14
   32.9650002       8.38671648E-14
   33.0800018       8.50905717E-14
   33.1949997       8.62164886E-14
   33.3100014       8.72334499E-14
   33.4249992       8.81294210E-14
   33.5400009       8.88918930E-14
   33.6549988       8.95080925E-14
   33.7700005       8.99651854E-14
   33.8849983       9.02504390E-14
   34.0000000       9.03514663E-14
   34.1150017       9.02563750E-14
   34.2299995       8.99539707E-14
   34.3450012       8.94339466E-14
   34.4599991       8.86869720E-14
   34.5750008       8.77048068E-14
   34.6899986       8.64803766E-14
   34.8050003       8.50077522E-14
   34.9199982       8.32821496E-14
   35.0349998       8.12998283E-14
   35.1500015       7.90579895E-14
   35.2649994       7.65546006E-14
   35.3800011       7.37882317E-14
   35.4949989       7.07578188E-14
   35.6100006       6.74624338E-14
   35.7249985       6.39010261E-14
   35.8400002       6.00722068E-14
   35.9550018       5.59739870E-14
   36.0699997       5.16036290E-14
   36.1850014       4.69574263E-14
   36.2999992       4.20305778E-14
   36.4150009       3.68171510E-14
   36.5299988       3.13100477E-14
   36.6450005       2.55010179E-14
   36.7599983       1.93807830E-14
   36.8750000       1.29392431E-14
   36.9900017       6.16566675E-15
   37.1049995      -9.51026570E-16
   37.2200012      -8.42189698E-15
   37.3349991      -1.62576590E-14
   37.4500008      -2.44682628E-14
   37.5649986      -3.30625081E-14
   37.6800003      -4.20476438E-14
   37.7949982      -5.14290250E-14
   37.9099998      -6.12097178E-14
   38.0250015      -7.13903017E-14
   38.1399994      -8.19685303E-14
   38.2550011      -9.29392671E-14
   38.3699989      -1.04294442E-13
   38.4850006      -1.16022995E-13
   38.5999985      -1.28111091E-13
   38.7150002      -1.40542187E-13
   38.8300018      -1.53297514E-13
   38.9449997      -1.66356200E-13
   39.0600014      -1.79695966E-13
   39.1749992      -1.93293406E-13
   39.2900009      -2.07124614E-13
   39.4049988      -2.21165574E-13
   39.5200005      -2.35392977E-13
   39.6349983      -2.49784216E-13
   39.7500000      -2.64318407E-13
   39.8650017      -2.78976278E-13
   39.9799995      -2.93740672E-13
   40.0950012      -3.08596871E-13
   40.2099991      -3.23532271E-13
   40.3250008      -3.38536816E-13
   40.4399986      -3.53602564E-13
   40.5550003      -3.68723362E-13
   40.6699982      -3.83894739E-13
   40.7849998      -3.99113143E-13
   40.9000015      -4.14375457E-13
   41.0149994      -4.29678645E-13
   41.1300011      -4.45018642E-13
   41.2449989      -4.60390244E-13
   41.3600006      -4.75785752E-13
   41.4749985      -4.91195246E-13
   41.5900002      -5.06605500E-13
   41.7050018      -5.21999327E-13
   41.8199997      -5.37356130E-13
   41.9350014      -5.52651078E-13
   42.0499992      -5.67855279E-13
   42.1650009      -5.82935718E-13
   42.2799988      -5.97856183E-13
   42.3950005      -6.12577046E-13
   42.5099983      -6.27056295E-13
   42.6250000      -6.41250074E-13
   42.7400017      -6.55113550E-13
   42.8549995      -6.68602001E-13
   42.9700012      -6.81671245E-13
   43.0849991      -6.94279269E-13
   43.2000008      -7.06386826E-13
   43.3149986      -7.17958082E-13
   43.4300003      -7.28961813E-13
   43.5449982      -7.39371888E-13
   43.6599998      -7.49167492E-13
   43.7750015      -7.58333880E-13
   43.8899994      -7.66862214E-13
   44.0050011      -7.74749785E-13
   44.1199989      -7.81999303E-13
   44.2350006      -7.88618845E-13
   44.3499985      -7.94620934E-13
   44.4650002      -8.00021995E-13
   44.5800018      -8.04841003E-13
   44.6949997      -8.09098882E-13
   44.8100014      -8.12816882E-13
   44.9249992      -8.16015875E-13
   45.0400009      -8.18715104E-13
   45.1549988      -8.20930672E-13
   45.2700005      -8.22675044E-13
   45.3849983      -8.23956029E-13
   45.5000000      -8.24776011E-13
   45.6150017      -8.25131630E-13
   45.7299995      -8.25013343E-13
   45.8450012      -8.24405648E-13
   45.9599991      -8.23287077E-13
   46.0750008      -8.21631012E-13
   46.1899986      -8.19406500E-13
   46.3050003      -8.16578738E-13
   46.4199982      -8.13110972E-13
   46.5349998      -8.08965037E-13
   46.6500015      -8.04103637E-13
   46.7649994      -7.98490939E-13
   46.8800011      -7.92094851E-13
   46.9949989      -7.84887834E-13
   47.1100006      -7.76848421E-13
   47.2249985      -7.67962083E-13
   47.3400002      -7.58222478E-13
   47.4550018      -7.47631557E-13
   47.5699997      -7.36200163E-13
   47.6850014      -7.23947540E-13
   47.7999992      -7.10901498E-13
   47.9150009      -6.97097003E-13
   48.0299988      -6.82575470E-13
   48.1450005      -6.67383304E-13
   48.2599983      -6.51570323E-13
   48.3750000      -6.35187703E-13
   48.4900017      -6.18286401E-13
   48.6049995      -6.00914500E-13
   48.7200012      -5.83115804E-13
   48.8349991      -5.64927825E-13
   48.9500008      -5.46379185E-13
   49.0649986      -5.27489456E-13
   49.1800003      -5.08266606E-13
   49.2949982      -4.88706677E-13
   49.4099998      -4.68793082E-13
   49.5250015      -4.48496790E-13
   49.6399994      -4.27775952E-13
   49.7550011      -4.06577577E-13
   49.8699989      -3.84838049E-13
   49.9850006      -3.62484755E-13
   50.0999985      -3.39438628E-13
   50.2150002      -3.15615698E-13
   50.3300018      -2.90929878E-13
   50.4449997      -2.65295219E-13
   50.5600014      -2.38628887E-13
   50.6749992      -2.10853158E-13
   50.7900009      -1.81898780E-13
   50.9049988      -1.51705837E-13
   51.0200005      -1.20226176E-13
   51.1349983      -8.74246015E-14
   51.2500000      -5.32797785E-14
   51.3650017      -1.77842394E-14
   51.4799995       1.90558747E-14
   51.5950012       5.72214192E-14
   51.7099991       9.66822447E-14
   51.8250008       1.37398421E-13
   51.9399986       1.79323597E-13
   52.0550003       2.22406959E-13
   52.1699982       2.66596939E-13
   52.2849998       3.11843569E-13
   52.4000015       3.58102952E-13
   52.5149994       4.05339580E-13
   52.6300011       4.53529711E-13
   52.7449989       5.02663015E-13
   52.8600006       5.52746488E-13
   52.9749985       6.03803574E-13
   53.0900002       6.55877045E-13
   53.2050018       7.09028431E-13
   53.3199997       7.63336876E-13
   53.4350014       8.18899527E-13
   53.5499992       8.75827243E-13
   53.6650009       9.34243785E-13
   53.7799988       9.94282347E-13
   53.8950005       1.05608176E-12
   54.0099983       1.11978200E-12
   54.1250000       1.18552162E-12
   54.2400017       1.25343193E-12
   54.3549995       1.32363402E-12
   54.4700012       1.39623523E-12
   54.5849991       1.47132545E-12
   54.7000008       1.54897395E-12
   54.8149986       1.62922844E-12
   54.9300003       1.71211266E-12
   55.0449982       1.79762563E-12
   55.1599998       1.88574308E-12
   55.2750015       1.97641751E-12
   55.3899994       2.06958018E-12
   55.5050011       2.16514328E-12
   55.6199989       2.26300337E-12
   55.7350006       2.36304487E-12
   55.8499985       2.46514419E-12
   55.9650002       2.56917404E-12
   56.0800018       2.67500648E-12
   56.1949997       2.78251922E-12
   56.3100014       2.89159777E-12
   56.4249992       3.00213934E-12
   56.5400009       3.11405632E-12
   56.6549988       3.22727739E-12
   56.7700005       3.34175027E-12
   56.8849983       3.45744136E-12
   57.0000000       3.57433592E-12
   57.1150017       3.69243655E-12
   57.2299995       3.81176210E-12
   57.3450012       3.93234273E-12
   57.4599991       4.05421877E-12
   57.5750008       4.17743401E-12
   57.6899986       4.30203356E-12
   57.8050003       4.42805688E-12
   57.9199982       4.55553390E-12
   58.0349998       4.68447807E-12
   58.1500015       4.81488504E-12
   58.2649994       4.94672489E-12
   58.3800011       5.07993994E-12
   58.4949989       5.21444173E-12
   58.6100006       5.35010968E-12
   58.7249985       5.48678811E-12
   58.8400002       5.62428619E-12
   58.9550018       5.76238319E-12
   59.0699997       5.90082367E-12
   59.1850014       6.03932659E-12
   59.2999992       6.17758709E-12
   59.4150009       6.31527816E-12
   59.5299988       6.45206067E-12
   59.6450005       6.58758768E-12
   59.7599983       6.72150920E-12
   59.8750000       6.85348002E-12
   59.9900017       6.98316361E-12
   60.1049995       7.11024035E-12
   60.2200012       7.23440969E-12
   60.3349991       7.35539841E-12
   60.4500008       7.47295802E-12
   60.5649986       7.58687297E-12
   60.6800003       7.69695852E-12
   60.7949982       7.80306375E-12
   60.9099998       7.90506549E-12
   61.0250015       8.00287094E-12
   61.1399994       8.09641243E-12
   61.2550011       8.18564400E-12
   61.3699989       8.27053356E-12
   61.4850006       8.35106290E-12
   61.5999985       8.42721379E-12
   61.7150002       8.49896802E-12
   61.8300018       8.56629784E-12
   61.9449997       8.62916162E-12
   62.0600014       8.68749430E-12
   62.1749992       8.74120828E-12
   62.2900009       8.79018473E-12
   62.4049988       8.83427186E-12
   62.5200005       8.87328318E-12
   62.6349983       8.90699840E-12
   62.7500000       8.93516164E-12
   62.8650017       8.95748666E-12
   62.9799995       8.97365949E-12
   63.0950012       8.98334011E-12
   63.2099991       8.98617292E-12
   63.3250008       8.98179101E-12
   63.4399986       8.96982488E-12
   63.5550003       8.94990592E-12
   63.6699982       8.92167850E-12
   63.7849998       8.88480262E-12
   63.9000015       8.83896428E-12
   64.0149994       8.78387814E-12
   64.1299973       8.71929352E-12
   64.2450027       8.64499271E-12
   64.3600006       8.56079790E-12
   64.4749985       8.46656426E-12
   64.5899963       8.36218334E-12
   64.7050018       8.24757450E-12
   64.8199997       8.12268048E-12
   64.9349976       7.98746052E-12
   65.0500031       7.84188339E-12
   65.1650009       7.68591614E-12
   65.2799988       7.51951886E-12
   65.3949966       7.34262998E-12
   65.5100021       7.15516361E-12
   65.6250000       6.95699921E-12
   65.7399979       6.74797241E-12
   65.8550034       6.52787373E-12
   65.9700012       6.29644600E-12
   66.0849991       6.05337655E-12
   66.1999969       5.79830541E-12
   66.3150024       5.53082580E-12
   66.4300003       5.25048668E-12
   66.5449982       4.95679973E-12
   66.6600037       4.64925060E-12
   66.7750015       4.32730674E-12
   66.8899994       3.99042648E-12
   67.0049973       3.63807161E-12
   67.1200027       3.26972043E-12
   67.2350006       2.88487051E-12
   67.3499985       2.48305868E-12
   67.4649963       2.06386254E-12
   67.5800018       1.62690933E-12
   67.6949997       1.17187813E-12
   67.8099976       6.98509664E-13
   67.9250031       2.06598885E-13
   68.0400009      -3.04005221E-13
   68.1549988      -8.33401382E-13
   68.2699966      -1.38164144E-12
   68.3850021      -1.94874824E-12
   68.5000000      -2.53470920E-12
   68.6149979      -3.13950190E-12
   68.7300034      -3.76309747E-12
   68.8450012      -4.40546948E-12
   68.9599991      -5.06661119E-12
   69.0749969      -5.74653953E-12
   69.1900024      -6.44530436E-12
   69.3050003      -7.16299329E-12
   69.4199982      -7.89973208E-12
   69.5350037      -8.65569075E-12
   69.6500015      -9.43107311E-12
   69.7649994      -1.02261203E-11
   69.8799973      -1.10410890E-11
   69.9950027      -1.18762587E-11
   70.1100006      -1.27319006E-11
   70.2249985      -1.36082690E-11
   70.3399963      -1.45055946E-11
   70.4550018      -1.54240561E-11
   70.5699997      -1.63637680E-11
   70.6849976      -1.73247684E-11
   70.8000031      -1.83069948E-11
   70.9150009      -1.93102825E-11
   71.0299988      -2.03343523E-11
   71.1449966      -2.13787963E-11
   71.2600021      -2.24430838E-11
   71.3750000      -2.35265505E-11
   71.4899979      -2.46284070E-11
   71.6050034      -2.57477425E-11
   71.7200012      -2.68835301E-11
   71.8349991      -2.80346458E-11
   71.9499969      -2.91998717E-11
   72.0650024      -3.03779189E-11
   72.1800003      -3.15674258E-11
   72.2949982      -3.27669974E-11
   72.4100037      -3.39752046E-11
   72.5250015      -3.51906004E-11
   72.6399994      -3.64117278E-11
   72.7549973      -3.76371469E-11
   72.8700027      -3.88654352E-11
   72.9850006      -4.00951702E-11
   73.0999985      -4.13249712E-11
   73.2149963      -4.25534816E-11
   73.3300018      -4.37793482E-11
   73.4449997      -4.50012388E-11
   73.5599976      -4.62178351E-11
   73.6750031      -4.74277909E-11
   73.7900009      -4.86297565E-11
   73.9049988      -4.98223476E-11
   74.0199966      -5.10041245E-11
   74.1350021      -5.21736022E-11
   74.2500000      -5.33292091E-11
   74.3649979      -5.44692763E-11
   74.4800034      -5.55920483E-11
   74.5950012      -5.66956516E-11
   74.7099991      -5.77780983E-11
   74.8249969      -5.88372753E-11
   74.9400024      -5.98709277E-11
   75.0550003      -6.08766995E-11
   75.1699982      -6.18520998E-11
   75.2850037      -6.27945265E-11
   75.4000015      -6.37012526E-11
   75.5149994      -6.45694748E-11
   75.6299973      -6.53962925E-11
   75.7450027      -6.61787361E-11
   75.8600006      -6.69137940E-11
   75.9749985      -6.75984060E-11
   76.0899963      -6.82295123E-11
   76.2050018      -6.88040389E-11
   76.3199997      -6.93189603E-11
   76.4349976      -6.97712513E-11
   76.5500031      -7.01579767E-11
   76.6650009      -7.04762498E-11
   76.7799988      -7.07232814E-11
   76.8949966      -7.08963652E-11
   77.0100021      -7.09929129E-11
   77.1250000      -7.10104406E-11
   77.2399979      -7.09465681E-11
   77.3550034      -7.07990472E-11
   77.4700012      -7.05657199E-11
   77.5849991      -7.02445602E-11
   77.6999969      -6.98336181E-11
   77.8150024      -6.93310687E-11
   77.9300003      -6.87351426E-11
   78.0449982      -6.80441675E-11
   78.1600037      -6.72565267E-11
   78.2750015      -6.63706728E-11
   78.3899994      -6.53850932E-11
   78.5049973      -6.42983167E-11
   78.6200027      -6.31089139E-11
   78.7350006      -6.18154763E-11
   78.8499985      -6.04166300E-11
   78.9649963      -5.89110288E-11
   79.0800018      -5.72973752E-11
   79.1949997      -5.55744097E-11
   79.3099976      -5.37409527E-11
   79.4250031      -5.17958974E-11
   79.5400009      -4.97382448E-11