  -18.8999996         0.00000000    
  -18.7849998         0.00000000    
  -18.6700001         0.00000000    
  -18.5550003         0.00000000    
  -18.4400005         0.00000000    
  -18.3250008         0.00000000    
  -18.2099991         0.00000000    
  -18.0949993         0.00000000    
  -17.9799995         0.00000000    
  -17.8649998         0.00000000    
  -17.7500000         0.00000000    
  -17.6350002         0.00000000    
  -17.5200005         0.00000000    
  -17.4050007         0.00000000    
  -17.2900009         0.00000000    
  -17.1749992         0.00000000    
  -17.0599995         0.00000000    
  -16.9449997         0.00000000    
  -16.8299999         0.00000000    
  -16.7150002         0.00000000    
  -16.6000004         0.00000000    
  -16.4850006         0.00000000    
  -16.3700008         0.00000000    
  -16.2549992         0.00000000    
  -16.1399994         0.00000000    
  -16.0249996         0.00000000    
  -15.9099998         0.00000000    
  -15.7950001         0.00000000    
  -15.6800003         0.00000000    
  -15.5649996         0.00000000    
  -15.4499998         0.00000000    
  -15.3350000         0.00000000    
  -15.2200003         0.00000000    
  -15.1049995         0.00000000    
  -14.9899998         0.00000000    
  -14.8750000         0.00000000    
  -14.7600002         0.00000000    
  -14.6450005         0.00000000    
  -14.5299997         0.00000000    
  -14.4150000         0.00000000    
  -14.3000002         0.00000000    
  -14.1850004         0.00000000    
  -14.0699997         0.00000000    
  -13.9549999         0.00000000    
  -13.8400002         0.00000000    
  -13.7250004         0.00000000    
  -13.6099997         0.00000000    
  -13.4949999         0.00000000    
  -13.3800001         0.00000000    
  -13.2650003         0.00000000    
  -13.1499996         0.00000000    
  -13.0349998         0.00000000    
  -12.9200001         0.00000000    
  -12.8050003         0.00000000    
  -12.6899996         0.00000000    
  -12.5749998         5.55481577E-35
  -12.4600000         1.58168241E-34
  -12.3450003         1.01690097E-33
  -12.2299995         3.07302398E-33
  -12.1149998        -1.57333877E-31
  -12.0000000        -5.93482836E-31
  -11.8850002        -1.11386610E-30
  -11.7700005        -1.66599899E-30
  -11.6549997        -2.06805229E-30
  -11.5400000        -1.91596326E-30
  -11.4250002        -1.12038294E-30
  -11.3100004         4.07671644E-31
  -11.1949997         2.60071674E-30
  -11.0799999         5.60752634E-30
  -10.9650002         9.29524283E-30
  -10.8500004         1.32016434E-29
  -10.7349997         1.63699682E-29
  -10.6199999         1.74750472E-29
  -10.5050001         1.41948003E-29
  -10.3900003         3.33241815E-30
  -10.2749996        -1.79255343E-29
  -10.1599998        -5.15302177E-29
  -10.0450001        -9.70037950E-29
  -9.93000031        -1.49937799E-28
  -9.81499958        -2.00438679E-28
  -9.69999981        -2.32140907E-28
  -9.58500004        -2.22296203E-28
  -9.47000027        -1.43625407E-28
  -9.35499954         3.11480349E-29
  -9.23999977         3.22264991E-28
  -9.12500000         7.33063778E-28
  -9.01000023         1.23800462E-27
  -8.89500046         1.77100005E-27
  -8.77999973         2.21655894E-27
  -8.66499996         2.40791298E-27
  -8.55000019         2.13643332E-27
  -8.43500042         1.17691855E-27
  -8.31999969        -6.69227289E-28
  -8.20499992        -3.51226028E-27
  -8.09000015        -7.29851105E-27
  -7.97499990        -1.17304672E-26
  -7.86000013        -1.61981648E-26
  -7.74499989        -1.97426863E-26
  -7.63000011        -2.10758597E-26
  -7.51499987        -1.86798780E-26
  -7.40000010        -1.10050896E-26
  -7.28499985         3.22752540E-27
  -7.17000008         2.46309214E-26
  -7.05499983         5.26991564E-26
  -6.94000006         8.53596803E-26
  -6.82499981         1.18619461E-25
  -6.71000004         1.46413804E-25
  -6.59499979         1.60774080E-25
  -6.48000002         1.52420191E-25
  -6.36499977         1.11848237E-25
  -6.25000000         3.09241425E-26
  -6.13500023        -9.50919744E-26
  -6.01999998        -2.65270084E-25
  -5.90500021        -4.70772960E-25
  -5.78999996        -6.93049015E-25
  -5.67500019        -9.02917472E-25
  -5.55999994        -1.06102729E-24
  -5.44500017        -1.12011800E-24
  -5.32999992        -1.02936724E-24
  -5.21500015        -7.40882286E-25
  -5.09999990        -2.18072462E-25
  -4.98500013         5.54731870E-25
  -4.86999989         1.56244039E-24
  -4.75500011         2.75052388E-24
  -4.63999987         4.01912719E-24
  -4.52500010         5.22168806E-24
  -4.40999985         6.16962671E-24
  -4.29500008         6.64426459E-24
  -4.17999983         6.41642697E-24
  -4.06500006         5.27326576E-24
  -3.95000005         3.05070616E-24
  -3.83500004        -3.31231527E-25
  -3.72000003        -4.83405127E-24
  -3.60500002        -1.02719716E-23
  -3.49000001        -1.62936317E-23
  -3.37500000        -2.23790467E-23
  -3.25999999        -2.78555810E-23
  -3.14499998        -3.19350837E-23
  -3.02999997        -3.37721451E-23
  -2.91499996        -3.25406701E-23
  -2.79999995        -2.75234138E-23
  -2.68499994        -1.82065279E-23
  -2.56999993        -4.36953290E-24
  -2.45499992         1.38396400E-23
  -2.33999991         3.58540216E-23
  -2.22499990         6.06688499E-23
  -2.10999990         8.68584261E-23
  -1.99500000         1.12627830E-22
  -1.88000000         1.35893686E-22
  -1.76499999         1.54383702E-22
  -1.64999998         1.65741595E-22
  -1.53499997         1.67623249E-22
  -1.41999996         1.57772320E-22
  -1.30499995         1.34069498E-22
  -1.19000006         9.45585542E-23
  -1.07500005         3.74639700E-23
 -0.959999979        -3.87726334E-23
 -0.845000029        -1.35399000E-22
 -0.730000019        -2.53156572E-22
 -0.615000010        -3.91937905E-22
 -0.500000000        -5.50261859E-22
 -0.384999990        -7.24553217E-22
 -0.270000011        -9.08245827E-22
 -0.155000001        -1.09077224E-21
  -3.99999991E-02    -1.25655611E-21
   7.50000030E-02    -1.38417286E-21
  0.189999998        -1.44589424E-21
  0.305000007        -1.40786473E-21
  0.419999987        -1.23116272E-21
  0.535000026        -8.73976700E-22
  0.649999976        -2.95061494E-22
  0.764999986         5.41468774E-22
  0.879999995         1.66010454E-21
  0.995000005         3.06693509E-21
   1.11000001         4.74215415E-21
   1.22500002         6.63275178E-21
   1.34000003         8.64625883E-21
   1.45500004         1.06465237E-20
   1.57000005         1.24525635E-20
   1.68499994         1.38414604E-20
   1.79999995         1.45561331E-20
   1.91499996         1.43184932E-20
   2.02999997         1.28480884E-20
   2.14499998         9.88582452E-21
   2.25999999         5.22181551E-21
   2.37500000        -1.27422852E-21
   2.49000001        -9.62216232E-21
   2.60500002        -1.97026554E-20
   2.72000003        -3.12333415E-20
   2.83500004        -4.37527265E-20
   2.95000005        -5.66145482E-20
   3.06500006        -6.89947407E-20
   3.18000007        -7.99125683E-20
   3.29500008        -8.82664721E-20
   3.41000009        -9.28840916E-20
   3.52500010        -9.25848202E-20
   3.64000010        -8.62522874E-20
   3.75500011        -7.29127851E-20
   3.86999989        -5.18154595E-20
   3.98499990        -2.25093681E-20
   4.09999990         1.50875627E-20
   4.21500015         6.06320352E-20
   4.32999992         1.13315227E-19
   4.44500017         1.71841719E-19
   4.55999994         2.34429164E-19
   4.67500019         2.98828664E-19
   4.78999996         3.62365648E-19
   4.90500021         4.21998468E-19
   5.01999998         4.74392476E-19
   5.13500023         5.16006795E-19
   5.25000000         5.43190431E-19
   5.36499977         5.52285799E-19
   5.48000002         5.39737211E-19
   5.59499979         5.02205028E-19
   5.71000004         4.36683948E-19
   5.82499981         3.40628091E-19
   5.94000006         2.12082841E-19
   6.05499983         4.98259544E-20
   6.17000008        -1.46482804E-19
   6.28499985        -3.76143375E-19
   6.40000010        -6.37252758E-19
   6.51499987        -9.26542375E-19
   6.63000011        -1.23922419E-18
   6.74499989        -1.56885732E-18
   6.86000013        -1.90724730E-18
   6.97499990        -2.24439474E-18
   7.09000015        -2.56850851E-18
   7.20499992        -2.86609810E-18
   7.32000017        -3.12215972E-18
   7.43499994        -3.32046552E-18
   7.55000019        -3.44396276E-18
   7.66499996        -3.47527982E-18
   7.78000021        -3.39733541E-18
   7.89499998        -3.19403634E-18
   8.01000023        -2.85104259E-18
   8.12500000        -2.35657511E-18
   8.23999977        -1.70223854E-18
   8.35499954        -8.83820151E-19
   8.47000027         9.79635686E-20
   8.58500004         1.23680965E-18
   8.69999981         2.52029132E-18
   8.81499958         3.92946318E-18
   8.93000031         5.43863312E-18
   9.04500008         7.01531464E-18
   9.15999985         8.62036349E-18
   9.27499962         1.02083046E-17
   9.39000034         1.17278354E-17
   9.50500011         1.31225099E-17
   9.61999989         1.43315692E-17
   9.73499966         1.52909299E-17
   9.85000038         1.59342796E-17
   9.96500015         1.61943005E-17
   10.0799999         1.60039762E-17
   10.1949997         1.52979659E-17
   10.3100004         1.40140476E-17
   10.4250002         1.20945957E-17
   10.5400000         9.48806768E-18
   10.6549997         6.15049028E-18
   10.7700005         2.04688303E-18
   10.8850002        -2.84738687E-18
   11.0000000        -8.54540521E-18
   11.1149998        -1.50476859E-17
   11.2299995        -2.23413890E-17
   11.3450003        -3.03998702E-17
   11.4600000        -3.91825993E-17
   11.5749998        -4.86354804E-17
   11.6899996        -5.86917004E-17
   11.8050003        -6.92730477E-17
   11.9200001        -8.02917685E-17
   12.0349998        -9.16529618E-17
   12.1499996        -1.03257406E-16
   12.2650003        -1.15004866E-16
   12.3800001        -1.26797709E-16
   12.4949999        -1.38544706E-16
   12.6099997        -1.50164979E-16
   12.7250004        -1.61591731E-16
   12.8400002        -1.72776034E-16
   12.9549999        -1.83689788E-16
   13.0699997        -1.94328456E-16
   13.1850004        -2.04712908E-16
   13.3000002        -2.14890393E-16
   13.4150000        -2.24934549E-16
   13.5299997        -2.34944440E-16
   13.6450005        -2.45042291E-16
   13.7600002        -2.55370375E-16
   13.8750000        -2.66086665E-16
   13.9899998        -2.77359615E-16
   14.1049995        -2.89361993E-16
   14.2200003        -3.02264210E-16
   14.3350000        -3.16226992E-16
   14.4499998        -3.31393779E-16
   14.5649996        -3.47883314E-16
   14.6800003        -3.65782311E-16
   14.7950001        -3.85138761E-16
   14.9099998        -4.05956025E-16
   15.0249996        -4.28188151E-16
   15.1400003        -4.51736435E-16
   15.2550001        -4.76447457E-16
   15.3699999        -5.02113296E-16
   15.4849997        -5.28472961E-16
   15.6000004        -5.55216703E-16
   15.7150002        -5.81991203E-16
   15.8299999        -6.08407778E-16
   15.9449997        -6.34050960E-16
   16.0599995        -6.58490084E-16
   16.1749992        -6.81291046E-16
   16.2900009        -7.02028953E-16
   16.4050007        -7.20301148E-16
   16.5200005        -7.35740230E-16
   16.6350002        -7.48026125E-16
   16.7500000        -7.56897260E-16
   16.8649998        -7.62159505E-16
   16.9799995        -7.63693481E-16
   17.0949993        -7.61459114E-16
   17.2099991        -7.55497644E-16
   17.3250008        -7.45930301E-16
   17.4400005        -7.32953915E-16
   17.5550003        -7.16834454E-16
   17.6700001        -6.97896227E-16
   17.7849998        -6.76510021E-16
   17.8999996        -6.53077596E-16
   18.0149994        -6.28016062E-16
   18.1299992        -6.01739723E-16
   18.2450008        -5.74642239E-16
   18.3600006        -5.47078517E-16
   18.4750004        -5.19347134E-16
   18.5900002        -4.91674091E-16
   18.7049999        -4.64198619E-16
   18.8199997        -4.36960369E-16
   18.9349995        -4.09890122E-16
   19.0499992        -3.82803279E-16
   19.1650009        -3.55396284E-16
   19.2800007        -3.27246944E-16
   19.3950005        -2.97818161E-16
   19.5100002        -2.66465157E-16
   19.6250000        -2.32446381E-16
   19.7399998        -1.94937579E-16
   19.8549995        -1.53048808E-16
   19.9699993        -1.05843861E-16
   20.0849991        -5.23618695E-17
   20.2000008         8.35989507E-18
   20.3150005         7.72624213E-17
   20.4300003         1.55241485E-16
   20.5450001         2.43125137E-16
   20.6599998         3.41652672E-16
   20.7749996         4.51456438E-16
   20.8899994         5.73046747E-16
   21.0049992         7.06801402E-16
   21.1200008         8.52959637E-16
   21.2350006         1.01162151E-15
   21.3500004         1.18275329E-15
   21.4650002         1.36619860E-15
   21.5799999         1.56169466E-15
   21.6949997         1.76889564E-15
   21.8099995         1.98739933E-15
   21.9249992         2.21677840E-15
   22.0400009         2.45661726E-15
   22.1550007         2.70654703E-15
   22.2700005         2.96628566E-15
   22.3850002         3.23567560E-15
   22.5000000         3.51472002E-15
   22.6149998         3.80361627E-15
   22.7299995         4.10278323E-15
   22.8449993         4.41288622E-15
   22.9599991         4.73485107E-15
   23.0750008         5.06987124E-15
   23.1900005         5.41940743E-15
   23.3050003         5.78517404E-15
   23.4200001         6.16911968E-15
   23.5349998         6.57339792E-15
   23.6499996         7.00032497E-15
   23.7649994         7.45233648E-15
   23.8799992         7.93192569E-15
   23.9950008         8.44159219E-15
   24.1100006         8.98377035E-15
   24.2250004         9.56077089E-15
   24.3400002         1.01747131E-14
   24.4549999         1.08274705E-14
   24.5699997         1.15206137E-14
   24.6849995         1.22553707E-14
   24.7999992         1.30325921E-14
   24.9150009         1.38527326E-14
   25.0300007         1.47158507E-14
   25.1450005         1.56216118E-14
   25.2600002         1.65693197E-14
   25.3750000         1.75579545E-14
   25.4899998         1.85862339E-14
   25.6049995         1.96526653E-14
   25.7199993         2.07556310E-14
   25.8349991         2.18934656E-14
   25.9500008         2.30645225E-14
   26.0650005         2.42672585E-14
   26.1800003         2.55002979E-14
   26.2950001         2.67624786E-14
   26.4099998         2.80529045E-14
   26.5249996         2.93709589E-14
   26.6399994         3.07162946E-14
   26.7549992         3.20888302E-14
   26.8700008         3.34886910E-14
   26.9850006         3.49161516E-14
   27.1000004         3.63715541E-14
   27.2150002         3.78552136E-14
   27.3299999         3.93673131E-14
   27.4449997         4.09077713E-14
   27.5599995         4.24761578E-14
   27.6749992         4.40715715E-14
   27.7900009         4.56925554E-14
   27.9050007         4.73369987E-14
   28.0200005         4.90020961E-14
   28.1350002         5.06842832E-14
   28.2500000         5.23792469E-14
   28.3649998         5.40819220E-14
   28.4799995         5.57865420E-14
   28.5949993         5.74867031E-14
   28.7099991         5.91754225E-14
   28.8250008         6.08452768E-14
   28.9400005         6.24884869E-14
   29.0550003         6.40970228E-14
   29.1700001         6.56627598E-14
   29.2849998         6.71775393E-14
   29.3999996         6.86332840E-14
   29.5149994         7.00220996E-14
   29.6299992         7.13362813E-14
   29.7450008         7.25683416E-14
   29.8600006         7.37110703E-14
   29.9750004         7.47574068E-14
   30.0900002         7.57004458E-14
   30.2049999         7.65333096E-14
   30.3199997         7.72490456E-14
   30.4349995         7.78405050E-14
   30.5499992         7.83002000E-14
   30.6650009         7.86201548E-14
   30.7800007         7.87918179E-14
   30.8950005         7.88059600E-14
   31.0100002         7.86525386E-14
   31.1250000         7.83207456E-14
   31.2399998         7.77989665E-14
   31.3549995         7.70748686E-14
   31.4699993         7.61355023E-14
   31.5849991         7.49675048E-14
   31.7000008         7.35572492E-14
   31.8150005         7.18911625E-14
   31.9300003         6.99560445E-14
   32.0449982         6.77393661E-14
   32.1599998         6.52296413E-14
   32.2750015         6.24167601E-14
   32.3899994         5.92923199E-14
   32.5050011         5.58499136E-14
   32.6199989         5.20853739E-14
   32.7350006         4.79969695E-14
   32.8499985         4.35854796E-14
   32.9650002         3.88542449E-14
   33.0800018         3.38090660E-14
   33.1949997         2.84580641E-14
   33.3100014         2.28114206E-14
   33.4249992         1.68810363E-14
   33.5400009         1.06801283E-14
   33.6549988         4.22273792E-15
   33.7700005        -2.47677749E-15
   33.8849983        -9.40428833E-15
   34.0000000        -1.65464278E-14
   34.1150017        -2.38911098E-14
   34.2299995        -3.14279920E-14
   34.3450012        -3.91488464E-14
   34.4599991        -4.70478623E-14
   34.5750008        -5.51218278E-14
   34.6899986        -6.33701736E-14
   34.8050003        -7.17949056E-14
   34.9199982        -8.04003538E-14
   35.0349998        -8.91928133E-14
   35.1500015        -9.81800497E-14
   35.2649994        -1.07370642E-13
   35.3800011        -1.16773222E-13
   35.4949989        -1.26395679E-13
   35.6100006        -1.36244220E-13
   35.7249985        -1.46322475E-13
   35.8400002        -1.56630609E-13
   35.9550018        -1.67164486E-13
   36.0699997        -1.77914852E-13
   36.1850014        -1.88866745E-13
   36.2999992        -1.99998966E-13
   36.4150009        -2.11283803E-13
   36.5299988        -2.22686859E-13
   36.6450005        -2.34167286E-13
   36.7599983        -2.45678044E-13
   36.8750000        -2.57166602E-13
   36.9900017        -2.68575689E-13
   37.1049995        -2.79844453E-13
   37.2200012        -2.90909549E-13
   37.3349991        -3.01706685E-13
   37.4500008        -3.12171946E-13
   37.5649986        -3.22243453E-13
   37.6800003        -3.31862765E-13
   37.7949982        -3.40976650E-13
   37.9099998        -3.49538134E-13
   38.0250015        -3.57507996E-13
   38.1399994        -3.64855607E-13
   38.2550011        -3.71559717E-13
   38.3699989        -3.77608941E-13
   38.4850006        -3.83001709E-13
   38.5999985        -3.87746096E-13
   38.7150002        -3.91859180E-13
   38.8300018        -3.95366032E-13
   38.9449997        -3.98298446E-13
   39.0600014        -4.00693259E-13
   39.1749992        -4.02590531E-13
   39.2900009        -4.04031599E-13
   39.4049988        -4.05056658E-13
   39.5200005        -4.05702842E-13
   39.6349983        -4.06001892E-13
   39.7500000        -4.05978202E-13
   39.8650017        -4.05646979E-13
   39.9799995        -4.05012748E-13
   40.0950012        -4.04068299E-13
   40.2099991        -4.02793928E-13
   40.3250008        -4.01157514E-13
   40.4399986        -3.99114688E-13
   40.5550003        -3.96610045E-13
   40.6699982        -3.93578535E-13
   40.7849998        -3.89947541E-13
   40.9000015        -3.85639356E-13
   41.0149994        -3.80574126E-13
   41.1300011        -3.74673247E-13
   41.2449989        -3.67862452E-13
   41.3600006        -3.60075576E-13
   41.4749985        -3.51257977E-13
   41.5900002        -3.41369728E-13
   41.7050018        -3.30388657E-13
   41.8199997        -3.18312651E-13
   41.9350014        -3.05161603E-13
   42.0499992        -2.90978531E-13
   42.1650009        -2.75829896E-13
   42.2799988        -2.59805252E-13
   42.3950005        -2.43016056E-13
   42.5099983        -2.25593361E-13
   42.6250000        -2.07685336E-13
   42.7400017        -1.89453528E-13
   42.8549995        -1.71068820E-13
   42.9700012        -1.52706962E-13
   43.0849991        -1.34543567E-13
   43.2000008        -1.16749194E-13
   43.3149986        -9.94844737E-14
   43.4300003        -8.28953876E-14
   43.5449982        -6.71090855E-14
   43.6599998        -5.22302877E-14
   43.7750015        -3.83385001E-14
   43.8899994        -2.54860711E-14
   44.0050011        -1.36972631E-14
   44.1199989        -2.96834014E-15
   44.2350006         6.73123192E-15
   44.3499985         1.54565302E-14
   44.4650002         2.32839413E-14
   44.5800018         3.03070015E-14
   44.6949997         3.66314238E-14
   44.8100014         4.23695164E-14
   44.9249992         4.76342090E-14
   45.0400009         5.25329088E-14
   45.1549988         5.71613815E-14
   45.2700005         6.15979774E-14
   45.3849983         6.58984111E-14
   45.5000000         7.00913259E-14
   45.6150017         7.41748039E-14
   45.7299995         7.81141373E-14
   45.8450012         8.18407638E-14
   45.9599991         8.52526396E-14
   46.0750008         8.82160420E-14
   46.1899986         9.05688149E-14
   46.3050003         9.21249025E-14
   46.4199982         9.26802038E-14
   46.5349998         9.20193690E-14
   46.6500015         8.99234978E-14
   46.7649994         8.61784195E-14
   46.8800011         8.05831571E-14
   46.9949989         7.29583630E-14
   47.1100006         6.31543971E-14
   47.2249985         5.10586548E-14
   47.3400002         3.66019776E-14
   47.4550018         1.97637672E-14
   47.5699997         5.75658361E-16
   47.6850014        -2.08764873E-14
   47.7999992        -4.44522620E-14
   47.9150009        -6.99583756E-14
   48.0299988        -9.71519753E-14
   48.1450005        -1.25745836E-13
   48.2599983        -1.55415069E-13
   48.3750000        -1.85805283E-13
   48.4900017        -2.16541764E-13
   48.6049995        -2.47239674E-13
   48.7200012        -2.77514448E-13
   48.8349991        -3.06992469E-13
   48.9500008        -3.35321533E-13
   49.0649986        -3.62180446E-13
   49.1800003        -3.87287777E-13
   49.2949982        -4.10409147E-13
   49.4099998        -4.31363062E-13
   49.5250015        -4.50024675E-13
   49.6399994        -4.66327497E-13
   49.7550011        -4.80263019E-13
   49.8699989        -4.91877968E-13
   49.9850006        -5.01269382E-13
   50.0999985        -5.08577880E-13
   50.2150002        -5.13978725E-13
   50.3300018        -5.17671355E-13
   50.4449997        -5.19867623E-13
   50.5600014        -5.20779275E-13
   50.6749992        -5.20605098E-13
   50.7900009        -5.19517806E-13
   50.9049988        -5.17651948E-13
   51.0200005        -5.15092201E-13
   51.1349983        -5.11863934E-13
   51.2500000        -5.07925028E-13
   51.3650017        -5.03160285E-13
   51.4799995        -4.97378180E-13
   51.5950012        -4.90311134E-13
   51.7099991        -4.81617350E-13
   51.8250008        -4.70887110E-13
   51.9399986        -4.57651115E-13
   52.0550003        -4.41391254E-13
   52.1699982        -4.21554122E-13
   52.2849998        -3.97566122E-13
   52.4000015        -3.68850024E-13
   52.5149994        -3.34842343E-13
   52.6300011        -2.95010923E-13
   52.7449989        -2.48872375E-13
   52.8600006        -1.96008059E-13
   52.9749985        -1.36078906E-13
   53.0900002        -6.88375477E-14
   53.2050018         5.86180342E-15
   53.3199997         8.80568337E-14
   53.4350014         1.77673916E-13
   53.5499992         2.74528691E-13
   53.6650009         3.78329719E-13
   53.7799988         4.88686403E-13
   53.8950005         6.05119579E-13
   54.0099983         7.27075572E-13
   54.1250000         8.53942839E-13
   54.2400017         9.85070098E-13
   54.3549995         1.11978656E-12
   54.4700012         1.25742255E-12
   54.5849991         1.39732952E-12
   54.7000008         1.53890008E-12
   54.8149986         1.68158608E-12
   54.9300003         1.82491435E-12
   55.0449982         1.96850002E-12
   55.1599998         2.11205576E-12
   55.2750015         2.25539769E-12
   55.3899994         2.39844689E-12
   55.5050011         2.54122678E-12
   55.6199989         2.68385683E-12
   55.7350006         2.82654087E-12
   55.8499985         2.96955321E-12
   55.9650002         3.11321975E-12
   56.0800018         3.25789873E-12
   56.1949997         3.40395702E-12
   56.3100014         3.55174787E-12
   56.4249992         3.70158548E-12
   56.5400009         3.85372376E-12
   56.6549988         4.00833229E-12
   56.7700005         4.16548046E-12
   56.8849983         4.32511926E-12
   57.0000000         4.48706914E-12
   57.1150017         4.65101352E-12
   57.2299995         4.81649443E-12
   57.3450012         4.98291599E-12
   57.4599991         5.14955006E-12
   57.5750008         5.31554922E-12
   57.6899986         5.47996240E-12
   57.8050003         5.64175529E-12
   57.9199982         5.79983327E-12
   58.0349998         5.95307050E-12
   58.1500015         6.10033551E-12
   58.2649994         6.24051939E-12
   58.3800011         6.37256524E-12
   58.4949989         6.49549468E-12
   58.6100006         6.60843342E-12
   58.7249985         6.71063205E-12
   58.8400002         6.80148169E-12
   58.9550018         6.88053000E-12
   59.0699997         6.94748859E-12
   59.1850014         7.00223430E-12
   59.2999992         7.04480701E-12
   59.4150009         7.07540580E-12
   59.5299988         7.09436893E-12
   59.6450005         7.10216261E-12
   59.7599983         7.09935366E-12
   59.8750000         7.08659000E-12
   59.9900017         7.06456811E-12
   60.1049995         7.03400879E-12
   60.2200012         6.99562500E-12
   60.3349991         6.95009588E-12
   60.4500008         6.89803813E-12
   60.5649986         6.83998387E-12
   60.6800003         6.77635725E-12
   60.7949982         6.70746098E-12
   60.9099998         6.63346071E-12
   61.0250015         6.55438160E-12
   61.1399994         6.47010483E-12
   61.2550011         6.38037149E-12
   61.3699989         6.28479560E-12
   61.4850006         6.18287279E-12
   61.5999985         6.07400632E-12
   61.7150002         5.95752267E-12
   61.8300018         5.83270108E-12
   61.9449997         5.69879734E-12
   62.0600014         5.55507550E-12
   62.1749992         5.40083299E-12
   62.2900009         5.23543145E-12
   62.4049988         5.05831835E-12
   62.5200005         4.86905221E-12
   62.6349983         4.66731861E-12
   62.7500000         4.45294886E-12
   62.8650017         4.22592603E-12
   62.9799995         3.98638761E-12
   63.0950012         3.73462806E-12
   63.2099991         3.47109104E-12
   63.3250008         3.19635833E-12
   63.4399986         2.91113444E-12
   63.5550003         2.61622603E-12
   63.6699982         2.31252018E-12
   63.7849998         2.00095973E-12
   63.9000015         1.68251448E-12
   64.0149994         1.35815653E-12
   64.1299973         1.02883056E-12
   64.2450027         6.95430313E-13
   64.3600006         3.58774561E-13
   64.4749985         1.95860546E-14
   64.5899963        -3.21524247E-13
   64.7050018        -6.64070307E-13
   64.8199997        -1.00769816E-12
   64.9349976        -1.35218995E-12
   65.0500031        -1.69746346E-12
   65.1650009        -2.04356670E-12
   65.2799988        -2.39067013E-12
   65.3949966        -2.73905247E-12
   65.5100021        -3.08908715E-12
   65.6250000        -3.44122365E-12
   65.7399979        -3.79596918E-12
   65.8550034        -4.15386822E-12
   65.9700012        -4.51548261E-12
   66.0849991        -4.88137438E-12
   66.1999969        -5.25208739E-12
   66.3150024        -5.62813338E-12
   66.4300003        -6.00997811E-12
   66.5449982        -6.39803358E-12
   66.6600037        -6.79264761E-12
   66.7750015        -7.19409948E-12
   66.8899994        -7.60259824E-12
   67.0049973        -8.01828135E-12
   67.1200027        -8.44121908E-12
   67.2350006        -8.87141055E-12
   67.3499985        -9.30879332E-12
   67.4649963        -9.75324595E-12
   67.5800018        -1.02045941E-11
   67.6949997        -1.06626149E-11
   67.8099976        -1.11270394E-11
   67.9250031        -1.15975562E-11
   68.0400009        -1.20738098E-11
   68.1549988        -1.25554038E-11
   68.2699966        -1.30419009E-11
   68.3850021        -1.35328207E-11
   68.5000000        -1.40276358E-11
   68.6149979        -1.45257773E-11
   68.7300034        -1.50266292E-11
   68.8450012        -1.55295343E-11
   68.9599991        -1.60337923E-11
   69.0749969        -1.65386663E-11
   69.1900024        -1.70433875E-11
   69.3050003        -1.75471599E-11
   69.4199982        -1.80491802E-11
   69.5350037        -1.85486366E-11
   69.6500015        -1.90447328E-11
   69.7649994        -1.95367056E-11
   69.8799973        -2.00238281E-11
   69.9950027        -2.05054428E-11
   70.1100006        -2.09809670E-11
   70.2249985        -2.14499113E-11
   70.3399963        -2.19118907E-11
   70.4550018        -2.23666242E-11
   70.5699997        -2.28139400E-11
   70.6849976        -2.32537756E-11
   70.8000031        -2.36861693E-11
   70.9150009        -2.41112390E-11
   71.0299988        -2.45291617E-11
   71.1449966        -2.49401576E-11
   71.2600021        -2.53444453E-11
   71.3750000        -2.57422157E-11
   71.4899979        -2.61335779E-11
   71.6050034        -2.65185252E-11
   71.7200012        -2.68968840E-11
   71.8349991        -2.72682796E-11
   71.9499969        -2.76320945E-11
   72.0650024        -2.79874301E-11
   72.1800003        -2.83330859E-11
   72.2949982        -2.86675475E-11
   72.4100037        -2.89889640E-11
   72.5250015        -2.92951705E-11
   72.6399994        -2.95836723E-11
   72.7549973        -2.98517114E-11
   72.8700027        -3.00962623E-11
   72.9850006        -3.03141123E-11
   73.0999985        -3.05019135E-11
   73.2149963        -3.06562414E-11
   73.3300018        -3.07736961E-11
   73.4449997        -3.08509641E-11
   73.5599976        -3.08848884E-11
   73.6750031        -3.08725788E-11
   73.7900009        -3.08114680E-11
   73.9049988        -3.06993736E-11
   74.0199966        -3.05345818E-11
   74.1350021        -3.03158713E-11