  -18.8999996         0.00000000    
  -18.7849998         0.00000000    
  -18.6700001         0.00000000    
  -18.5550003         0.00000000    
  -18.4400005         0.00000000    
  -18.3250008         0.00000000    
  -18.2099991         0.00000000    
  -18.0949993         0.00000000    
  -17.9799995         0.00000000    
  -17.8649998         0.00000000    
  -17.7500000         0.00000000    
  -17.6350002         0.00000000    
  -17.5200005         0.00000000    
  -17.4050007         0.00000000    
  -17.2900009         0.00000000    
  -17.1749992         0.00000000    
  -17.0599995         0.00000000    
  -16.9449997         0.00000000    
  -16.8299999         0.00000000    
  -16.7150002         0.00000000    
  -16.6000004         0.00000000    
  -16.4850006         0.00000000    
  -16.3700008         0.00000000    
  -16.2549992         0.00000000    
  -16.1399994         0.00000000    
  -16.0249996        -1.34937752E-34
  -15.9099998        -1.70758726E-34
  -15.7950001         4.19233081E-33
  -15.6800003        -5.39133725E-32
  -15.5649996        -1.39919598E-31
  -15.4499998         4.64213651E-32
  -15.3350000         6.42147878E-31
  -15.2200003         1.83852395E-30
  -15.1049995         3.88063486E-30
  -14.9899998         7.21470736E-30
  -14.8750000         1.20736488E-29
  -14.7600002         1.84486665E-29
  -14.6450005         2.55316530E-29
  -14.5299997         3.13999375E-29
  -14.4150000         3.24555999E-29
  -14.3000002         2.29704024E-29
  -14.1850004        -5.38167344E-30
  -14.0699997        -6.22378646E-29
  -13.9549999        -1.57484868E-28
  -13.8400002        -2.97752718E-28
  -13.7250004        -4.82427733E-28
  -13.6099997        -6.97865819E-28
  -13.4949999        -9.11055960E-28
  -13.3800001        -1.06403681E-27
  -13.2650003        -1.07016194E-27
  -13.1499996        -8.14395077E-28
  -13.0349998        -1.60333114E-28
  -12.9200001         1.03465068E-27
  -12.8050003         2.89353795E-27
  -12.6899996         5.48175630E-27
  -12.5749998         8.75710947E-27
  -12.4600000         1.25083025E-26
  -12.3450003         1.62861089E-26
  -12.2299995         1.93350748E-26
  -12.1149998         2.05396192E-26
  -12.0000000         1.84061233E-26
  -11.8850002         1.11112199E-26
  -11.7700005        -3.34583874E-27
  -11.6549997        -2.68455714E-26
  -11.5400000        -6.06699487E-26
  -11.4250002        -1.04827683E-25
  -11.3100004        -1.57205668E-25
  -11.1949997        -2.12628410E-25
  -11.0799999        -2.61983073E-25
  -10.9650002        -2.91653315E-25
  -10.8500004        -2.83582307E-25
  -10.7349997        -2.16327551E-25
  -10.6199999        -6.74568888E-26
  -10.5050001         1.82472476E-25
  -10.3900003         5.44322751E-25
  -10.2749996         1.01347150E-24
  -10.1599998         1.56231585E-24
  -10.0450001         2.13338656E-24
  -9.93000031         2.63471338E-24
  -9.81499958         2.93941150E-24
  -9.69999981         2.89153553E-24
  -9.58500004         2.31998135E-24
  -9.47000027         1.06150553E-24
  -9.35499954        -1.00723851E-24
  -9.23999977        -3.93037758E-24
  -9.12500000        -7.62985952E-24
  -9.01000023        -1.18645327E-23
  -8.89500046        -1.61988501E-23
  -8.77999973        -1.99900304E-23
  -8.66499996        -2.24029145E-23
  -8.55000019        -2.24608484E-23
  -8.43500042        -1.91384598E-23
  -8.31999969        -1.14978946E-23
  -8.20499992         1.13573103E-24
  -8.09000015         1.89713412E-23
  -7.97499990         4.15410650E-23
  -7.86000013         6.75095109E-23
  -7.74499989         9.45376399E-23
  -7.63000011         1.19240403E-22
  -7.51499987         1.37277045E-22
  -7.40000010         1.43607773E-22
  -7.28499985         1.32938613E-22
  -7.17000008         1.00356777E-22
  -7.05499983         4.21335437E-23
  -6.94000006        -4.33601940E-23
  -6.82499981        -1.54713849E-22
  -6.71000004        -2.86632900E-22
  -6.59499979        -4.29336677E-22
  -6.48000002        -5.68357293E-22
  -6.36499977        -6.84893733E-22
  -6.25000000        -7.56847440E-22
  -6.13500023        -7.60610143E-22
  -6.01999998        -6.73597901E-22
  -5.90500021        -4.77418872E-22
  -5.78999996        -1.61450633E-22
  -5.67500019         2.73518094E-22
  -5.55999994         8.12029838E-22
  -5.44500017         1.42160783E-21
  -5.32999992         2.05186109E-21
  -5.21500015         2.63555233E-21
  -5.09999990         3.09202779E-21
  -4.98500013         3.33320910E-21
  -4.86999989         3.27209972E-21
  -4.75500011         2.83341369E-21
  -4.63999987         1.96561681E-21
  -4.52500010         6.53294010E-22
  -4.40999985        -1.07152585E-21
  -4.29500008        -3.12066770E-21
  -4.17999983        -5.34540954E-21
  -4.06500006        -7.53793294E-21
  -3.95000005        -9.43993055E-21
  -3.83500004        -1.07591253E-20
  -3.72000003        -1.11938152E-20
  -3.60500002        -1.04646110E-20
  -3.49000001        -8.35161532E-21
  -3.37500000        -4.73419052E-21
  -3.25999999         3.70455165E-22
  -3.14499998         6.77444604E-21
  -3.02999997         1.40972757E-20
  -2.91499996         2.17597712E-20
  -2.79999995         2.89985968E-20
  -2.68499994         3.49047923E-20
  -2.56999993         3.84878609E-20
  -2.45499992         3.87647531E-20
  -2.33999991         3.48697599E-20
  -2.22499990         2.61783551E-20
  -2.10999990         1.24344423E-20
  -1.99500000        -6.13235315E-21
  -1.88000000        -2.87149158E-20
  -1.76499999        -5.38789650E-20
  -1.64999998        -7.95712400E-20
  -1.53499997        -1.03198594E-19
  -1.41999996        -1.21786163E-19
  -1.30499995        -1.32215748E-19
  -1.19000006        -1.31536710E-19
  -1.07500005        -1.17331667E-19
 -0.959999979        -8.81086487E-20
 -0.845000029        -4.36825454E-20
 -0.730000019         1.44998105E-20
 -0.615000010         8.31394516E-20
 -0.500000000         1.57018707E-19
 -0.384999990         2.29129753E-19
 -0.270000011         2.91028144E-19
 -0.155000001         3.33422159E-19
  -3.99999991E-02     3.46985361E-19
   7.50000030E-02     3.23352941E-19
  0.189999998         2.56233283E-19
  0.305000007         1.42541288E-19
  0.419999987        -1.65635227E-20
  0.535000026        -2.14861844E-19
  0.649999976        -4.40612901E-19
  0.764999986        -6.76564206E-19
  0.879999995        -9.00522788E-19
  0.995000005        -1.08653389E-18
   1.11000001        -1.20666316E-18
   1.22500002        -1.23330696E-18
   1.34000003        -1.14189182E-18
   1.45500004        -9.13758299E-19
   1.57000005        -5.38967416E-19
   1.68499994        -1.87303902E-20
   1.79999995         6.32845695E-19
   1.91499996         1.38798942E-18
   2.02999997         2.20571764E-18
   2.14499998         3.03366236E-18
   2.25999999         3.81131284E-18
   2.37500000         4.47458100E-18
   2.49000001         4.96144338E-18
   2.60500002         5.21826848E-18
   2.72000003         5.20630290E-18
   2.83500004         4.90770352E-18
   2.95000005         4.33044271E-18
   3.06500006         3.51141975E-18
   3.18000007         2.51721152E-18
   3.29500008         1.44201052E-18
   3.41000009         4.02542379E-19
   3.52500010        -4.70007850E-19
   3.64000010        -1.04071108E-18
   3.75500011        -1.18361077E-18
   3.86999989        -7.95510814E-19
   3.98499990         1.90336921E-19
   4.09999990         1.79196024E-18
   4.21500015         3.96916579E-18
   4.32999992         6.61811161E-18
   4.44500017         9.57100743E-18
   4.55999994         1.26016806E-17
   4.67500019         1.54373012E-17
   4.78999996         1.77759956E-17
   4.90500021         1.93095487E-17
   5.01999998         1.97497792E-17
   5.13500023         1.88567782E-17
   5.25000000         1.64667142E-17
   5.36499977         1.25167614E-17
   5.48000002         7.06473041E-18
   5.59499979         3.01126003E-19
   5.71000004        -7.44814434E-18
   5.82499981        -1.57295243E-17
   5.94000006        -2.39804656E-17
   6.05499983        -3.15583366E-17
   6.17000008        -3.77782088E-17
   6.28499985        -4.19571682E-17
   6.40000010        -4.34621837E-17
   6.51499987        -4.17579865E-17
   6.63000011        -3.64513747E-17
   6.74499989        -2.73283947E-17
   6.86000013        -1.43811620E-17
   6.97499990         2.17783338E-18
   7.09000015         2.19154059E-17
   7.20499992         4.41916345E-17
   7.32000017         6.81869530E-17
   7.43499994         9.29404916E-17
   7.55000019         1.17396503E-16
   7.66499996         1.40455175E-16
   7.78000021         1.61023729E-16
   7.89499998         1.78064100E-16
   8.01000023         1.90633381E-16
   8.12500000         1.97914423E-16
   8.23999977         1.99235331E-16
   8.35499954         1.94077218E-16
   8.47000027         1.82071638E-16
   8.58500004         1.62989627E-16
   8.69999981         1.36726100E-16
   8.81499958         1.03282896E-16
   8.93000031         6.27549638E-17
   9.04500008         1.53233223E-17
   9.15999985        -3.87429760E-17
   9.27499962        -9.90734006E-17
   9.39000034        -1.65171809E-16
   9.50500011        -2.36382887E-16
   9.61999989        -3.11853047E-16
   9.73499966        -3.90490394E-16
   9.85000038        -4.70930360E-16
   9.96500015        -5.51512893E-16
   10.0799999        -6.30278698E-16
   10.1949997        -7.04989545E-16
   10.3100004        -7.73177392E-16
   10.4250002        -8.32223264E-16
   10.5400000        -8.79466368E-16
   10.6549997        -9.12339082E-16
   10.7700005        -9.28521328E-16
   10.8850002        -9.26104214E-16
   11.0000000        -9.03751862E-16
   11.1149998        -8.60847313E-16
   11.2299995        -7.97609422E-16
   11.3450003        -7.15166011E-16
   11.4600000        -6.15572142E-16
   11.5749998        -5.01765271E-16
   11.6899996        -3.77450216E-16
   11.8050003        -2.46914975E-16
   11.9200001        -1.14782335E-16
   12.0349998         1.42944486E-17
   12.1499996         1.35974980E-16
   12.2650003         2.46594955E-16
   12.3800001         3.43526203E-16
   12.4949999         4.25509172E-16
   12.6099997         4.92929553E-16
   12.7250004         5.48022164E-16
   12.8400002         5.94970871E-16
   12.9549999         6.39898028E-16
   13.0699997         6.90730752E-16
   13.1850004         7.56941941E-16
   13.3000002         8.49178058E-16
   13.4150000         9.78785534E-16
   13.5299997         1.15725749E-15
   13.6450005         1.39563946E-15
   13.7600002         1.70392483E-15
   13.8750000         2.09047774E-15
   13.9899998         2.56152462E-15
   14.1049995         3.12075335E-15
   14.2200003         3.76904843E-15
   14.3350000         4.50438399E-15
   14.4499998         5.32190081E-15
   14.5649996         6.21414583E-15
   14.6800003         7.17150016E-15
   14.7950001         8.18274569E-15
   14.9099998         9.23574995E-15
   15.0249996         1.03182360E-14
   15.1400003         1.14185818E-14
   15.2550001         1.25265992E-14
   15.3699999         1.36342616E-14
   15.4849997         1.47362997E-14
   15.6000004         1.58306663E-14
   15.7150002         1.69188021E-14
   15.8299999         1.80057233E-14
   15.9449997         1.90998764E-14
   16.0599995         2.02128235E-14
   16.1749992         2.13587354E-14
   16.2900009         2.25537396E-14
   16.4050007         2.38151665E-14
   16.5200005         2.51607207E-14
   16.6350002         2.66076495E-14
   16.7500000         2.81719499E-14
   16.8649998         2.98676455E-14
   16.9799995         3.17061779E-14
   17.0949993         3.36959396E-14
   17.2099991         3.58419722E-14
   17.3250008         3.81458272E-14
   17.4400005         4.06056211E-14
   17.5550003         4.32161766E-14
   17.6700001         4.59693590E-14
   17.7849998         4.88544718E-14
   17.8999996         5.18587926E-14
   18.0149994         5.49680134E-14
   18.1299992         5.81668638E-14
   18.2450008         6.14396094E-14
   18.3600006         6.47705156E-14
   18.4750004         6.81442817E-14
   18.5900002         7.15464336E-14
   18.7049999         7.49635813E-14
   18.8199997         7.83836293E-14
   18.9349995         8.17959727E-14
   19.0499992         8.51915042E-14
   19.1650009         8.85626750E-14
   19.2800007         9.19034136E-14
   19.3950005         9.52090376E-14
   19.5100002         9.84761114E-14
   19.6250000         1.01702202E-13
   19.7399998         1.04885617E-13
   19.8549995         1.08025066E-13
   19.9699993         1.11119291E-13
   20.0849991         1.14166543E-13
   20.2000008         1.17164064E-13
   20.3150005         1.20107578E-13
   20.4300003         1.22990593E-13
   20.5450001         1.25803773E-13
   20.6599998         1.28534350E-13
   20.7749996         1.31165478E-13
   20.8899994         1.33675745E-13
   21.0049992         1.36038804E-13
   21.1200008         1.38223065E-13
   21.2350006         1.40191678E-13
   21.3500004         1.41902644E-13
   21.4650002         1.43309247E-13
   21.5799999         1.44360693E-13
   21.6949997         1.45002906E-13
   21.8099995         1.45179685E-13
   21.9249992         1.44833879E-13
   22.0400009         1.43908811E-13
   22.1550007         1.42349620E-13
   22.2700005         1.40104833E-13
   22.3850002         1.37127451E-13
   22.5000000         1.33376247E-13
   22.6149998         1.28816635E-13
   22.7299995         1.23421089E-13
   22.8449993         1.17169404E-13
   22.9599991         1.10048465E-13
   23.0750008         1.02051431E-13
   23.1900005         9.31767142E-14
   23.3050003         8.34263688E-14
   23.4200001         7.28041894E-14
   23.5349998         6.13135980E-14
   23.6499996         4.89552280E-14
   23.7649994         3.57244887E-14
   23.8799992         2.16092047E-14
   23.9950008         6.58726596E-15
   24.1100006        -9.37526051E-15
   24.2250004        -2.63258382E-14
   24.3400002        -4.43267114E-14
   24.4549999        -6.34554800E-14
   24.5699997        -8.38053924E-14
   24.6849995        -1.05484991E-13
   24.7999992        -1.28617155E-13
   24.9150009        -1.53337914E-13
   25.0300007        -1.79794764E-13
   25.1450005        -2.08144483E-13
   25.2600002        -2.38551204E-13
   25.3750000        -2.71184063E-13
   25.4899998        -3.06215177E-13
   25.6049995        -3.43817531E-13
   25.7199993        -3.84163025E-13
   25.8349991        -4.27421580E-13
   25.9500008        -4.73759703E-13
   26.0650005        -5.23340160E-13
   26.1800003        -5.76321705E-13
   26.2950001        -6.32859542E-13
   26.4099998        -6.93105837E-13
   26.5249996        -7.57211134E-13
   26.6399994        -8.25325377E-13
   26.7549992        -8.97599269E-13
   26.8700008        -9.74186010E-13
   26.9850006        -1.05524281E-12
   27.1000004        -1.14093240E-12
   27.2150002        -1.23142403E-12
   27.3299999        -1.32689465E-12
   27.4449997        -1.42752878E-12
   27.5599995        -1.53351984E-12
   27.6749992        -1.64506928E-12
   27.7900009        -1.76238592E-12
   27.9050007        -1.88568540E-12
   28.0200005        -2.01518858E-12
   28.1350002        -2.15111999E-12
   28.2500000        -2.29370602E-12
   28.3649998        -2.44317262E-12
   28.4799995        -2.59974355E-12
   28.5949993        -2.76363806E-12
   28.7099991        -2.93506820E-12
   28.8250008        -3.11423717E-12
   28.9400005        -3.30133685E-12
   29.0550003        -3.49654637E-12
   29.1700001        -3.70003073E-12
   29.2849998        -3.91193718E-12
   29.3999996        -4.13239538E-12
   29.5149994        -4.36151506E-12
   29.6299992        -4.59938511E-12
   29.7450008        -4.84606886E-12
   29.8600006        -5.10160664E-12
   29.9750004        -5.36600972E-12
   30.0900002        -5.63925946E-12
   30.2049999        -5.92130381E-12
   30.3199997        -6.21205734E-12
   30.4349995        -6.51139602E-12
   30.5499992        -6.81915548E-12
   30.6650009        -7.13512496E-12
   30.7800007        -7.45905161E-12
   30.8950005        -7.79063532E-12
   31.0100002        -8.12952483E-12
   31.1250000        -8.47532287E-12
   31.2399998        -8.82758450E-12
   31.3549995        -9.18581704E-12
   31.4699993        -9.54948794E-12
   31.5849991        -9.91802820E-12
   31.7000008        -1.02908290E-11
   31.8150005        -1.06672622E-11
   31.9300003        -1.10466731E-11
   32.0449982        -1.14283999E-11
   32.1599998        -1.18117694E-11
   32.2750015        -1.21961139E-11
   32.3899994        -1.25807698E-11
   32.5050011        -1.29650847E-11
   32.6199989        -1.33484248E-11
   32.7350006        -1.37301680E-11
   32.8499985        -1.41097065E-11
   32.9650002        -1.44864485E-11
   33.0800018        -1.48598009E-11
   33.1949997        -1.52291790E-11
   33.3100014        -1.55939740E-11
   33.4249992        -1.59535562E-11
   33.5400009        -1.63072594E-11
   33.6549988        -1.66543654E-11
   33.7700005        -1.69940884E-11
   33.8849983        -1.73255681E-11
   34.0000000        -1.76478485E-11
   34.1150017        -1.79598818E-11
   34.2299995        -1.82605060E-11
   34.3450012        -1.85484544E-11
   34.4599991        -1.88223534E-11
   34.5750008        -1.90807266E-11
   34.6899986        -1.93219971E-11
   34.8050003        -1.95445118E-11
   34.9199982        -1.97465447E-11
   35.0349998        -1.99263210E-11
   35.1500015        -2.00820402E-11
   35.2649994        -2.02118895E-11
   35.3800011        -2.03140699E-11
   35.4949989        -2.03868120E-11
   35.6100006        -2.04284003E-11
   35.7249985        -2.04371780E-11
   35.8400002        -2.04115631E-11
   35.9550018        -2.03500584E-11
   36.0699997        -2.02512399E-11
   36.1850014        -2.01137700E-11
   36.2999992        -1.99363789E-11
   36.4150009        -1.97178524E-11
   36.5299988        -1.94570193E-11
   36.6450005        -1.91527297E-11
   36.7599983        -1.88038404E-11
   36.8750000        -1.84091943E-11
   36.9900017        -1.79675927E-11
   37.1049995        -1.74777779E-11
   37.2200012        -1.69384437E-11
   37.3349991        -1.63481936E-11
   37.4500008        -1.57055549E-11
   37.5649986        -1.50089871E-11
   37.6800003        -1.42568743E-11
   37.7949982        -1.34475443E-11
   37.9099998        -1.25793039E-11
   38.0250015        -1.16504436E-11
   38.1399994        -1.06592807E-11
   38.2550011        -9.60418637E-12
   38.3699989        -8.48362092E-12
   38.4850006        -7.29617755E-12
   38.5999985        -6.04060031E-12
   38.7150002        -4.71582582E-12
   38.8300018        -3.32100883E-12
   38.9449997        -1.85554111E-12
   39.0600014        -3.19076688E-13
   39.1749992         1.28847128E-12
   39.2900009         2.96691708E-12
   39.4049988         4.71580977E-12
   39.5200005         6.53444096E-12
   39.6349983         8.42186390E-12
   39.7500000         1.03769111E-11
   39.8650017         1.23982144E-11
   39.9799995         1.44842411E-11
   40.0950012         1.66333197E-11
   40.2099991         1.88436471E-11
   40.3250008         2.11133559E-11
   40.4399986         2.34405099E-11
   40.5550003         2.58231162E-11
   40.6699982         2.82591762E-11
   40.7849998         3.07466760E-11
   40.9000015         3.32836016E-11
   41.0149994         3.58679336E-11
   41.1300011         3.84976495E-11
   41.2449989         4.11707335E-11
   41.3600006         4.38851386E-11
   41.4749985         4.66388005E-11
   41.5900002         4.94296028E-11
   41.7050018         5.22553875E-11
   41.8199997         5.51138891E-11
   41.9350014         5.80027693E-11
   42.0499992         6.09195611E-11
   42.1650009         6.38616868E-11
   42.2799988         6.68263986E-11
   42.3950005         6.98108030E-11
   42.5099983         7.28118468E-11
   42.6250000         7.58262689E-11
   42.7400017         7.88506552E-11
   42.8549995         8.18813836E-11
   42.9700012         8.49146725E-11
   43.0849991         8.79465320E-11
   43.2000008         9.09728057E-11
   43.3149986         9.39891845E-11
   43.4300003         9.69911998E-11
   43.5449982         9.99742303E-11
   43.6599998         1.02933558E-10
   43.7750015         1.05864331E-10
   43.8899994         1.08761639E-10
   44.0050011         1.11620491E-10
   44.1199989         1.14435864E-10
   44.2350006         1.17202692E-10
   44.3499985         1.19915883E-10
   44.4650002         1.22570398E-10
   44.5800018         1.25161145E-10
   44.6949997         1.27683072E-10
   44.8100014         1.30131114E-10
   44.9249992         1.32500233E-10
   45.0400009         1.34785377E-10
   45.1549988         1.36981509E-10
   45.2700005         1.39083509E-10
   45.3849983         1.41086212E-10
   45.5000000         1.42984430E-10
   45.6150017         1.44772777E-10
   45.7299995         1.46445828E-10
   45.8450012         1.47998044E-10
   45.9599991         1.49423654E-10
   46.0750008         1.50716814E-10
   46.1899986         1.51871488E-10
   46.3050003         1.52881513E-10
   46.4199982         1.53740659E-10
   46.5349998         1.54442556E-10
   46.6500015         1.54980806E-10
   46.7649994         1.55348984E-10
   46.8800011         1.55540816E-10
   46.9949989         1.55550059E-10
   47.1100006         1.55370675E-10
   47.2249985         1.54996849E-10
   47.3400002         1.54423155E-10
   47.4550018         1.53644431E-10
   47.5699997         1.52656013E-10
   47.6850014         1.51453697E-10
   47.7999992         1.50033735E-10
   47.9150009         1.48392992E-10
   48.0299988         1.46528775E-10
   48.1450005         1.44438989E-10
   48.2599983         1.42122022E-10
   48.3750000         1.39576864E-10
   48.4900017         1.36802833E-10
   48.6049995         1.33799777E-10
   48.7200012         1.30567890E-10
   48.8349991         1.27107713E-10
   48.9500008         1.23420052E-10
   49.0649986         1.19505961E-10
   49.1800003         1.15366702E-10
   49.2949982         1.11003672E-10
   49.4099998         1.06418416E-10
   49.5250015         1.01612600E-10
   49.6399994         9.65879252E-11
   49.7550011         9.13462500E-11
   49.8699989         8.58894761E-11
   49.9850006         8.02196365E-11
   50.0999985         7.43388892E-11
   50.2150002         6.82495449E-11
   50.3300018         6.19540391E-11
   50.4449997         5.54550433E-11
   50.5600014         4.87554302E-11
   50.6749992         4.18582669E-11
   50.7900009         3.47669393E-11
   50.9049988         2.74850837E-11
   51.0200005         2.00166203E-11
   51.1349983         1.23657404E-11
   51.2500000         4.53696412E-12
   51.3650017        -3.46492366E-12
   51.4799995        -1.16347886E-11
   51.5950012        -1.99672084E-11
   51.7099991        -2.84565115E-11
   51.8250008        -3.70966521E-11
   51.9399986        -4.58813057E-11
   52.0550003        -5.48038386E-11
   52.1699982        -6.38572528E-11
   52.2849998        -7.30342245E-11
   52.4000015        -8.23270480E-11
   52.5149994        -9.17276810E-11
   52.6300011        -1.01227617E-10
   52.7449989        -1.10817924E-10
   52.8600006        -1.20489244E-10
   52.9749985        -1.30231742E-10
   53.0900002        -1.40035164E-10
   53.2050018        -1.49888657E-10
   53.3199997        -1.59781008E-10
   53.4350014        -1.69700420E-10
   53.5499992        -1.79634738E-10
   53.6650009        -1.89571261E-10
   53.7799988        -1.99497030E-10
   53.8950005        -2.09398651E-10
   54.0099983        -2.19262428E-10
   54.1250000        -2.29074329E-10
   54.2400017        -2.38820186E-10
   54.3549995        -2.48485593E-10
   54.4700012        -2.58056132E-10
   54.5849991        -2.67517286E-10
   54.7000008        -2.76854345E-10
   54.8149986        -2.86052820E-10
   54.9300003        -2.95098085E-10
   55.0449982        -3.03975539E-10
   55.1599998        -3.12670806E-10
   55.2750015        -3.21169369E-10
   55.3899994        -3.29456906E-10
   55.5050011        -3.37518929E-10
   55.6199989        -3.45341256E-10
   55.7350006        -3.52909563E-10
   55.8499985        -3.60209529E-10
   55.9650002        -3.67226916E-10
   56.0800018        -3.73947540E-10
   56.1949997        -3.80357246E-10
   56.3100014        -3.86442045E-10
   56.4249992        -3.92187921E-10
   56.5400009        -3.97581162E-10
   56.6549988        -4.02608363E-10
   56.7700005        -4.07256395E-10
   56.8849983        -4.11512630E-10
   57.0000000        -4.15364965E-10
   57.1150017        -4.18801827E-10
   57.2299995        -4.21812474E-10
   57.3450012        -4.24387109E-10
   57.4599991        -4.26516572E-10
   57.5750008        -4.28192842E-10
   57.6899986        -4.29408870E-10
   57.8050003        -4.30158742E-10
   57.9199982        -4.30437463E-10
   58.0349998        -4.30241232E-10
   58.1500015        -4.29567132E-10
   58.2649994        -4.28413249E-10
   58.3800011        -4.26778363E-10
   58.4949989        -4.24662028E-10
   58.6100006        -4.22064550E-10
   58.7249985        -4.18986512E-10
   58.8400002        -4.15428747E-10
   58.9550018        -4.11392503E-10
   59.0699997        -4.06878919E-10
   59.1850014        -4.01889078E-10
   59.2999992        -3.96424005E-10
   59.4150009        -3.90484534E-10
   59.5299988        -3.84071275E-10
   59.6450005        -3.77184672E-10
   59.7599983        -3.69825059E-10
   59.8750000        -3.61992686E-10
   59.9900017        -3.53687940E-10
   60.1049995        -3.44911461E-10
   60.2200012        -3.35664330E-10
   60.3349991        -3.25948185E-10
   60.4500008        -3.15765608E-10
   60.5649986        -3.05120179E-10
   60.6800003        -2.94016728E-10
   60.7949982        -2.82461443E-10
   60.9099998        -2.70462153E-10
   61.0250015        -2.58028432E-10
   61.1399994        -2.45171466E-10
   61.2550011        -2.31904385E-10
   61.3699989        -2.18242008E-10
   61.4850006        -2.04201003E-10
   61.5999985        -1.89799565E-10
   61.7150002        -1.75057524E-10
   61.8300018        -1.59996100E-10
   61.9449997        -1.44637663E-10
   62.0600014        -1.29005667E-10
   62.1749992        -1.13124336E-10
   62.2900009        -9.70185876E-11
   62.4049988        -8.07137829E-11
   62.5200005        -6.42355960E-11
   62.6349983        -4.76099542E-11
   62.7500000        -3.08627360E-11
   62.8650017        -1.40200629E-11
   62.9799995         2.89212404E-12
   63.0950012         1.98477346E-11
   63.2099991         3.68207895E-11
   63.3250008         5.37850667E-11
   63.4399986         7.07143094E-11
   63.5550003         8.75821221E-11
   63.6699982         1.04361825E-10
   63.7849998         1.21026286E-10
   63.9000015         1.37548306E-10
   64.0149994         1.53900087E-10
   64.1299973         1.70053666E-10
   64.2450027         1.85980703E-10
   64.3600006         2.01652847E-10
   64.4749985         2.17041565E-10
   64.5899963         2.32118477E-10
   64.7050018         2.46855369E-10
   64.8199997         2.61224542E-10
   64.9349976         2.75198836E-10
   65.0500031         2.88752050E-10
   65.1650009         3.01858732E-10
   65.2799988         3.14494875E-10
   65.3949966         3.26637550E-10
   65.5100021         3.38265471E-10
   65.6250000         3.49358653E-10
   65.7399979         3.59898666E-10
   65.8550034         3.69868636E-10
   65.9700012         3.79253240E-10
   66.0849991         3.88038379E-10
   66.1999969         3.96211453E-10
   66.3150024         4.03760914E-10
   66.4300003         4.10676382E-10
   66.5449982         4.16948143E-10
   66.6600037         4.22567425E-10
   66.7750015         4.27525931E-10
   66.8899994         4.31815805E-10
   67.0049973         4.35429526E-10
   67.1200027         4.38359737E-10
   67.2350006         4.40599557E-10
   67.3499985         4.42141934E-10
   67.4649963         4.42980180E-10
   67.5800018         4.43107995E-10
   67.6949997         4.42519077E-10
   67.8099976         4.41207848E-10
   67.9250031         4.39169007E-10
   68.0400009         4.36398168E-10
   68.1549988         4.32891722E-10
   68.2699966         4.28647062E-10
   68.3850021         4.23663049E-10
   68.5000000         4.17939683E-10
   68.6149979         4.11478684E-10
   68.7300034         4.04283412E-10
   68.8450012         3.96359445E-10
   68.9599991         3.87713806E-10
   69.0749969         3.78356069E-10
   69.1900024         3.68298003E-10
   69.3050003         3.57553487E-10
   69.4199982         3.46138784E-10
   69.5350037         3.34072520E-10
   69.6500015         3.21375648E-10
   69.7649994         3.08071374E-10
   69.8799973         2.94185232E-10
   69.9950027         2.79744700E-10
   70.1100006         2.64779448E-10
   70.2249985         2.49321175E-10
   70.3399963         2.33403186E-10
   70.4550018         2.17060481E-10
   70.5699997         2.00329697E-10
   70.6849976         1.83248638E-10
   70.8000031         1.65856578E-10
   70.9150009         1.48193360E-10
   71.0299988         1.30300215E-10
   71.1449966         1.12218741E-10
   71.2600021         9.39915021E-11
   71.3750000         7.56615950E-11
   71.4899979         5.72724923E-11
   71.6050034         3.88682801E-11
   71.7200012         2.04935964E-11
   71.8349991         2.19364110E-12
   71.9499969        -1.59860458E-11
   72.0650024        -3.39991021E-11
   72.1800003        -5.17984822E-11
   72.2949982        -6.93362590E-11
   72.4100037        -8.65638672E-11
   72.5250015        -1.03431624E-10
   72.6399994        -1.19889043E-10
   72.7549973        -1.35884540E-10
   72.8700027        -1.51365670E-10
   72.9850006        -1.66278991E-10
   73.0999985        -1.80570531E-10
   73.2149963        -1.94185390E-10
   73.3300018        -2.07068473E-10
   73.4449997        -2.19164270E-10
   73.5599976        -2.30417685E-10
   73.6750031        -2.40773734E-10
   73.7900009        -2.50178073E-10
   73.9049988        -2.58577937E-10
   74.0199966        -2.65921452E-10
   74.1350021        -2.72158851E-10