  -18.8999996         0.00000000    
  -18.7849998         0.00000000    
  -18.6700001         0.00000000    
  -18.5550003         0.00000000    
  -18.4400005         0.00000000    
  -18.3250008         0.00000000    
  -18.2099991         0.00000000    
  -18.0949993         0.00000000    
  -17.9799995         0.00000000    
  -17.8649998         0.00000000    
  -17.7500000         0.00000000    
  -17.6350002         0.00000000    
  -17.5200005         0.00000000    
  -17.4050007         0.00000000    
  -17.2900009         0.00000000    
  -17.1749992         0.00000000    
  -17.0599995         0.00000000    
  -16.9449997         0.00000000    
  -16.8299999         0.00000000    
  -16.7150002         0.00000000    
  -16.6000004         0.00000000    
  -16.4850006         0.00000000    
  -16.3700008         0.00000000    
  -16.2549992         0.00000000    
  -16.1399994         0.00000000    
  -16.0249996        -3.78078978E-34
  -15.9099998        -2.16522423E-33
  -15.7950001         7.08560150E-33
  -15.6800003        -1.56449541E-31
  -15.5649996        -4.06661236E-31
  -15.4499998        -6.13538039E-31
  -15.3350000        -6.55642036E-31
  -15.2200003         6.73448766E-32
  -15.1049995         1.55759913E-30
  -14.9899998         3.89619013E-30
  -14.8750000         6.27204063E-30
  -14.7600002         7.70810353E-30
  -14.6450005         6.15700205E-30
  -14.5299997        -1.62558361E-30
  -14.4150000        -1.96703004E-29
  -14.3000002        -5.17105028E-29
  -14.1850004        -9.86439410E-29
  -14.0699997        -1.54096544E-28
  -13.9549999        -1.98475651E-28
  -13.8400002        -1.93857789E-28
  -13.7250004        -8.18021049E-29
  -13.6099997         2.09944347E-28
  -13.4949999         7.46948770E-28
  -13.3800001         1.55028559E-27
  -13.2650003         2.54017660E-27
  -13.1499996         3.46895035E-27
  -13.0349998         3.86322365E-27
  -12.9200001         3.00804084E-27
  -12.8050003         1.58779879E-29
  -12.6899996        -5.97333605E-27
  -12.5749998        -1.54305939E-26
  -12.4600000        -2.79201540E-26
  -12.3450003        -4.14951868E-26
  -12.2299995        -5.21584230E-26
  -12.1149998        -5.36289707E-26
  -12.0000000        -3.77226013E-26
  -11.8850002         4.33988514E-27
  -11.7700005         7.94735639E-26
  -11.6549997         1.89120823E-25
  -11.5400000         3.24859034E-25
  -11.4250002         4.64065719E-25
  -11.3100004         5.66987514E-25
  -11.1949997         5.76964139E-25
  -11.0799999         4.25681128E-25
  -10.9650002         4.49906849E-26
  -10.8500004        -6.14110909E-25
  -10.7349997        -1.55637780E-24
  -10.6199999        -2.71428973E-24
  -10.5050001        -3.92276626E-24
  -10.3900003        -4.90449340E-24
  -10.2749996        -5.27503911E-24
  -10.1599998        -4.57659429E-24
  -10.0450001        -2.34657109E-24
  -9.93000031         1.77798500E-24
  -9.81499958         7.92697215E-24
  -9.69999981         1.58511107E-23
  -9.58500004         2.47892645E-23
  -9.47000027         3.33833913E-23
  -9.35499954         3.96792239E-23
  -9.23999977         4.12481925E-23
  -9.12500000         3.54552366E-23
  -9.01000023         1.98775041E-23
  -8.89500046        -7.14852657E-24
  -8.77999973        -4.59064603E-23
  -8.66499996        -9.46933232E-23
  -8.55000019        -1.49340874E-22
  -8.43500042        -2.02992982E-22
  -8.31999969        -2.46262281E-22
  -8.20499992        -2.67861822E-22
  -8.09000015        -2.55755875E-22
  -7.97499990        -1.98801379E-22
  -7.86000013        -8.87650019E-23
  -7.74499989         7.74881154E-23
  -7.63000011         2.95916644E-22
  -7.51499987         5.53671000E-22
  -7.40000010         8.28256392E-22
  -7.28499985         1.08780551E-21
  -7.17000008         1.29269074E-21
  -7.05499983         1.39857289E-21
  -6.94000006         1.36081490E-21
  -6.82499981         1.14000069E-21
  -6.71000004         7.08115476E-22
  -6.59499979         5.47891162E-23
  -6.48000002        -8.07109820E-22
  -6.36499977        -1.83727861E-21
  -6.25000000        -2.96590597E-21
  -6.13500023        -4.09433279E-21
  -6.01999998        -5.09888266E-21
  -5.90500021        -5.83807517E-21
  -5.78999996        -6.16314745E-21
  -5.67500019        -5.93154738E-21
  -5.55999994        -5.02274206E-21
  -5.44500017        -3.35542120E-21
  -5.32999992        -9.04910448E-22
  -5.21500015         2.28063732E-21
  -5.09999990         6.06690895E-21
  -4.98500013         1.02247497E-20
  -4.86999989         1.44280429E-20
  -4.75500011         1.82600411E-20
  -4.63999987         2.12299362E-20
  -4.52500010         2.28010446E-20
  -4.40999985         2.24314580E-20
  -4.29500008         1.96269861E-20
  -4.17999983         1.40049917E-20
  -4.06500006         5.36599253E-21
  -3.95000005        -6.23193067E-21
  -3.83500004        -2.04030722E-20
  -3.72000003        -3.63774291E-20
  -3.60500002        -5.29681745E-20
  -3.49000001        -6.85747010E-20
  -3.37500000        -8.12325224E-20
  -3.25999999        -8.87192824E-20
  -3.14499998        -8.87224490E-20
  -3.02999997        -7.90684370E-20
  -2.91499996        -5.80055170E-20
  -2.79999995        -2.45234333E-20
  -2.68499994         2.13168257E-20
  -2.56999993         7.80794392E-20
  -2.45499992         1.42720360E-19
  -2.33999991         2.10472565E-19
  -2.22499990         2.74898536E-19
  -2.10999990         3.28151545E-19
  -1.99500000         3.61474412E-19
  -1.88000000         3.65943230E-19
  -1.76499999         3.33435755E-19
  -1.64999998         2.57772330E-19
  -1.53499997         1.35941537E-19
  -1.41999996        -3.07102273E-20
  -1.30499995        -2.35473324E-19
  -1.19000006        -4.65618829E-19
  -1.07500005        -7.02257263E-19
 -0.959999979        -9.20859954E-19
 -0.845000029        -1.09255122E-18
 -0.730000019        -1.18621536E-18
 -0.615000010        -1.17138246E-18
 -0.500000000        -1.02175820E-18
 -0.384999990        -7.19159251E-19
 -0.270000011        -2.57516317E-19
 -0.155000001         3.53480280E-19
  -3.99999991E-02     1.08557043E-18
   7.50000030E-02     1.89044229E-18
  0.189999998         2.70003415E-18
  0.305000007         3.42897755E-18
  0.419999987         3.97938436E-18
  0.535000026         4.24796825E-18
  0.649999976         4.13524049E-18
  0.764999986         3.55624012E-18
  0.879999995         2.45199763E-18
  0.995000005         8.00683433E-19
   1.11000001        -1.37276682E-18
   1.22500002        -3.98983786E-18
   1.34000003        -6.91565551E-18
   1.45500004        -9.96128530E-18
   1.57000005        -1.28918009E-17
   1.68499994        -1.54403452E-17
   1.79999995        -1.73278341E-17
   1.91499996        -1.82873057E-17
   2.02999997        -1.80912573E-17
   2.14499998        -1.65797667E-17
   2.25999999        -1.36867223E-17
   2.37500000        -9.46123808E-18
   2.49000001        -4.08139972E-18
   2.60500002         2.14224559E-18
   2.72000003         8.77536142E-18
   2.83500004         1.52816523E-17
   2.95000005         2.10576990E-17
   3.06500006         2.54792953E-17
   3.18000007         2.79564515E-17
   3.29500008         2.79930095E-17
   3.41000009         2.52457260E-17
   3.52500010         1.95771582E-17
   3.64000010         1.10963864E-17
   3.75500011         1.82205969E-19
   3.86999989        -1.25157663E-17
   3.98499990        -2.61009100E-17
   4.09999990        -3.94792561E-17
   4.21500015        -5.14334585E-17
   4.32999992        -6.07171348E-17
   4.44500017        -6.61632457E-17
   4.55999994        -6.67980439E-17
   4.67500019        -6.19508516E-17
   4.78999996        -5.13489835E-17
   4.90500021        -3.51875618E-17
   5.01999998        -1.41650428E-17
   5.13500023         1.05225447E-17
   5.25000000         3.72326534E-17
   5.36499977         6.39729442E-17
   5.48000002         8.85400628E-17
   5.59499979         1.08692697E-16
   5.71000004         1.22347689E-16
   5.82499981         1.27784568E-16
   5.94000006         1.23842080E-16
   6.05499983         1.10089229E-16
   6.17000008         8.69540929E-17
   6.28499985         5.57954234E-17
   6.40000010         1.89053717E-17
   6.51499987        -2.05635314E-17
   6.63000011        -5.87491266E-17
   6.74499989        -9.13040306E-17
   6.86000013        -1.13683362E-16
   6.97499990        -1.21480473E-16
   7.09000015        -1.10790301E-16
   7.20499992        -7.85762223E-17
   7.32000017        -2.30148596E-17
   7.43499994         5.62078160E-17
   7.55000019         1.57673357E-16
   7.66499996         2.78102384E-16
   7.78000021         4.12336750E-16
   7.89499998         5.53442646E-16
   8.01000023         6.92937272E-16
   8.12500000         8.21133486E-16
   8.23999977         9.27589592E-16
   8.35499954         1.00164378E-15
   8.47000027         1.03300581E-15
   8.58500004         1.01237494E-15
   8.69999981         9.32048056E-16
   8.81499958         7.86483644E-16
   8.93000031         5.72786231E-16
   9.04500008         2.91081681E-16
   9.15999985        -5.52430289E-17
   9.27499962        -4.59450576E-16
   9.39000034        -9.11525824E-16
   9.50500011        -1.39840724E-15
   9.61999989        -1.90436808E-15
   9.73499966        -2.41152821E-15
   9.85000038        -2.90047205E-15
   9.96500015        -3.35093603E-15
   10.0799999        -3.74253800E-15
   10.1949997        -4.05550905E-15
   10.3100004        -4.27139572E-15
   10.4250002        -4.37370545E-15
   10.5400000        -4.34847191E-15
   10.6549997        -4.18472731E-15
   10.7700005        -3.87487631E-15
   10.8850002        -3.41496812E-15
   11.0000000        -2.80488227E-15
   11.1149998        -2.04843399E-15
   11.2299995        -1.15341758E-15
   11.3450003        -1.31597011E-16
   11.4600000         1.00134244E-15
   11.5749998         2.22588252E-15
   11.6899996         3.51880187E-15
   11.8050003         4.85336496E-15
   11.9200001         6.19958745E-15
   12.0349998         7.52460872E-15
   12.1499996         8.79320827E-15
   12.2650003         9.96849189E-15
   12.3800001         1.10127751E-14
   12.4949999         1.18886978E-14
   12.6099997         1.25605474E-14
   12.7250004         1.29958097E-14
   12.8400002         1.31668858E-14
   12.9549999         1.30529234E-14
   13.0699997         1.26416923E-14
   13.1850004         1.19313891E-14
   13.3000002         1.09322646E-14
   13.4150000         9.66794004E-15
   13.5299997         8.17626843E-15
   13.6450005         6.50964683E-15
   13.7600002         4.73465159E-15
   13.8750000         2.93092034E-15
   13.9899998         1.18922716E-15
   14.1049995        -3.91227472E-16
   14.2200003        -1.70630351E-15
   14.3350000        -2.65107781E-15
   14.4499998        -3.12451841E-15
   14.5649996        -3.03450231E-15
   14.6800003        -2.30294176E-15
   14.7950001        -8.70752570E-16
   14.9099998         1.29760238E-15
   15.0249996         4.21029415E-15
   15.1400003         7.84529708E-15
   15.2550001         1.21487683E-14
   15.3699999         1.70349066E-14
   15.4849997         2.23873281E-14
   15.6000004         2.80621558E-14
   15.7150002         3.38926681E-14
   15.8299999         3.96955418E-14
   15.9449997         4.52783834E-14
   16.0599995         5.04483167E-14
   16.1749992         5.50213324E-14
   16.2900009         5.88318185E-14
   16.4050007         6.17419256E-14
   16.5200005         6.36502163E-14
   16.6350002         6.44990314E-14
   16.7500000         6.42803207E-14
   16.8649998         6.30391599E-14
   16.9799995         6.08749501E-14
   17.0949993         5.79398793E-14
   17.2099991         5.44345588E-14
   17.3250008         5.06009419E-14
   17.4400005         4.67125694E-14
   17.5550003         4.30626807E-14
   17.6700001         3.99504479E-14
   17.7849998         3.76660678E-14
   17.8999996         3.64753597E-14
   18.0149994         3.66046406E-14
   18.1299992         3.82267155E-14
   18.2450008         4.14486696E-14
   18.3600006         4.63022903E-14
   18.4750004         5.27377113E-14
   18.5900002         6.06208334E-14
   18.7049999         6.97347250E-14
   18.8199997         7.97854079E-14
   18.9349995         9.04115514E-14
   19.0499992         1.01198231E-13
   19.1650009         1.11693898E-13
   19.2800007         1.21430088E-13
   19.3950005         1.29942837E-13
   19.5100002         1.36795008E-13
   19.6250000         1.41598145E-13
   19.7399998         1.44033101E-13
   19.8549995         1.43868085E-13
   19.9699993         1.40973360E-13
   20.0849991         1.35331443E-13
   20.2000008         1.27042379E-13
   20.3150005         1.16323658E-13
   20.4300003         1.03504289E-13
   20.5450001         8.90135811E-14
   20.6599998         7.33644441E-14
   20.7749996         5.71323587E-14
   20.8899994         4.09305124E-14
   21.0049992         2.53824959E-14
   21.1200008         1.10934152E-14
   21.2350006        -1.37877630E-15
   21.3500004        -1.15507376E-14
   21.4650002        -1.90384478E-14
   21.5799999        -2.35779431E-14
   21.6949997        -2.50410434E-14
   21.8099995        -2.34451317E-14
   21.9249992        -1.89564296E-14
   22.0400009        -1.18864904E-14
   22.1550007        -2.68186217E-15
   22.2700005         8.09270779E-15
   22.3850002         1.97767387E-14
   22.5000000         3.16413765E-14
   22.6149998         4.29203758E-14
   22.7299995         5.28431330E-14
   22.8449993         6.06685112E-14
   22.9599991         6.57177153E-14
   23.0750008         6.74046051E-14
   23.1900005         6.52620861E-14
   23.3050003         5.89630138E-14
   23.4200001         4.83350441E-14
   23.5349998         3.33680091E-14
   23.6499996         1.42137329E-14
   23.7649994        -8.82183290E-15
   23.8799992        -3.52937589E-14
   23.9950008        -6.46406485E-14
   24.1100006        -9.62124125E-14
   24.2250004        -1.29302968E-13
   24.3400002        -1.63186644E-13
   24.4549999        -1.97154982E-13
   24.5699997        -2.30554643E-13
   24.6849995        -2.62823238E-13
   24.7999992        -2.93521013E-13
   24.9150009        -3.22358188E-13
   25.0300007        -3.49216017E-13
   25.1450005        -3.74160338E-13
   25.2600002        -3.97447239E-13
   25.3750000        -4.19520755E-13
   25.4899998        -4.41002297E-13
   25.6049995        -4.62671947E-13
   25.7199993        -4.85442253E-13
   25.8349991        -5.10326590E-13
   25.9500008        -5.38401572E-13
   26.0650005        -5.70767446E-13
   26.1800003        -6.08504675E-13
   26.2950001        -6.52631161E-13
   26.4099998        -7.04061700E-13
   26.5249996        -7.63569167E-13
   26.6399994        -8.31751118E-13
   26.7549992        -9.09001498E-13
   26.8700008        -9.95490799E-13
   26.9850006        -1.09115364E-12
   27.1000004        -1.19568288E-12
   27.2150002        -1.30853661E-12
   27.3299999        -1.42894952E-12
   27.4449997        -1.55595491E-12
   27.5599995        -1.68841330E-12
   27.6749992        -1.82504923E-12
   27.7900009        -1.96449042E-12
   27.9050007        -2.10531310E-12
   28.0200005        -2.24608873E-12
   28.1350002        -2.38543278E-12
   28.2500000        -2.52204963E-12
   28.3649998        -2.65477787E-12
   28.4799995        -2.78262894E-12
   28.5949993        -2.90482265E-12
   28.7099991        -3.02081082E-12
   28.8250008        -3.13029962E-12
   28.9400005        -3.23325524E-12
   29.0550003        -3.32990883E-12
   29.1700001        -3.42074459E-12
   29.2849998        -3.50648243E-12
   29.3999996        -3.58805108E-12
   29.5149994        -3.66655100E-12
   29.6299992        -3.74321667E-12
   29.7450008        -3.81936496E-12
   29.8600006        -3.89634852E-12
   29.9750004        -3.97549571E-12
   30.0900002        -4.05806205E-12
   30.2049999        -4.14517249E-12
   30.3199997        -4.23777680E-12
   30.4349995        -4.33659922E-12
   30.5499992        -4.44210684E-12
   30.6650009        -4.55447529E-12
   30.7800007        -4.67357056E-12
   30.8950005        -4.79893425E-12
   31.0100002        -4.92978965E-12
   31.1250000        -5.06504257E-12
   31.2399998        -5.20330610E-12
   31.3549995        -5.34292922E-12
   31.4699993        -5.48203019E-12
   31.5849991        -5.61854382E-12
   31.7000008        -5.75027005E-12
   31.8150005        -5.87492988E-12
   31.9300003        -5.99021570E-12
   32.0449982        -6.09385285E-12
   32.1599998        -6.18365428E-12
   32.2750015        -6.25757128E-12
   32.3899994        -6.31374076E-12
   32.5050011        -6.35052991E-12
   32.6199989        -6.36656569E-12
   32.7350006        -6.36076521E-12
   32.8499985        -6.33235044E-12
   32.9650002        -6.28085561E-12
   33.0800018        -6.20612806E-12
   33.1949997        -6.10831351E-12
   33.3100014        -5.98783870E-12
   33.4249992        -5.84537887E-12
   33.5400009        -5.68182307E-12
   33.6549988        -5.49822948E-12
   33.7700005        -5.29577120E-12
   33.8849983        -5.07568466E-12
   34.0000000        -4.83921020E-12
   34.1150017        -4.58753174E-12
   34.2299995        -4.32171486E-12
   34.3450012        -4.04265293E-12
   34.4599991        -3.75101556E-12
   34.5750008        -3.44719218E-12
   34.6899986        -3.13126044E-12
   34.8050003        -2.80295080E-12
   34.9199982        -2.46162487E-12
   35.0349998        -2.10626742E-12
   35.1500015        -1.73548600E-12
   35.2649994        -1.34753016E-12
   35.3800011        -9.40318461E-13
   35.4949989        -5.11480506E-13
   35.6100006        -5.84176533E-14
   35.7249985         4.21632130E-13
   35.8400002         9.31513872E-13
   35.9550018         1.47406870E-12
   36.0699997         2.05203714E-12
   36.1850014         2.66795895E-12
   36.2999992         3.32407452E-12
   36.4150009         4.02222439E-12
   36.5299988         4.76375319E-12
   36.6450005         5.54942984E-12
   36.7599983         6.37937272E-12
   36.8750000         7.25300072E-12
   36.9900017         8.16899499E-12
   37.1049995         9.12528473E-12
   37.2200012         1.01190584E-11
   37.3349991         1.11468022E-11
   37.4500008         1.22043582E-11
   37.5649986         1.32870147E-11
   37.6800003         1.43896110E-11
   37.7949982         1.55066723E-11
   37.9099998         1.66325564E-11
   38.0250015         1.77616151E-11
   38.1399994         1.88883614E-11
   38.2550011         2.00076327E-11
   38.3699989         2.11147540E-11
   38.4850006         2.22056765E-11
   38.5999985         2.32771163E-11
   38.7150002         2.43266345E-11
   38.8300018         2.53527165E-11
   38.9449997         2.63548159E-11
   39.0600014         2.73333283E-11
   39.1749992         2.82895703E-11
   39.2900009         2.92256740E-11
   39.4049988         3.01444841E-11
   39.5200005         3.10493541E-11
   39.6349983         3.19440203E-11
   39.7500000         3.28323375E-11
   39.8650017         3.37180700E-11
   39.9799995         3.46046525E-11
   40.0950012         3.54949750E-11
   40.2099991         3.63911401E-11
   40.3250008         3.72942927E-11
   40.4399986         3.82044223E-11
   40.5550003         3.91202487E-11
   40.6699982         4.00391491E-11
   40.7849998         4.09571196E-11
   40.9000015         4.18687723E-11
   41.0149994         4.27674320E-11
   41.1300011         4.36452575E-11
   41.2449989         4.44933743E-11
   41.3600006         4.53021370E-11
   41.4749985         4.60613249E-11
   41.5900002         4.67604323E-11
   41.7050018         4.73889469E-11
   41.8199997         4.79366130E-11
   41.9350014         4.83937439E-11
   42.0499992         4.87514300E-11
   42.1650009         4.90018130E-11
   42.2799988         4.91382490E-11
   42.3950005         4.91554505E-11
   42.5099983         4.90495942E-11
   42.6250000         4.88183764E-11
   42.7400017         4.84609575E-11
   42.8549995         4.79779896E-11
   42.9700012         4.73714262E-11
   43.0849991         4.66443932E-11
   43.2000008         4.58010505E-11
   43.3149986         4.48463489E-11
   43.4300003         4.37857979E-11
   43.5449982         4.26252610E-11
   43.6599998         4.13707020E-11
   43.7750015         4.00279775E-11
   43.8899994         3.86026211E-11
   44.0050011         3.70996879E-11
   44.1199989         3.55236084E-11
   44.2350006         3.38780774E-11
   44.3499985         3.21659852E-11
   44.4650002         3.03893820E-11
   44.5800018         2.85495030E-11
   44.6949997         2.66467525E-11
   44.8100014         2.46808372E-11
   44.9249992         2.26508083E-11
   45.0400009         2.05551808E-11
   45.1549988         1.83920396E-11
   45.2700005         1.61591730E-11
   45.3849983         1.38541739E-11
   45.5000000         1.14745522E-11
   45.6150017         9.01783336E-12
   45.7299995         6.48164508E-12
   45.8450012         3.86378386E-12
   45.9599991         1.16227416E-12
   46.0750008        -1.62462752E-12
   46.1899986        -4.49839688E-12
   46.3050003        -7.46023729E-12
   46.4199982        -1.05110972E-11
   46.5349998        -1.36516735E-11
   46.6500015        -1.68824416E-11
   46.7649994        -2.02036443E-11
   46.8800011        -2.36153146E-11
   46.9949989        -2.71172442E-11
   47.1100006        -3.07089978E-11
   47.2249985        -3.43898451E-11
   47.3400002        -3.81587435E-11
   47.4550018        -4.20142497E-11
   47.5699997        -4.59544659E-11
   47.6850014        -4.99769531E-11
   47.7999992        -5.40786339E-11
   47.9150009        -5.82557266E-11
   48.0299988        -6.25036412E-11
   48.1450005        -6.68169339E-11
   48.2599983        -7.11892212E-11
   48.3750000        -7.56131477E-11
   48.4900017        -8.00803937E-11
   48.6049995        -8.45816542E-11
   48.7200012        -8.91067151E-11
   48.8349991        -9.36445019E-11
   48.9500008        -9.81831769E-11
   49.0649986        -1.02710292E-10
   49.1800003        -1.07212905E-10
   49.2949982        -1.11677792E-10
   49.4099998        -1.16091588E-10
   49.5250015        -1.20441018E-10
   49.6399994        -1.24713032E-10
   49.7550011        -1.28895089E-10
   49.8699989        -1.32975200E-10
   49.9850006        -1.36942249E-10
   50.0999985        -1.40785980E-10
   50.2150002        -1.44497178E-10
   50.3300018        -1.48067697E-10
   50.4449997        -1.51490556E-10
   50.5600014        -1.54759885E-10
   50.6749992        -1.57870925E-10
   50.7900009        -1.60819927E-10
   50.9049988        -1.63604075E-10
   51.0200005        -1.66221342E-10
   51.1349983        -1.68670314E-10
   51.2500000        -1.70950046E-10
   51.3650017        -1.73059858E-10
   51.4799995        -1.74999112E-10
   51.5950012        -1.76767101E-10
   51.7099991        -1.78362783E-10
   51.8250008        -1.79784659E-10
   51.9399986        -1.81030579E-10
   52.0550003        -1.82097670E-10
   52.1699982        -1.82982227E-10
   52.2849998        -1.83679669E-10
   52.4000015        -1.84184487E-10
   52.5149994        -1.84490298E-10
   52.6300011        -1.84589899E-10
   52.7449989        -1.84475352E-10
   52.8600006        -1.84138135E-10
   52.9749985        -1.83569299E-10
   53.0900002        -1.82759627E-10
   53.2050018        -1.81699961E-10
   53.3199997        -1.80381279E-10
   53.4350014        -1.78794979E-10
   53.5499992        -1.76933149E-10
   53.6650009        -1.74788711E-10
   53.7799988        -1.72355616E-10
   53.8950005        -1.69628978E-10
   54.0099983        -1.66605257E-10
   54.1250000        -1.63282290E-10
   54.2400017        -1.59659258E-10
   54.3549995        -1.55736715E-10
   54.4700012        -1.51516466E-10
   54.5849991        -1.47001467E-10
   54.7000008        -1.42195561E-10
   54.8149986        -1.37103273E-10
   54.9300003        -1.31729599E-10
   55.0449982        -1.26079563E-10
   55.1599998        -1.20158009E-10
   55.2750015        -1.13969188E-10
   55.3899994        -1.07516475E-10
   55.5050011        -1.00802110E-10
   55.6199989        -9.38268699E-11
   55.7350006        -8.65899089E-11
   55.8499985        -7.90886245E-11
   55.9650002        -7.13184997E-11
   56.0800018        -6.32731506E-11
   56.1949997        -5.49443893E-11
   56.3100014        -4.63223557E-11
   56.4249992        -3.73957323E-11
   56.5400009        -2.81520623E-11
   56.6549988        -1.85780644E-11
   56.7700005        -8.66007526E-12
   56.8849983         1.61546959E-12
   57.0000000         1.22615902E-11
   57.1150017         2.32902222E-11
   57.2299995         3.47117647E-11
   57.3450012         4.65345956E-11
   57.4599991         5.87645904E-11
   57.5750008         7.14047779E-11
   57.6899986         8.44549708E-11
   57.8050003         9.79115747E-11
   57.9199982         1.11767332E-10
   58.0349998         1.26011299E-10
   58.1500015         1.40628842E-10
   58.2649994         1.55601698E-10
   58.3800011         1.70908232E-10
   58.4949989         1.86523630E-10
   58.6100006         2.02420344E-10
   58.7249985         2.18568455E-10
   58.8400002         2.34936237E-10
   58.9550018         2.51490551E-10
   59.0699997         2.68197492E-10
   59.1850014         2.85022894E-10
   59.2999992         3.01932923E-10
   59.4150009         3.18894577E-10
   59.5299988         3.35876077E-10
   59.6450005         3.52847390E-10
   59.7599983         3.69780595E-10
   59.8750000         3.86650018E-10
   59.9900017         4.03432621E-10
   60.1049995         4.20107976E-10
   60.2200012         4.36658404E-10
   60.3349991         4.53068805E-10
   60.4500008         4.69326522E-10
   60.5649986         4.85421203E-10
   60.6800003         5.01344299E-10
   60.7949982         5.17088983E-10
   60.9099998         5.32649369E-10
   61.0250015         5.48020407E-10
   61.1399994         5.63197267E-10
   61.2550011         5.78174841E-10
   61.3699989         5.92947358E-10
   61.4850006         6.07507877E-10
   61.5999985         6.21847962E-10
   61.7150002         6.35957231E-10
   61.8300018         6.49823140E-10
   61.9449997         6.63430588E-10
   62.0600014         6.76761924E-10
   62.1749992         6.89796664E-10
   62.2900009         7.02511715E-10
   62.4049988         7.14881043E-10
   62.5200005         7.26876059E-10
   62.6349983         7.38465789E-10
   62.7500000         7.49616980E-10
   62.8650017         7.60294550E-10
   62.9799995         7.70461750E-10
   63.0950012         7.80080556E-10
   63.2099991         7.89112053E-10
   63.3250008         7.97516775E-10
   63.4399986         8.05254974E-10
   63.5550003         8.12287071E-10
   63.6699982         8.18573986E-10
   63.7849998         8.24077473E-10
   63.9000015         8.28760172E-10
   64.0149994         8.32585945E-10
   64.1299973         8.35520042E-10
   64.2450027         8.37529157E-10
   64.3600006         8.38581315E-10
   64.4749985         8.38645764E-10
   64.5899963         8.37693415E-10
   64.7050018         8.35696456E-10
   64.8199997         8.32628466E-10
   64.9349976         8.28463909E-10
   65.0500031         8.23178359E-10
   65.1650009         8.16748003E-10
   65.2799988         8.09150025E-10
   65.3949966         8.00361832E-10
   65.5100021         7.90361443E-10
   65.6250000         7.79127096E-10
   65.7399979         7.66637365E-10
   65.8550034         7.52871043E-10
   65.9700012         7.37807315E-10
   66.0849991         7.21425308E-10
   66.1999969         7.03704595E-10
   66.3150024         6.84624912E-10
   66.4300003         6.64166222E-10
   66.5449982         6.42309095E-10
   66.6600037         6.19034712E-10
   66.7750015         5.94324701E-10
   66.8899994         5.68161074E-10
   67.0049973         5.40526901E-10
   67.1200027         5.11405640E-10
   67.2350006         4.80781914E-10
   67.3499985         4.48641291E-10
   67.4649963         4.14970558E-10
   67.5800018         3.79757864E-10
   67.6949997         3.42993134E-10
   67.8099976         3.04668346E-10
   67.9250031         2.64777561E-10
   68.0400009         2.23317795E-10
   68.1549988         1.80288937E-10
   68.2699966         1.35694234E-10
   68.3850021         8.95413119E-11
   68.5000000         4.18420298E-11
   68.6149979        -7.38670757E-12
   68.7300034        -5.81225484E-11
   68.8450012        -1.10337538E-10
   68.9599991        -1.63997621E-10
   69.0749969        -2.19062449E-10
   69.1900024        -2.75485551E-10
   69.3050003        -3.33214345E-10
   69.4199982        -3.92190447E-10
   69.5350037        -4.52349852E-10
   69.6500015        -5.13623977E-10
   69.7649994        -5.75939851E-10
   69.8799973        -6.39221620E-10
   69.9950027        -7.03391123E-10
   70.1100006        -7.68369091E-10
   70.2249985        -8.34076364E-10
   70.3399963        -9.00434782E-10
   70.4550018        -9.67368963E-10
   70.5699997        -1.03480680E-09
   70.6849976        -1.10268061E-09
   70.8000031        -1.17092802E-09
   70.9150009        -1.23949218E-09
   71.0299988        -1.30832256E-09
   71.1449966        -1.37737488E-09
   71.2600021        -1.44661072E-09
   71.3750000        -1.51599744E-09
   71.4899979        -1.58550728E-09
   71.6050034        -1.65511616E-09
   71.7200012        -1.72480319E-09
   71.8349991        -1.79454829E-09
   71.9499969        -1.86433180E-09
   72.0650024        -1.93413197E-09
   72.1800003        -2.00392458E-09
   72.2949982        -2.07367967E-09
   72.4100037        -2.14336215E-09
   72.5250015        -2.21292851E-09
   72.6399994        -2.28232699E-09
   72.7549973        -2.35149566E-09
   72.8700027        -2.42036302E-09
   72.9850006        -2.48884580E-09
   73.0999985        -2.55684984E-09
   73.2149963        -2.62427036E-09
   73.3300018        -2.69099187E-09
   73.4449997        -2.75688916E-09
   73.5599976        -2.82182855E-09
   73.6750031        -2.88566748E-09
   73.7900009        -2.94825653E-09
   73.9049988        -3.00944025E-09
   74.0199966        -3.06905856E-09
   74.1350021        -3.12694781E-09