  -18.8999996        -0.00000000    
  -18.7849998        -0.00000000    
  -18.6700001        -0.00000000    
  -18.5550003        -0.00000000    
  -18.4400005        -0.00000000    
  -18.3250008        -0.00000000    
  -18.2099991        -0.00000000    
  -18.0949993        -0.00000000    
  -17.9799995        -0.00000000    
  -17.8649998        -0.00000000    
  -17.7500000        -0.00000000    
  -17.6350002        -0.00000000    
  -17.5200005        -0.00000000    
  -17.4050007        -0.00000000    
  -17.2900009        -0.00000000    
  -17.1749992        -0.00000000    
  -17.0599995        -0.00000000    
  -16.9449997        -0.00000000    
  -16.8299999        -0.00000000    
  -16.7150002        -0.00000000    
  -16.6000004        -0.00000000    
  -16.4850006        -0.00000000    
  -16.3700008        -0.00000000    
  -16.2549992        -0.00000000    
  -16.1399994        -0.00000000    
  -16.0249996         2.54727077E-34
  -15.9099998         1.46116556E-33
  -15.7950001        -3.02999079E-33
  -15.6800003         1.10862894E-31
  -15.5649996         1.54038919E-31
  -15.4499998         6.65381818E-32
  -15.3350000        -1.00427525E-31
  -15.2200003        -6.44959332E-31
  -15.1049995        -1.63012535E-30
  -14.9899998        -3.10658349E-30
  -14.8750000        -5.05856634E-30
  -14.7600002        -7.05893348E-30
  -14.6450005        -8.22735380E-30
  -14.5299997        -7.00031299E-30
  -14.4150000        -5.86239533E-31
  -14.3000002         1.42581740E-29
  -14.1850004         4.15396006E-29
  -14.0699997         8.44730448E-29
  -13.9549999         1.43936782E-28
  -13.8400002         2.15662048E-28
  -13.7250004         2.87258614E-28
  -13.6099997         3.35015995E-28
  -13.4949999         3.22271250E-28
  -13.3800001         1.99623806E-28
  -13.2650003        -8.94903029E-29
  -13.1499996        -5.97679329E-28
  -13.0349998        -1.35520015E-27
  -12.9200001        -2.34597681E-27
  -12.8050003        -3.48054637E-27
  -12.6899996        -4.57177019E-27
  -12.5749998        -5.32145498E-27
  -12.4600000        -5.32718617E-27
  -12.3450003        -4.11815591E-27
  -12.2299995        -1.22523985E-27
  -12.1149998         3.71532763E-27
  -12.0000000         1.08342203E-26
  -11.8850002         1.98958224E-26
  -11.7700005         3.01859967E-26
  -11.6549997         4.04506302E-26
  -11.5400000         4.89109847E-26
  -11.4250002         5.33703476E-26
  -11.3100004         5.14075384E-26
  -11.1949997         4.06307216E-26
  -11.0799999         1.89465592E-26
  -10.9650002        -1.52063601E-26
  -10.8500004        -6.26985415E-26
  -10.7349997        -1.23623650E-25
  -10.6199999        -1.97226394E-25
  -10.5050001        -2.81713594E-25
  -10.3900003        -3.73762741E-25
  -10.2749996        -4.67530791E-25
  -10.1599998        -5.53026500E-25
  -10.0450001        -6.13891852E-25
  -9.93000031        -6.24900899E-25
  -9.81499958        -5.49882199E-25
  -9.69999981        -3.41136095E-25
  -9.58500004         5.82329232E-26
  -9.47000027         7.07573276E-25
  -9.35499954         1.65625646E-24
  -9.23999977         2.92505758E-24
  -9.12500000         4.48209309E-24
  -9.01000023         6.21580899E-24
  -8.89500046         7.90960932E-24
  -8.77999973         9.22465544E-24
  -8.66499996         9.69889810E-24
  -8.55000019         8.77080009E-24
  -8.43500042         5.83490435E-24
  -8.31999969         3.33361772E-25
  -8.20499992        -8.11805082E-24
  -8.09000015        -1.95780777E-23
  -7.97499990        -3.36192386E-23
  -7.86000013        -4.91837735E-23
  -7.74499989        -6.44883819E-23
  -7.63000011        -7.70133978E-23
  -7.51499987        -8.36099537E-23
  -7.40000010        -8.07509703E-23
  -7.28499985        -6.49360005E-23
  -7.17000008        -3.32383261E-23
  -7.05499983         1.60438562E-23
  -6.94000006         8.26994063E-23
  -6.82499981         1.63971315E-22
  -6.71000004         2.54092981E-22
  -6.59499979         3.44111754E-22
  -6.48000002         4.22112402E-22
  -6.36499977         4.73923297E-22
  -6.25000000         4.84341815E-22
  -6.13500023         4.38853343E-22
  -6.01999998         3.25734476E-22
  -5.90500021         1.38364575E-22
  -5.78999996        -1.22523818E-22
  -5.67500019        -4.46964398E-22
  -5.55999994        -8.14591655E-22
  -5.44500017        -1.19451908E-21
  -5.32999992        -1.54652927E-21
  -5.21500015        -1.82373191E-21
  -5.09999990        -1.97669893E-21
  -4.98500013        -1.95888082E-21
  -4.86999989        -1.73291612E-21
  -4.75500011        -1.27724320E-21
  -4.63999987        -5.92237741E-22
  -4.52500010         2.94958854E-22
  -4.40999985         1.32782895E-21
  -4.29500008         2.42083857E-21
  -4.17999983         3.46336484E-21
  -4.06500006         4.32739861E-21
  -3.95000005         4.87887927E-21
  -3.83500004         4.99196068E-21
  -3.72000003         4.56509509E-21
  -3.60500002         3.53734984E-21
  -3.49000001         1.90302836E-21
  -3.37500000        -2.77350620E-22
  -3.25999999        -2.87169987E-21
  -3.14499998        -5.67817162E-21
  -3.02999997        -8.43508786E-21
  -2.91499996        -1.08391025E-20
  -2.79999995        -1.25708229E-20
  -2.68499994        -1.33259540E-20
  -2.56999993        -1.28493412E-20
  -2.45499992        -1.09683180E-20
  -2.33999991        -7.62162762E-21
  -2.22499990        -2.88010355E-21
  -2.10999990         3.04419429E-21
  -1.99500000         9.80255151E-21
  -1.88000000         1.69287989E-20
  -1.76499999         2.38724955E-20
  -1.64999998         3.00434842E-20
  -1.53499997         3.48641054E-20
  -1.41999996         3.78238287E-20
  -1.30499995         3.85308420E-20
  -1.19000006         3.67550273E-20
  -1.07500005         3.24579727E-20
 -0.959999979         2.58068670E-20
 -0.845000029         1.71720304E-20
 -0.730000019         7.10882250E-21
 -0.615000010        -3.67136360E-21
 -0.500000000        -1.43364601E-20
 -0.384999990        -2.39689380E-20
 -0.270000011        -3.15959245E-20
 -0.155000001        -3.62100510E-20
  -3.99999991E-02    -3.67823566E-20
   7.50000030E-02    -3.22697891E-20
  0.189999998        -2.16276420E-20
  0.305000007        -3.84038471E-21
  0.419999987         2.20135767E-20
  0.535000026         5.66437321E-20
  0.649999976         1.00362147E-19
  0.764999986         1.52820726E-19
  0.879999995         2.12671716E-19
  0.995000005         2.77166639E-19
   1.11000001         3.41724958E-19
   1.22500002         3.99519887E-19
   1.34000003         4.41149948E-19
   1.45500004         4.54474277E-19
   1.57000005         4.24696550E-19
   1.68499994         3.34780725E-19
   1.79999995         1.66268137E-19
   1.91499996        -9.94608172E-20
   2.02999997        -4.79492406E-19
   2.14499998        -9.87285453E-19
   2.25999999        -1.63031074E-18
   2.37500000        -2.40758465E-18
   2.49000001        -3.30733775E-18
   2.60500002        -4.30510244E-18
   2.72000003        -5.36252630E-18
   2.83500004        -6.42722148E-18
   2.95000005        -7.43392345E-18
   3.06500006        -8.30715900E-18
   3.18000007        -8.96551701E-18
   3.29500008        -9.32744906E-18
   3.41000009        -9.31840549E-18
   3.52500010        -8.87885578E-18
   3.64000010        -7.97263971E-18
   3.75500011        -6.59488065E-18
   3.86999989        -4.77864308E-18
   3.98499990        -2.59941135E-18
   4.09999990        -1.76592954E-19
   4.21500015         2.32872663E-18
   4.32999992         4.72018705E-18
   4.44500017         6.77692780E-18
   4.55999994         8.26845935E-18
   4.67500019         8.97300961E-18
   4.78999996         8.69818547E-18
   4.90500021         7.30249355E-18
   5.01999998         4.71585800E-18
   5.13500023         9.57127171E-19
   5.25000000        -3.85352635E-18
   5.36499977        -9.48912234E-18
   5.48000002        -1.56189633E-17
   5.59499979        -2.18211073E-17
   5.71000004        -2.76046350E-17
   5.82499981        -3.24410707E-17
   5.94000006        -3.58033349E-17
   6.05499983        -3.72100846E-17
   6.17000008        -3.62721445E-17
   6.28499985        -3.27373106E-17
   6.40000010        -2.65296542E-17
   6.51499987        -1.77791885E-17
   6.63000011        -6.83830047E-18
   6.74499989         5.71803529E-18
   6.86000013         1.91098508E-17
   6.97499990         3.23885050E-17
   7.09000015         4.44903989E-17
   7.20499992         5.43058597E-17
   7.32000017         6.07590166E-17
   7.43499994         6.28937514E-17
   7.55000019         5.99591793E-17
   7.66499996         5.14886381E-17
   7.78000021         3.73651512E-17
   7.89499998         1.78677663E-17
   8.01000023        -6.30621985E-18
   8.12500000        -3.40462643E-17
   8.23999977        -6.38623865E-17
   8.35499954        -9.39465815E-17
   8.47000027        -1.22259134E-16
   8.58500004        -1.46634784E-16
   8.69999981        -1.64902637E-16
   8.81499958        -1.75010506E-16
   8.93000031        -1.75146733E-16
   9.04500008        -1.63850675E-16
   9.15999985        -1.40103260E-16
   9.27499962        -1.03392733E-16
   9.39000034        -5.37504212E-17
   9.50500011         8.24548524E-18
   9.61999989         8.14976522E-17
   9.73499966         1.64444220E-16
   9.85000038         2.55138420E-16
   9.96500015         3.51341855E-16
   10.0799999         4.50626292E-16
   10.1949997         5.50473583E-16
   10.3100004         6.48365499E-16
   10.4250002         7.41856019E-16
   10.5400000         8.28620304E-16
   10.6549997         9.06479625E-16
   10.7700005         9.73399040E-16
   10.8850002         1.02746378E-15
   11.0000000         1.06683927E-15
   11.1149998         1.08972250E-15
   11.2299995         1.09429881E-15
   11.3450003         1.07871086E-15
   11.4600000         1.04105220E-15
   11.5749998         9.79400056E-16
   11.6899996         8.91884295E-16
   11.8050003         7.76805075E-16
   11.9200001         6.32793063E-16
   12.0349998         4.59005566E-16
   12.1499996         2.55349993E-16
   12.2650003         2.27128758E-17
   12.3800001        -2.36820989E-16
   12.4949999        -5.19786533E-16
   12.6099997        -8.21212365E-16
   12.7250004        -1.13458772E-15
   12.8400002        -1.45191961E-15
   12.9549999        -1.76391763E-15
   13.0699997        -2.06030325E-15
   13.1850004        -2.33023719E-15
   13.3000002        -2.56286780E-15
   13.4150000        -2.74796589E-15
   13.5299997        -2.87661367E-15
   13.6450005        -2.94191886E-15
   13.7600002        -2.93969264E-15
   13.8750000        -2.86905052E-15
   13.9899998        -2.73287345E-15
   14.1049995        -2.53809166E-15
   14.2200003        -2.29574770E-15
   14.3350000        -2.02079805E-15
   14.4499998        -1.73165700E-15
   14.5649996        -1.44946480E-15
   14.6800003        -1.19711844E-15
   14.7950001        -9.98084650E-16
   14.9099998        -8.75075455E-16
   15.0249996        -8.48630346E-16
   15.1400003        -9.35720261E-16
   15.2550001        -1.14843882E-15
   15.3699999        -1.49289493E-15
   15.4849997        -1.96835824E-15
   15.6000004        -2.56679888E-15
   15.7150002        -3.27280338E-15
   15.8299999        -4.06397048E-15
   15.9449997        -4.91177211E-15
   16.0599995        -5.78283666E-15
   16.1749992        -6.64065784E-15
   16.2900009        -7.44763629E-15
   16.4050007        -8.16734409E-15
   16.5200005        -8.76689434E-15
   16.6350002        -9.21927770E-15
   16.7500000        -9.50558500E-15
   16.8649998        -9.61685972E-15
   16.9799995        -9.55556164E-15
   17.0949993        -9.33647826E-15
   17.2099991        -8.98699247E-15
   17.3250008        -8.54669966E-15
   17.4400005        -8.06626935E-15
   17.5550003        -7.60572737E-15
   17.6700001        -7.23201982E-15
   17.7849998        -7.01611705E-15
   17.8999996        -7.02971616E-15
   18.0149994        -7.34170889E-15
   18.1299992        -8.01465539E-15
   18.2450008        -9.10131396E-15
   18.3600006        -1.06415282E-14
   18.4750004        -1.26596358E-14
   18.5900002        -1.51625216E-14
   18.7049999        -1.81384211E-14
   18.8199997        -2.15566294E-14
   18.9349995        -2.53681319E-14
   19.0499992        -2.95070737E-14
   19.1650009        -3.38932373E-14
   19.2800007        -3.84351601E-14
   19.3950005        -4.30339222E-14
   19.5100002        -4.75874426E-14
   19.6250000        -5.19949955E-14
   19.7399998        -5.61617200E-14
   19.8549995        -6.00030008E-14
   19.9699993        -6.34484259E-14
   20.0849991        -6.64450388E-14
   20.2000008        -6.89597847E-14
   20.3150005        -7.09810967E-14
   20.4300003        -7.25192137E-14
   20.5450001        -7.36055842E-14
   20.6599998        -7.42909694E-14
   20.7749996        -7.46425762E-14
   20.8899994        -7.47401883E-14
   21.0049992        -7.46716260E-14
   21.1200008        -7.45275017E-14
   21.2350006        -7.43957305E-14
   21.3500004        -7.43560148E-14
   21.4650002        -7.44745452E-14
   21.5799999        -7.47992231E-14
   21.6949997        -7.53556356E-14
   21.8099995        -7.61441352E-14
   21.9249992        -7.71379488E-14
   22.0400009        -7.82829137E-14
   22.1550007        -7.94982298E-14
   22.2700005        -8.06789667E-14
   22.3850002        -8.16997023E-14
   22.5000000        -8.24193957E-14
   22.6149998        -8.26872750E-14
   22.7299995        -8.23493631E-14
   22.8449993        -8.12555250E-14
   22.9599991        -7.92665562E-14
   23.0750008        -7.62608157E-14
   23.1900005        -7.21405899E-14
   23.3050003        -6.68370388E-14
   23.4200001        -6.03143972E-14
   23.5349998        -5.25721231E-14
   23.6499996        -4.36459476E-14
   23.7649994        -3.36067234E-14
   23.8799992        -2.25578223E-14
   23.9950008        -1.06305295E-14
   24.1100006         2.02163937E-15
   24.2250004         1.52302402E-14
   24.3400002         2.88201131E-14
   24.4549999         4.26180020E-14
   24.5699997         5.64613528E-14
   24.6849995         7.02070780E-14
   24.7999992         8.37395610E-14
   24.9150009         9.69776559E-14
   25.0300007         1.09880014E-13
   25.1450005         1.22449238E-13
   25.2600002         1.34733574E-13
   25.3750000         1.46827158E-13
   25.4899998         1.58868415E-13
   25.6049995         1.71035535E-13
   25.7199993         1.83541496E-13
   25.8349991         1.96627030E-13
   25.9500008         2.10552712E-13
   26.0650005         2.25590461E-13
   26.1800003         2.42013549E-13
   26.2950001         2.60088771E-13
   26.4099998         2.80068042E-13
   26.5249996         3.02180942E-13
   26.6399994         3.26628590E-13
   26.7549992         3.53579497E-13
   26.8700008         3.83166263E-13
   26.9850006         4.15485842E-13
   27.1000004         4.50600169E-13
   27.2150002         4.88538246E-13
   27.3299999         5.29300995E-13
   27.4449997         5.72866895E-13
   27.5599995         6.19199136E-13
   27.6749992         6.68253051E-13
   27.7900009         7.19984077E-13
   27.9050007         7.74355623E-13
   28.0200005         8.31346439E-13
   28.1350002         8.90956742E-13
   28.2500000         9.53216672E-13
   28.3649998         1.01818738E-12
   28.4799995         1.08596628E-12
   28.5949993         1.15668998E-12
   28.7099991         1.23053011E-12
   28.8250008         1.30769549E-12
   28.9400005         1.38842854E-12
   29.0550003         1.47299913E-12
   29.1700001         1.56170216E-12
   29.2849998         1.65484618E-12
   29.3999996         1.75275267E-12
   29.5149994         1.85574277E-12
   29.6299992         1.96413263E-12
   29.7450008         2.07822518E-12
   29.8600006         2.19830426E-12
   29.9750004         2.32462595E-12
   30.0900002         2.45741730E-12
   30.2049999         2.59686521E-12
   30.3199997         2.74311997E-12
   30.4349995         2.89628738E-12
   30.5499992         3.05643098E-12
   30.6650009         3.22357158E-12
   30.7800007         3.39768643E-12
   30.8950005         3.57871111E-12
   31.0100002         3.76654350E-12
   31.1250000         3.96104807E-12
   31.2399998         4.16205438E-12
   31.3549995         4.36936598E-12
   31.4699993         4.58275995E-12
   31.5849991         4.80199300E-12
   31.7000008         5.02680319E-12
   31.8150005         5.25691470E-12
   31.9300003         5.49203651E-12
   32.0449982         5.73186811E-12
   32.1599998         5.97609809E-12
   32.2750015         6.22440988E-12
   32.3899994         6.47647214E-12
   32.5050011         6.73195440E-12
   32.6199989         6.99051407E-12
   32.7350006         7.25180419E-12
   32.8499985         7.51547262E-12
   32.9650002         7.78116026E-12
   33.0800018         8.04850457E-12
   33.1949997         8.31714298E-12
   33.3100014         8.58670513E-12
   33.4249992         8.85682500E-12
   33.5400009         9.12713655E-12
   33.6549988         9.39727463E-12
   33.7700005         9.66687841E-12
   33.8849983         9.93559054E-12
   34.0000000         1.02030554E-11
   34.1150017         1.04689183E-11
   34.2299995         1.07328226E-11
   34.3450012         1.09944102E-11
   34.4599991         1.12533056E-11
   34.5750008         1.15091261E-11
   34.6899986         1.17614599E-11
   34.8050003         1.20098627E-11
   34.9199982         1.22538542E-11
   35.0349998         1.24929060E-11
   35.1500015         1.27264380E-11
   35.2649994         1.29538056E-11
   35.3800011         1.31743037E-11
   35.4949989         1.33871542E-11
   35.6100006         1.35915107E-11
   35.7249985         1.37864685E-11
   35.8400002         1.39710526E-11
   35.9550018         1.41442465E-11
   36.0699997         1.43049904E-11
   36.1850014         1.44521946E-11
   36.2999992         1.45847692E-11
   36.4150009         1.47016305E-11
   36.5299988         1.48017154E-11
   36.6450005         1.48840159E-11
   36.7599983         1.49475814E-11
   36.8750000         1.49915410E-11
   36.9900017         1.50151142E-11
   37.1049995         1.50176208E-11
   37.2200012         1.49984851E-11
   37.3349991         1.49572316E-11
   37.4500008         1.48934858E-11
   37.5649986         1.48069508E-11
   37.6800003         1.46974100E-11
   37.7949982         1.45646828E-11
   37.9099998         1.44086253E-11
   38.0250015         1.42290789E-11
   38.1399994         1.40258612E-11
   38.2550011         1.37987226E-11
   38.3699989         1.35473334E-11
   38.4850006         1.32712443E-11
   38.5999985         1.29698821E-11
   38.7150002         1.26425094E-11
   38.8300018         1.22882416E-11
   38.9449997         1.19060343E-11
   39.0600014         1.14946845E-11
   39.1749992         1.10528548E-11
   39.2900009         1.05790871E-11
   39.4049988         1.00718279E-11
   39.5200005         9.52946836E-12
   39.6349983         8.95038210E-12
   39.7500000         8.33296626E-12
   39.8650017         7.67567780E-12
   39.9799995         6.97709251E-12
   40.0950012         6.23592671E-12
   40.2099991         5.45109617E-12
   40.3250008         4.62172835E-12
   40.4399986         3.74719786E-12
   40.5550003         2.82713848E-12
   40.6699982         1.86146649E-12
   40.7849998         8.50360147E-13
   40.9000015        -2.05741674E-13
   41.0149994        -1.30615093E-12
   41.1300011        -2.44996081E-12
   41.2449989        -3.63606584E-12
   41.3600006        -4.86321790E-12
   41.4749985        -6.13004092E-12
   41.5900002        -7.43510462E-12
   41.7050018        -8.77691062E-12
   41.8199997        -1.01539775E-11
   41.9350014        -1.15648298E-11
   42.0499992        -1.30080686E-11
   42.1650009        -1.44823572E-11
   42.2799988        -1.59864205E-11
   42.3950005        -1.75190695E-11
   42.5099983        -1.90791792E-11
   42.6250000        -2.06656740E-11
   42.7400017        -2.22775028E-11
   42.8549995        -2.39135899E-11
   42.9700012        -2.55728251E-11
   43.0849991        -2.72540029E-11
   43.2000008        -2.89557718E-11
   43.3149986        -3.06766348E-11
   43.4300003        -3.24148521E-11
   43.5449982        -3.41684736E-11
   43.6599998        -3.59352548E-11
   43.7750015        -3.77127045E-11
   43.8899994        -3.94979986E-11
   44.0050011        -4.12880702E-11
   44.1199989        -4.30795816E-11
   44.2350006        -4.48689488E-11
   44.3499985        -4.66524250E-11
   44.4650002        -4.84261103E-11
   44.5800018        -5.01860220E-11
   44.6949997        -5.19281770E-11
   44.8100014        -5.36486619E-11
   44.9249992        -5.53436533E-11
   45.0400009        -5.70095846E-11
   45.1549988        -5.86431043E-11
   45.2700005        -6.02411870E-11
   45.3849983        -6.18012516E-11
   45.5000000        -6.33210429E-11
   45.6150017        -6.47987705E-11
   45.7299995        -6.62330954E-11
   45.8450012        -6.76230877E-11
   45.9599991        -6.89682478E-11
   46.0750008        -7.02684438E-11
   46.1899986        -7.15238563E-11
   46.3050003        -7.27349153E-11
   46.4199982        -7.39022663E-11
   46.5349998        -7.50266238E-11
   46.6500015        -7.61087235E-11
   46.7649994        -7.71492592E-11
   46.8800011        -7.81487652E-11
   46.9949989        -7.91075469E-11
   47.1100006        -8.00256528E-11
   47.2249985        -8.09027775E-11
   47.3400002        -8.17382481E-11
   47.4550018        -8.25309959E-11
   47.5699997        -8.32795499E-11
   47.6850014        -8.39820644E-11
   47.7999992        -8.46362980E-11
   47.9150009        -8.52397181E-11
   48.0299988        -8.57895283E-11
   48.1450005        -8.62826754E-11
   48.2599983        -8.67160371E-11
   48.3750000        -8.70863798E-11
   48.4900017        -8.73905254E-11
   48.6049995        -8.76253514E-11
   48.7200012        -8.77879158E-11
   48.8349991        -8.78754985E-11
   48.9500008        -8.78856501E-11
   49.0649986        -8.78162126E-11
   49.1800003        -8.76654027E-11
   49.2949982        -8.74317840E-11
   49.4099998        -8.71142741E-11
   49.5250015        -8.67121652E-11
   49.6399994        -8.62250965E-11
   49.7550011        -8.56530472E-11
   49.8699989        -8.49962670E-11
   49.9850006        -8.42553180E-11
   50.0999985        -8.34309982E-11
   50.2150002        -8.25243276E-11
   50.3300018        -8.15365345E-11
   50.4449997        -8.04690342E-11
   50.5600014        -7.93234367E-11
   50.6749992        -7.81015114E-11
   50.7900009        -7.68052219E-11
   50.9049988        -7.54367263E-11
   51.0200005        -7.39983630E-11
   51.1349983        -7.24927063E-11
   51.2500000        -7.09225803E-11
   51.3650017        -6.92910243E-11
   51.4799995        -6.76013828E-11
   51.5950012        -6.58572780E-11
   51.7099991        -6.40626024E-11
   51.8250008        -6.22215612E-11
   51.9399986        -6.03385467E-11
   52.0550003        -5.84182633E-11
   52.1699982        -5.64656308E-11
   52.2849998        -5.44856729E-11
   52.4000015        -5.24835522E-11
   52.5149994        -5.04645215E-11
   52.6300011        -4.84337570E-11
   52.7449989        -4.63963659E-11
   52.8600006        -4.43572540E-11
   52.9749985        -4.23211084E-11
   53.0900002        -4.02922140E-11
   53.2050018        -3.82744912E-11
   53.3199997        -3.62713123E-11
   53.4350014        -3.42854668E-11
   53.5499992        -3.23191335E-11
   53.6650009        -3.03737313E-11
   53.7799988        -2.84499611E-11
   53.8950005        -2.65476703E-11
   54.0099983        -2.46658978E-11
   54.1250000        -2.28027892E-11
   54.2400017        -2.09556209E-11
   54.3549995        -1.91208091E-11
   54.4700012        -1.72938868E-11
   54.5849991        -1.54695666E-11
   54.7000008        -1.36417648E-11
   54.8149986        -1.18036310E-11
   54.9300003        -9.94764687E-12
   55.0449982        -8.06567313E-12
   55.1599998        -6.14903614E-12
   55.2750015        -4.18866677E-12
   55.3899994        -2.17511772E-12
   55.5050011        -9.87404603E-14
   55.6199989         2.05021763E-12
   55.7350006         4.28149877E-12
   55.8499985         6.60477228E-12
   55.9650002         9.02942998E-12
   56.0800018         1.15645896E-11
   56.1949997         1.42188969E-11
   56.3100014         1.70005121E-11
   56.4249992         1.99170611E-11
   56.5400009         2.29754826E-11
   56.6549988         2.61820704E-11
   56.7700005         2.95424657E-11
   56.8849983         3.30616229E-11
   57.0000000         3.67437955E-11
   57.1150017         4.05926889E-11
   57.2299995         4.46114326E-11
   57.3450012         4.88026355E-11
   57.4599991         5.31685945E-11
   57.5750008         5.77112386E-11
   57.6899986         6.24324550E-11
   57.8050003         6.73339787E-11
   57.9199982         7.24176968E-11
   58.0349998         7.76856288E-11
   58.1500015         8.31402863E-11
   58.2649994         8.87845283E-11
   58.3800011         9.46218104E-11
   58.4949989         1.00656310E-10
   58.6100006         1.06892981E-10
   58.7249985         1.13337541E-10
   58.8400002         1.19996776E-10
   58.9550018         1.26878286E-10
   59.0699997         1.33990680E-10
   59.1850014         1.41343520E-10
   59.2999992         1.48947410E-10
   59.4150009         1.56813729E-10
   59.5299988         1.64954800E-10
   59.6450005         1.73383724E-10
   59.7599983         1.82114282E-10
   59.8750000         1.91160865E-10
   59.9900017         2.00538405E-10
   60.1049995         2.10262030E-10
   60.2200012         2.20347296E-10
   60.3349991         2.30809871E-10
   60.4500008         2.41665327E-10
   60.5649986         2.52929122E-10
   60.6800003         2.64616634E-10
   60.7949982         2.76742601E-10
   60.9099998         2.89321428E-10
   61.0250015         3.02366909E-10
   61.1399994         3.15891979E-10
   61.2550011         3.29908906E-10
   61.3699989         3.44428847E-10
   61.4850006         3.59461766E-10
   61.5999985         3.75016629E-10
   61.7150002         3.91100985E-10
   61.8300018         4.07720580E-10
   61.9449997         4.24879687E-10
   62.0600014         4.42580861E-10
   62.1749992         4.60824157E-10
   62.2900009         4.79607909E-10
   62.4049988         4.98927566E-10
   62.5200005         5.18776189E-10
   62.6349983         5.39143841E-10
   62.7500000         5.60017754E-10
   62.8650017         5.81381721E-10
   62.9799995         6.03216199E-10
   63.0950012         6.25498375E-10
   63.2099991         6.48201826E-10
   63.3250008         6.71295963E-10
   63.4399986         6.94747482E-10
   63.5550003         7.18518689E-10
   63.6699982         7.42568951E-10
   63.7849998         7.66853914E-10
   63.9000015         7.91326171E-10
   64.0149994         8.15935486E-10
   64.1299973         8.40629011E-10
   64.2450027         8.65351457E-10
   64.3600006         8.90045704E-10
   64.4749985         9.14652576E-10
   64.5899963         9.39112232E-10
   64.7050018         9.63363500E-10
   64.8199997         9.87344650E-10
   64.9349976         1.01099362E-09
   65.0500031         1.03424880E-09
   65.1650009         1.05704800E-09
   65.2799988         1.07933018E-09
   65.3949966         1.10103449E-09
   65.5100021         1.12210097E-09
   65.6250000         1.14247012E-09
   65.7399979         1.16208332E-09
   65.8550034         1.18088272E-09
   65.9700012         1.19881127E-09
   66.0849991         1.21581178E-09
   66.1999969         1.23182842E-09
   66.3150024         1.24680521E-09
   66.4300003         1.26068589E-09
   66.5449982         1.27341515E-09
   66.6600037         1.28493682E-09
   66.7750015         1.29519528E-09
   66.8899994         1.30413436E-09
   67.0049973         1.31169753E-09
   67.1200027         1.31782829E-09
   67.2350006         1.32246936E-09
   67.3499985         1.32556344E-09
   67.4649963         1.32705280E-09
   67.5800018         1.32687950E-09
   67.6949997         1.32498557E-09
   67.8099976         1.32131206E-09
   67.9250031         1.31580069E-09
   68.0400009         1.30839239E-09
   68.1549988         1.29902811E-09
   68.2699966         1.28764888E-09
   68.3850021         1.27419542E-09
   68.5000000         1.25860766E-09
   68.6149979         1.24082600E-09
   68.7300034         1.22079036E-09
   68.8450012         1.19844046E-09
   68.9599991         1.17371535E-09
   69.0749969         1.14655407E-09
   69.1900024         1.11689502E-09
   69.3050003         1.08467679E-09
   69.4199982         1.04983733E-09
   69.5350037         1.01231468E-09
   69.6500015         9.72046443E-10
   69.7649994         9.28970956E-10
   69.8799973         8.83026652E-10
   69.9950027         8.34153024E-10
   70.1100006         7.82289733E-10
   70.2249985         7.27378713E-10
   70.3399963         6.69363120E-10
   70.4550018         6.08188333E-10
   70.5699997         5.43802559E-10
   70.6849976         4.76156892E-10
   70.8000031         4.05206257E-10
   70.9150009         3.30909328E-10
   71.0299988         2.53229770E-10
   71.1449966         1.72136139E-10
   71.2600021         8.76024184E-11
   71.3750000        -3.91162797E-13
   71.4899979        -9.18580212E-11
   71.6050034        -1.86804405E-10
   71.7200012        -2.85229923E-10
   71.8349991        -3.87126164E-10
   71.9499969        -4.92476726E-10
   72.0650024        -6.01257766E-10
   72.1800003        -7.13436310E-10
   72.2949982        -8.28970892E-10
   72.4100037        -9.47811607E-10
   72.5250015        -1.06990017E-09
   72.6399994        -1.19516885E-09
   72.7549973        -1.32354194E-09
   72.8700027        -1.45493417E-09
   72.9850006        -1.58925295E-09
   73.0999985        -1.72639636E-09
   73.2149963        -1.86625493E-09
   73.3300018        -2.00871053E-09
   73.4449997        -2.15363838E-09
   73.5599976        -2.30090569E-09
   73.6750031        -2.45037257E-09
   73.7900009        -2.60189292E-09
   73.9049988        -2.75531353E-09
   74.0199966        -2.91047497E-09
   74.1350021        -3.06721271E-09