  -18.8999996       0.00000000    
  -18.7849998       0.00000000    
  -18.6700001       0.00000000    
  -18.5550003       0.00000000    
  -18.4400005       0.00000000    
  -18.3250008       0.00000000    
  -18.2099991       0.00000000    
  -18.0949993       0.00000000    
  -17.9799995       0.00000000    
  -17.8649998      -2.76364083E-41
  -17.7500000       8.05432894E-38
  -17.6350002       7.25849960E-37
  -17.5200005       4.17940617E-36
  -17.4050007       1.86000529E-35
  -17.2900009       6.80423770E-35
  -17.1749992       2.11214983E-34
  -17.0599995       5.68492211E-34
  -16.9449997       1.34420690E-33
  -16.8299999       2.80784623E-33
  -16.7150002       5.16435664E-33
  -16.6000004       8.21592087E-33
  -16.4850006       1.07256197E-32
  -16.3700008       9.48490008E-33
  -16.2549992      -1.68703570E-33
  -16.1399994      -3.24015731E-32
  -16.0249996      -9.45187912E-32
  -15.9099998      -1.97821076E-31
  -15.7950001      -3.41061716E-31
  -15.6800003      -4.97884676E-31
  -15.5649996      -5.99594466E-31
  -15.4499998      -5.21089170E-31
  -15.3350000      -8.21260774E-32
  -15.2200003       9.18157008E-31
  -15.1049995       2.61325146E-30
  -14.9899998       4.91423031E-30
  -14.8750000       7.29611852E-30
  -14.7600002       8.57716888E-30
  -14.6450005       6.80641472E-30
  -14.5299997      -5.51570537E-31
  -14.4150000      -1.58913009E-29
  -14.3000002      -3.99715114E-29
  -14.1850004      -6.95698077E-29
  -14.0699997      -9.45532538E-29
  -13.9549999      -9.52083528E-29
  -13.8400002      -4.14283992E-29
  -13.7250004       1.03892558E-28
  -13.6099997       3.74515326E-28
  -13.4949999       7.81298067E-28
  -13.3800001       1.28307860E-27
  -13.2650003       1.75147054E-27
  -13.1499996       1.93879573E-27
  -13.0349998       1.46529892E-27
  -12.9200001      -1.51917956E-28
  -12.8050003      -3.40315326E-27
  -12.6899996      -8.60331164E-27
  -12.5749998      -1.56181055E-26
  -12.4600000      -2.35255655E-26
  -12.3450003      -3.02827616E-26
  -12.2299995      -3.25186369E-26
  -12.1149998      -2.56200020E-26
  -12.0000000      -4.29981540E-27
  -11.8850002       3.61877429E-26
  -11.7700005       9.81154502E-26
  -11.6549997       1.78742569E-25
  -11.5400000       2.67531773E-25
  -11.4250002       3.43798870E-25
  -11.3100004       3.75766718E-25
  -11.1949997       3.22187976E-25
  -11.0799999       1.37674544E-25
  -10.9650002      -2.17484391E-25
  -10.8500004      -7.62999974E-25
  -10.7349997      -1.48092394E-24
  -10.6199999      -2.29731895E-24
  -10.5050001      -3.06751502E-24
  -10.3900003      -3.57052764E-24
  -10.2749996      -3.51880084E-24
  -10.1599998      -2.58883106E-24
  -10.0450001      -4.76025935E-25
  -9.93000031       3.02683287E-24
  -9.81499958       7.93372795E-24
  -9.69999981       1.39649537E-23
  -9.58500004       2.04614126E-23
  -9.47000027       2.63380793E-23
  -9.35499954       3.01029385E-23
  -9.23999977       2.99649257E-23
  -9.12500000       2.40458341E-23
  -9.01000023       1.06963354E-23
  -8.89500046      -1.11035533E-23
  -8.77999973      -4.13023746E-23
  -8.66499996      -7.83589106E-23
  -8.55000019      -1.18930929E-22
  -8.43500042      -1.57762689E-22
  -8.31999969      -1.87857316E-22
  -8.20499992      -2.00998161E-22
  -8.09000015      -1.88643186E-22
  -7.97499990      -1.43162313E-22
  -7.86000013      -5.93222517E-23
  -7.74499989       6.41420278E-23
  -7.63000011       2.23087365E-22
  -7.51499987       4.06909222E-22
  -7.40000010       5.98136502E-22
  -7.28499985       7.72905215E-22
  -7.17000008       9.02468387E-22
  -7.05499983       9.55791648E-22
  -6.94000006       9.03141784E-22
  -6.82499981       7.20421807E-22
  -6.71000004       3.93855379E-22
  -6.59499979      -7.55055817E-23
  -6.48000002      -6.68060123E-22
  -6.36499977      -1.34335596E-21
  -6.25000000      -2.03978963E-21
  -6.13500023      -2.67676999E-21
  -6.01999998      -3.15961184E-21
  -5.90500021      -3.38717476E-21
  -5.78999996      -3.26197786E-21
  -5.67500019      -2.70221630E-21
  -5.55999994      -1.65482530E-21
  -5.44500017      -1.08476389E-22
  -5.32999992       1.89477978E-21
  -5.21500015       4.25062752E-21
  -5.09999990       6.78776979E-21
  -4.98500013       9.26870578E-21
  -4.86999989       1.13971215E-20
  -4.75500011       1.28326967E-20
  -4.63999987       1.32137135E-20
  -4.52500010       1.21872898E-20
  -4.40999985       9.44638967E-21
  -4.29500008       4.77201586E-21
  -4.17999983      -1.92190730E-21
  -4.06500006      -1.05443193E-20
  -3.95000005      -2.07877451E-20
  -3.83500004      -3.20989860E-20
  -3.72000003      -4.36653523E-20
  -3.60500002      -5.44222094E-20
  -3.49000001      -6.30870943E-20
  -3.37500000      -6.82248811E-20
  -3.25999999      -6.83462117E-20
  -3.14499998      -6.20389401E-20
  -3.02999997      -4.81286961E-20
  -2.91499996      -2.58602444E-20
  -2.79999995       4.91313174E-21
  -2.68499994       4.35496375E-20
  -2.56999993       8.84697906E-20
  -2.45499992       1.37061695E-19
  -2.33999991       1.85665341E-19
  -2.22499990       2.29657779E-19
  -2.10999990       2.63655988E-19
  -1.99500000       2.81845224E-19
  -1.88000000       2.78428451E-19
  -1.76499999       2.48177965E-19
  -1.64999998       1.87054048E-19
  -1.53499997       9.28395143E-20
  -1.41999996      -3.42755728E-20
  -1.30499995      -1.91234361E-19
  -1.19000006      -3.71857726E-19
  -1.07500005      -5.66868011E-19
 -0.959999979      -7.64252434E-19
 -0.845000029      -9.50003388E-19
 -0.730000019      -1.10923917E-18
 -0.615000010      -1.22766796E-18
 -0.500000000      -1.29331302E-18
 -0.384999990      -1.29836937E-18
 -0.270000011      -1.24102249E-18
 -0.155000001      -1.12702717E-18
  -3.99999991E-02  -9.70827040E-19
   7.50000030E-02  -7.96002107E-19
  0.189999998      -6.34854503E-19
  0.305000007      -5.27001266E-19
  0.419999987      -5.16914626E-19
  0.535000026      -6.50450838E-19
  0.649999976      -9.70526463E-19
  0.764999986      -1.51220972E-18
  0.879999995      -2.29761885E-18
  0.995000005      -3.33110658E-18
   1.11000001      -4.59527575E-18
   1.22500002      -6.04838848E-18
   1.34000003      -7.62369688E-18
   1.45500004      -9.23111974E-18
   1.57000005      -1.07615387E-17
   1.68499994      -1.20937660E-17
   1.79999995      -1.31039678E-17
   1.91499996      -1.36770476E-17
   2.02999997      -1.37192016E-17
   2.14499998      -1.31705972E-17
   2.25999999      -1.20169176E-17
   2.37500000      -1.02984094E-17
   2.49000001      -8.11508518E-18
   2.60500002      -5.62688702E-18
   2.72000003      -3.04787828E-18
   2.83500004      -6.34014501E-19
   2.95000005       1.33542664E-18
   3.06500006       2.58204987E-18
   3.18000007       2.85677371E-18
   3.29500008       1.97046519E-18
   3.41000009      -1.75770012E-19
   3.52500010      -3.56356067E-18
   3.64000010      -8.03657333E-18
   3.75500011      -1.32890197E-17
   3.86999989      -1.88657928E-17
   3.98499990      -2.41759565E-17
   4.09999990      -2.85202148E-17
   4.21500015      -3.11318192E-17
   4.32999992      -3.12290559E-17
   4.44500017      -2.80761544E-17
   4.55999994      -2.10482642E-17
   4.67500019      -9.69537072E-18
   4.78999996       6.20056076E-18
   4.90500021       2.65808551E-17
   5.01999998       5.10829358E-17
   5.13500023       7.90346723E-17
   5.25000000       1.09472775E-16
   5.36499977       1.41185662E-16
   5.48000002       1.72779183E-16
   5.59499979       2.02761225E-16
   5.71000004       2.29639049E-16
   5.82499981       2.52021816E-16
   5.94000006       2.68719191E-16
   6.05499983       2.78826941E-16
   6.17000008       2.81790391E-16
   6.28499985       2.77438098E-16
   6.40000010       2.65980469E-16
   6.51499987       2.47970139E-16
   6.63000011       2.24224630E-16
   6.74499989       1.95715817E-16
   6.86000013       1.63432757E-16
   6.97499990       1.28229578E-16
   7.09000015       9.06707212E-17
   7.20499992       5.08889123E-17
   7.32000017       8.47077119E-18
   7.43499994      -3.76153005E-17
   7.55000019      -8.90362256E-17
   7.66499996      -1.48047476E-16
   7.78000021      -2.17376593E-16
   7.89499998      -3.00037519E-16
   8.01000023      -3.99081214E-16
   8.12500000      -5.17292391E-16
   8.23999977      -6.56850545E-16
   8.35499954      -8.18973075E-16
   8.47000027      -1.00356749E-15
   8.58500004      -1.20891539E-15
   8.69999981      -1.43141728E-15
   8.81499958      -1.66541839E-15
   8.93000031      -1.90314031E-15
   9.04500008      -2.13472991E-15
   9.15999985      -2.34843675E-15
   9.27499962      -2.53091666E-15
   9.39000034      -2.66765763E-15
   9.50500011      -2.74350668E-15
   9.61999989      -2.74327798E-15
   9.73499966      -2.65240914E-15
   9.85000038      -2.45763094E-15
   9.96500015      -2.14761074E-15
   10.0799999      -1.71353558E-15
   10.1949997      -1.14959534E-15
   10.3100004      -4.53337645E-16
   10.4250002       3.74126856E-16
   10.5400000       1.32808308E-15
   10.6549997       2.40033912E-15
   10.7700005       3.57950745E-15
   10.8850002       4.85143414E-15
   11.0000000       6.19973145E-15
   11.1149998       7.60640330E-15
   11.2299995       9.05249945E-15
   11.3450003       1.05187931E-14
   11.4600000       1.19864158E-14
   11.5749998       1.34374433E-14
   11.6899996       1.48554044E-14
   11.8050003       1.62256869E-14
   11.9200001       1.75358809E-14
   12.0349998       1.87760116E-14
   12.1499996       1.99387371E-14
   12.2650003       2.10194851E-14
   12.3800001       2.20165937E-14
   12.4949999       2.29314604E-14
   12.6099997       2.37687220E-14
   12.7250004       2.45364862E-14
   12.8400002       2.52466132E-14
   12.9549999       2.59150255E-14
   13.0699997       2.65620198E-14
   13.1850004       2.72125801E-14
   13.3000002       2.78965693E-14
   13.4150000       2.86488159E-14
   13.5299997       2.95089846E-14
   13.6450005       3.05211890E-14
   13.7600002       3.17332965E-14
   13.8750000       3.31959395E-14
   13.9899998       3.49610816E-14
   14.1049995       3.70803038E-14
   14.2200003       3.96027442E-14
   14.3350000       4.25728280E-14
   14.4499998       4.60277568E-14
   14.5649996       4.99950287E-14
   14.6800003       5.44900090E-14
   14.7950001       5.95137275E-14
   14.9099998       6.50510733E-14
   15.0249996       7.10695134E-14
   15.1400003       7.75184902E-14
   15.2550001       8.43295702E-14
   15.3699999       9.14175081E-14
   15.4849997       9.86821302E-14
   15.6000004       1.06011106E-13
   15.7150002       1.13283636E-13
   15.8299999       1.20374752E-13
   15.9449997       1.27160205E-13
   16.0599995       1.33521693E-13
   16.1749992       1.39352329E-13
   16.2900009       1.44561568E-13
   16.4050007       1.49080184E-13
   16.5200005       1.52864131E-13
   16.6350002       1.55897647E-13
   16.7500000       1.58195017E-13
   16.8649998       1.59801033E-13
   16.9799995       1.60789933E-13
   17.0949993       1.61262808E-13
   17.2099991       1.61343513E-13
   17.3250008       1.61173321E-13
   17.4400005       1.60904262E-13
   17.5550003       1.60691718E-13
   17.6700001       1.60686433E-13
   17.7849998       1.61026384E-13
   17.8999996       1.61828938E-13
   18.0149994       1.63183635E-13
   18.1299992       1.65146081E-13
   18.2450008       1.67733245E-13
   18.3600006       1.70920474E-13
   18.4750004       1.74640548E-13
   18.5900002       1.78784599E-13
   18.7049999       1.83205244E-13
   18.8199997       1.87721624E-13
   18.9349995       1.92126317E-13
   19.0499992       1.96193580E-13
   19.1650009       1.99688844E-13
   19.2800007       2.02378777E-13
   19.3950005       2.04041658E-13
   19.5100002       2.04477304E-13
   19.6250000       2.03516145E-13
   19.7399998       2.01027143E-13
   19.8549995       1.96923763E-13
   19.9699993       1.91168058E-13
   20.0849991       1.83772295E-13
   20.2000008       1.74798110E-13
   20.3150005       1.64353218E-13
   20.4300003       1.52585599E-13
   20.5450001       1.39675611E-13
   20.6599998       1.25826162E-13
   20.7749996       1.11251462E-13
   20.8899994       9.61647686E-14
   21.0049992       8.07657164E-14
   21.1200008       6.52279337E-14
   21.2350006       4.96871526E-14
   21.3500004       3.42309087E-14
   21.4650002       1.88897377E-14
   21.5799999       3.63080588E-15
   21.6949997      -1.16460745E-14
   21.8099995      -2.71096401E-14
   21.9249992      -4.29954466E-14
   22.0400009      -5.96014056E-14
   22.1550007      -7.72807924E-14
   22.2700005      -9.64326140E-14
   22.3850002      -1.17490422E-13
   22.5000000      -1.40909270E-13
   22.6149998      -1.67152005E-13
   22.7299995      -1.96675236E-13
   22.8449993      -2.29915587E-13
   22.9599991      -2.67276869E-13
   23.0750008      -3.09118996E-13
   23.1900005      -3.55748498E-13
   23.3050003      -4.07411491E-13
   23.4200001      -4.64290282E-13
   23.5349998      -5.26501369E-13
   23.6499996      -5.94098176E-13
   23.7649994      -6.67074848E-13
   23.8799992      -7.45374248E-13
   23.9950008      -8.28898256E-13
   24.1100006      -9.17518557E-13
   24.2250004      -1.01109041E-12
   24.3400002      -1.10946669E-12
   24.4549999      -1.21251186E-12
   24.5699997      -1.32011578E-12
   24.6849995      -1.43220657E-12
   24.7999992      -1.54876101E-12
   24.9150009      -1.66981446E-12
   25.0300007      -1.79546536E-12
   25.1450005      -1.92588090E-12
   25.2600002      -2.06129536E-12
   25.3750000      -2.20200767E-12
   25.4899998      -2.34837562E-12
   25.6049995      -2.50080577E-12
   25.7199993      -2.65974243E-12
   25.8349991      -2.82565269E-12
   25.9500008      -2.99900989E-12
   26.0650005      -3.18027657E-12
   26.1800003      -3.36988467E-12
   26.2950001      -3.56821907E-12
   26.4099998      -3.77559659E-12
   26.5249996      -3.99225097E-12
   26.6399994      -4.21831493E-12
   26.7549992      -4.45381058E-12
   26.8700008      -4.69863428E-12
   26.9850006      -4.95255529E-12
   27.1000004      -5.21520674E-12
   27.2150002      -5.48608945E-12
   27.3299999      -5.76457632E-12
   27.4449997      -6.04992055E-12
   27.5599995      -6.34126952E-12
   27.6749992      -6.63767609E-12
   27.7900009      -6.93812152E-12
   27.9050007      -7.24153766E-12
   28.0200005      -7.54682601E-12
   28.1350002      -7.85288501E-12
   28.2500000      -8.15863176E-12
   28.3649998      -8.46302542E-12
   28.4799995      -8.76509108E-12
   28.5949993      -9.06393450E-12
   28.7099991      -9.35876290E-12
   28.8250008      -9.64888586E-12
   28.9400005      -9.93373352E-12
   29.0550003      -1.02128505E-11
   29.1700001      -1.04858899E-11
   29.2849998      -1.07526106E-11
   29.3999996      -1.10128530E-11
   29.5149994      -1.12665190E-11
   29.6299992      -1.15135531E-11
   29.7450008      -1.17538973E-11
   29.8600006      -1.19874744E-11
   29.9750004      -1.22141420E-11
   30.0900002      -1.24336609E-11
   30.2049999      -1.26456614E-11
   30.3199997      -1.28496111E-11
   30.4349995      -1.30447797E-11
   30.5499992      -1.32302181E-11
   30.6650009      -1.34047391E-11
   30.7800007      -1.35668985E-11
   30.8950005      -1.37149962E-11
   31.0100002      -1.38470737E-11
   31.1250000      -1.39609279E-11
   31.2399998      -1.40541251E-11
   31.3549995      -1.41240370E-11
   31.4699993      -1.41678631E-11
   31.5849991      -1.41826802E-11
   31.7000008      -1.41654865E-11
   31.8150005      -1.41132540E-11
   31.9300003      -1.40229807E-11
   32.0449982      -1.38917532E-11
   32.1599998      -1.37167907E-11
   32.2750015      -1.34955146E-11
   32.3899994      -1.32255916E-11
   32.5050011      -1.29049774E-11
   32.6199989      -1.25319642E-11
   32.7350006      -1.21052118E-11
   32.8499985      -1.16237671E-11
   32.9650002      -1.10870800E-11
   33.0800018      -1.04949981E-11
   33.1949997      -9.84776670E-12
   33.3100014      -9.14600427E-12
   33.4249992      -8.39066490E-12
   33.5400009      -7.58298545E-12
   33.6549988      -6.72444739E-12
   33.7700005      -5.81669652E-12
   33.8849983      -4.86148014E-12
   34.0000000      -3.86056291E-12
   34.1150017      -2.81564897E-12
   34.2299995      -1.72830370E-12
   34.3450012      -5.99868408E-13
   34.4599991       5.68608149E-13
   34.5750008       1.77643219E-12
   34.6899986       3.02332096E-12
   34.8050003       4.30943475E-12
   34.9199982       5.63539970E-12
   35.0349998       7.00230715E-12
   35.1500015       8.41169755E-12
   35.2649994       9.86551986E-12
   35.3800011       1.13660721E-11
   35.4949989       1.29159201E-11
   35.6100006       1.45177993E-11
   35.7249985       1.61745027E-11
   35.8400002       1.78887495E-11
   35.9550018       1.96630490E-11
   36.0699997       2.14995625E-11
   36.1850014       2.33999538E-11
   36.2999992       2.53652706E-11
   36.4150009       2.73957974E-11
   36.5299988       2.94909513E-11
   36.6450005       3.16492006E-11
   36.7599983       3.38679917E-11
   36.8750000       3.61437061E-11
   36.9900017       3.84716495E-11
   37.1049995       4.08460939E-11
   37.2200012       4.32603016E-11
   37.3349991       4.57066260E-11
   37.4500008       4.81766224E-11
   37.5649986       5.06611940E-11
   37.6800003       5.31507581E-11
   37.7949982       5.56354025E-11
   37.9099998       5.81050867E-11
   38.0250015       6.05498499E-11
   38.1399994       6.29599706E-11
   38.2550011       6.53261611E-11
   38.3699989       6.76397272E-11
   38.4850006       6.98927236E-11
   38.5999985       7.20780449E-11
   38.7150002       7.41895295E-11
   38.8300018       7.62220148E-11
   38.9449997       7.81713166E-11
   39.0600014       8.00342292E-11
   39.1749992       8.18084697E-11
   39.2900009       8.34925809E-11
   39.4049988       8.50857926E-11
   39.5200005       8.65879243E-11
   39.6349983       8.79991635E-11
   39.7500000       8.93199126E-11
   39.8650017       9.05506295E-11
   39.9799995       9.16915849E-11
   40.0950012       9.27427440E-11
   40.2099991       9.37035727E-11
   40.3250008       9.45728773E-11
   40.4399986       9.53487081E-11
   40.5550003       9.60282340E-11
   40.6699982       9.66076941E-11
   40.7849998       9.70823352E-11
   40.9000015       9.74464606E-11
   41.0149994       9.76934228E-11
   41.1300011       9.78157208E-11
   41.2449989       9.78050835E-11
   41.3600006       9.76526082E-11
   41.4749985       9.73489206E-11
   41.5900002       9.68842992E-11
   41.7050018       9.62489394E-11
   41.8199997       9.54330989E-11
   41.9350014       9.44273201E-11
   42.0499992       9.32226241E-11
   42.1650009       9.18107534E-11
   42.2799988       9.01843114E-11
   42.3950005       8.83369627E-11
   42.5099983       8.62636004E-11
   42.6250000       8.39604844E-11
   42.7400017       8.14253179E-11
   42.8549995       7.86573376E-11
   42.9700012       7.56573484E-11
   43.0849991       7.24277027E-11
   43.2000008       6.89723001E-11
   43.3149986       6.52964488E-11
   43.4300003       6.14068310E-11
   43.5449982       5.73112773E-11
   43.6599998       5.30186693E-11
   43.7750015       4.85386904E-11
   43.8899994       4.38816275E-11
   44.0050011       3.90580866E-11
   44.1199989       3.40787711E-11
   44.2350006       2.89542279E-11
   44.3499985       2.36945862E-11
   44.4650002       1.83093245E-11
   44.5800018       1.28070722E-11
   44.6949997       7.19542915E-12
   44.8100014       1.48085212E-12
   44.9249992      -4.33145620E-12
   45.0400009      -1.02375634E-11
   45.1549988      -1.62348173E-11
   45.2700005      -2.23217469E-11
   45.3849983      -2.84979575E-11
   45.5000000      -3.47639834E-11
   45.6150017      -4.11210614E-11
   45.7299995      -4.75708570E-11
   45.8450012      -5.41152193E-11
   45.9599991      -6.07558795E-11
   46.0750008      -6.74941075E-11
   46.1899986      -7.43304654E-11
   46.3050003      -8.12644327E-11
   46.4199982      -8.82942122E-11
   46.5349998      -9.54164317E-11
   46.6500015      -1.02626005E-10
   46.7649994      -1.09916000E-10
   46.8800011      -1.17277535E-10
   46.9949989      -1.24699764E-10
   47.1100006      -1.32169969E-10
   47.2249985      -1.39673592E-10
   47.3400002      -1.47194451E-10
   47.4550018      -1.54714908E-10
   47.5699997      -1.62216088E-10
   47.6850014      -1.69678174E-10
   47.7999992      -1.77080753E-10
   47.9150009      -1.84403048E-10
   48.0299988      -1.91624355E-10
   48.1450005      -1.98724259E-10
   48.2599983      -2.05682998E-10
   48.3750000      -2.12481754E-10
   48.4900017      -2.19102861E-10
   48.6049995      -2.25530039E-10
   48.7200012      -2.31748537E-10
   48.8349991      -2.37745268E-10
   48.9500008      -2.43508935E-10
   49.0649986      -2.49030047E-10
   49.1800003      -2.54300858E-10
   49.2949982      -2.59315458E-10
   49.4099998      -2.64069683E-10
   49.5250015      -2.68560840E-10
   49.6399994      -2.72787820E-10
   49.7550011      -2.76750817E-10
   49.8699989      -2.80451135E-10
   49.9850006      -2.83890939E-10
   50.0999985      -2.87073171E-10
   50.2150002      -2.90001273E-10
   50.3300018      -2.92678881E-10
   50.4449997      -2.95109687E-10
   50.5600014      -2.97297187E-10
   50.6749992      -2.99244518E-10
   50.7900009      -3.00954123E-10
   50.9049988      -3.02427666E-10
   51.0200005      -3.03665787E-10
   51.1349983      -3.04667930E-10
   51.2500000      -3.05432235E-10
   51.3650017      -3.05955428E-10
   51.4799995      -3.06232734E-10
   51.5950012      -3.06257825E-10
   51.7099991      -3.06022874E-10
   51.8250008      -3.05518499E-10
   51.9399986      -3.04734071E-10
   52.0550003      -3.03657682E-10
   52.1699982      -3.02276426E-10
   52.2849998      -3.00576730E-10
   52.4000015      -2.98544384E-10
   52.5149994      -2.96165148E-10
   52.6300011      -2.93424784E-10
   52.7449989      -2.90309804E-10
   52.8600006      -2.86807383E-10
   52.9749985      -2.82906171E-10
   53.0900002      -2.78596257E-10
   53.2050018      -2.73869649E-10
   53.3199997      -2.68720685E-10
   53.4350014      -2.63146005E-10
   53.5499992      -2.57144944E-10
   53.6650009      -2.50719473E-10
   53.7799988      -2.43874115E-10
   53.8950005      -2.36616171E-10
   54.0099983      -2.28955285E-10
   54.1250000      -2.20903337E-10
   54.2400017      -2.12474094E-10
   54.3549995      -2.03682862E-10
   54.4700012      -1.94546032E-10
   54.5849991      -1.85080576E-10
   54.7000008      -1.75303660E-10
   54.8149986      -1.65231911E-10
   54.9300003      -1.54881150E-10
   55.0449982      -1.44265683E-10
   55.1599998      -1.33398001E-10
   55.2750015      -1.22288346E-10
   55.3899994      -1.10944295E-10
   55.5050011      -9.93705396E-11
   55.6199989      -8.75687439E-11
   55.7350006      -7.55374444E-11
   55.8499985      -6.32720612E-11
   55.9650002      -5.07651039E-11
   56.0800018      -3.80063585E-11
   56.1949997      -2.49832204E-11
   56.3100014      -1.16811448E-11
   56.4249992       1.91599796E-12
   56.5400009       1.58252803E-11
   56.6549988       3.00642913E-11
   56.7700005       4.46504118E-11
   56.8849983       5.96003663E-11
   57.0000000       7.49294723E-11
   57.1150017       9.06512920E-11
   57.2299995       1.06777004E-10
   57.3450012       1.23314831E-10
   57.4599991       1.40269948E-10
   57.5750008       1.57643926E-10
   57.6899986       1.75434556E-10
   57.8050003       1.93635843E-10
   57.9199982       2.12237825E-10
   58.0349998       2.31226885E-10
   58.1500015       2.50585663E-10
   58.2649994       2.70293593E-10
   58.3800011       2.90327151E-10
   58.4949989       3.10660248E-10
   58.6100006       3.31264849E-10
   58.7249985       3.52111479E-10
   58.8400002       3.73169773E-10
   58.9550018       3.94409089E-10
   59.0699997       4.15799284E-10
   59.1850014       4.37311132E-10
   59.2999992       4.58917016E-10
   59.4150009       4.80591456E-10
   59.5299988       5.02311581E-10
   59.6450005       5.24057464E-10
   59.7599983       5.45812506E-10
   59.8750000       5.67563607E-10
   59.9900017       5.89300941E-10
   60.1049995       6.11018458E-10
   60.2200012       6.32713104E-10
   60.3349991       6.54384824E-10
   60.4500008       6.76036227E-10
   60.5649986       6.97671865E-10
   60.6800003       7.19297899E-10
   60.7949982       7.40921102E-10
   60.9099998       7.62548302E-10
   61.0250015       7.84185661E-10
   61.1399994       8.05837619E-10
   61.2550011       8.27506397E-10
   61.3699989       8.49190884E-10
   61.4850006       8.70886030E-10
   61.5999985       8.92582230E-10
   61.7150002       9.14264331E-10
   61.8300018       9.35911681E-10
   61.9449997       9.57497415E-10
   62.0600014       9.78988335E-10
   62.1749992       1.00034492E-09
   62.2900009       1.02152109E-09
   62.4049988       1.04246489E-09
   62.5200005       1.06311804E-09
   62.6349983       1.08341747E-09
   62.7500000       1.10329512E-09
   62.8650017       1.12267884E-09
   62.9799995       1.14149334E-09
   63.0950012       1.15966092E-09
   63.2099991       1.17710308E-09
   63.3250008       1.19374022E-09
   63.4399986       1.20949439E-09
   63.5550003       1.22428856E-09
   63.6699982       1.23804889E-09
   63.7849998       1.25070476E-09
   63.9000015       1.26219002E-09
   64.0149994       1.27244326E-09
   64.1299973       1.28140865E-09
   64.2450027       1.28903621E-09
   64.3600006       1.29528177E-09
   64.4749985       1.30010724E-09
   64.5899963       1.30348043E-09
   64.7050018       1.30537503E-09
   64.8199997       1.30576994E-09
   64.9349976       1.30464894E-09
   65.0500031       1.30199973E-09
   65.1650009       1.29781319E-09
   65.2799988       1.29208333E-09
   65.3949966       1.28480493E-09
   65.5100021       1.27597344E-09
   65.6250000       1.26558419E-09
   65.7399979       1.25363109E-09
   65.8550034       1.24010557E-09
   65.9700012       1.22499655E-09
   66.0849991       1.20828891E-09
   66.1999969       1.18996357E-09
   66.3150024       1.16999643E-09
   66.4300003       1.14835841E-09
   66.5449982       1.12501530E-09
   66.6600037       1.09992737E-09
   66.7750015       1.07304987E-09
   66.8899994       1.04433340E-09
   67.0049973       1.01372422E-09
   67.1200027       9.81164927E-10
   67.2350006       9.46594914E-10
   67.3499985       9.09951836E-10
   67.4649963       8.71172634E-10
   67.5800018       8.30194191E-10
   67.6949997       7.86954946E-10
   67.8099976       7.41395945E-10
   67.9250031       6.93461955E-10
   68.0400009       6.43103237E-10
   68.1549988       5.90275884E-10
   68.2699966       5.34943589E-10
   68.3850021       4.77078266E-10
   68.5000000       4.16661150E-10
   68.6149979       3.53683444E-10
   68.7300034       2.88146645E-10
   68.8450012       2.20062857E-10
   68.9599991       1.49455184E-10
   69.0749969       7.63571220E-11
   69.1900024       8.12128739E-13
   69.3050003      -7.71266107E-11
   69.4199982      -1.57397789E-10
   69.5350037      -2.39932380E-10
   69.6500015      -3.24655330E-10
   69.7649994      -4.11486650E-10
   69.8799973      -5.00342934E-10
   69.9950027      -5.91139027E-10
   70.1100006      -6.83789081E-10
   70.2249985      -7.78208720E-10
   70.3399963      -8.74315564E-10
   70.4550018      -9.72030789E-10
   70.5699997      -1.07128051E-09
   70.6849976      -1.17199572E-09
   70.8000031      -1.27411337E-09
   70.9150009      -1.37757628E-09
   71.0299988      -1.48233337E-09
   71.1449966      -1.58833879E-09
   71.2600021      -1.69555159E-09
   71.3750000      -1.80393411E-09
   71.4899979      -1.91345140E-09
   71.6050034      -2.02407002E-09
   71.7200012      -2.13575535E-09
   71.8349991      -2.24847074E-09
   71.9499969      -2.36217557E-09
   72.0650024      -2.47682408E-09
   72.1800003      -2.59236188E-09
   72.2949982      -2.70872658E-09
   72.4100037      -2.82584489E-09
   72.5250015      -2.94363178E-09
   72.6399994      -3.06198977E-09
   72.7549973      -3.18080740E-09
   72.8700027      -3.29996053E-09
   72.9850006      -3.41930995E-09
   73.0999985      -3.53870244E-09
   73.2149963      -3.65797193E-09
   73.3300018      -3.77694054E-09
   73.4449997      -3.89541732E-09
   73.5599976      -4.01320310E-09
   73.6750031      -4.13008694E-09
   73.7900009      -4.24585256E-09
   73.9049988      -4.36027792E-09
   74.0199966      -4.47313697E-09
   74.1350021      -4.58420057E-09
   74.2500000      -4.69324091E-09
   74.3649979      -4.80002971E-09
   74.4800034      -4.90434227E-09
   74.5950012      -5.00595698E-09
   74.7099991      -5.10465981E-09
   74.8249969      -5.20024068E-09
   74.9400024      -5.29249933E-09
   75.0550003      -5.38124301E-09
   75.1699982      -5.46628742E-09
   75.2850037      -5.54745760E-09
   75.4000015      -5.62458791E-09
   75.5149994      -5.69752157E-09
   75.6299973      -5.76610848E-09
   75.7450027      -5.83020965E-09
   75.8600006      -5.88968740E-09
   75.9749985      -5.94441252E-09
   76.0899963      -5.99425931E-09
   76.2050018      -6.03910388E-09
   76.3199997      -6.07882367E-09
   76.4349976      -6.11329387E-09
   76.5500031      -6.14238971E-09
   76.6650009      -6.16598195E-09
   76.7799988      -6.18393603E-09
   76.8949966      -6.19611074E-09
   77.0100021      -6.20235596E-09
   77.1250000      -6.20251228E-09
   77.2399979      -6.19641094E-09
   77.3550034      -6.18387208E-09
   77.4700012      -6.16470652E-09
   77.5849991      -6.13871443E-09
   77.6999969      -6.10568707E-09
   77.8150024      -6.06540729E-09
   77.9300003      -6.01765393E-09
   78.0449982      -5.96219962E-09
   78.1600037      -5.89881388E-09
   78.2750015      -5.82726933E-09
   78.3899994      -5.74733949E-09
   78.5049973      -5.65880054E-09
   78.6200027      -5.56143886E-09
   78.7350006      -5.45505285E-09
   78.8499985      -5.33945066E-09
   78.9649963      -5.21445820E-09
   79.0800018      -5.07992004E-09
   79.1949997      -4.93570163E-09
   79.3099976      -4.78168927E-09
   79.4250031      -4.61779237E-09
   79.5400009      -4.44394344E-09