  -18.8999996       0.00000000    
  -18.7849998       0.00000000    
  -18.6700001       0.00000000    
  -18.5550003       0.00000000    
  -18.4400005       0.00000000    
  -18.3250008       0.00000000    
  -18.2099991       0.00000000    
  -18.0949993       0.00000000    
  -17.9799995       0.00000000    
  -17.8649998      -8.44800805E-41
  -17.7500000      -7.62815456E-39
  -17.6350002      -5.66666322E-38
  -17.5200005      -4.59959562E-37
  -17.4050007      -2.85582457E-36
  -17.2900009      -1.39330031E-35
  -17.1749992      -5.65481717E-35
  -17.0599995      -1.98033559E-34
  -16.9449997      -6.12651447E-34
  -16.8299999      -1.70166840E-33
  -16.7150002      -4.29326096E-33
  -16.6000004      -9.92115763E-33
  -16.4850006      -2.11134948E-32
  -16.3700008      -4.14888057E-32
  -16.2549992      -7.52342657E-32
  -16.1399994      -1.25238579E-31
  -16.0249996      -1.88825300E-31
  -15.9099998      -2.49820785E-31
  -15.7950001      -2.65844278E-31
  -15.6800003      -1.50597989E-31
  -15.5649996       2.46984435E-31
  -15.4499998       1.16116432E-30
  -15.3350000       2.91430158E-30
  -15.2200003       5.89014904E-30
  -15.1049995       1.04503186E-29
  -14.9899998       1.67641143E-29
  -14.8750000       2.45240862E-29
  -14.7600002       3.25341237E-29
  -14.6450005       3.81894514E-29
  -14.5299997       3.69230020E-29
  -14.4150000       2.17705406E-29
  -14.3000002      -1.66994542E-29
  -14.1850004      -8.97529155E-29
  -14.0699997      -2.08754580E-28
  -13.9549999      -3.81938414E-28
  -13.8400002      -6.09418353E-28
  -13.7250004      -8.76459036E-28
  -13.6099997      -1.14549893E-27
  -13.4949999      -1.34808278E-27
  -13.3800001      -1.37865461E-27
  -13.2650003      -1.09300973E-27
  -13.1499996      -3.14902185E-28
  -13.0349998       1.14533889E-27
  -12.9200001       3.45661900E-27
  -12.8050003       6.71495428E-27
  -12.6899996       1.08734646E-26
  -12.5749998       1.56583405E-26
  -12.4600000       2.04798614E-26
  -12.3450003       2.43539881E-26
  -12.2299995       2.58571348E-26
  -12.1149998       2.31433809E-26
  -12.0000000       1.40579435E-26
  -11.8850002      -3.61875920E-27
  -11.7700005      -3.17686397E-26
  -11.6549997      -7.13631062E-26
  -11.5400000      -1.21735597E-25
  -11.4250002      -1.79755886E-25
  -11.3100004      -2.39014328E-25
  -11.1949997      -2.89183392E-25
  -11.0799999      -3.15781094E-25
  -10.9650002      -3.00602622E-25
  -10.8500004      -2.23098344E-25
  -10.7349997      -6.29347314E-26
  -10.6199999       1.96132663E-25
  -10.5050001       5.61134758E-25
  -10.3900003       1.02384354E-24
  -10.2749996       1.55447704E-24
  -10.1599998       2.09618881E-24
  -10.0450001       2.56173251E-24
  -9.93000031       2.83392167E-24
  -9.81499958       2.77156379E-24
  -9.69999981       2.22231465E-24
  -9.58500004       1.04330079E-24
  -9.47000027      -8.70621605E-25
  -9.35499954      -3.55248796E-24
  -9.23999977      -6.92591002E-24
  -9.12500000      -1.07697768E-23
  -9.01000023      -1.46916193E-23
  -8.89500046      -1.81174213E-23
  -8.77999973      -2.03060780E-23
  -8.66499996      -2.03958141E-23
  -8.55000019      -1.74876453E-23
  -8.43500042      -1.07669992E-23
  -8.31999969       3.40905599E-25
  -8.20499992       1.59930347E-23
  -8.09000015       3.57464431E-23
  -7.97499990       5.83977762E-23
  -7.86000013       8.18758734E-23
  -7.74499989       1.03221686E-22
  -7.63000011       1.18688983E-22
  -7.51499987       1.23992476E-22
  -7.40000010       1.14717832E-22
  -7.28499985       8.68896776E-23
  -7.17000008       3.76692631E-23
  -7.05499983      -3.38731950E-23
  -6.94000006      -1.25995425E-22
  -6.82499981      -2.33637856E-22
  -6.71000004      -3.48022359E-22
  -6.59499979      -4.56627175E-22
  -6.48000002      -5.43657945E-22
  -6.36499977      -5.91104356E-22
  -6.25000000      -5.80418913E-22
  -6.13500023      -4.94781638E-22
  -6.01999998      -3.21825841E-22
  -5.90500021      -5.66026506E-23
  -5.78999996       2.95531832E-22
  -5.67500019       7.16504160E-22
  -5.55999994       1.17403061E-21
  -5.44500017       1.62149322E-21
  -5.32999992       1.99958574E-21
  -5.21500015       2.24000894E-21
  -5.09999990       2.27132366E-21
  -4.98500013       2.02681848E-21
  -4.86999989       1.45398369E-21
  -4.75500011       5.24861346E-22
  -4.63999987      -7.53722794E-22
  -4.52500010      -2.33128961E-21
  -4.40999985      -4.10758424E-21
  -4.29500008      -5.93060388E-21
  -4.17999983      -7.60002722E-21
  -4.06500006      -8.87698891E-21
  -3.95000005      -9.50064674E-21
  -3.83500004      -9.21129185E-21
  -3.72000003      -7.77904478E-21
  -3.60500002      -5.03623019E-21
  -3.49000001      -9.10805321E-22
  -3.37500000       4.54258391E-21
  -3.25999999       1.11177558E-20
  -3.14499998       1.84424748E-20
  -3.02999997       2.59780563E-20
  -2.91499996       3.30362560E-20
  -2.79999995       3.88154406E-20
  -2.68499994       4.24563730E-20
  -2.56999993       4.31159655E-20
  -2.45499992       4.00550418E-20
  -2.33999991       3.27339118E-20
  -2.22499990       2.09074407E-20
  -2.10999990       4.70956130E-21
  -1.99500000      -1.52836045E-20
  -1.88000000      -3.80227980E-20
  -1.76499999      -6.19963016E-20
  -1.64999998      -8.52891906E-20
  -1.53499997      -1.05693927E-19
  -1.41999996      -1.20870281E-19
  -1.30499995      -1.28546568E-19
  -1.19000006      -1.26747890E-19
  -1.07500005      -1.14031487E-19
 -0.959999979      -8.97041379E-20
 -0.845000029      -5.39934293E-20
 -0.730000019      -8.14456733E-21
 -0.615000010       4.55837425E-20
 -0.500000000       1.04044445E-19
 -0.384999990       1.63459587E-19
 -0.270000011       2.19808384E-19
 -0.155000001       2.69330292E-19
  -3.99999991E-02   3.09110519E-19
   7.50000030E-02   3.37701603E-19
  0.189999998       3.55719717E-19
  0.305000007       3.66345834E-19
  0.419999987       3.75658828E-19
  0.535000026       3.92730440E-19
  0.649999976       4.29422776E-19
  0.764999986       4.99853043E-19
  0.879999995       6.19511750E-19
  0.995000005       8.04058743E-19
   1.11000001       1.06785801E-18
   1.22500002       1.42234606E-18
   1.34000003       1.87436521E-18
   1.45500004       2.42461920E-18
   1.57000005       3.06641850E-18
   1.68499994       3.78488732E-18
   1.79999995       4.55678000E-18
   1.91499996       5.35102601E-18
   2.02999997       6.13006181E-18
   2.14499998       6.85194647E-18
   2.25999999       7.47317648E-18
   2.37500000       7.95204457E-18
   2.49000001       8.25230286E-18
   2.60500002       8.34682975E-18
   2.72000003       8.22096926E-18
   2.83500004       7.87518378E-18
   2.95000005       7.32668362E-18
   3.06500006       6.60976949E-18
   3.18000007       5.77468103E-18
   3.29500008       4.88489526E-18
   3.41000009       4.01294391E-18
   3.52500010       3.23498364E-18
   3.64000010       2.62448919E-18
   3.75500011       2.24558919E-18
   3.86999989       2.14665859E-18
   3.98499990       2.35482004E-18
   4.09999990       2.87202361E-18
   4.21500015       3.67327129E-18
   4.32999992       4.70742862E-18
   4.44500017       5.90085337E-18
   4.55999994       7.16381755E-18
   4.67500019       8.39941445E-18
   4.78999996       9.51434059E-18
   4.90500021       1.04306780E-17
   5.01999998       1.10976032E-17
   5.13500023       1.15017223E-17
   5.25000000       1.16748421E-17
   5.36499977       1.16978840E-17
   5.48000002       1.17000206E-17
   5.59499979       1.18523004E-17
   5.71000004       1.23555530E-17
   5.82499981       1.34228426E-17
   5.94000006       1.52572455E-17
   6.05499983       1.80263103E-17
   6.17000008       2.18349940E-17
   6.28499985       2.66992246E-17
   6.40000010       3.25224918E-17
   6.51499987       3.90778319E-17
   6.63000011       4.59973665E-17
   6.74499989       5.27712842E-17
   6.86000013       5.87572793E-17
   6.97499990       6.32011251E-17
   7.09000015       6.52678260E-17
   7.20499992       6.40821519E-17
   7.32000017       5.87765096E-17
   7.43499994       4.85432067E-17
   7.55000019       3.26880106E-17
   7.66499996       1.06812153E-17
   7.78000021      -1.77971532E-17
   7.89499998      -5.28214775E-17
   8.01000023      -9.41965290E-17
   8.12500000      -1.41447117E-16
   8.23999977      -1.93822605E-16
   8.35499954      -2.50315468E-16
   8.47000027      -3.09693351E-16
   8.58500004      -3.70541366E-16
   8.69999981      -4.31313094E-16
   8.81499958      -4.90384643E-16
   8.93000031      -5.46110358E-16
   9.04500008      -5.96874736E-16
   9.15999985      -6.41138296E-16
   9.27499962      -6.77474686E-16
   9.39000034      -7.04598110E-16
   9.50500011      -7.21379845E-16
   9.61999989      -7.26855066E-16
   9.73499966      -7.20221262E-16
   9.85000038      -7.00830772E-16
   9.96500015      -6.68179346E-16
   10.0799999      -6.21893919E-16
   10.1949997      -5.61722710E-16
   10.3100004      -4.87526912E-16
   10.4250002      -3.99277646E-16
   10.5400000      -2.97054640E-16
   10.6549997      -1.81047350E-16
   10.7700005      -5.15540118E-17
   10.8850002       9.10252310E-17
   11.0000000       2.46204076E-16
   11.1149998       4.13442420E-16
   11.2299995       5.92195197E-16
   11.3450003       7.81987117E-16
   11.4600000       9.82507820E-16
   11.5749998       1.19373380E-15
   11.6899996       1.41606767E-15
   11.8050003       1.65049865E-15
   11.9200001       1.89876326E-15
   12.0349998       2.16351188E-15
   12.1499996       2.44845461E-15
   12.2650003       2.75848117E-15
   12.3800001       3.09973867E-15
   12.4949999       3.47965878E-15
   12.6099997       3.90691533E-15
   12.7250004       4.39131314E-15
   12.8400002       4.94360107E-15
   12.9549999       5.57521109E-15
   13.0699997       6.29792120E-15
   13.1850004       7.12347848E-15
   13.3000002       8.06316921E-15
   13.4150000       9.12737547E-15
   13.5299997       1.03251495E-14
   13.6450005       1.16638089E-14
   13.7600002       1.31486034E-14
   13.8750000       1.47824817E-14
   13.9899998       1.65659485E-14
   14.1049995       1.84970684E-14
   14.2200003       2.05715927E-14
   14.3350000       2.27832517E-14
   14.4499998       2.51241339E-14
   14.5649996       2.75852288E-14
   14.6800003       3.01570258E-14
   14.7950001       3.28301636E-14
   14.9099998       3.55961225E-14
   15.0249996       3.84478487E-14
   15.1400003       4.13803547E-14
   15.2550001       4.43911502E-14
   15.3699999       4.74805911E-14
   15.4849997       5.06519977E-14
   15.6000004       5.39116176E-14
   15.7150002       5.72683719E-14
   15.8299999       6.07334346E-14
   15.9449997       6.43196095E-14
   16.0599995       6.80406049E-14
   16.1749992       7.19102038E-14
   16.2900009       7.59413352E-14
   16.4050007       8.01452478E-14
   16.5200005       8.45306355E-14
   16.6350002       8.91029126E-14
   16.7500000       9.38636240E-14
   16.8649998       9.88100593E-14
   16.9799995       1.03935049E-13
   17.0949993       1.09226959E-13
   17.2099991       1.14669911E-13
   17.3250008       1.20244242E-13
   17.4400005       1.25927047E-13
   17.5550003       1.31692969E-13
   17.6700001       1.37514918E-13
   17.7849998       1.43365029E-13
   17.8999996       1.49215425E-13
   18.0149994       1.55039122E-13
   18.1299992       1.60810696E-13
   18.2450008       1.66506782E-13
   18.3600006       1.72106619E-13
   18.4750004       1.77592248E-13
   18.5900002       1.82948519E-13
   18.7049999       1.88163152E-13
   18.8199997       1.93226281E-13
   18.9349995       1.98130114E-13
   19.0499992       2.02868389E-13
   19.1650009       2.07435685E-13
   19.2800007       2.11826758E-13
   19.3950005       2.16035794E-13
   19.5100002       2.20055595E-13
   19.6250000       2.23876879E-13
   19.7399998       2.27487652E-13
   19.8549995       2.30872558E-13
   19.9699993       2.34012164E-13
   20.0849991       2.36882806E-13
   20.2000008       2.39455943E-13
   20.3150005       2.41697992E-13
   20.4300003       2.43570192E-13
   20.5450001       2.45028363E-13
   20.6599998       2.46023091E-13
   20.7749996       2.46499652E-13
   20.8899994       2.46398225E-13
   21.0049992       2.45654164E-13
   21.1200008       2.44198271E-13
   21.2350006       2.41957089E-13
   21.3500004       2.38853344E-13
   21.4650002       2.34806423E-13
   21.5799999       2.29732764E-13
   21.6949997       2.23546374E-13
   21.8099995       2.16159203E-13
   21.9249992       2.07481669E-13
   22.0400009       1.97422875E-13
   22.1550007       1.85891030E-13
   22.2700005       1.72793488E-13
   22.3850002       1.58036792E-13
   22.5000000       1.41526588E-13
   22.6149998       1.23167345E-13
   22.7299995       1.02861723E-13
   22.8449993       8.05100615E-14
   22.9599991       5.60094336E-14
   23.0750008       2.92526047E-14
   23.1900005       1.26933790E-16
   23.3050003      -3.14869760E-14
   23.4200001      -6.57166175E-14
   23.5349998      -1.02698923E-13
   23.6499996      -1.42581707E-13
   23.7649994      -1.85524732E-13
   23.8799992      -2.31700943E-13
   23.9950008      -2.81297392E-13
   24.1100006      -3.34515862E-13
   24.2250004      -3.91573194E-13
   24.3400002      -4.52701407E-13
   24.4549999      -5.18147374E-13
   24.5699997      -5.88172469E-13
   24.6849995      -6.63051265E-13
   24.7999992      -7.43070915E-13
   24.9150009      -8.28528977E-13
   25.0300007      -9.19732389E-13
   25.1450005      -1.01699530E-12
   25.2600002      -1.12063744E-12
   25.3750000      -1.23098168E-12
   25.4899998      -1.34835253E-12
   25.6049995      -1.47307394E-12
   25.7199993      -1.60546695E-12
   25.8349991      -1.74584945E-12
   25.9500008      -1.89453271E-12
   26.0650005      -2.05182225E-12
   26.1800003      -2.21801375E-12
   26.2950001      -2.39339494E-12
   26.4099998      -2.57824404E-12
   26.5249996      -2.77282862E-12
   26.6399994      -2.97740565E-12
   26.7549992      -3.19222231E-12
   26.8700008      -3.41751562E-12
   26.9850006      -3.65351152E-12
   27.1000004      -3.90042859E-12
   27.2150002      -4.15847521E-12
   27.3299999      -4.42785088E-12
   27.4449997      -4.70875118E-12
   27.5599995      -5.00136217E-12
   27.6749992      -5.30586295E-12
   27.7900009      -5.62242874E-12
   27.9050007      -5.95122779E-12
   28.0200005      -6.29242231E-12
   28.1350002      -6.64616799E-12
   28.2500000      -7.01261185E-12
   28.3649998      -7.39189179E-12
   28.4799995      -7.78413271E-12
   28.5949993      -8.18944825E-12
   28.7099991      -8.60792861E-12
   28.8250008      -9.03964664E-12
   28.9400005      -9.48464397E-12
   29.0550003      -9.94293450E-12
   29.1700001      -1.04144913E-11
   29.2849998      -1.08992450E-11
   29.3999996      -1.13970769E-11
   29.5149994      -1.19078107E-11
   29.6299992      -1.24312114E-11
   29.7450008      -1.29669704E-11
   29.8600006      -1.35147119E-11
   29.9750004      -1.40739807E-11
   30.0900002      -1.46442337E-11
   30.2049999      -1.52248544E-11
   30.3199997      -1.58151287E-11
   30.4349995      -1.64142588E-11
   30.5499992      -1.70213600E-11
   30.6650009      -1.76354608E-11
   30.7800007      -1.82555134E-11
   30.8950005      -1.88803834E-11
   31.0100002      -1.95088702E-11
   31.1250000      -2.01397076E-11
   31.2399998      -2.07715720E-11
   31.3549995      -2.14030894E-11
   31.4699993      -2.20328391E-11
   31.5849991      -2.26593692E-11
   31.7000008      -2.32812051E-11
   31.8150005      -2.38968411E-11
   31.9300003      -2.45047593E-11
   32.0449982      -2.51034315E-11
   32.1599998      -2.56913119E-11
   32.2750015      -2.62668411E-11
   32.3899994      -2.68284474E-11
   32.5050011      -2.73745349E-11
   32.6199989      -2.79034764E-11
   32.7350006      -2.84136083E-11
   32.8499985      -2.89032184E-11
   32.9650002      -2.93705338E-11
   33.0800018      -2.98136967E-11
   33.1949997      -3.02307727E-11
   33.3100014      -3.06197220E-11
   33.4249992      -3.09783865E-11
   33.5400009      -3.13045007E-11
   33.6549988      -3.15956497E-11
   33.7700005      -3.18492975E-11
   33.8849983      -3.20627656E-11
   34.0000000      -3.22332439E-11
   34.1150017      -3.23578005E-11
   34.2299995      -3.24333789E-11
   34.3450012      -3.24568220E-11
   34.4599991      -3.24248996E-11
   34.5750008      -3.23343019E-11
   34.6899986      -3.21816948E-11
   34.8050003      -3.19637199E-11
   34.9199982      -3.16770360E-11
   35.0349998      -3.13183368E-11
   35.1500015      -3.08843819E-11
   35.2649994      -3.03720209E-11
   35.3800011      -2.97782111E-11
   35.4949989      -2.91000331E-11
   35.6100006      -2.83347113E-11
   35.7249985      -2.74796227E-11
   35.8400002      -2.65322955E-11
   35.9550018      -2.54904136E-11
   36.0699997      -2.43518140E-11
   36.1850014      -2.31144843E-11
   36.2999992      -2.17765406E-11
   36.4150009      -2.03362188E-11
   36.5299988      -1.87918708E-11
   36.6450005      -1.71419354E-11
   36.7599983      -1.53849260E-11
   36.8750000      -1.35194226E-11
   36.9900017      -1.15440652E-11
   37.1049995      -9.45753371E-12
   37.2200012      -7.25855400E-12
   37.3349991      -4.94589916E-12
   37.4500008      -2.51839413E-12
   37.5649986       2.50768847E-14
   37.6800003       2.68554970E-12
   37.7949982       5.46396218E-12
   37.9099998       8.36113123E-12
   38.0250015       1.13777199E-11
   38.1399994       1.45142206E-11
   38.2550011       1.77709149E-11
   38.3699989       2.11478370E-11
   38.4850006       2.46447637E-11
   38.5999985       2.82611712E-11
   38.7150002       3.19962078E-11
   38.8300018       3.58486851E-11
   38.9449997       3.98170386E-11
   39.0600014       4.38993321E-11
   39.1749992       4.80932447E-11
   39.2900009       5.23960632E-11
   39.4049988       5.68046964E-11
   39.5200005       6.13156470E-11
   39.6349983       6.59250710E-11
   39.7500000       7.06287390E-11
   39.8650017       7.54221199E-11
   39.9799995       8.03003219E-11
   40.0950012       8.52581894E-11
   40.2099991       9.02902544E-11
   40.3250008       9.53908688E-11
   40.4399986       1.00554093E-10
   40.5550003       1.05773813E-10
   40.6699982       1.11043764E-10
   40.7849998       1.16357486E-10
   40.9000015       1.21708393E-10
   41.0149994       1.27089769E-10
   41.1300011       1.32494793E-10
   41.2449989       1.37916525E-10
   41.3600006       1.43347903E-10
   41.4749985       1.48781806E-10
   41.5900002       1.54210950E-10
   41.7050018       1.59627922E-10
   41.8199997       1.65025216E-10
   41.9350014       1.70395142E-10
   42.0499992       1.75729861E-10
   42.1650009       1.81021337E-10
   42.2799988       1.86261243E-10
   42.3950005       1.91441155E-10
   42.5099983       1.96552330E-10
   42.6250000       2.01585748E-10
   42.7400017       2.06532097E-10
   42.8549995       2.11381815E-10
   42.9700012       2.16125007E-10
   43.0849991       2.20751487E-10
   43.2000008       2.25250832E-10
   43.3149986       2.29612274E-10
   43.4300003       2.33824848E-10
   43.5449982       2.37877412E-10
   43.6599998       2.41758613E-10
   43.7750015       2.45456933E-10
   43.8899994       2.48960824E-10
   44.0050011       2.52258714E-10
   44.1199989       2.55339000E-10
   44.2350006       2.58190164E-10
   44.3499985       2.60800881E-10
   44.4650002       2.63159911E-10
   44.5800018       2.65256261E-10
   44.6949997       2.67079192E-10
   44.8100014       2.68618294E-10
   44.9249992       2.69863382E-10
   45.0400009       2.70804656E-10
   45.1549988       2.71432682E-10
   45.2700005       2.71738299E-10
   45.3849983       2.71712791E-10
   45.5000000       2.71347667E-10
   45.6150017       2.70634903E-10
   45.7299995       2.69566675E-10
   45.8450012       2.68135569E-10
   45.9599991       2.66334399E-10
   46.0750008       2.64156280E-10
   46.1899986       2.61594663E-10
   46.3050003       2.58643190E-10
   46.4199982       2.55295812E-10
   46.5349998       2.51546839E-10
   46.6500015       2.47390691E-10
   46.7649994       2.42822262E-10
   46.8800011       2.37836639E-10
   46.9949989       2.32429284E-10
   47.1100006       2.26595992E-10
   47.2249985       2.20332919E-10
   47.3400002       2.13636622E-10
   47.4550018       2.06504036E-10
   47.5699997       1.98932551E-10
   47.6850014       1.90920016E-10
   47.7999992       1.82464738E-10
   47.9150009       1.73565481E-10
   48.0299988       1.64221567E-10
   48.1450005       1.54432869E-10
   48.2599983       1.44199722E-10
   48.3750000       1.33523165E-10
   48.4900017       1.22404711E-10
   48.6049995       1.10846554E-10
   48.7200012       9.88515034E-11
   48.8349991       8.64230285E-11
   48.9500008       7.35652719E-11
   49.0649986       6.02830633E-11
   49.1800003       4.65819223E-11
   49.2949982       3.24681115E-11
   49.4099998       1.79485992E-11
   49.5250015       3.03107474E-12
   49.6399994      -1.22760725E-11
   49.7550011      -2.79637268E-11
   49.8699989      -4.40221123E-11
   49.9850006      -6.04408190E-11
   50.0999985      -7.72087880E-11
   50.2150002      -9.43143827E-11
   50.3300018      -1.11745377E-10
   50.4449997      -1.29489128E-10
   50.5600014      -1.47532431E-10
   50.6749992      -1.65861769E-10
   50.7900009      -1.84463070E-10
   50.9049988      -2.03322012E-10
   51.0200005      -2.22423788E-10
   51.1349983      -2.41753367E-10
   51.2500000      -2.61295235E-10
   51.3650017      -2.81033502E-10
   51.4799995      -3.00951875E-10
   51.5950012      -3.21033589E-10
   51.7099991      -3.41261436E-10
   51.8250008      -3.61617514E-10
   51.9399986      -3.82083476E-10
   52.0550003      -4.02640282E-10
   52.1699982      -4.23268115E-10
   52.2849998      -4.43946546E-10
   52.4000015      -4.64654287E-10
   52.5149994      -4.85369411E-10
   52.6300011      -5.06069131E-10
   52.7449989      -5.26730048E-10
   52.8600006      -5.47328016E-10
   52.9749985      -5.67838387E-10
   53.0900002      -5.88236015E-10
   53.2050018      -6.08495032E-10
   53.3199997      -6.28589403E-10
   53.4350014      -6.48493093E-10
   53.5499992      -6.68179456E-10
   53.6650009      -6.87622126E-10
   53.7799988      -7.06794678E-10
   53.8950005      -7.25670801E-10
   54.0099983      -7.44224460E-10
   54.1250000      -7.62429453E-10
   54.2400017      -7.80260356E-10
   54.3549995      -7.97691635E-10
   54.4700012      -8.14698087E-10
   54.5849991      -8.31254565E-10
   54.7000008      -8.47336368E-10
   54.8149986      -8.62918403E-10
   54.9300003      -8.77976136E-10
   55.0449982      -8.92484364E-10
   55.1599998      -9.06418329E-10
   55.2750015      -9.19752663E-10
   55.3899994      -9.32461774E-10
   55.5050011      -9.44520018E-10
   55.6199989      -9.55901247E-10
   55.7350006      -9.66578928E-10
   55.8499985      -9.76526637E-10
   55.9650002      -9.85717175E-10
   56.0800018      -9.94123672E-10
   56.1949997      -1.00171860E-09
   56.3100014      -1.00847519E-09
   56.4249992      -1.01436626E-09
   56.5400009      -1.01936493E-09
   56.6549988      -1.02344477E-09
   56.7700005      -1.02658027E-09
   56.8849983      -1.02874576E-09
   57.0000000      -1.02991693E-09
   57.1150017      -1.03006992E-09
   57.2299995      -1.02918196E-09
   57.3450012      -1.02723119E-09
   57.4599991      -1.02419695E-09
   57.5750008      -1.02005959E-09
   57.6899986      -1.01480024E-09
   57.8050003      -1.00840170E-09
   57.9199982      -1.00084752E-09
   58.0349998      -9.92122384E-10
   58.1500015      -9.82212089E-10
   58.2649994      -9.71103309E-10
   58.3800011      -9.58784163E-10
   58.4949989      -9.45243106E-10
   58.6100006      -9.30470312E-10
   58.7249985      -9.14456233E-10
   58.8400002      -8.97192542E-10
   58.9550018      -8.78671857E-10
   59.0699997      -8.58887683E-10
   59.1850014      -8.37834524E-10
   59.2999992      -8.15507828E-10
   59.4150009      -7.91904209E-10
   59.5299988      -7.67021169E-10
   59.6450005      -7.40857597E-10
   59.7599983      -7.13413550E-10
   59.8750000      -6.84690526E-10
   59.9900017      -6.54691468E-10
   60.1049995      -6.23420759E-10
   60.2200012      -5.90884730E-10
   60.3349991      -5.57091318E-10
   60.4500008      -5.22050458E-10
   60.5649986      -4.85774143E-10
   60.6800003      -4.48276360E-10
   60.7949982      -4.09573514E-10
   60.9099998      -3.69684172E-10
   61.0250015      -3.28629401E-10
   61.1399994      -2.86432544E-10
   61.2550011      -2.43119552E-10
   61.3699989      -1.98718833E-10
   61.4850006      -1.53261251E-10
   61.5999985      -1.06780272E-10
   61.7150002      -5.93116875E-11
   61.8300018      -1.08937182E-11
   61.9449997       3.84329131E-11
   62.0600014       8.86254473E-11
   62.1749992       1.39638690E-10
   62.2900009       1.91425389E-10
   62.4049988       2.43936288E-10
   62.5200005       2.97120134E-10
   62.6349983       3.50924068E-10
   62.7500000       4.05293132E-10
   62.8650017       4.60170957E-10
   62.9799995       5.15499643E-10
   63.0950012       5.71219738E-10
   63.2099991       6.27270458E-10
   63.3250008       6.83589962E-10
   63.4399986       7.40115025E-10
   63.5550003       7.96781308E-10
   63.6699982       8.53523918E-10
   63.7849998       9.10276576E-10
   63.9000015       9.66972391E-10
   64.0149994       1.02354369E-09
   64.1299973       1.07992237E-09
   64.2450027       1.13603971E-09
   64.3600006       1.19182653E-09
   64.4749985       1.24721322E-09
   64.5899963       1.30213018E-09
   64.7050018       1.35650724E-09
   64.8199997       1.41027445E-09
   64.9349976       1.46336154E-09
   65.0500031       1.51569823E-09
   65.1650009       1.56721469E-09
   65.2799988       1.61784086E-09
   65.3949966       1.66750702E-09
   65.5100021       1.71614323E-09
   65.6250000       1.76368020E-09
   65.7399979       1.81004889E-09
   65.8550034       1.85518023E-09
   65.9700012       1.89900562E-09
   66.0849991       1.94145633E-09
   66.1999969       1.98246486E-09
   66.3150024       2.02196371E-09
   66.4300003       2.05988582E-09
   66.5449982       2.09616546E-09
   66.6600037       2.13073670E-09
   66.7750015       2.16353579E-09
   66.8899994       2.19449903E-09
   67.0049973       2.22356422E-09
   67.1200027       2.25067098E-09
   67.2350006       2.27576069E-09
   67.3499985       2.29877584E-09
   67.4649963       2.31966157E-09
   67.5800018       2.33836484E-09
   67.6949997       2.35483522E-09
   67.8099976       2.36902520E-09
   67.9250031       2.38088971E-09
   68.0400009       2.39038633E-09
   68.1549988       2.39747644E-09
   68.2699966       2.40212361E-09
   68.3850021       2.40429587E-09
   68.5000000       2.40396392E-09
   68.6149979       2.40110243E-09
   68.7300034       2.39569009E-09
   68.8450012       2.38770892E-09
   68.9599991       2.37714559E-09
   69.0749969       2.36399011E-09
   69.1900024       2.34823738E-09
   69.3050003       2.32988584E-09
   69.4199982       2.30893948E-09
   69.5350037       2.28540609E-09
   69.6500015       2.25929853E-09
   69.7649994       2.23063390E-09
   69.8799973       2.19943486E-09
   69.9950027       2.16572715E-09
   70.1100006       2.12954321E-09
   70.2249985       2.09091922E-09
   70.3399963       2.04989536E-09
   70.4550018       2.00651717E-09
   70.5699997       1.96083438E-09
   70.6849976       1.91289962E-09
   70.8000031       1.86277105E-09
   70.9150009       1.81050974E-09
   71.0299988       1.75617965E-09
   71.1449966       1.69984893E-09
   71.2600021       1.64158820E-09
   71.3750000       1.58147084E-09
   71.4899979       1.51957313E-09
   71.6050034       1.45597323E-09
   71.7200012       1.39075218E-09
   71.8349991       1.32399314E-09
   71.9499969       1.25578148E-09
   72.0650024       1.18620480E-09
   72.1800003       1.11535270E-09
   72.2949982       1.04331710E-09
   72.4100037       9.70192482E-10
   72.5250015       8.96075492E-10
   72.6399994       8.21065049E-10
   72.7549973       7.45262574E-10
   72.8700027       6.68771538E-10
   72.9850006       5.91697857E-10
   73.0999985       5.14149945E-10
   73.2149963       4.36237907E-10
   73.3300018       3.58073876E-10
   73.4449997       2.79771650E-10
   73.5599976       2.01445777E-10
   73.6750031       1.23212524E-10
   73.7900009       4.51882767E-11
   73.9049988      -3.25103069E-11
   74.0199966      -1.09766897E-10
   74.1350021      -1.86465759E-10
   74.2500000      -2.62492583E-10
   74.3649979      -3.37734285E-10
   74.4800034      -4.12079315E-10
   74.5950012      -4.85419371E-10
   74.7099991      -5.57648372E-10
   74.8249969      -6.28663455E-10
   74.9400024      -6.98365088E-10
   75.0550003      -7.66656127E-10
   75.1699982      -8.33443925E-10
   75.2850037      -8.98639829E-10
   75.4000015      -9.62158242E-10
   75.5149994      -1.02391806E-09
   75.6299973      -1.08384179E-09
   75.7450027      -1.14185494E-09
   75.8600006      -1.19788879E-09
   75.9749985      -1.25187782E-09
   76.0899963      -1.30375954E-09
   76.2050018      -1.35347655E-09
   76.3199997      -1.40097489E-09
   76.4349976      -1.44620405E-09
   76.5500031      -1.48911883E-09
   76.6650009      -1.52967783E-09
   76.7799988      -1.56784352E-09
   76.8949966      -1.60358182E-09
   77.0100021      -1.63686498E-09
   77.1250000      -1.66766767E-09
   77.2399979      -1.69597092E-09
   77.3550034      -1.72175840E-09
   77.4700012      -1.74501946E-09
   77.5849991      -1.76574899E-09
   77.6999969      -1.78394599E-09
   77.8150024      -1.79961401E-09
   77.9300003      -1.81276216E-09
   78.0449982      -1.82340543E-09
   78.1600037      -1.83156201E-09
   78.2750015      -1.83725701E-09
   78.3899994      -1.84052040E-09
   78.5049973      -1.84138693E-09
   78.6200027      -1.83989646E-09
   78.7350006      -1.83609550E-09
   78.8499985      -1.83003424E-09
   78.9649963      -1.82176940E-09
   79.0800018      -1.81136173E-09
   79.1949997      -1.79887816E-09
   79.3099976      -1.78438941E-09
   79.4250031      -1.76797244E-09
   79.5400009      -1.74970838E-09