  -18.8999996      -0.00000000    
  -18.7849998      -0.00000000    
  -18.6700001      -0.00000000    
  -18.5550003      -0.00000000    
  -18.4400005      -8.47425507E-26
  -18.3250008      -6.26142862E-25
  -18.2099991      -2.44057018E-24
  -18.0949993      -6.58023236E-24
  -17.9799995      -1.35968918E-23
  -17.8649998      -2.27610495E-23
  -17.7500000      -3.26943655E-23
  -17.6350002      -4.56058381E-23
  -17.5200005      -7.69599825E-23
  -17.4050007      -1.70168518E-22
  -17.2900009      -4.11549062E-22
  -17.1749992      -9.35046196E-22
  -17.0599995      -1.90085943E-21
  -16.9449997      -3.42977112E-21
  -16.8299999      -5.47846365E-21
  -16.7150002      -7.65254027E-21
  -16.6000004      -8.97395241E-21
  -16.4850006      -7.64641235E-21
  -16.3700008      -8.92214356E-22
  -16.2549992       1.50392260E-20
  -16.1399994       4.45739586E-20
  -16.0249996       9.21102706E-20
  -15.9099998       1.60815414E-19
  -15.7950001       2.50876564E-19
  -15.6800003       3.57233302E-19
  -15.5649996       4.66912592E-19
  -15.4499998       5.56189833E-19
  -15.3350000       5.87901198E-19
  -15.2200003       5.09309475E-19
  -15.1049995       2.50969338E-19
  -14.9899998      -2.72977615E-19
  -14.8750000      -1.16273480E-18
  -14.7600002      -2.52881955E-18
  -14.6450005      -4.48611107E-18
  -14.5299997      -7.14629621E-18
  -14.4150000      -1.06093226E-17
  -14.3000002      -1.49547555E-17
  -14.1850004      -2.02341249E-17
  -14.0699997      -2.64654270E-17
  -13.9549999      -3.36308641E-17
  -13.8400002      -4.16786334E-17
  -13.7250004      -5.05291549E-17
  -13.6099997      -6.00854799E-17
  -13.4949999      -7.02470628E-17
  -13.3800001      -8.09252498E-17
  -13.2650003      -9.20586774E-17
  -13.1499996      -1.03626136E-16
  -13.0349998      -1.15654686E-16
  -12.9200001      -1.28221386E-16
  -12.8050003      -1.41447660E-16
  -12.6899996      -1.55486199E-16
  -12.5749998      -1.70502107E-16
  -12.4600000      -1.86650367E-16
  -12.3450003      -2.04053162E-16
  -12.2299995      -2.22780862E-16
  -12.1149998      -2.42840217E-16
  -12.0000000      -2.64172689E-16
  -11.8850002      -2.86664775E-16
  -11.7700005      -3.10170204E-16
  -11.6549997      -3.34542412E-16
  -11.5400000      -3.59674489E-16
  -11.4250002      -3.85542081E-16
  -11.3100004      -4.12245350E-16
  -11.1949997      -4.40043966E-16
  -11.0799999      -4.69383678E-16
  -10.9650002      -5.00908974E-16
  -10.8500004      -5.35462148E-16
  -10.7349997      -5.74066627E-16
  -10.6199999      -6.17894494E-16
  -10.5050001      -6.68218945E-16
  -10.3900003      -7.26352140E-16
  -10.2749996      -7.93572198E-16
  -10.1599998      -8.71041673E-16
  -10.0450001      -9.59729093E-16
  -9.93000031      -1.06034295E-15
  -9.81499958      -1.17329818E-15
  -9.69999981      -1.29873275E-15
  -9.58500004      -1.43659752E-15
  -9.47000027      -1.58683428E-15
  -9.35499954      -1.74964862E-15
  -9.23999977      -1.92586620E-15
  -9.12500000      -2.11733694E-15
  -9.01000023      -2.32732869E-15
  -8.89500046      -2.56081967E-15
  -8.77999973      -2.82459590E-15
  -8.66499996      -3.12703664E-15
  -8.55000019      -3.47750880E-15
  -8.43500042      -3.88531811E-15
  -8.31999969      -4.35823862E-15
  -8.20499992      -4.90072511E-15
  -8.09000015      -5.51201693E-15
  -7.97499990      -6.18442133E-15
  -7.86000013      -6.90215258E-15
  -7.74499989      -7.64112064E-15
  -7.63000011      -8.37002891E-15
  -7.51499987      -9.05304748E-15
  -7.40000010      -9.65414950E-15
  -7.28499985      -1.01429358E-14
  -7.17000008      -1.05015162E-14
  -7.05499983      -1.07317075E-14
  -6.94000006      -1.08615213E-14
  -6.82499981      -1.09498151E-14
  -6.71000004      -1.10878485E-14
  -6.59499979      -1.13966953E-14
  -6.48000002      -1.20197457E-14
  -6.36499977      -1.31100244E-14
  -6.25000000      -1.48127817E-14
  -6.13500023      -1.72444676E-14
  -6.01999998      -2.04700911E-14
  -5.90500021      -2.44814968E-14
  -5.78999996      -2.91796955E-14
  -5.67500019      -3.43644621E-14
  -5.55999994      -3.97341597E-14
  -5.44500017      -4.48982587E-14
  -5.32999992      -4.94036507E-14
  -5.21500015      -5.27747401E-14
  -5.09999990      -5.45653000E-14
  -4.98500013      -5.44184753E-14
  -4.86999989      -5.21295856E-14
  -4.75500011      -4.77050108E-14
  -4.63999987      -4.14097399E-14
  -4.52500010      -3.37959437E-14
  -4.40999985      -2.57059202E-14
  -4.29500008      -1.82442308E-14
  -4.17999983      -1.27164591E-14
  -4.06500006      -1.05350943E-14
  -3.95000005      -1.30967082E-14
  -3.83500004      -2.16382122E-14
  -3.72000003      -3.70833294E-14
  -3.60500002      -5.98932254E-14
  -3.49000001      -8.99367454E-14
  -3.37500000      -1.26396072E-13
  -3.25999999      -1.67722512E-13
  -3.14499998      -2.11654045E-13
  -3.02999997      -2.55302154E-13
  -2.91499996      -2.95309675E-13
  -2.79999995      -3.28075674E-13
  -2.68499994      -3.50035457E-13
  -2.56999993      -3.57979488E-13
  -2.45499992      -3.49386210E-13
  -2.33999991      -3.22744490E-13
  -2.22499990      -2.77834559E-13
  -2.10999990      -2.15939977E-13
  -1.99500000      -1.39964890E-13
  -1.88000000      -5.44354262E-14
  -1.76499999       3.46272591E-14
  -1.64999998       1.19966943E-13
  -1.53499997       1.93479103E-13
  -1.41999996       2.46708199E-13
  -1.30499995       2.71429418E-13
  -1.19000006       2.60280052E-13
  -1.07500005       2.07399541E-13
 -0.959999979       1.09032724E-13
 -0.845000029      -3.59493624E-14
 -0.730000019      -2.25654849E-13
 -0.615000010      -4.54940989E-13
 -0.500000000      -7.15378820E-13
 -0.384999990      -9.95430626E-13
 -0.270000011      -1.28084902E-12
 -0.155000001      -1.55528964E-12
  -3.99999991E-02  -1.80111687E-12
   7.50000030E-02  -2.00036927E-12
  0.189999998      -2.13584142E-12
  0.305000007      -2.19222492E-12
  0.419999987      -2.15724574E-12
  0.535000026      -2.02273658E-12
  0.649999976      -1.78557223E-12
  0.764999986      -1.44840737E-12
  0.879999995      -1.02015835E-12
  0.995000005      -5.16181715E-13
   1.11000001       4.18869075E-14
   1.22500002       6.26651725E-13
   1.34000003       1.20583871E-12
   1.45500004       1.74352048E-12
   1.57000005       2.20165314E-12
   1.68499994       2.54186993E-12
   1.79999995       2.72745953E-12
   1.91499996       2.72544357E-12
   2.02999997       2.50865778E-12
   2.14499998       2.05772508E-12
   2.25999999       1.36281882E-12
   2.37500000       4.25105887E-13
   2.49000001      -7.42227297E-13
   2.60500002      -2.11344679E-12
   2.72000003      -3.65031269E-12
   2.83500004      -5.30272267E-12
   2.95000005      -7.00997854E-12
   3.06500006      -8.70265318E-12
   3.18000007      -1.03050103E-11
   3.29500008      -1.17379110E-11
   3.41000009      -1.29220809E-11
   3.52500010      -1.37816295E-11
   3.64000010      -1.42476577E-11
   3.75500011      -1.42618079E-11
   3.86999989      -1.37795738E-11
   3.98499990      -1.27732529E-11
   4.09999990      -1.12343199E-11
   4.21500015      -9.17517104E-12
   4.32999992      -6.63007756E-12
   4.44500017      -3.65530002E-12
   4.55999994      -3.28311326E-13
   4.67500019       3.25386398E-12
   4.78999996       6.97717231E-12
   4.90500021       1.07138586E-11
   5.01999998       1.43264628E-11
   5.13500023       1.76724087E-11
   5.25000000       2.06089642E-11
   5.36499977       2.29984729E-11
   5.48000002       2.47136166E-11
   5.59499979       2.56425402E-11
   5.71000004       2.56936503E-11
   5.82499981       2.47999069E-11
   5.94000006       2.29224001E-11
   6.05499983       2.00531258E-11
   6.17000008       1.62168213E-11
   6.28499985       1.14717021E-11
   6.40000010       5.90913516E-12
   6.51499987      -3.47805525E-13
   6.63000011      -7.14686990E-12
   6.74499989      -1.43102084E-11
   6.86000013      -2.16388314E-11
   6.97499990      -2.89178351E-11
   7.09000015      -3.59222201E-11
   7.20499992      -4.24230442E-11
   7.32000017      -4.81937892E-11
   7.43499994      -5.30165564E-11
   7.55000019      -5.66880223E-11
   7.66499996      -5.90247851E-11
   7.78000021      -5.98680827E-11
   7.89499998      -5.90874780E-11
   8.01000023      -5.65837134E-11
   8.12500000      -5.22903491E-11
   8.23999977      -4.61743803E-11
   8.35499954      -3.82357028E-11
   8.47000027      -2.85056128E-11
   8.58500004      -1.70443226E-11
   8.69999981      -3.93773772E-12
   8.81499958       1.07065797E-11
   8.93000031       2.67637596E-11
   9.04500008       4.40966430E-11
   9.15999985       6.25608385E-11
   9.27499962       8.20100515E-11
   9.39000034       1.02301438E-10
   9.50500011       1.23301092E-10
   9.61999989       1.44889212E-10
   9.73499966       1.66965455E-10
   9.85000038       1.89453994E-10
   9.96500015       2.12308601E-10
   10.0799999       2.35517189E-10
   10.1949997       2.59106292E-10
   10.3100004       2.83145035E-10
   10.4250002       3.07748493E-10
   10.5400000       3.33080591E-10
   10.6549997       3.59355712E-10
   10.7700005       3.86839422E-10
   10.8850002       4.15848050E-10
   11.0000000       4.46746501E-10
   11.1149998       4.79945084E-10
   11.2299995       5.15893994E-10
   11.3450003       5.55076818E-10
   11.4600000       5.98001648E-10
   11.5749998       6.45192400E-10
   11.6899996       6.97177149E-10
   11.8050003       7.54477147E-10
   11.9200001       8.17594492E-10
   12.0349998       8.87000529E-10
   12.1499996       9.63124691E-10
   12.2650003       1.04634446E-09
   12.3800001       1.13697651E-09
   12.4949999       1.23527033E-09
   12.6099997       1.34140432E-09
   12.7250004       1.45548307E-09
   12.8400002       1.57753965E-09
   12.9549999       1.70753922E-09
   13.0699997       1.84538484E-09
   13.1850004       1.99092742E-09
   13.3000002       2.14397677E-09
   13.4150000       2.30431429E-09
   13.5299997       2.47170751E-09
   13.6450005       2.64592526E-09
   13.7600002       2.82675217E-09
   13.8750000       3.01400505E-09
   13.9899998       3.20754401E-09
   14.1049995       3.40728867E-09
   14.2200003       3.61322661E-09
   14.3350000       3.82542309E-09
   14.4499998       4.04402734E-09
   14.5649996       4.26927560E-09
   14.6800003       4.50149340E-09
   14.7950001       4.74109552E-09
   14.9099998       4.98857888E-09
   15.0249996       5.24452082E-09
   15.1400003       5.50956658E-09
   15.2550001       5.78442494E-09
   15.3699999       6.06985395E-09
   15.4849997       6.36665165E-09
   15.6000004       6.67564093E-09
   15.7150002       6.99766201E-09
   15.8299999       7.33355643E-09
   15.9449997       7.68416175E-09
   16.0599995       8.05029821E-09
   16.1749992       8.43276027E-09
   16.2900009       8.83231266E-09
   16.4050007       9.24968813E-09
   16.5200005       9.68558034E-09
   16.6350002       1.01406465E-08
   16.7500000       1.06155058E-08
   16.8649998       1.11107514E-08
   16.9799995       1.16269447E-08
   17.0949993       1.21646266E-08
   17.2099991       1.27243247E-08
   17.3250008       1.33065550E-08
   17.4400005       1.39118317E-08
   17.5550003       1.45406709E-08
   17.6700001       1.51935939E-08
   17.7849998       1.58711302E-08
   17.8999996       1.65738125E-08
   18.0149994       1.73021846E-08
   18.1299992       1.80567792E-08
   18.2450008       1.88381275E-08
   18.3600006       1.96467376E-08
   18.4750004       2.04830801E-08
   18.5900002       2.13475886E-08
   18.7049999       2.22406218E-08
   18.8199997       2.31624639E-08
   18.9349995       2.41133016E-08
   19.0499992       2.50931986E-08
   19.1650009       2.61020947E-08
   19.2800007       2.71397802E-08
   19.3950005       2.82058803E-08
   19.5100002       2.92998585E-08
   19.6250000       3.04209884E-08
   19.7399998       3.15683621E-08
   19.8549995       3.27408856E-08
   19.9699993       3.39372761E-08
   20.0849991       3.51560523E-08
   20.2000008       3.63955621E-08
   20.3150005       3.76539653E-08
   20.4300003       3.89292545E-08
   20.5450001       4.02192697E-08
   20.6599998       4.15216626E-08
   20.7749996       4.28339817E-08
   20.8899994       4.41536052E-08
   21.0049992       4.54777975E-08
   21.1200008       4.68037129E-08
   21.2350006       4.81283742E-08
   21.3500004       4.94487153E-08
   21.4650002       5.07615496E-08
   21.5799999       5.20636050E-08
   21.6949997       5.33515241E-08
   21.8099995       5.46218466E-08
   21.9249992       5.58710340E-08
   22.0400009       5.70954590E-08
   22.1550007       5.82914019E-08
   22.2700005       5.94550507E-08
   22.3850002       6.05825150E-08
   22.5000000       6.16697875E-08
   22.6149998       6.27127719E-08
   22.7299995       6.37072475E-08
   22.8449993       6.46489084E-08
   22.9599991       6.55332855E-08
   23.0750008       6.63557955E-08
   23.1900005       6.71116993E-08
   23.3050003       6.77961154E-08
   23.4200001       6.84039776E-08
   23.5349998       6.89300066E-08
   23.6499996       6.93688023E-08
   23.7649994       6.97146518E-08
   23.8799992       6.99616862E-08
   23.9950008       7.01037735E-08
   24.1100006       7.01345044E-08
   24.2250004       7.00472285E-08
   24.3400002       6.98350178E-08
   24.4549999       6.94906248E-08
   24.5699997       6.90065249E-08
   24.6849995       6.83749164E-08
   24.7999992       6.75876706E-08
   24.9150009       6.66363462E-08
   25.0300007       6.55122534E-08
   25.1450005       6.42063895E-08
   25.2600002       6.27095105E-08
   25.3750000       6.10120878E-08
   25.4899998       5.91043801E-08
   25.6049995       5.69764715E-08
   25.7199993       5.46182335E-08
   25.8349991       5.20194163E-08
   25.9500008       4.91696603E-08
   26.0650005       4.60585561E-08
   26.1800003       4.26756444E-08
   26.2950001       3.90104873E-08
   26.4099998       3.50526896E-08
   26.5249996       3.07919379E-08
   26.6399994       2.62180464E-08
   26.7549992       2.13209965E-08
   26.8700008       1.60909313E-08
   26.9850006       1.05182307E-08
   27.1000004       4.59350114E-09
   27.2150002      -1.69235859E-09
   27.3299999      -8.34819858E-09
   27.4449997      -1.53825432E-08
   27.5599995      -2.28035866E-08
   27.6749992      -3.06191943E-08
   27.7900009      -3.88368697E-08
   27.9050007      -4.74637680E-08
   28.0200005      -5.65066252E-08
   28.1350002      -6.59717969E-08
   28.2500000      -7.58652163E-08
   28.3649998      -8.61923866E-08
   28.4799995      -9.69583525E-08
   28.5949993      -1.08167669E-07
   28.7099991      -1.19824463E-07
   28.8250008      -1.31932282E-07
   28.9400005      -1.44494209E-07
   29.0550003      -1.57512773E-07
   29.1700001      -1.70990035E-07
   29.2849998      -1.84927359E-07
   29.3999996      -1.99325754E-07
   29.5149994      -2.14185519E-07
   29.6299992      -2.29506398E-07
   29.7450008      -2.45287680E-07
   29.8600006      -2.61528072E-07
   29.9750004      -2.78225684E-07
   30.0900002      -2.95378186E-07
   30.2049999      -3.12982650E-07
   30.3199997      -3.31035579E-07
   30.4349995      -3.49533138E-07
   30.5499992      -3.68470751E-07
   30.6650009      -3.87843414E-07
   30.7800007      -4.07645615E-07
   30.8950005      -4.27871356E-07
   31.0100002      -4.48513987E-07
   31.1250000      -4.69566459E-07
   31.2399998      -4.91021069E-07
   31.3549995      -5.12869633E-07
   31.4699993      -5.35103311E-07
   31.5849991      -5.57712781E-07
   31.7000008      -5.80687981E-07
   31.8150005      -6.04018396E-07
   31.9300003      -6.27692771E-07
   32.0449982      -6.51699395E-07
   32.1599998      -6.76025650E-07
   32.2750015      -7.00658575E-07
   32.3899994      -7.25584357E-07
   32.5050011      -7.50788843E-07
   32.6199989      -7.76256854E-07
   32.7350006      -8.01972817E-07
   32.8499985      -8.27920474E-07
   32.9650002      -8.54083055E-07
   33.0800018      -8.80442940E-07
   33.1949997      -9.06982052E-07
   33.3100014      -9.33681690E-07
   33.4249992      -9.60522584E-07
   33.5400009      -9.87484555E-07
   33.6549988      -1.01454725E-06
   33.7700005      -1.04168964E-06
   33.8849983      -1.06888967E-06
   34.0000000      -1.09612563E-06
   34.1150017      -1.12337420E-06
   34.2299995      -1.15061198E-06
   34.3450012      -1.17781508E-06
   34.4599991      -1.20495895E-06
   34.5750008      -1.23201846E-06
   34.6899986      -1.25896838E-06
   34.8050003      -1.28578188E-06
   34.9199982      -1.31243280E-06
   35.0349998      -1.33889375E-06
   35.1500015      -1.36513665E-06
   35.2649994      -1.39113354E-06
   35.3800011      -1.41685541E-06
   35.4949989      -1.44227295E-06
   35.6100006      -1.46735636E-06
   35.7249985      -1.49207517E-06
   35.8400002      -1.51639813E-06
   35.9550018      -1.54029442E-06
   36.0699997      -1.56373187E-06
   36.1850014      -1.58667865E-06
   36.2999992      -1.60910201E-06
   36.4150009      -1.63096877E-06
   36.5299988      -1.65224617E-06
   36.6450005      -1.67290057E-06
   36.7599983      -1.69289842E-06
   36.8750000      -1.71220643E-06
   36.9900017      -1.73079025E-06
   37.1049995      -1.74861668E-06
   37.2200012      -1.76565175E-06
   37.3349991      -1.78186190E-06
   37.4500008      -1.79721360E-06
   37.5649986      -1.81167388E-06
   37.6800003      -1.82520978E-06
   37.7949982      -1.83778843E-06
   37.9099998      -1.84937721E-06
   38.0250015      -1.85994406E-06
   38.1399994      -1.86945704E-06
   38.2550011      -1.87788419E-06
   38.3699989      -1.88519437E-06
   38.4850006      -1.89135619E-06
   38.5999985      -1.89633874E-06
   38.7150002      -1.90011087E-06
   38.8300018      -1.90264200E-06
   38.9449997      -1.90390085E-06
   39.0600014      -1.90385697E-06
   39.1749992      -1.90247920E-06
   39.2900009      -1.89973605E-06
   39.4049988      -1.89559648E-06
   39.5200005      -1.89002822E-06
   39.6349983      -1.88299907E-06
   39.7500000      -1.87447654E-06
   39.8650017      -1.86442696E-06
   39.9799995      -1.85281692E-06
   40.0950012      -1.83961163E-06
   40.2099991      -1.82477584E-06
   40.3250008      -1.80827340E-06
   40.4399986      -1.79006747E-06
   40.5550003      -1.77012021E-06
   40.6699982      -1.74839306E-06
   40.7849998      -1.72484670E-06
   40.9000015      -1.69944019E-06
   41.0149994      -1.67213261E-06
   41.1300011      -1.64288156E-06
   41.2449989      -1.61164394E-06
   41.3600006      -1.57837553E-06
   41.4749985      -1.54303166E-06
   41.5900002      -1.50556673E-06
   41.7050018      -1.46593447E-06
   41.8199997      -1.42408760E-06
   41.9350014      -1.37997881E-06
   42.0499992      -1.33355968E-06
   42.1650009      -1.28478155E-06
   42.2799988      -1.23359564E-06
   42.3950005      -1.17995216E-06
   42.5099983      -1.12380201E-06
   42.6250000      -1.06509492E-06
   42.7400017      -1.00378168E-06
   42.8549995      -9.39811969E-07
   42.9700012      -8.73136514E-07
   43.0849991      -8.03705632E-07
   43.2000008      -7.31470493E-07
   43.3149986      -6.56382042E-07
   43.4300003      -5.78392132E-07
   43.5449982      -4.97453073E-07
   43.6599998      -4.13518165E-07
   43.7750015      -3.26541226E-07
   43.8899994      -2.36476836E-07
   44.0050011      -1.43280815E-07
   44.1199989      -4.69097508E-08
   44.2350006       5.26783808E-08
   44.3499985       1.55524788E-07
   44.4650002       2.61669072E-07
   44.5800018       3.71149667E-07
   44.6949997       4.84003692E-07
   44.8100014       6.00266674E-07
   44.9249992       7.19972718E-07
   45.0400009       8.43154112E-07
   45.1549988       9.69841722E-07
   45.2700005       1.10006442E-06
   45.3849983       1.23384893E-06
   45.5000000       1.37122072E-06
   45.6150017       1.51220274E-06
   45.7299995       1.65681547E-06
   45.8450012       1.80507777E-06
   45.9599991       1.95700522E-06
   46.0750008       2.11261158E-06
   46.1899986       2.27190753E-06
   46.3050003       2.43490149E-06
   46.4199982       2.60159891E-06
   46.5349998       2.77200252E-06
   46.6500015       2.94611186E-06
   46.7649994       3.12392331E-06
   46.8800011       3.30542935E-06
   46.9949989       3.49062088E-06
   47.1100006       3.67948292E-06
   47.2249985       3.87199907E-06
   47.3400002       4.06814752E-06
   47.4550018       4.26790302E-06
   47.5699997       4.47123739E-06
   47.6850014       4.67811651E-06
   47.7999992       4.88850401E-06
   47.9150009       5.10235850E-06
   48.0299988       5.31963315E-06
   48.1450005       5.54027702E-06
   48.2599983       5.76423417E-06
   48.3750000       5.99144596E-06
   48.4900017       6.22184507E-06
   48.6049995       6.45536329E-06
   48.7200012       6.69192423E-06
   48.8349991       6.93144648E-06
   48.9500008       7.17384592E-06
   49.0649986       7.41903023E-06
   49.1800003       7.66690391E-06
   49.2949982       7.91736511E-06
   49.4099998       8.17030741E-06
   49.5250015       8.42561712E-06
   49.6399994       8.68317784E-06
   49.7550011       8.94286586E-06
   49.8699989       9.20455204E-06
   49.9850006       9.46810633E-06
   50.0999985       9.73338956E-06
   50.2150002       1.00002571E-05
   50.3300018       1.02685626E-05
   50.4449997       1.05381541E-05
   50.5600014       1.08088743E-05
   50.6749992       1.10805631E-05
   50.7900009       1.13530568E-05
   50.9049988       1.16261854E-05
   51.0200005       1.18997787E-05
   51.1349983       1.21736612E-05
   51.2500000       1.24476546E-05
   51.3650017       1.27215781E-05
   51.4799995       1.29952487E-05
   51.5950012       1.32684800E-05
   51.7099991       1.35410828E-05
   51.8250008       1.38128662E-05
   51.9399986       1.40836382E-05
   52.0550003       1.43532052E-05
   52.1699982       1.46213706E-05
   52.2849998       1.48879344E-05
   52.4000015       1.51527001E-05
   52.5149994       1.54154659E-05
   52.6300011       1.56760307E-05
   52.7449989       1.59341944E-05
   52.8600006       1.61897478E-05
   52.9749985       1.64424910E-05
   53.0900002       1.66922164E-05
   53.2050018       1.69387185E-05
   53.3199997       1.71817956E-05
   53.4350014       1.74212364E-05
   53.5499992       1.76568356E-05
   53.6650009       1.78883893E-05
   53.7799988       1.81156884E-05
   53.8950005       1.83385273E-05
   54.0099983       1.85567042E-05
   54.1250000       1.87700098E-05
   54.2400017       1.89782386E-05
   54.3549995       1.91811923E-05
   54.4700012       1.93786673E-05
   54.5849991       1.95704633E-05
   54.7000008       1.97563768E-05
   54.8149986       1.99362112E-05
   54.9300003       2.01097737E-05
   55.0449982       2.02768642E-05
   55.1599998       2.04372936E-05
   55.2750015       2.05908746E-05
   55.3899994       2.07374123E-05
   55.5050011       2.08767287E-05
   55.6199989       2.10086309E-05
   55.7350006       2.11329498E-05
   55.8499985       2.12494979E-05
   55.9650002       2.13581097E-05
   56.0800018       2.14586053E-05
   56.1949997       2.15508207E-05
   56.3100014       2.16345888E-05
   56.4249992       2.17097477E-05
   56.5400009       2.17761371E-05
   56.6549988       2.18335990E-05
   56.7700005       2.18819841E-05
   56.8849983       2.19211415E-05
   57.0000000       2.19509220E-05
   57.1150017       2.19711874E-05
   57.2299995       2.19817921E-05
   57.3450012       2.19826034E-05
   57.4599991       2.19734848E-05
   57.5750008       2.19543053E-05
   57.6899986       2.19249341E-05
   57.8050003       2.18852456E-05
   57.9199982       2.18351179E-05
   58.0349998       2.17744291E-05
   58.1500015       2.17030592E-05
   58.2649994       2.16208955E-05
   58.3800011       2.15278196E-05
   58.4949989       2.14237207E-05
   58.6100006       2.13084877E-05
   58.7249985       2.11820134E-05
   58.8400002       2.10441904E-05
   58.9550018       2.08949186E-05
   59.0699997       2.07340854E-05
   59.1850014       2.05615925E-05
   59.2999992       2.03773379E-05
   59.4150009       2.01812200E-05
   59.5299988       1.99731439E-05
   59.6450005       1.97530062E-05
   59.7599983       1.95207122E-05
   59.8750000       1.92761618E-05
   59.9900017       1.90192641E-05
   60.1049995       1.87499190E-05
   60.2200012       1.84680339E-05
   60.3349991       1.81735195E-05
   60.4500008       1.78662813E-05
   60.5649986       1.75462264E-05
   60.6800003       1.72132659E-05
   60.7949982       1.68673178E-05
   60.9099998       1.65082856E-05
   61.0250015       1.61360949E-05
   61.1399994       1.57506620E-05
   61.2550011       1.53519013E-05
   61.3699989       1.49397429E-05
   61.4850006       1.45141121E-05
   61.5999985       1.40749353E-05
   61.7150002       1.36221515E-05
   61.8300018       1.31556972E-05
   61.9449997       1.26755149E-05
   62.0600014       1.21815538E-05
   62.1749992       1.16737674E-05
   62.2900009       1.11521167E-05
   62.4049988       1.06165680E-05
   62.5200005       1.00670986E-05
   62.6349983       9.50368849E-06
   62.7500000       8.92632943E-06
   62.8650017       8.33501872E-06
   62.9799995       7.72976819E-06
   63.0950012       7.11059238E-06
   63.2099991       6.47752222E-06
   63.3250008       5.83059591E-06
   63.4399986       5.16986302E-06
   63.5550003       4.49538402E-06
   63.6699982       3.80723304E-06
   63.7849998       3.10549535E-06
   63.9000015       2.39026781E-06
   64.0149994       1.66165967E-06
   64.1299973       9.19794445E-07
   64.2450027       1.64809052E-07
   64.3600006      -6.03146248E-07
   64.4749985      -1.38390635E-06
   64.5899963      -2.17729462E-06
   64.7050018      -2.98311829E-06
   64.8199997      -3.80116785E-06
   64.9349976      -4.63122433E-06
   65.0500031      -5.47305081E-06
   65.1650009      -6.32639512E-06
   65.2799988      -7.19099125E-06
   65.3949966      -8.06655862E-06
   65.5100021      -8.95280118E-06
   65.6250000      -9.84940652E-06
   65.7399979      -1.07560509E-05
   65.8550034      -1.16723904E-05
   65.9700012      -1.25980696E-05
   66.0849991      -1.35327191E-05
   66.1999969      -1.44759506E-05
   66.3150024      -1.54273639E-05
   66.4300003      -1.63865443E-05
   66.5449982      -1.73530661E-05
   66.6600037      -1.83264838E-05
   66.7750015      -1.93063388E-05
   66.8899994      -2.02921656E-05
   67.0049973      -2.12834766E-05
   67.1200027      -2.22797789E-05
   67.2350006      -2.32805669E-05
   67.3499985      -2.42853166E-05
   67.4649963      -2.52934951E-05
   67.5800018      -2.63045677E-05
   67.6949997      -2.73179794E-05
   67.8099976      -2.83331628E-05
   67.9250031      -2.93495559E-05
   68.0400009      -3.03665784E-05
   68.1549988      -3.13836426E-05
   68.2699966      -3.24001558E-05
   68.3850021      -3.34155120E-05
   68.5000000      -3.44291184E-05
   68.6149979      -3.54403528E-05
   68.7300034      -3.64486041E-05
   68.8450012      -3.74532574E-05
   68.9599991      -3.84536906E-05
   69.0749969      -3.94492818E-05
   69.1900024      -4.04394013E-05
   69.3050003      -4.14234310E-05
   69.4199982      -4.24007485E-05
   69.5350037      -4.33707246E-05
   69.6500015      -4.43327517E-05
   69.7649994      -4.52862114E-05
   69.8799973      -4.62304888E-05
   69.9950027      -4.71649873E-05
   70.1100006      -4.80890994E-05
   70.2249985      -4.90022394E-05
   70.3399963      -4.99038215E-05
   70.4550018      -5.07932673E-05
   70.5699997      -5.16700165E-05
   70.6849976      -5.25335090E-05
   70.8000031      -5.33832063E-05
   70.9150009      -5.42185662E-05
   71.0299988      -5.50390687E-05
   71.1449966      -5.58442080E-05
   71.2600021      -5.66334820E-05
   71.3750000      -5.74064143E-05
   71.4899979      -5.81625354E-05
   71.6050034      -5.89013871E-05
   71.7200012      -5.96225327E-05
   71.8349991      -6.03255467E-05
   71.9499969      -6.10100215E-05
   72.0650024      -6.16755569E-05
   72.1800003      -6.23217929E-05
   72.2949982      -6.29483548E-05
   72.4100037      -6.35548786E-05
   72.5250015      -6.41410734E-05
   72.6399994      -6.47065972E-05
   72.7549973      -6.52511590E-05
   72.8700027      -6.57744749E-05
   72.9850006      -6.62762686E-05
   73.0999985      -6.67562854E-05
   73.2149963      -6.72142996E-05
   73.3300018      -6.76500567E-05
   73.4449997      -6.80633675E-05
   73.5599976      -6.84540209E-05
   73.6750031      -6.88218279E-05
   73.7900009      -6.91666282E-05
   73.9049988      -6.94882547E-05
   74.0199966      -6.97865617E-05
   74.1350021      -7.00614110E-05
   74.2500000      -7.03126789E-05
   74.3649979      -7.05402490E-05
   74.4800034      -7.07440267E-05
   74.5950012      -7.09239321E-05
   74.7099991      -7.10798704E-05
   74.8249969      -7.12117835E-05
   74.9400024      -7.13195986E-05
   75.0550003      -7.14032867E-05
   75.1699982      -7.14627895E-05
   75.2850037      -7.14980852E-05
   75.4000015      -7.15091592E-05
   75.5149994      -7.14959824E-05
   75.6299973      -7.14585331E-05
   75.7450027      -7.13968548E-05
   75.8600006      -7.13109184E-05
   75.9749985      -7.12007823E-05
   76.0899963      -7.10664244E-05
   76.2050018      -7.09079104E-05
   76.3199997      -7.07252475E-05
   76.4349976      -7.05184939E-05
   76.5500031      -7.02876860E-05
   76.6650009      -7.00328674E-05
   76.7799988      -6.97540963E-05
   76.8949966      -6.94514165E-05
   77.0100021      -6.91249006E-05
   77.1250000      -6.87745851E-05
   77.2399979      -6.84005354E-05
   77.3550034      -6.80028170E-05
   77.4700012      -6.75814736E-05
   77.5849991      -6.71365779E-05
   77.6999969      -6.66681808E-05
   77.8150024      -6.61763479E-05
   77.9300003      -6.56611301E-05
   78.0449982      -6.51225782E-05
   78.1600037      -6.45607579E-05
   78.2750015      -6.39756981E-05
   78.3899994      -6.33674572E-05
   78.5049973      -6.27360714E-05
   78.6200027      -6.20815990E-05
   78.7350006      -6.14040400E-05
   78.8499985      -6.07034708E-05
   78.9649963      -5.99798841E-05
   79.0800018      -5.92333163E-05
   79.1949997      -5.84637928E-05
   79.3099976      -5.76713319E-05
   79.4250031      -5.68559517E-05
   79.5400009      -5.60176595E-05