  -18.8999996       0.00000000    
  -18.7849998       0.00000000    
  -18.6700001       0.00000000    
  -18.5550003       0.00000000    
  -18.4400005       3.57057058E-25
  -18.3250008       2.79442143E-24
  -18.2099991       1.17611817E-23
  -18.0949993       3.50835506E-23
  -17.9799995       8.26239154E-23
  -17.8649998       1.62543540E-22
  -17.7500000       2.76717032E-22
  -17.6350002       4.18993764E-22
  -17.5200005       5.80828414E-22
  -17.4050007       7.66815209E-22
  -17.2900009       1.01727110E-21
  -17.1749992       1.42725663E-21
  -17.0599995       2.14411718E-21
  -16.9449997       3.32275180E-21
  -16.8299999       5.02326793E-21
  -16.7150002       7.05154993E-21
  -16.6000004       8.76871953E-21
  -16.4850006       8.92584992E-21
  -16.3700008       5.60822276E-21
  -16.2549992      -3.61029279E-21
  -16.1399994      -2.12053275E-20
  -16.0249996      -4.88631808E-20
  -15.9099998      -8.62480545E-20
  -15.7950001      -1.29430902E-19
  -15.6800003      -1.69117102E-19
  -15.5649996      -1.88888864E-19
  -15.4499998      -1.63738425E-19
  -15.3350000      -5.91980077E-20
  -15.2200003       1.68642701E-19
  -15.1049995       5.72001029E-19
  -14.9899998       1.20903159E-18
  -14.8750000       2.14026097E-18
  -14.7600002       3.42405418E-18
  -14.6450005       5.11152868E-18
  -14.5299997       7.24150883E-18
  -14.4150000       9.83622221E-18
  -14.3000002       1.28984589E-17
  -14.1850004       1.64108415E-17
  -14.0699997       2.03375969E-17
  -13.9549999       2.46289388E-17
  -13.8400002       2.92277321E-17
  -13.7250004       3.40777303E-17
  -13.6099997       3.91323067E-17
  -13.4949999       4.43624275E-17
  -13.3800001       4.97626860E-17
  -13.2650003       5.53543046E-17
  -13.1499996       6.11847698E-17
  -13.0349998       6.73240117E-17
  -12.9200001       7.38580900E-17
  -12.8050003       8.08814622E-17
  -12.6899996       8.84895519E-17
  -12.5749998       9.67730444E-17
  -12.4600000       1.05814883E-16
  -12.3450003       1.15690367E-16
  -12.2299995       1.26469523E-16
  -12.1149998       1.38220372E-16
  -12.0000000       1.51010873E-16
  -11.8850002       1.64907495E-16
  -11.7700005       1.79969156E-16
  -11.6549997       1.96236715E-16
  -11.5400000       2.13720309E-16
  -11.4250002       2.32389021E-16
  -11.3100004       2.52169438E-16
  -11.1949997       2.72960497E-16
  -11.0799999       2.94671169E-16
  -10.9650002       3.17285492E-16
  -10.8500004       3.40953869E-16
  -10.7349997       3.66103416E-16
  -10.6199999       3.93552683E-16
  -10.5050001       4.24608908E-16
  -10.3900003       4.61120184E-16
  -10.2749996       5.05453941E-16
  -10.1599998       5.60376616E-16
  -10.0450001       6.28817514E-16
  -9.93000031       7.13517791E-16
  -9.81499958       8.16584125E-16
  -9.69999981       9.38989173E-16
  -9.58500004       1.08008570E-15
  -9.47000027       1.23721793E-15
  -9.35499954       1.40552094E-15
  -9.23999977       1.57799940E-15
  -9.12500000       1.74595280E-15
  -9.01000023       1.89978627E-15
  -8.89500046       2.03019144E-15
  -8.77999973       2.12962824E-15
  -8.66499996       2.19397267E-15
  -8.55000019       2.22414187E-15
  -8.43500042       2.22746308E-15
  -8.31999969       2.21853493E-15
  -8.20499992       2.21933220E-15
  -8.09000015       2.25836708E-15
  -7.97499990       2.36877634E-15
  -7.86000013       2.58533260E-15
  -7.74499989       2.94049965E-15
  -7.63000011       3.45980327E-15
  -7.51499987       4.15691414E-15
  -7.40000010       5.02896674E-15
  -7.28499985       6.05270220E-15
  -7.17000008       7.18206012E-15
  -7.05499983       8.34778498E-15
  -6.94000006       9.45953605E-15
  -6.82499981       1.04107879E-14
  -6.71000004       1.10866143E-14
  -6.59499979       1.13741321E-14
  -6.48000002       1.11751420E-14
  -6.36499977       1.04201366E-14
  -6.25000000       9.08260554E-15
  -6.13500023       7.19232362E-15
  -6.01999998       4.84611647E-15
  -5.90500021       2.21454668E-15
  -5.78999996      -4.57000004E-16
  -5.67500019      -2.85416984E-15
  -5.55999994      -4.60742301E-15
  -5.44500017      -5.31429318E-15
  -5.32999992      -4.56992698E-15
  -5.21500015      -2.00501169E-15
  -5.09999990       2.67075290E-15
  -4.98500013       9.62241795E-15
  -4.86999989       1.88444587E-14
  -4.75500011       3.01208474E-14
  -4.63999987       4.29955754E-14
  -4.52500010       5.67588680E-14
  -4.40999985       7.04540525E-14
  -4.29500008       8.29093264E-14
  -4.17999983       9.27970198E-14
  -4.06500006       9.87211615E-14
  -3.95000005       9.93313437E-14
  -3.83500004       9.34578885E-14
  -3.72000003       8.02603426E-14
  -3.60500002       5.93777956E-14
  -3.49000001       3.10674880E-14
  -3.37500000      -3.68425917E-15
  -3.25999999      -4.30948815E-14
  -3.14499998      -8.45774595E-14
  -3.02999997      -1.24804640E-13
  -2.91499996      -1.59852654E-13
  -2.79999995      -1.85427967E-13
  -2.68499994      -1.97171205E-13
  -2.56999993      -1.91025256E-13
  -2.45499992      -1.63645166E-13
  -2.33999991      -1.12820777E-13
  -2.22499990      -3.78754137E-14
  -2.10999990       5.99991180E-14
  -1.99500000       1.77512491E-13
  -1.88000000       3.09188601E-13
  -1.76499999       4.47453110E-13
  -1.64999998       5.82916365E-13
  -1.53499997       7.04858264E-13
  -1.41999996       8.01905200E-13
  -1.30499995       8.62870756E-13
  -1.19000006       8.77713483E-13
  -1.07500005       8.38548198E-13
 -0.959999979       7.40633574E-13
 -0.845000029       5.83251383E-13
 -0.730000019       3.70387694E-13
 -0.615000010       1.11133216E-13
 -0.500000000      -1.80270024E-13
 -0.384999990      -4.84788316E-13
 -0.270000011      -7.79389899E-13
 -0.155000001      -1.03827027E-12
  -3.99999991E-02  -1.23447064E-12
   7.50000030E-02  -1.34182064E-12
  0.189999998      -1.33709873E-12
  0.305000007      -1.20227873E-12
  0.419999987      -9.26708038E-13
  0.535000026      -5.09048532E-13
  0.649999976       4.11877021E-14
  0.764999986       7.02670235E-13
  0.879999995       1.44198824E-12
  0.995000005       2.21419996E-12
   1.11000001       2.96426165E-12
   1.22500002       3.62934531E-12
   1.34000003       4.14200662E-12
   1.45500004       4.43410022E-12
   1.57000005       4.44128631E-12
   1.68499994       4.10791973E-12
   1.79999995       3.39206462E-12
   1.91499996       2.27034971E-12
   2.02999997       7.42356751E-13
   2.14499998      -1.16577028E-12
   2.25999999      -3.39879058E-12
   2.37500000      -5.87117854E-12
   2.49000001      -8.46750101E-12
   2.60500002      -1.10445160E-11
   2.72000003      -1.34350820E-11
   2.83500004      -1.54538708E-11
   2.95000005      -1.69047849E-11
   3.06500006      -1.75898827E-11
   3.18000007      -1.73195382E-11
   3.29500008      -1.59234344E-11
   3.41000009      -1.32619558E-11
   3.52500010      -9.23744154E-12
   3.64000010      -3.80474471E-12
   3.75500011       3.01947898E-12
   3.86999989       1.11493427E-11
   3.98499990       2.04247053E-11
   4.09999990       3.06090223E-11
   4.21500015       4.13904813E-11
   4.32999992       5.23866853E-11
   4.44500017       6.31530314E-11
   4.55999994       7.31947766E-11
   4.67500019       8.19825735E-11
   4.78999996       8.89711499E-11
   4.90500021       9.36206113E-11
   5.01999998       9.54196236E-11
   5.13500023       9.39097342E-11
   5.25000000       8.87097756E-11
   5.36499977       7.95394514E-11
   5.48000002       6.62409710E-11
   5.59499979       4.87976951E-11
   5.71000004       2.73487535E-11
   5.82499981       2.19882597E-12
   5.94000006      -2.61777995E-11
   6.05499983      -5.71393627E-11
   6.17000008      -8.98853630E-11
   6.28499985      -1.23471969E-10
   6.40000010      -1.56833962E-10
   6.51499987      -1.88812660E-10
   6.63000011      -2.18189231E-10
   6.74499989      -2.43722320E-10
   6.86000013      -2.64188837E-10
   6.97499990      -2.78426227E-10
   7.09000015      -2.85375196E-10
   7.20499992      -2.84120616E-10
   7.32000017      -2.73929435E-10
   7.43499994      -2.54283594E-10
   7.55000019      -2.24906732E-10
   7.66499996      -1.85783028E-10
   7.78000021      -1.37167389E-10
   7.89499998      -7.95859004E-11
   8.01000023      -1.38263229E-11
   8.12500000       5.90816979E-11
   8.23999977       1.37896181E-10
   8.35499954       2.21201557E-10
   8.47000027       3.07455311E-10
   8.58500004       3.95041305E-10
   8.69999981       4.82327733E-10
   8.81499958       5.67727754E-10
   8.93000031       6.49760801E-10
   9.04500008       7.27111482E-10
   9.15999985       7.98684618E-10
   9.27499962       8.63653316E-10
   9.39000034       9.21498822E-10
   9.50500011       9.72039449E-10
   9.61999989       1.01544773E-09
   9.73499966       1.05225451E-09
   9.85000038       1.08333964E-09
   9.96500015       1.10990950E-09
   10.0799999       1.13346121E-09
   10.1949997       1.15573551E-09
   10.3100004       1.17866006E-09
   10.4250002       1.20428423E-09
   10.5400000       1.23470945E-09
   10.6549997       1.27201660E-09
   10.7700005       1.31819544E-09
   10.8850002       1.37507572E-09
   11.0000000       1.44426715E-09
   11.1149998       1.52710755E-09
   11.2299995       1.62462332E-09
   11.3450003       1.73750347E-09
   11.4600000       1.86608839E-09
   11.5749998       2.01037498E-09
   11.6899996       2.17003637E-09
   11.8050003       2.34445641E-09
   11.9200001       2.53277799E-09
   12.0349998       2.73396084E-09
   12.1499996       2.94684988E-09
   12.2650003       3.17024584E-09
   12.3800001       3.40298012E-09
   12.4949999       3.64398645E-09
   12.6099997       3.89236909E-09
   12.7250004       4.14745926E-09
   12.8400002       4.40886527E-09
   12.9549999       4.67650629E-09
   13.0699997       4.95063057E-09
   13.1850004       5.23182120E-09
   13.3000002       5.52098101E-09
   13.4150000       5.81930859E-09
   13.5299997       6.12825524E-09
   13.6450005       6.44947518E-09
   13.7600002       6.78476297E-09
   13.8750000       7.13599135E-09
   13.9899998       7.50504103E-09
   14.1049995       7.89374077E-09
   14.2200003       8.30380387E-09
   14.3350000       8.73678374E-09
   14.4499998       9.19403131E-09
   14.5649996       9.67667457E-09
   14.6800003       1.01856079E-08
   14.7950001       1.07215028E-08
   14.9099998       1.12848264E-08
   15.0249996       1.18758843E-08
   15.1400003       1.24948647E-08
   15.2550001       1.31419018E-08
   15.3699999       1.38171350E-08
   15.4849997       1.45207792E-08
   15.6000004       1.52531889E-08
   15.7150002       1.60149121E-08
   15.8299999       1.68067427E-08
   15.9449997       1.76297537E-08
   16.0599995       1.84853093E-08
   16.1749992       1.93750669E-08
   16.2900009       2.03009591E-08
   16.4050007       2.12651496E-08
   16.5200005       2.22699779E-08
   16.6350002       2.33178827E-08
   16.7500000       2.44113085E-08
   16.8649998       2.55526267E-08
   16.9799995       2.67440097E-08
   17.0949993       2.79873529E-08
   17.2099991       2.92841680E-08
   17.3250008       3.06354941E-08
   17.4400005       3.20418394E-08
   17.5550003       3.35031274E-08
   17.6700001       3.50186689E-08
   17.7849998       3.65871564E-08
   17.8999996       3.82066965E-08
   18.0149994       3.98748554E-08
   18.1299992       4.15887200E-08
   18.2450008       4.33450218E-08
   18.3600006       4.51402116E-08
   18.4750004       4.69706123E-08
   18.5900002       4.88325220E-08
   18.7049999       5.07223668E-08
   18.8199997       5.26368140E-08
   18.9349995       5.45728831E-08
   19.0499992       5.65280338E-08
   19.1650009       5.85002624E-08
   19.2800007       6.04881265E-08
   19.3950005       6.24907628E-08
   19.5100002       6.45078941E-08
   19.6250000       6.65397693E-08
   19.7399998       6.85871058E-08
   19.8549995       7.06509837E-08
   19.9699993       7.27327532E-08
   20.0849991       7.48338920E-08
   20.2000008       7.69558497E-08
   20.3150005       7.90999621E-08
   20.4300003       8.12672525E-08
   20.5450001       8.34583602E-08
   20.6599998       8.56733848E-08
   20.7749996       8.79118218E-08
   20.8899994       9.01725130E-08
   21.0049992       9.24535541E-08
   21.1200008       9.47523588E-08
   21.2350006       9.70655947E-08
   21.3500004       9.93892755E-08
   21.4650002       1.01718825E-07
   21.5799999       1.04049143E-07
   21.6949997       1.06374713E-07
   21.8099995       1.08689683E-07
   21.9249992       1.10987990E-07
   22.0400009       1.13263468E-07
   22.1550007       1.15509899E-07
   22.2700005       1.17721115E-07
   22.3850002       1.19891055E-07
   22.5000000       1.22013773E-07
   22.6149998       1.24083485E-07
   22.7299995       1.26094534E-07
   22.8449993       1.28041393E-07
   22.9599991       1.29918547E-07
   23.0750008       1.31720540E-07
   23.1900005       1.33441787E-07
   23.3050003       1.35076576E-07
   23.4200001       1.36618965E-07
   23.5349998       1.38062703E-07
   23.6499996       1.39401209E-07
   23.7649994       1.40627492E-07
   23.8799992       1.41734134E-07
   23.9950008       1.42713304E-07
   24.1100006       1.43556804E-07
   24.2250004       1.44256049E-07
   24.3400002       1.44802172E-07
   24.4549999       1.45186078E-07
   24.5699997       1.45398531E-07
   24.6849995       1.45430249E-07
   24.7999992       1.45272040E-07
   24.9150009       1.44914850E-07
   25.0300007       1.44349869E-07
   25.1450005       1.43568627E-07
   25.2600002       1.42563010E-07
   25.3750000       1.41325330E-07
   25.4899998       1.39848325E-07
   25.6049995       1.38125131E-07
   25.7199993       1.36149254E-07
   25.8349991       1.33914611E-07
   25.9500008       1.31415334E-07
   26.0650005       1.28645823E-07
   26.1800003       1.25600636E-07
   26.2950001       1.22274415E-07
   26.4099998       1.18661852E-07
   26.5249996       1.14757626E-07
   26.6399994       1.10556385E-07
   26.7549992       1.06052745E-07
   26.8700008       1.01241319E-07
   26.9850006       9.61167572E-08
   27.1000004       9.06738649E-08
   27.2150002       8.49076898E-08
   27.3299999       7.88135850E-08
   27.4449997       7.23873868E-08
   27.5599995       6.56255779E-08
   27.6749992       5.85253375E-08
   27.7900009       5.10847009E-08
   27.9050007       4.33026273E-08
   28.0200005       3.51791201E-08
   28.1350002       2.67152043E-08
   28.2500000       1.79129831E-08
   28.3649998       8.77554562E-09
   28.4799995      -6.93099300E-10
   28.5949993      -1.04881375E-08
   28.7099991      -2.06041477E-08
   28.8250008      -3.10353130E-08
   28.9400005      -4.17756389E-08
   29.0550003      -5.28191606E-08
   29.1700001      -6.41603251E-08
   29.2849998      -7.57940484E-08
   29.3999996      -8.77161099E-08
   29.5149994      -9.99232270E-08
   29.6299992      -1.12413254E-07
   29.7450008      -1.25185323E-07
   29.8600006      -1.38239926E-07
   29.9750004      -1.51578831E-07
   30.0900002      -1.65205051E-07
   30.2049999      -1.79122878E-07
   30.3199997      -1.93337485E-07
   30.4349995      -2.07854839E-07
   30.5499992      -2.22681322E-07
   30.6650009      -2.37823613E-07
   30.7800007      -2.53288249E-07
   30.8950005      -2.69081312E-07
   31.0100002      -2.85208245E-07
   31.1250000      -3.01673481E-07
   31.2399998      -3.18480289E-07
   31.3549995      -3.35630602E-07
   31.4699993      -3.53124818E-07
   31.5849991      -3.70961857E-07
   31.7000008      -3.89139046E-07
   31.8150005      -4.07652323E-07
   31.9300003      -4.26496342E-07
   32.0449982      -4.45664540E-07
   32.1599998      -4.65149384E-07
   32.2750015      -4.84942973E-07
   32.3899994      -5.05036837E-07
   32.5050011      -5.25422593E-07
   32.6199989      -5.46092110E-07
   32.7350006      -5.67037773E-07
   32.8499985      -5.88252760E-07
   32.9650002      -6.09731217E-07
   33.0800018      -6.31468254E-07
   33.1949997      -6.53460063E-07
   33.3100014      -6.75704030E-07
   33.4249992      -6.98198619E-07
   33.5400009      -7.20943149E-07
   33.6549988      -7.43937846E-07
   33.7700005      -7.67183678E-07
   33.8849983      -7.90681838E-07
   34.0000000      -8.14433747E-07
   34.1150017      -8.38440542E-07
   34.2299995      -8.62703246E-07
   34.3450012      -8.87222143E-07
   34.4599991      -9.11996892E-07
   34.5750008      -9.37026471E-07
   34.6899986      -9.62308945E-07
   34.8050003      -9.87841304E-07
   34.9199982      -1.01362002E-06
   35.0349998      -1.03964055E-06
   35.1500015      -1.06589755E-06
   35.2649994      -1.09238579E-06
   35.3800011      -1.11909901E-06
   35.4949989      -1.14603154E-06
   35.6100006      -1.17317779E-06
   35.7249985      -1.20053232E-06
   35.8400002      -1.22809035E-06
   35.9550018      -1.25584791E-06
   36.0699997      -1.28380157E-06
   36.1850014      -1.31194861E-06
   36.2999992      -1.34028710E-06
   36.4150009      -1.36881545E-06
   36.5299988      -1.39753263E-06
   36.6450005      -1.42643808E-06
   36.7599983      -1.45553099E-06
   36.8750000      -1.48481035E-06
   36.9900017      -1.51427469E-06
   37.1049995      -1.54392160E-06
   37.2200012      -1.57374757E-06
   37.3349991      -1.60374759E-06
   37.4500008      -1.63391519E-06
   37.5649986      -1.66424184E-06
   37.6800003      -1.69471764E-06
   37.7949982      -1.72533055E-06
   37.9099998      -1.75606681E-06
   38.0250015      -1.78691130E-06
   38.1399994      -1.81784685E-06
   38.2550011      -1.84885562E-06
   38.3699989      -1.87991827E-06
   38.4850006      -1.91101503E-06
   38.5999985      -1.94212498E-06
   38.7150002      -1.97322788E-06
   38.8300018      -2.00430259E-06
   38.9449997      -2.03532909E-06
   39.0600014      -2.06628715E-06
   39.1749992      -2.09715722E-06
   39.2900009      -2.12792020E-06
   39.4049988      -2.15855698E-06
   39.5200005      -2.18904870E-06
   39.6349983      -2.21937603E-06
   39.7500000      -2.24951941E-06
   39.8650017      -2.27945793E-06
   39.9799995      -2.30916953E-06
   40.0950012      -2.33863011E-06
   40.2099991      -2.36781352E-06
   40.3250008      -2.39669021E-06
   40.4399986      -2.42522788E-06
   40.5550003      -2.45339083E-06
   40.6699982      -2.48113906E-06
   40.7849998      -2.50842913E-06
   40.9000015      -2.53521307E-06
   41.0149994      -2.56143903E-06
   41.1300011      -2.58705199E-06
   41.2449989      -2.61199261E-06
   41.3600006      -2.63619904E-06
   41.4749985      -2.65960671E-06
   41.5900002      -2.68214876E-06
   41.7050018      -2.70375631E-06
   41.8199997      -2.72436023E-06
   41.9350014      -2.74388958E-06
   42.0499992      -2.76227433E-06
   42.1650009      -2.77944446E-06
   42.2799988      -2.79533037E-06
   42.3950005      -2.80986433E-06
   42.5099983      -2.82297901E-06
   42.6250000      -2.83460918E-06
   42.7400017      -2.84469070E-06
   42.8549995      -2.85316059E-06
   42.9700012      -2.85995725E-06
   43.0849991      -2.86501972E-06
   43.2000008      -2.86828845E-06
   43.3149986      -2.86970294E-06
   43.4300003      -2.86920454E-06
   43.5449982      -2.86673344E-06
   43.6599998      -2.86222962E-06
   43.7750015      -2.85563260E-06
   43.8899994      -2.84688122E-06
   44.0050011      -2.83591385E-06
   44.1199989      -2.82266842E-06
   44.2350006      -2.80708218E-06
   44.3499985      -2.78909215E-06
   44.4650002      -2.76863557E-06
   44.5800018      -2.74565105E-06
   44.6949997      -2.72007719E-06
   44.8100014      -2.69185421E-06
   44.9249992      -2.66092457E-06
   45.0400009      -2.62723256E-06
   45.1549988      -2.59072567E-06
   45.2700005      -2.55135387E-06
   45.3849983      -2.50907101E-06
   45.5000000      -2.46383433E-06
   45.6150017      -2.41560451E-06
   45.7299995      -2.36434653E-06
   45.8450012      -2.31002855E-06
   45.9599991      -2.25262283E-06
   46.0750008      -2.19210392E-06
   46.1899986      -2.12845043E-06
   46.3050003      -2.06164304E-06
   46.4199982      -1.99166448E-06
   46.5349998      -1.91850063E-06
   46.6500015      -1.84213843E-06
   46.7649994      -1.76256731E-06
   46.8800011      -1.67977714E-06
   46.9949989      -1.59376009E-06
   47.1100006      -1.50450887E-06
   47.2249985      -1.41201781E-06
   47.3400002      -1.31628303E-06
   47.4550018      -1.21730227E-06
   47.5699997      -1.11507620E-06
   47.6850014      -1.00960699E-06
   47.7999992      -9.00900147E-07
   47.9150009      -7.88964655E-07
   48.0299988      -6.73813418E-07
   48.1450005      -5.55463657E-07
   48.2599983      -4.33936123E-07
   48.3750000      -3.09257331E-07
   48.4900017      -1.81457594E-07
   48.6049995      -5.05723676E-08
   48.7200012       8.33590406E-08
   48.8349991       2.20293941E-07
   48.9500008       3.60184941E-07
   49.0649986       5.02981209E-07
   49.1800003       6.48629623E-07
   49.2949982       7.97074506E-07
   49.4099998       9.48258389E-07
   49.5250015       1.10212250E-06
   49.6399994       1.25860834E-06
   49.7550011       1.41765668E-06
   49.8699989       1.57920965E-06
   49.9850006       1.74320974E-06
   50.0999985       1.90960077E-06
   50.2150002       2.07832750E-06
   50.3300018       2.24933387E-06
   50.4449997       2.42256442E-06
   50.5600014       2.59796298E-06
   50.6749992       2.77547292E-06
   50.7900009       2.95503764E-06
   50.9049988       3.13659689E-06
   51.0200005       3.32008881E-06
   51.1349983       3.50544883E-06
   51.2500000       3.69260874E-06
   51.3650017       3.88149738E-06
   51.4799995       4.07203788E-06
   51.5950012       4.26415045E-06
   51.7099991       4.45774913E-06
   51.8250008       4.65274479E-06
   51.9399986       4.84904558E-06
   52.0550003       5.04655691E-06
   52.1699982       5.24518191E-06
   52.2849998       5.44482054E-06
   52.4000015       5.64537413E-06
   52.5149994       5.84674171E-06
   52.6300011       6.04882553E-06
   52.7449989       6.25152825E-06
   52.8600006       6.45475347E-06
   52.9749985       6.65840980E-06
   53.0900002       6.86240719E-06
   53.2050018       7.06666242E-06
   53.3199997       7.27109273E-06
   53.4350014       7.47561990E-06
   53.5499992       7.68016889E-06
   53.6650009       7.88466423E-06
   53.7799988       8.08903405E-06
   53.8950005       8.29320743E-06
   54.0099983       8.49711159E-06
   54.1250000       8.70067470E-06
   54.2400017       8.90382216E-06
   54.3549995       9.10648032E-06
   54.4700012       9.30856822E-06
   54.5849991       9.51000402E-06
   54.7000008       9.71069949E-06
   54.8149986       9.91056186E-06
   54.9300003       1.01094920E-05
   55.0449982       1.03073889E-05
   55.1599998       1.05041436E-05
   55.2750015       1.06996449E-05
   55.3899994       1.08937793E-05
   55.5050011       1.10864303E-05
   55.6199989       1.12774769E-05
   55.7350006       1.14668001E-05
   55.8499985       1.16542742E-05
   55.9650002       1.18397766E-05
   56.0800018       1.20231816E-05
   56.1949997       1.22043657E-05
   56.3100014       1.23832042E-05
   56.4249992       1.25595734E-05
   56.5400009       1.27333506E-05
   56.6549988       1.29044120E-05
   56.7700005       1.30726348E-05
   56.8849983       1.32378964E-05
   57.0000000       1.34000729E-05
   57.1150017       1.35590399E-05
   57.2299995       1.37146671E-05
   57.3450012       1.38668265E-05
   57.4599991       1.40153898E-05
   57.5750008       1.41602231E-05
   57.6899986       1.43011912E-05
   57.8050003       1.44381584E-05
   57.9199982       1.45709882E-05
   58.0349998       1.46995426E-05
   58.1500015       1.48236841E-05
   58.2649994       1.49432781E-05
   58.3800011       1.50581891E-05
   58.4949989       1.51682843E-05
   58.6100006       1.52734356E-05
   58.7249985       1.53735164E-05
   58.8400002       1.54684058E-05
   58.9550018       1.55579855E-05
   59.0699997       1.56421484E-05
   59.1850014       1.57207887E-05
   59.2999992       1.57938102E-05
   59.4150009       1.58611219E-05
   59.5299988       1.59226383E-05
   59.6450005       1.59782776E-05
   59.7599983       1.60279633E-05
   59.8750000       1.60716190E-05
   59.9900017       1.61091775E-05
   60.1049995       1.61405678E-05
   60.2200012       1.61657244E-05
   60.3349991       1.61845819E-05
   60.4500008       1.61970765E-05
   60.5649986       1.62031447E-05
   60.6800003       1.62027281E-05
   60.7949982       1.61957651E-05
   60.9099998       1.61821918E-05
   61.0250015       1.61619500E-05
   61.1399994       1.61349835E-05
   61.2550011       1.61012358E-05
   61.3699989       1.60606578E-05
   61.4850006       1.60132076E-05
   61.5999985       1.59588490E-05
   61.7150002       1.58975581E-05
   61.8300018       1.58293187E-05
   61.9449997       1.57541217E-05
   62.0600014       1.56719761E-05
   62.1749992       1.55828911E-05
   62.2900009       1.54868922E-05
   62.4049988       1.53840156E-05
   62.5200005       1.52743050E-05
   62.6349983       1.51578206E-05
   62.7500000       1.50346295E-05
   62.8650017       1.49048110E-05
   62.9799995       1.47684486E-05
   63.0950012       1.46256370E-05
   63.2099991       1.44764672E-05
   63.3250008       1.43210364E-05
   63.4399986       1.41594428E-05
   63.5550003       1.39917829E-05
   63.6699982       1.38181540E-05
   63.7849998       1.36386534E-05
   63.9000015       1.34533775E-05
   64.0149994       1.32624236E-05
   64.1299973       1.30658864E-05
   64.2450027       1.28638594E-05
   64.3600006       1.26564355E-05
   64.4749985       1.24437029E-05
   64.5899963       1.22257479E-05
   64.7050018       1.20026598E-05
   64.8199997       1.17745276E-05
   64.9349976       1.15414432E-05
   65.0500031       1.13035048E-05
   65.1650009       1.10608125E-05
   65.2799988       1.08134718E-05
   65.3949966       1.05615891E-05
   65.5100021       1.03052762E-05
   65.6250000       1.00446423E-05
   65.7399979       9.77980108E-06
   65.8550034       9.51086349E-06
   65.9700012       9.23794414E-06
   66.0849991       8.96115580E-06
   66.1999969       8.68061124E-06
   66.3150024       8.39642325E-06
   66.4300003       8.10869733E-06
   66.5449982       7.81753715E-06
   66.6600037       7.52303367E-06
   66.7750015       7.22527375E-06
   66.8899994       6.92433559E-06
   67.0049973       6.62029015E-06
   67.1200027       6.31320108E-06
   67.2350006       6.00312433E-06
   67.3499985       5.69011036E-06
   67.4649963       5.37420692E-06
   67.5800018       5.05545222E-06
   67.6949997       4.73387854E-06
   67.8099976       4.40951590E-06
   67.9250031       4.08238793E-06
   68.0400009       3.75251375E-06
   68.1549988       3.41991131E-06
   68.2699966       3.08459857E-06
   68.3850021       2.74659214E-06
   68.5000000       2.40590975E-06
   68.6149979       2.06256436E-06
   68.7300034       1.71656836E-06
   68.8450012       1.36792869E-06
   68.9599991       1.01664807E-06
   69.0749969       6.62724517E-07
   69.1900024       3.06150440E-07
   69.3050003      -5.30788142E-08
   69.4199982      -4.14978274E-07
   69.5350037      -7.79565084E-07
   69.6500015      -1.14686407E-06
   69.7649994      -1.51690494E-06
   69.8799973      -1.88972956E-06
   69.9950027      -2.26537941E-06
   70.1100006      -2.64390428E-06
   70.2249985      -3.02535909E-06
   70.3399963      -3.40979886E-06
   70.4550018      -3.79727476E-06
   70.5699997      -4.18783793E-06
   70.6849976      -4.58153227E-06
   70.8000031      -4.97840392E-06
   70.9150009      -5.37849473E-06
   71.0299988      -5.78184290E-06
   71.1449966      -6.18847525E-06
   71.2600021      -6.59841362E-06
   71.3750000      -7.01167346E-06
   71.4899979      -7.42825569E-06
   71.6050034      -7.84815165E-06
   71.7200012      -8.27133863E-06
   71.8349991      -8.69778887E-06
   71.9499969      -9.12746054E-06
   72.0650024      -9.56031636E-06
   72.1800003      -9.99630538E-06
   72.2949982      -1.04353758E-05
   72.4100037      -1.08774766E-05
   72.5250015      -1.13225478E-05
   72.6399994      -1.17705194E-05
   72.7549973      -1.22213205E-05
   72.8700027      -1.26748728E-05
   72.9850006      -1.31310981E-05
   73.0999985      -1.35899127E-05
   73.2149963      -1.40512402E-05
   73.3300018      -1.45149925E-05
   73.4449997      -1.49810794E-05
   73.5599976      -1.54494028E-05
   73.6750031      -1.59198535E-05
   73.7900009      -1.63923105E-05
   73.9049988      -1.68666429E-05
   74.0199966      -1.73427070E-05
   74.1350021      -1.78203536E-05
   74.2500000      -1.82994117E-05
   74.3649979      -1.87797013E-05
   74.4800034      -1.92610278E-05
   74.5950012      -1.97431909E-05
   74.7099991      -2.02259689E-05
   74.8249969      -2.07091307E-05
   74.9400024      -2.11924362E-05
   75.0550003      -2.16756307E-05
   75.1699982      -2.21584578E-05
   75.2850037      -2.26406555E-05
   75.4000015      -2.31219492E-05
   75.5149994      -2.36020733E-05
   75.6299973      -2.40807531E-05
   75.7450027      -2.45577230E-05
   75.8600006      -2.50327212E-05
   75.9749985      -2.55054947E-05
   76.0899963      -2.59757962E-05
   76.2050018      -2.64433820E-05
   76.3199997      -2.69080247E-05
   76.4349976      -2.73694950E-05
   76.5500031      -2.78275820E-05
   76.6650009      -2.82820820E-05
   76.7799988      -2.87328112E-05
   76.8949966      -2.91795932E-05
   77.0100021      -2.96222624E-05
   77.1250000      -3.00606680E-05
   77.2399979      -3.04946698E-05
   77.3550034      -3.09241368E-05
   77.4700012      -3.13489509E-05
   77.5849991      -3.17690065E-05
   77.6999969      -3.21842126E-05
   77.8150024      -3.25944966E-05
   77.9300003      -3.29997929E-05
   78.0449982      -3.34000724E-05
   78.1600037      -3.37952988E-05
   78.2750015      -3.41854757E-05
   78.3899994      -3.45706176E-05
   78.5049973      -3.49507609E-05
   78.6200027      -3.53259602E-05
   78.7350006      -3.56962992E-05
   78.8499985      -3.60618760E-05
   78.9649963      -3.64228363E-05
   79.0800018      -3.67793218E-05
   79.1949997      -3.71315182E-05
   79.3099976      -3.74796182E-05
   79.4250031      -3.78238401E-05
   79.5400009      -3.81644204E-05