  -18.8999996       0.00000000    
  -18.7849998       0.00000000    
  -18.6700001       0.00000000    
  -18.5550003       0.00000000    
  -18.4400005       3.60941551E-26
  -18.3250008       3.66323610E-25
  -18.2099991       2.05882974E-24
  -18.0949993       8.40794459E-24
  -17.9799995       2.77101498E-23
  -17.8649998       7.77908802E-23
  -17.7500000       1.92067082E-22
  -17.6350002       4.25704635E-22
  -17.5200005       8.58637508E-22
  -17.4050007       1.59024342E-21
  -17.2900009       2.71909514E-21
  -17.1749992       4.30146076E-21
  -17.0599995       6.28516629E-21
  -16.9449997       8.42164214E-21
  -16.8299999       1.01682776E-20
  -16.7150002       1.06042196E-20
  -16.6000004       8.39302282E-21
  -16.4850006       1.83183771E-21
  -16.3700008      -1.09742084E-20
  -16.2549992      -3.17847317E-20
  -16.1399994      -6.17378916E-20
  -16.0249996      -1.00730404E-19
  -15.9099998      -1.46725478E-19
  -15.7950001      -1.95086748E-19
  -15.6800003      -2.38064183E-19
  -15.5649996      -2.64571134E-19
  -15.4499998      -2.60382963E-19
  -15.3350000      -2.08855014E-19
  -15.2200003      -9.21979647E-20
  -15.1049995       1.06724594E-19
  -14.9899998       4.02200546E-19
  -14.8750000       8.03279332E-19
  -14.7600002       1.31145443E-18
  -14.6450005       1.91871223E-18
  -14.5299997       2.60622587E-18
  -14.4150000       3.34389810E-18
  -14.3000002       4.09085357E-18
  -14.1850004       4.79683113E-18
  -14.0699997       5.40425425E-18
  -13.9549999       5.85065633E-18
  -13.8400002       6.07100318E-18
  -13.7250004       5.99947109E-18
  -13.6099997       5.57027560E-18
  -13.4949999       4.71727496E-18
  -13.3800001       3.37231382E-18
  -13.2650003       1.46241800E-18
  -13.1499996      -1.09380171E-18
  -13.0349998      -4.39013041E-18
  -12.9200001      -8.53660566E-18
  -12.8050003      -1.36628681E-17
  -12.6899996      -1.99207607E-17
  -12.5749998      -2.74860537E-17
  -12.4600000      -3.65593747E-17
  -12.3450003      -4.73663041E-17
  -12.2299995      -6.01565909E-17
  -12.1149998      -7.52020865E-17
  -12.0000000      -9.27927373E-17
  -11.8850002      -1.13229776E-16
  -11.7700005      -1.36815144E-16
  -11.6549997      -1.63836633E-16
  -11.5400000      -1.94549174E-16
  -11.4250002      -2.29153673E-16
  -11.3100004      -2.67776602E-16
  -11.1949997      -3.10454198E-16
  -11.0799999      -3.57127011E-16
  -10.9650002      -4.07648423E-16
  -10.8500004      -4.61811151E-16
  -10.7349997      -5.19390280E-16
  -10.6199999      -5.80199305E-16
  -10.5050001      -6.44147592E-16
  -10.3900003      -7.11288453E-16
  -10.2749996      -7.81839098E-16
  -10.1599998      -8.56159357E-16
  -10.0450001      -9.34677987E-16
  -9.93000031      -1.01776832E-15
  -9.81499958      -1.10558372E-15
  -9.69999981      -1.19788088E-15
  -9.58500004      -1.29386898E-15
  -9.47000027      -1.39213211E-15
  -9.35499954      -1.49067105E-15
  -9.23999977      -1.58709432E-15
  -9.12500000      -1.67897113E-15
  -9.01000023      -1.76431807E-15
  -8.89500046      -1.84215584E-15
  -8.77999973      -1.91303048E-15
  -8.66499996      -1.97936925E-15
  -8.55000019      -2.04552422E-15
  -8.43500042      -2.11738734E-15
  -8.31999969      -2.20149686E-15
  -8.20499992      -2.30364078E-15
  -8.09000015      -2.42707402E-15
  -7.97499990      -2.57056225E-15
  -7.86000013      -2.72659249E-15
  -7.74499989      -2.88014453E-15
  -7.63000011      -3.00845668E-15
  -7.51499987      -3.08215405E-15
  -7.40000010      -3.06798785E-15
  -7.28499985      -2.93321686E-15
  -7.17000008      -2.65139693E-15
  -7.05499983      -2.20902487E-15
  -6.94000006      -1.61220429E-15
  -6.82499981      -8.92251060E-16
  -6.71000004      -1.09031398E-16
  -6.59499979       6.49127299E-16
  -6.48000002       1.26992039E-15
  -6.36499977       1.62646896E-15
  -6.25000000       1.59159577E-15
  -6.13500023       1.05619344E-15
  -6.01999998      -4.98502051E-17
  -5.90500021      -1.73644624E-15
  -5.78999996      -3.93465650E-15
  -5.67500019      -6.48372762E-15
  -5.55999994      -9.12692485E-15
  -5.44500017      -1.15187418E-14
  -5.32999992      -1.32452168E-14
  -5.21500015      -1.38577529E-14
  -5.09999990      -1.29192574E-14
  -4.98500013      -1.00595911E-14
  -4.86999989      -5.03568965E-15
  -4.75500011       2.20985009E-15
  -4.63999987       1.14989203E-14
  -4.52500010       2.23842805E-14
  -4.40999985       3.41392699E-14
  -4.29500008       4.57765641E-14
  -4.17999983       5.60995173E-14
  -4.06500006       6.37865750E-14
  -3.95000005       6.75057883E-14
  -3.83500004       6.60528490E-14
  -3.72000003       5.85022143E-14
  -3.60500002       4.43580482E-14
  -3.49000001       2.36895701E-14
  -3.37500000      -2.76547808E-15
  -3.25999999      -3.35448798E-14
  -3.14499998      -6.64665466E-14
  -3.02999997      -9.87029875E-14
  -2.91499996      -1.26929405E-13
  -2.79999995      -1.47542745E-13
  -2.68499994      -1.56941666E-13
  -2.56999993      -1.51851310E-13
  -2.45499992      -1.29669008E-13
  -2.33999991      -8.88038287E-14
  -2.22499990      -2.89783625E-14
  -2.10999990       4.85377695E-14
  -1.99500000       1.40792746E-13
  -1.88000000       2.43138815E-13
  -1.76499999       3.49357045E-13
  -1.64999998       4.51927449E-13
  -1.53499997       5.42439140E-13
  -1.41999996       6.12125097E-13
  -1.30499995       6.52492600E-13
  -1.19000006       6.56011161E-13
  -1.07500005       6.16811940E-13
 -0.959999979       5.31345746E-13
 -0.845000029       3.98946962E-13
 -0.730000019       2.22253382E-13
 -0.615000010       7.43536702E-15
 -0.500000000      -2.35797330E-13
 -0.384999990      -4.94433921E-13
 -0.270000011      -7.52650546E-13
 -0.155000001      -9.92536457E-13
  -3.99999991E-02  -1.19502943E-12
   7.50000030E-02  -1.34101660E-12
  0.189999998      -1.41254152E-12
  0.305000007      -1.39404926E-12
  0.419999987      -1.27359462E-12
  0.535000026      -1.04393490E-12
  0.649999976      -7.03436278E-13
  0.764999986      -2.56724031E-13
  0.879999995       2.84976226E-13
  0.995000005       9.03845033E-13
   1.11000001       1.57584471E-12
   1.22500002       2.27146340E-12
   1.34000003       2.95680993E-12
   1.45500004       3.59501578E-12
   1.57000005       4.14789036E-12
   1.68499994       4.57775441E-12
   1.79999995       4.84936180E-12
   1.91499996       4.93182535E-12
   2.02999997       4.80044216E-12
   2.14499998       4.43832818E-12
   2.25999999       3.83777342E-12
   2.37500000       3.00123403E-12
   2.49000001       1.94191213E-12
   2.60500002       6.83861225E-13
   2.72000003      -7.38393992E-13
   2.83500004      -2.28073203E-12
   2.95000005      -3.89078223E-12
   3.06500006      -5.50970207E-12
   3.18000007      -7.07431683E-12
   3.29500008      -8.51954878E-12
   3.41000009      -9.78101801E-12
   3.52500010      -1.07977290E-11
   3.64000010      -1.15147059E-11
   3.75500011      -1.18854588E-11
   3.86999989      -1.18741796E-11
   3.98499990      -1.14575441E-11
   4.09999990      -1.06260382E-11
   4.21500015      -9.38473518E-12
   4.32999992      -7.75347061E-12
   4.44500017      -5.76640341E-12
   4.55999994      -3.47095876E-12
   4.67500019      -9.26186753E-13
   4.78999996       1.79937597E-12
   4.90500021       4.63029788E-12
   5.01999998       7.48714632E-12
   5.13500023       1.02895791E-11
   5.25000000       1.29595111E-11
   5.36499977       1.54241897E-11
   5.48000002       1.76190763E-11
   5.59499979       1.94903954E-11
   5.71000004       2.09972369E-11
   5.82499981       2.21131446E-11
   5.94000006       2.28271221E-11
   6.05499983       2.31439937E-11
   6.17000008       2.30841769E-11
   6.28499985       2.26828330E-11
   6.40000010       2.19884579E-11
   6.51499987       2.10610019E-11
   6.63000011       1.99696128E-11
   6.74499989       1.87900962E-11
   6.86000013       1.76021801E-11
   6.97499990       1.64868154E-11
   7.09000015       1.55234801E-11
   7.20499992       1.47877405E-11
   7.32000017       1.43490367E-11
   7.43499994       1.42688934E-11
   7.55000019       1.45995126E-11
   7.66499996       1.53828478E-11
   7.78000021       1.66501552E-11
   7.89499998       1.84219341E-11
   8.01000023       2.07083135E-11
   8.12500000       2.35097566E-11
   8.23999977       2.68180304E-11
   8.35499954       3.06172934E-11
   8.47000027       3.48852579E-11
   8.58500004       3.95943590E-11
   8.69999981       4.47127509E-11
   8.81499958       5.02051109E-11
   8.93000031       5.60332752E-11
   9.04500008       6.21566479E-11
   9.15999985       6.85323048E-11
   9.27499962       7.51151294E-11
   9.39000034       8.18578261E-11
   9.50500011       8.87109136E-11
   9.61999989       9.56230442E-11
   9.73499966       1.02541683E-10
   9.85000038       1.09414172E-10
   9.96500015       1.16189433E-10
   10.0799999       1.22820296E-10
   10.1949997       1.29266473E-10
   10.3100004       1.35498265E-10
   10.4250002       1.41500658E-10
   10.5400000       1.47277870E-10
   10.6549997       1.52857865E-10
   10.7700005       1.58296917E-10
   10.8850002       1.63683372E-10
   11.0000000       1.69140812E-10
   11.1149998       1.74829859E-10
   11.2299995       1.80948603E-10
   11.3450003       1.87731053E-10
   11.4600000       1.95443980E-10
   11.5749998       2.04381373E-10
   11.6899996       2.14857257E-10
   11.8050003       2.27196581E-10
   11.9200001       2.41724640E-10
   12.0349998       2.58755545E-10
   12.1499996       2.78579604E-10
   12.2650003       3.01451364E-10
   12.3800001       3.27577410E-10
   12.4949999       3.57106122E-10
   12.6099997       3.90118909E-10
   12.7250004       4.26622931E-10
   12.8400002       4.66548189E-10
   12.9549999       5.09745579E-10
   13.0699997       5.55989366E-10
   13.1850004       6.04983064E-10
   13.3000002       6.56366739E-10
   13.4150000       7.09728554E-10
   13.5299997       7.64617480E-10
   13.6450005       8.20557566E-10
   13.7600002       8.77064865E-10
   13.8750000       9.33661704E-10
   13.9899998       9.89894167E-10
   14.1049995       1.04534525E-09
   14.2200003       1.09964882E-09
   14.3350000       1.15249943E-09
   14.4499998       1.20366150E-09
   14.5649996       1.25297539E-09
   14.6800003       1.30035827E-09
   14.7950001       1.34580525E-09
   14.9099998       1.38938416E-09
   15.0249996       1.43123091E-09
   15.1400003       1.47154100E-09
   15.2550001       1.51055801E-09
   15.3699999       1.54856361E-09
   15.4849997       1.58586322E-09
   15.6000004       1.62277347E-09
   15.7150002       1.65961178E-09
   15.8299999       1.69668080E-09
   15.9449997       1.73426018E-09
   16.0599995       1.77259829E-09
   16.1749992       1.81190307E-09
   16.2900009       1.85233917E-09
   16.4050007       1.89402449E-09
   16.5200005       1.93703165E-09
   16.6350002       1.98138661E-09
   16.7500000       2.02707939E-09
   16.8649998       2.07406403E-09
   16.9799995       2.12227125E-09
   17.0949993       2.17161156E-09
   17.2099991       2.22199148E-09
   17.3250008       2.27331531E-09
   17.4400005       2.32549779E-09
   17.5550003       2.37846542E-09
   17.6700001       2.43216958E-09
   17.7849998       2.48658583E-09
   17.8999996       2.54171173E-09
   18.0149994       2.59756816E-09
   18.1299992       2.65419331E-09
   18.2450008       2.71163603E-09
   18.3600006       2.76994272E-09
   18.4750004       2.82914914E-09
   18.5900002       2.88926461E-09
   18.7049999       2.95025604E-09
   18.8199997       3.01203640E-09
   18.9349995       3.07444670E-09
   19.0499992       3.13723603E-09
   19.1650009       3.20005578E-09
   19.2800007       3.26244898E-09
   19.3950005       3.32383987E-09
   19.5100002       3.38352169E-09
   19.6250000       3.44066731E-09
   19.7399998       3.49431661E-09
   19.8549995       3.54339047E-09
   19.9699993       3.58669716E-09
   20.0849991       3.62293728E-09
   20.2000008       3.65072261E-09
   20.3150005       3.66857900E-09
   20.4300003       3.67497410E-09
   20.5450001       3.66833142E-09
   20.6599998       3.64704000E-09
   20.7749996       3.60947361E-09
   20.8899994       3.55400331E-09
   21.0049992       3.47901130E-09
   21.1200008       3.38290485E-09
   21.2350006       3.26411609E-09
   21.3500004       3.12110893E-09
   21.4650002       2.95239078E-09
   21.5799999       2.75650791E-09
   21.6949997       2.53204879E-09
   21.8099995       2.27764008E-09
   21.9249992       1.99194483E-09
   22.0400009       1.67366354E-09
   22.1550007       1.32152300E-09
   22.2700005       9.34282540E-10
   22.3850002       5.10724740E-10
   22.5000000       4.96584371E-11
   22.6149998      -4.50100152E-10
   22.7299995      -9.89699545E-10
   22.8449993      -1.57028968E-09
   22.9599991      -2.19299379E-09
   23.0750008      -2.85892998E-09
   23.1900005      -3.56920737E-09
   23.3050003      -4.32493064E-09
   23.4200001      -5.12721998E-09
   23.5349998      -5.97719740E-09
   23.6499996      -6.87602020E-09
   23.7649994      -7.82487408E-09
   23.8799992      -8.82500029E-09
   23.9950008      -9.87770665E-09
   24.1100006      -1.09843761E-08
   24.2250004      -1.21464963E-08
   24.3400002      -1.33656579E-08
   24.4549999      -1.46435797E-08
   24.5699997      -1.59821099E-08
   24.6849995      -1.73832397E-08
   24.7999992      -1.88490876E-08
   24.9150009      -2.03819308E-08
   25.0300007      -2.19841674E-08
   25.1450005      -2.36583073E-08
   25.2600002      -2.54069761E-08
   25.3750000      -2.72328595E-08
   25.4899998      -2.91387163E-08
   25.6049995      -3.11273212E-08
   25.7199993      -3.32014416E-08
   25.8349991      -3.53638150E-08
   25.9500008      -3.76170881E-08
   26.0650005      -3.99638189E-08
   26.1800003      -4.24064304E-08
   26.2950001      -4.49471820E-08
   26.4099998      -4.75881663E-08
   26.5249996      -5.03312769E-08
   26.6399994      -5.31782156E-08
   26.7549992      -5.61304425E-08
   26.8700008      -5.91892366E-08
   26.9850006      -6.23556531E-08
   27.1000004      -6.56305730E-08
   27.2150002      -6.90146820E-08
   27.3299999      -7.25084988E-08
   27.4449997      -7.61124355E-08
   27.5599995      -7.98267479E-08
   27.6749992      -8.36515994E-08
   27.7900009      -8.75870896E-08
   27.9050007      -9.16332610E-08
   28.0200005      -9.57900994E-08
   28.1350002      -1.00057548E-07
   28.2500000      -1.04435529E-07
   28.3649998      -1.08923935E-07
   28.4799995      -1.13522624E-07
   28.5949993      -1.18231434E-07
   28.7099991      -1.23050128E-07
   28.8250008      -1.27978396E-07
   28.9400005      -1.33015874E-07
   29.0550003      -1.38162022E-07
   29.1700001      -1.43416287E-07
   29.2849998      -1.48777815E-07
   29.3999996      -1.54245754E-07
   29.5149994      -1.59818939E-07
   29.6299992      -1.65496047E-07
   29.7450008      -1.71275545E-07
   29.8600006      -1.77155712E-07
   29.9750004      -1.83134574E-07
   30.0900002      -1.89209928E-07
   30.2049999      -1.95379428E-07
   30.3199997      -2.01640461E-07
   30.4349995      -2.07990212E-07
   30.5499992      -2.14425668E-07
   30.6650009      -2.20943747E-07
   30.7800007      -2.27541022E-07
   30.8950005      -2.34214042E-07
   31.0100002      -2.40959110E-07
   31.1250000      -2.47772334E-07
   31.2399998      -2.54649734E-07
   31.3549995      -2.61587047E-07
   31.4699993      -2.68579811E-07
   31.5849991      -2.75623307E-07
   31.7000008      -2.82712591E-07
   31.8150005      -2.89842518E-07
   31.9300003      -2.97007489E-07
   32.0449982      -3.04201649E-07
   32.1599998      -3.11418688E-07
   32.2750015      -3.18652127E-07
   32.3899994      -3.25894860E-07
   32.5050011      -3.33139468E-07
   32.6199989      -3.40378136E-07
   32.7350006      -3.47602509E-07
   32.8499985      -3.54803944E-07
   32.9650002      -3.61973150E-07
   33.0800018      -3.69100661E-07
   33.1949997      -3.76176587E-07
   33.3100014      -3.83190411E-07
   33.4249992      -3.90131561E-07
   33.5400009      -3.96988952E-07
   33.6549988      -4.03751130E-07
   33.7700005      -4.10406756E-07
   33.8849983      -4.16943749E-07
   34.0000000      -4.23350173E-07
   34.1150017      -4.29613664E-07
   34.2299995      -4.35721830E-07
   34.3450012      -4.41662081E-07
   34.4599991      -4.47421627E-07
   34.5750008      -4.52987564E-07
   34.6899986      -4.58346875E-07
   34.8050003      -4.63486401E-07
   34.9199982      -4.68392955E-07
   35.0349998      -4.73052978E-07
   35.1500015      -4.77452943E-07
   35.2649994      -4.81579093E-07
   35.3800011      -4.85417388E-07
   35.4949989      -4.88953731E-07
   35.6100006      -4.92173740E-07
   35.7249985      -4.95062750E-07
   35.8400002      -4.97606095E-07
   35.9550018      -4.99788428E-07
   36.0699997      -5.01594684E-07
   36.1850014      -5.03009346E-07
   36.2999992      -5.04016384E-07
   36.4150009      -5.04599882E-07
   36.5299988      -5.04743753E-07
   36.6450005      -5.04431569E-07
   36.7599983      -5.03646902E-07
   36.8750000      -5.02373041E-07
   36.9900017      -5.00593274E-07
   37.1049995      -4.98290831E-07
   37.2200012      -4.95449058E-07
   37.3349991      -4.92051015E-07
   37.4500008      -4.88080332E-07
   37.5649986      -4.83520182E-07
   37.6800003      -4.78354195E-07
   37.7949982      -4.72566029E-07
   37.9099998      -4.66139284E-07
   38.0250015      -4.59057958E-07
   38.1399994      -4.51305880E-07
   38.2550011      -4.42867304E-07
   38.3699989      -4.33726314E-07
   38.4850006      -4.23867107E-07
   38.5999985      -4.13273995E-07
   38.7150002      -4.01931231E-07
   38.8300018      -3.89823157E-07
   38.9449997      -3.76934310E-07
   39.0600014      -3.63248802E-07
   39.1749992      -3.48751001E-07
   39.2900009      -3.33424993E-07
   39.4049988      -3.17255115E-07
   39.5200005      -3.00225508E-07
   39.6349983      -2.82320428E-07
   39.7500000      -2.63524299E-07
   39.8650017      -2.43821489E-07
   39.9799995      -2.23196523E-07
   40.0950012      -2.01634151E-07
   40.2099991      -1.79119525E-07
   40.3250008      -1.55637593E-07
   40.4399986      -1.31174346E-07
   40.5550003      -1.05715536E-07
   40.6699982      -7.92476271E-08
   40.7849998      -5.17574001E-08
   40.9000015      -2.32322943E-08
   41.0149994       6.33984421E-09
   41.1300011       3.69706044E-08
   41.2449989       6.86708788E-08
   41.3600006       1.01451064E-07
   41.4749985       1.35320846E-07
   41.5900002       1.70289027E-07
   41.7050018       2.06364149E-07
   41.8199997       2.43553131E-07
   41.9350014       2.81862725E-07
   42.0499992       3.21298359E-07
   42.1650009       3.61864835E-07
   42.2799988       4.03565735E-07
   42.3950005       4.46403448E-07
   42.5099983       4.90379591E-07
   42.6250000       5.35494394E-07
   42.7400017       5.81746633E-07
   42.8549995       6.29134263E-07
   42.9700012       6.77653702E-07
   43.0849991       7.27299778E-07
   43.2000008       7.78066124E-07
   43.3149986       8.29945066E-07
   43.4300003       8.82927338E-07
   43.5449982       9.37002028E-07
   43.6599998       9.92156970E-07
   43.7750015       1.04837875E-06
   43.8899994       1.10565168E-06
   44.0050011       1.16395915E-06
   44.1199989       1.22328299E-06
   44.2350006       1.28360341E-06
   44.3499985       1.34489892E-06
   44.4650002       1.40714644E-06
   44.5800018       1.47032165E-06
   44.6949997       1.53439828E-06
   44.8100014       1.59934893E-06
   44.9249992       1.66514417E-06
   45.0400009       1.73175329E-06
   45.1549988       1.79914377E-06
   45.2700005       1.86728118E-06
   45.3849983       1.93612937E-06
   45.5000000       2.00565046E-06
   45.6150017       2.07580456E-06
   45.7299995       2.14655029E-06
   45.8450012       2.21784376E-06
   45.9599991       2.28963881E-06
   46.0750008       2.36188748E-06
   46.1899986       2.43454042E-06
   46.3050003       2.50754442E-06
   46.4199982       2.58084583E-06
   46.5349998       2.65438757E-06
   46.6500015       2.72811076E-06
   46.7649994       2.80195422E-06
   46.8800011       2.87585522E-06
   46.9949989       2.94974757E-06
   47.1100006       3.02356420E-06
   47.2249985       3.09723509E-06
   47.3400002       3.17068930E-06
   47.4550018       3.24385178E-06
   47.5699997       3.31664751E-06
   47.6850014       3.38899872E-06
   47.7999992       3.46082720E-06
   47.9150009       3.53205087E-06
   48.0299988       3.60258741E-06
   48.1450005       3.67235270E-06
   48.2599983       3.74126171E-06
   48.3750000       3.80922643E-06
   48.4900017       3.87615910E-06
   48.6049995       3.94196968E-06
   48.7200012       4.00656700E-06
   48.8349991       4.06985873E-06
   48.9500008       4.13175212E-06
   49.0649986       4.19215121E-06
   49.1800003       4.25096096E-06
   49.2949982       4.30808404E-06
   49.4099998       4.36342316E-06
   49.5250015       4.41687735E-06
   49.6399994       4.46834747E-06
   49.7550011       4.51773212E-06
   49.8699989       4.56492899E-06
   49.9850006       4.60983483E-06
   50.0999985       4.65234598E-06
   50.2150002       4.69235783E-06
   50.3300018       4.72976581E-06
   50.4449997       4.76446439E-06
   50.5600014       4.79634718E-06
   50.6749992       4.82530959E-06
   50.7900009       4.85124474E-06
   50.9049988       4.87404850E-06
   51.0200005       4.89361400E-06
   51.1349983       4.90983621E-06
   51.2500000       4.92261142E-06
   51.3650017       4.93183461E-06
   51.4799995       4.93740254E-06
   51.5950012       4.93921380E-06
   51.7099991       4.93716561E-06
   51.8250008       4.93115704E-06
   51.9399986       4.92109029E-06
   52.0550003       4.90686580E-06
   52.1699982       4.88838714E-06
   52.2849998       4.86555882E-06
   52.4000015       4.83828671E-06
   52.5149994       4.80647714E-06
   52.6300011       4.77004096E-06
   52.7449989       4.72888860E-06
   52.8600006       4.68293274E-06
   52.9749985       4.63208835E-06
   53.0900002       4.57627357E-06
   53.2050018       4.51540700E-06
   53.3199997       4.44941224E-06
   53.4350014       4.37821427E-06
   53.5499992       4.30174123E-06
   53.6650009       4.21992445E-06
   53.7799988       4.13269936E-06
   53.8950005       4.04000502E-06
   54.0099983       3.94178414E-06
   54.1250000       3.83798351E-06
   54.2400017       3.72855288E-06
   54.3549995       3.61345019E-06
   54.4700012       3.49263360E-06
   54.5849991       3.36607036E-06
   54.7000008       3.23373183E-06
   54.8149986       3.09559323E-06
   54.9300003       2.95163613E-06
   55.0449982       2.80185009E-06
   55.1599998       2.64622713E-06
   55.2750015       2.48476590E-06
   55.3899994       2.31747504E-06
   55.5050011       2.14436568E-06
   55.6199989       1.96545670E-06
   55.7350006       1.78077426E-06
   55.8499985       1.59035073E-06
   55.9650002       1.39422536E-06
   56.0800018       1.19244589E-06
   56.1949997       9.85065526E-07
   56.3100014       7.72144972E-07
   56.4249992       5.53752670E-07
   56.5400009       3.29964905E-07
   56.6549988       1.00861826E-07
   56.7700005      -1.33464326E-07
   56.8849983      -3.72917526E-07
   57.0000000      -6.17392345E-07
   57.1150017      -8.66777611E-07
   57.2299995      -1.12095438E-06
   57.3450012      -1.37979612E-06
   57.4599991      -1.64316953E-06
   57.5750008      -1.91093409E-06
   57.6899986      -2.18294235E-06
   57.8050003      -2.45904153E-06
   57.9199982      -2.73906926E-06
   58.0349998      -3.02285798E-06
   58.1500015      -3.31023466E-06
   58.2649994      -3.60101740E-06
   58.3800011      -3.89501884E-06
   58.4949989      -4.19204662E-06
   58.6100006      -4.49189747E-06
   58.7249985      -4.79436858E-06
   58.8400002      -5.09924712E-06
   58.9550018      -5.40631527E-06
   59.0699997      -5.71534974E-06
   59.1850014      -6.02612045E-06
   59.2999992      -6.33839318E-06
   59.4150009      -6.65192601E-06
   59.5299988      -6.96647385E-06
   59.6450005      -7.28178611E-06
   59.7599983      -7.59760678E-06
   59.8750000      -7.91367347E-06
   59.9900017      -8.22972288E-06
   60.1049995      -8.54548307E-06
   60.2200012      -8.86067846E-06
   60.3349991      -9.17503348E-06
   60.4500008      -9.48826346E-06
   60.5649986      -9.80008190E-06
   60.6800003      -1.01101987E-05
   60.7949982      -1.04183200E-05
   60.9099998      -1.07241494E-05
   61.0250015      -1.10273904E-05
   61.1399994      -1.13277374E-05
   61.2550011      -1.16248884E-05
   61.3699989      -1.19185370E-05
   61.4850006      -1.22083766E-05
   61.5999985      -1.24940962E-05
   61.7150002      -1.27753883E-05
   61.8300018      -1.30519402E-05
   61.9449997      -1.33234416E-05
   62.0600014      -1.35895816E-05
   62.1749992      -1.38500463E-05
   62.2900009      -1.41045266E-05
   62.4049988      -1.43527122E-05
   62.5200005      -1.45942950E-05
   62.6349983      -1.48289628E-05
   62.7500000      -1.50564092E-05
   62.8650017      -1.52763296E-05
   62.9799995      -1.54884183E-05
   63.0950012      -1.56923743E-05
   63.2099991      -1.58878956E-05
   63.3250008      -1.60746840E-05
   63.4399986      -1.62524466E-05
   63.5550003      -1.64208905E-05
   63.6699982      -1.65797301E-05
   63.7849998      -1.67286780E-05
   63.9000015      -1.68674578E-05
   64.0149994      -1.69957912E-05
   64.1299973      -1.71134125E-05
   64.2450027      -1.72200489E-05
   64.3600006      -1.73154513E-05
   64.4749985      -1.73993594E-05
   64.5899963      -1.74715278E-05
   64.7050018      -1.75317164E-05
   64.8199997      -1.75796959E-05
   64.9349976      -1.76152389E-05
   65.0500031      -1.76381309E-05
   65.1650009      -1.76481608E-05
   65.2799988      -1.76451304E-05
   65.3949966      -1.76288504E-05
   65.5100021      -1.75991408E-05
   65.6250000      -1.75558307E-05
   65.7399979      -1.74987636E-05
   65.8550034      -1.74277884E-05
   65.9700012      -1.73427688E-05
   66.0849991      -1.72435775E-05
   66.1999969      -1.71301017E-05
   66.3150024      -1.70022468E-05
   66.4300003      -1.68599199E-05
   66.5449982      -1.67030485E-05
   66.6600037      -1.65315723E-05
   66.7750015      -1.63454461E-05
   66.8899994      -1.61446405E-05
   67.0049973      -1.59291358E-05
   67.1200027      -1.56989299E-05
   67.2350006      -1.54540394E-05
   67.3499985      -1.51944951E-05
   67.4649963      -1.49203397E-05
   67.5800018      -1.46316397E-05
   67.6949997      -1.43284724E-05
   67.8099976      -1.40109396E-05
   67.9250031      -1.36791523E-05
   68.0400009      -1.33332405E-05
   68.1549988      -1.29733589E-05
   68.2699966      -1.25996712E-05
   68.3850021      -1.22123683E-05
   68.5000000      -1.18116459E-05
   68.6149979      -1.13977276E-05
   68.7300034      -1.09708490E-05
   68.8450012      -1.05312656E-05
   68.9599991      -1.00792458E-05
   69.0749969      -9.61507794E-06
   69.1900024      -9.13906570E-06
   69.3050003      -8.65152742E-06
   69.4199982      -8.15279418E-06
   69.5350037      -7.64321612E-06
   69.6500015      -7.12315841E-06
   69.7649994      -6.59299576E-06
   69.8799973      -6.05312289E-06
   69.9950027      -5.50394043E-06
   70.1100006      -4.94586766E-06
   70.2249985      -4.37933249E-06
   70.3399963      -3.80477695E-06
   70.4550018      -3.22265146E-06
   70.5699997      -2.63341576E-06
   70.6849976      -2.03753757E-06
   70.8000031      -1.43549710E-06
   70.9150009      -8.27780809E-07
   71.0299988      -2.14883471E-07
   71.1449966       4.02698191E-07
   71.2600021       1.02445756E-06
   71.3750000       1.64988467E-06
   71.4899979       2.27846499E-06
   71.6050034       2.90967773E-06
   71.7200012       3.54300346E-06
   71.8349991       4.17791716E-06
   71.9499969       4.81389225E-06
   72.0650024       5.45039757E-06
   72.1800003       6.08691153E-06
   72.2949982       6.72290298E-06
   72.4100037       7.35783942E-06
   72.5250015       7.99119880E-06
   72.6399994       8.62245815E-06
   72.7549973       9.25109362E-06
   72.8700027       9.87658859E-06
   72.9850006       1.04984301E-05
   73.0999985       1.11161062E-05
   73.2149963       1.17291138E-05
   73.3300018       1.23369464E-05
   73.4449997       1.29391174E-05
   73.5599976       1.35351347E-05
   73.6750031       1.41245200E-05
   73.7900009       1.47068013E-05
   73.9049988       1.52815064E-05
   74.0199966       1.58481816E-05
   74.1350021       1.64063749E-05
   74.2500000       1.69556424E-05
   74.3649979       1.74955494E-05
   74.4800034       1.80256811E-05
   74.5950012       1.85456156E-05
   74.7099991       1.90549545E-05
   74.8249969       1.95532994E-05
   74.9400024       2.00402665E-05
   75.0550003       2.05154811E-05
   75.1699982       2.09785849E-05
   75.2850037       2.14292140E-05
   75.4000015       2.18670339E-05
   75.5149994       2.22917060E-05
   75.6299973       2.27029104E-05
   75.7450027       2.31003414E-05
   75.8600006       2.34837007E-05
   75.9749985       2.38527027E-05
   76.0899963       2.42070728E-05
   76.2050018       2.45465544E-05
   76.3199997       2.48708966E-05
   76.4349976       2.51798701E-05
   76.5500031       2.54732495E-05
   76.6650009       2.57508327E-05
   76.7799988       2.60124252E-05
   76.8949966       2.62578433E-05
   77.0100021       2.64869304E-05
   77.1250000       2.66995376E-05
   77.2399979       2.68955246E-05
   77.3550034       2.70747751E-05
   77.4700012       2.72371890E-05
   77.5849991       2.73826790E-05
   77.6999969       2.75111743E-05
   77.8150024       2.76226165E-05
   77.9300003       2.77169802E-05
   78.0449982       2.77942399E-05
   78.1600037       2.78543957E-05
   78.2750015       2.78974567E-05
   78.3899994       2.79234573E-05
   78.5049973       2.79324486E-05
   78.6200027       2.79244941E-05
   78.7350006       2.78996777E-05
   78.8499985       2.78581047E-05
   78.9649963       2.77998915E-05
   79.0800018       2.77251766E-05
   79.1949997       2.76341107E-05
   79.3099976       2.75268685E-05
   79.4250031       2.74036338E-05
   79.5400009       2.72646121E-05