  -18.8999996         0.00000000    
  -18.7849998         0.00000000    
  -18.6700001         0.00000000    
  -18.5550003         0.00000000    
  -18.4400005         0.00000000    
  -18.3250008         0.00000000    
  -18.2099991         0.00000000    
  -18.0949993         0.00000000    
  -17.9799995         0.00000000    
  -17.8649998         0.00000000    
  -17.7500000         0.00000000    
  -17.6350002         0.00000000    
  -17.5200005         0.00000000    
  -17.4050007         0.00000000    
  -17.2900009         0.00000000    
  -17.1749992         0.00000000    
  -17.0599995         0.00000000    
  -16.9449997         0.00000000    
  -16.8299999         0.00000000    
  -16.7150002         0.00000000    
  -16.6000004         0.00000000    
  -16.4850006         0.00000000    
  -16.3700008         0.00000000    
  -16.2549992         0.00000000    
  -16.1399994         0.00000000    
  -16.0249996         0.00000000    
  -15.9099998         0.00000000    
  -15.7950001         0.00000000    
  -15.6800003         0.00000000    
  -15.5649996         0.00000000    
  -15.4499998         0.00000000    
  -15.3350000         0.00000000    
  -15.2200003         0.00000000    
  -15.1049995         0.00000000    
  -14.9899998         0.00000000    
  -14.8750000         0.00000000    
  -14.7600002         0.00000000    
  -14.6450005         0.00000000    
  -14.5299997         0.00000000    
  -14.4150000         0.00000000    
  -14.3000002         0.00000000    
  -14.1850004         0.00000000    
  -14.0699997         0.00000000    
  -13.9549999         0.00000000    
  -13.8400002         0.00000000    
  -13.7250004         0.00000000    
  -13.6099997         0.00000000    
  -13.4949999         0.00000000    
  -13.3800001         0.00000000    
  -13.2650003         0.00000000    
  -13.1499996         0.00000000    
  -13.0349998         0.00000000    
  -12.9200001         0.00000000    
  -12.8050003         0.00000000    
  -12.6899996         0.00000000    
  -12.5749998         0.00000000    
  -12.4600000         0.00000000    
  -12.3450003         0.00000000    
  -12.2299995         0.00000000    
  -12.1149998         0.00000000    
  -12.0000000         0.00000000    
  -11.8850002         0.00000000    
  -11.7700005         0.00000000    
  -11.6549997         0.00000000    
  -11.5400000         0.00000000    
  -11.4250002         0.00000000    
  -11.3100004         0.00000000    
  -11.1949997         0.00000000    
  -11.0799999         0.00000000    
  -10.9650002         0.00000000    
  -10.8500004         0.00000000    
  -10.7349997         0.00000000    
  -10.6199999         0.00000000    
  -10.5050001         0.00000000    
  -10.3900003         0.00000000    
  -10.2749996         0.00000000    
  -10.1599998         0.00000000    
  -10.0450001         0.00000000    
  -9.93000031         0.00000000    
  -9.81499958         0.00000000    
  -9.69999981         0.00000000    
  -9.58500004         0.00000000    
  -9.47000027         0.00000000    
  -9.35499954         0.00000000    
  -9.23999977         0.00000000    
  -9.12500000         0.00000000    
  -9.01000023         0.00000000    
  -8.89500046         0.00000000    
  -8.77999973         0.00000000    
  -8.66499996         0.00000000    
  -8.55000019         0.00000000    
  -8.43500042         0.00000000    
  -8.31999969         0.00000000    
  -8.20499992         0.00000000    
  -8.09000015         0.00000000    
  -7.97499990         0.00000000    
  -7.86000013         0.00000000    
  -7.74499989         0.00000000    
  -7.63000011         0.00000000    
  -7.51499987         0.00000000    
  -7.40000010         0.00000000    
  -7.28499985         0.00000000    
  -7.17000008         0.00000000    
  -7.05499983         0.00000000    
  -6.94000006         0.00000000    
  -6.82499981         0.00000000    
  -6.71000004         0.00000000    
  -6.59499979         0.00000000    
  -6.48000002         0.00000000    
  -6.36499977         0.00000000    
  -6.25000000         0.00000000    
  -6.13500023         0.00000000    
  -6.01999998         0.00000000    
  -5.90500021         0.00000000    
  -5.78999996         0.00000000    
  -5.67500019         0.00000000    
  -5.55999994         0.00000000    
  -5.44500017         0.00000000    
  -5.32999992         0.00000000    
  -5.21500015         0.00000000    
  -5.09999990         0.00000000    
  -4.98500013         0.00000000    
  -4.86999989         0.00000000    
  -4.75500011         0.00000000    
  -4.63999987         0.00000000    
  -4.52500010         0.00000000    
  -4.40999985         0.00000000    
  -4.29500008         0.00000000    
  -4.17999983         0.00000000    
  -4.06500006         0.00000000    
  -3.95000005         0.00000000    
  -3.83500004         0.00000000    
  -3.72000003         0.00000000    
  -3.60500002         0.00000000    
  -3.49000001         0.00000000    
  -3.37500000        -7.07574682E-34
  -3.25999999        -1.41514936E-33
  -3.14499998        -1.41514936E-33
  -3.02999997         3.72380925E-33
  -2.91499996         1.41502175E-32
  -2.79999995         2.83064271E-32
  -2.68499994         2.27463990E-32
  -2.56999993        -4.87019891E-34
  -2.45499992        -4.10870247E-32
  -2.33999991        -1.04560846E-31
  -2.22499990        -1.99823484E-31
  -2.10999990        -2.99413128E-31
  -1.99500000        -3.89132006E-31
  -1.88000000        -4.47423525E-31
  -1.76499999        -4.48124637E-31
  -1.64999998        -3.72374558E-31
  -1.53499997        -2.08185833E-31
  -1.41999996        -1.92912870E-31
  -1.30499995        -7.34076850E-31
  -1.19000006        -2.14882681E-30
  -1.07500005        -4.09786283E-30
 -0.959999979        -6.33217704E-30
 -0.845000029        -8.56824415E-30
 -0.730000019        -1.01569889E-29
 -0.615000010        -1.05816881E-29
 -0.500000000        -9.20970070E-30
 -0.384999990        -5.63842849E-30
 -0.270000011         2.24038432E-31
 -0.155000001         8.16418480E-30
  -3.99999991E-02     1.82605934E-29
   7.50000030E-02     3.01088452E-29
  0.189999998         4.30033073E-29
  0.305000007         5.64562109E-29
  0.419999987         6.98130947E-29
  0.535000026         8.23841932E-29
  0.649999976         9.29744727E-29
  0.764999986         9.97203132E-29
  0.879999995         1.00668786E-28
  0.995000005         9.39237094E-29
   1.11000001         7.74475051E-29
   1.22500002         4.99105497E-29
   1.34000003         1.08067834E-29
   1.45500004        -3.93422890E-29
   1.57000005        -9.90908230E-29
   1.68499994        -1.65808557E-28
   1.79999995        -2.35842183E-28
   1.91499996        -3.05212591E-28
   2.02999997        -3.68858918E-28
   2.14499998        -4.20804522E-28
   2.25999999        -4.54691164E-28
   2.37500000        -4.64006309E-28
   2.49000001        -4.42403682E-28
   2.60500002        -3.84166281E-28
   2.72000003        -2.84896967E-28
   2.83500004        -1.42434893E-28
   2.95000005         4.23995343E-29
   3.06500006         2.65078883E-28
   3.18000007         5.16986427E-28
   3.29500008         7.85241216E-28
   3.41000009         1.05333009E-27
   3.52500010         1.30139747E-27
   3.64000010         1.50707369E-27
   3.75500011         1.64709804E-27
   3.86999989         1.69847897E-27
   3.98499990         1.64020244E-27
   4.09999990         1.45511056E-27
   4.21500015         1.13165612E-27
   4.32999992         6.65936645E-28
   4.44500017         6.35252284E-29
   4.55999994        -6.59160694E-28
   4.67500019        -1.47391582E-27
   4.78999996        -2.34008828E-27
   4.90500021        -3.20577106E-27
   5.01999998        -4.00971257E-27
   5.13500023        -4.68420290E-27
   5.25000000        -5.15888647E-27
   5.36499977        -5.36545671E-27
   5.48000002        -5.24253307E-27
   5.59499979        -4.74051362E-27
   5.71000004        -3.82709551E-27
   5.82499981        -2.49249250E-27
   5.94000006        -7.52217295E-28
   6.05499983         1.35083186E-27
   6.17000008         3.74499581E-27
   6.28499985         6.33075167E-27
   6.40000010         8.98440695E-27
   6.51499987         1.15617557E-26
   6.63000011         1.39054962E-26
   6.74499989         1.58539086E-26
   6.86000013         1.72495592E-26
   6.97499990         1.79508581E-26
   7.09000015         1.78391557E-26
   7.20499992         1.68280039E-26
   7.32000017         1.48676938E-26
   7.43499994         1.19482714E-26
   7.55000019         8.09993980E-27
   7.66499996         3.38943332E-27
   7.78000021        -2.08639400E-27
   7.89499998        -8.20873944E-27
   8.01000023        -1.48480802E-26
   8.12500000        -2.18749681E-26
   8.23999977        -2.91715247E-26
   8.35499954        -3.66383458E-26
   8.47000027        -4.42007393E-26
   8.58500004        -5.18075525E-26
   8.69999981        -5.94241832E-26
   8.81499958        -6.70197366E-26
   8.93000031        -7.45473062E-26
   9.04500008        -8.19184965E-26
   9.15999985        -8.89744074E-26
   9.27499962        -9.54532481E-26
   9.39000034        -1.00961180E-25
   9.50500011        -1.04947269E-25
   9.61999989        -1.06688988E-25
   9.73499966        -1.05288094E-25
   9.85000038        -9.96847103E-26
   9.96500015        -8.86900292E-26
   10.0799999        -7.10392541E-26
   10.1949997        -4.54654652E-26
   10.3100004        -1.07927034E-26
   10.4250002         3.39550231E-26
   10.5400000         8.94357369E-26
   10.6549997         1.55866552E-25
   10.7700005         2.32906055E-25
   10.8850002         3.19549655E-25
   11.0000000         4.14047353E-25
   11.1149998         5.13853344E-25
   11.2299995         6.15614034E-25
   11.3450003         7.15201117E-25
   11.4600000         8.07792778E-25
   11.5749998         8.88002380E-25
   11.6899996         9.50052996E-25
   11.8050003         9.87990993E-25
   11.9200001         9.95928807E-25
   12.0349998         9.68306547E-25
   12.1499996         9.00159121E-25
   12.2650003         7.87374050E-25
   12.3800001         6.26928370E-25
   12.4949999         4.17090877E-25
   12.6099997         1.57583310E-25
   12.7250004        -1.50307831E-25
   12.8400002        -5.03668755E-25
   12.9549999        -8.97942816E-25
   13.0699997        -1.32695575E-24
   13.1850004        -1.78297237E-24
   13.3000002        -2.25677170E-24
   13.4150000        -2.73773053E-24
   13.5299997        -3.21390295E-24
   13.6450005        -3.67208717E-24
   13.7600002        -4.09787878E-24
   13.8750000        -4.47570963E-24
   13.9899998        -4.78888623E-24
   14.1049995        -5.01964027E-24
   14.2200003        -5.14921935E-24
   14.3350000        -5.15804237E-24
   14.4499998        -5.02596023E-24
   14.5649996        -4.73264044E-24
   14.6800003        -4.25812247E-24
   14.7950001        -3.58354739E-24
   14.9099998        -2.69208980E-24
   15.0249996        -1.57007390E-24
   15.1400003        -2.08263223E-25
   15.2550001         1.39672566E-24
   15.3699999         3.24093820E-24
   15.4849997         5.31161110E-24
   15.6000004         7.58580874E-24
   15.7150002         1.00292699E-23
   15.8299999         1.25955811E-23
   15.9449997         1.52257901E-23
   16.0599995         1.78485475E-23
   16.1749992         2.03808652E-23
   16.2900009         2.27295644E-23
   16.4050007         2.47933886E-23
   16.5200005         2.64658337E-23
   16.6350002         2.76385622E-23
   16.7500000         2.82053619E-23
   16.8649998         2.80664688E-23
   16.9799995         2.71330980E-23
   17.0949993         2.53319645E-23
   17.2099991         2.26095897E-23
   17.3250008         1.89361311E-23
   17.4400005         1.43085642E-23
   17.5550003         8.75298209E-24
   17.6700001         2.32585895E-24
   17.7849998        -4.88581830E-24
   17.8999996        -1.27656485E-23
   18.0149994        -2.11701095E-23
   18.1299992        -2.99320112E-23
   18.2450008        -3.88649901E-23
   18.3600006        -4.77688347E-23
   18.4750004        -5.64354941E-23
   18.5900002        -6.46554752E-23
   18.7049999        -7.22243306E-23
   18.8199997        -7.89490795E-23
   18.9349995        -8.46541973E-23
   19.0499992        -8.91870362E-23
   19.1650009        -9.24224262E-23
   19.2800007        -9.42664106E-23
   19.3950005        -9.46588721E-23
   19.5100002        -9.35752422E-23
   19.6250000        -9.10271016E-23
   19.7399998        -8.70618197E-23
   19.8549995        -8.17613244E-23
   19.9699993        -7.52400448E-23
   20.0849991        -6.76422352E-23
   20.2000008        -5.91385797E-23
   20.3150005        -4.99224124E-23
   20.4300003        -4.02053815E-23
   20.5450001        -3.02127794E-23
   20.6599998        -2.01784372E-23
   20.7749996        -1.03392701E-23
   20.8899994        -9.29472798E-25
   21.0049992         7.82560746E-24
   21.1200008         1.57158447E-23
   21.2350006         2.25528280E-23
   21.3500004         2.81763350E-23
   21.4650002         3.24605660E-23
   21.5799999         3.53198050E-23
   21.6949997         3.67132331E-23
   21.8099995         3.66484803E-23
   21.9249992         3.51835656E-23
   22.0400009         3.24268533E-23
   22.1550007         2.85347587E-23
   22.2700005         2.37069473E-23
   22.3850002         1.81789761E-23
   22.5000000         1.22124519E-23
   22.6149998         6.08295653E-24
   22.7299995         6.61703738E-26
   22.8449993        -5.57717679E-24
   22.9599991        -1.06167283E-23
   23.0750008        -1.48673838E-23
   23.1900005        -1.82026120E-23
   23.3050003        -2.05652330E-23
   23.4200001        -2.19746040E-23
   23.5349998        -2.25293358E-23
   23.6499996        -2.24049655E-23
   23.7649994        -2.18460134E-23
   23.8799992        -2.11524027E-23
   23.9950008        -2.06604328E-23
   24.1100006        -2.07188605E-23
   24.2250004        -2.16611123E-23
   24.3400002        -2.37748146E-23
   24.4549999        -2.72702273E-23
   24.5699997        -3.22492807E-23
   24.6849995        -3.86771150E-23
   24.7999992        -4.63579475E-23
   24.9150009        -5.49170315E-23
   25.0300007        -6.37901832E-23
   25.1450005        -7.22222480E-23
   25.2600002        -7.92751693E-23
   25.3750000        -8.38461576E-23
   25.4899998        -8.46957671E-23
   25.6049995        -8.04852504E-23
   25.7199993        -6.98219399E-23
   25.8349991        -5.13112809E-23
   25.9500008        -2.36130666E-23
   26.0650005         1.44999829E-23
   26.1800003         6.40842579E-23
   26.2950001         1.25970295E-22
   26.4099998         2.00713604E-22
   26.5249996         2.88553732E-22
   26.6399994         3.89383485E-22
   26.7549992         5.02730781E-22
   26.8700008         6.27753799E-22
   26.9850006         7.63250769E-22
   27.1000004         9.07684411E-22
   27.2150002         1.05922043E-21
   27.3299999         1.21577981E-21
   27.4449997         1.37510194E-21
   27.5599995         1.53481838E-21
   27.6749992         1.69253189E-21
   27.7900009         1.84590039E-21
   27.9050007         1.99271990E-21
   28.0200005         2.13100467E-21
   28.1350002         2.25906014E-21
   28.2500000         2.37554539E-21
   28.3649998         2.47952033E-21
   28.4799995         2.57047789E-21
   28.5949993         2.64835707E-21
   28.7099991         2.71353429E-21
   28.8250008         2.76679717E-21
   28.9400005         2.80929358E-21
   29.0550003         2.84246622E-21
   29.1700001         2.86796887E-21
   29.2849998         2.88756918E-21
   29.3999996         2.90304731E-21
   29.5149994         2.91608490E-21
   29.6299992         2.92816363E-21
   29.7450008         2.94046734E-21
   29.8600006         2.95379815E-21
   29.9750004         2.96851554E-21
   30.0900002         2.98449491E-21
   30.2049999         3.00111729E-21
   30.3199997         3.01728588E-21
   30.4349995         3.03147659E-21
   30.5499992         3.04181433E-21
   30.6650009         3.04618045E-21
   30.7800007         3.04233960E-21
   30.8950005         3.02808507E-21
   31.0100002         3.00139315E-21
   31.1250000         2.96057917E-21
   31.2399998         2.90444318E-21
   31.3549995         2.83240253E-21
   31.4699993         2.74459537E-21
   31.5849991         2.64195126E-21
   31.7000008         2.52622211E-21
   31.8150005         2.39996721E-21
   31.9300003         2.26648982E-21
   32.0449982         2.12972653E-21
   32.1599998         1.99408951E-21
   32.2750015         1.86426800E-21
   32.3899994         1.74499627E-21
   32.5050011         1.64079514E-21
   32.6199989         1.55570388E-21
   32.7350006         1.49300719E-21
   32.8499985         1.45497808E-21
   32.9650002         1.44264661E-21
   33.0800018         1.45560645E-21
   33.1949997         1.49187214E-21
   33.3100014         1.54779770E-21
   33.4249992         1.61806120E-21
   33.5400009         1.69572086E-21
   33.6549988         1.77234392E-21
   33.7700005         1.83820716E-21
   33.8849983         1.88256170E-21
   34.0000000         1.89395522E-21
   34.1150017         1.86059880E-21
   34.2299995         1.77076690E-21
   34.3450012         1.61321101E-21
   34.4599991         1.37757490E-21
   34.5750008         1.05478917E-21
   34.6899986         6.37430812E-22
   34.8050003         1.20029541E-22
   34.9199982        -5.00692011E-22
   35.0349998        -1.22565851E-21
   35.1500015        -2.05337449E-21
   35.2649994        -2.97994966E-21
   35.3800011        -3.99922883E-21
   35.4949989        -5.10301775E-21
   35.6100006        -6.28140560E-21
   35.7249985        -7.52317213E-21
   35.8400002        -8.81627595E-21
   35.9550018        -1.01483897E-20
   36.0699997        -1.15074871E-20
   36.1850014        -1.28824357E-20
   36.2999992        -1.42635923E-20
   36.4150009        -1.56433619E-20
   36.5299988        -1.70166949E-20
   36.6450005        -1.83815058E-20
   36.7599983        -1.97389706E-20
   36.8750000        -2.10937131E-20
   36.9900017        -2.24538145E-20
   37.1049995        -2.38306906E-20
   37.2200012        -2.52387636E-20
   37.3349991        -2.66949860E-20
   37.4500008        -2.82181809E-20
   37.5649986        -2.98282363E-20
   37.6800003        -3.15451660E-20
   37.7949982        -3.33880662E-20
   37.9099998        -3.53740170E-20
   38.0250015        -3.75169479E-20
   38.1399994        -3.98265590E-20
   38.2550011        -4.23073189E-20
   38.3699989        -4.49575894E-20
   38.4850006        -4.77689663E-20
   38.5999985        -5.07258623E-20
   38.7150002        -5.38053717E-20
   38.8300018        -5.69774478E-20
   38.9449997        -6.02054555E-20
   39.0600014        -6.34470600E-20
   39.1749992        -6.66554287E-20
   39.2900009        -6.97807949E-20
   39.4049988        -7.27722678E-20
   39.5200005        -7.55798480E-20
   39.6349983        -7.81565932E-20
   39.7500000        -8.04607823E-20
   39.8650017        -8.24580357E-20
   39.9799995        -8.41233183E-20
   40.0950012        -8.54425615E-20
   40.2099991        -8.64139689E-20
   40.3250008        -8.70488041E-20
   40.4399986        -8.73716695E-20
   40.5550003        -8.74200596E-20
   40.6699982        -8.72433596E-20
   40.7849998        -8.69011201E-20
   40.9000015        -8.64606981E-20
   41.0149994        -8.59943233E-20
   41.1300011        -8.55756472E-20
   41.2449989        -8.52759751E-20
   41.3600006        -8.51602280E-20
   41.4749985        -8.52828963E-20
   41.5900002        -8.56841241E-20
   41.7050018        -8.63861678E-20
   41.8199997        -8.73903845E-20
   41.9350014        -8.86750024E-20
   42.0499992        -9.01937836E-20
   42.1650009        -9.18758037E-20
   42.2799988        -9.36263311E-20
   42.3950005        -9.53289919E-20
   42.5099983        -9.68491237E-20
   42.6250000        -9.80383186E-20
   42.7400017        -9.87399810E-20
   42.8549995        -9.87957963E-20
   42.9700012        -9.80527555E-20
   43.0849991        -9.63705739E-20
   43.2000008        -9.36290259E-20
   43.3149986        -8.97349827E-20
   43.4300003        -8.46285964E-20
   43.5449982        -7.82884509E-20
   43.6599998        -7.07351158E-20
   43.7750015        -6.20330271E-20
   43.8899994        -5.22901772E-20
   44.0050011        -4.16556654E-20
   44.1199989        -3.03149287E-20
   44.2350006        -1.84826997E-20
   44.3499985        -6.39380281E-21
   44.4650002         5.70787823E-21
   44.5800018         1.75819469E-20
   44.6949997         2.90050559E-20
   44.8100014         3.97849253E-20
   44.9249992         4.97741393E-20
   45.0400009         5.88830845E-20
   45.1549988         6.70912882E-20
   45.2700005         7.44565044E-20
   45.3849983         8.11208918E-20
   45.5000000         8.73137798E-20
   45.6150017         9.33505439E-20
   45.7299995         9.96274166E-20
   45.8450012         1.06612026E-19
   45.9599991         1.14829833E-19
   46.0750008         1.24846796E-19
   46.1899986         1.37248715E-19
   46.3050003         1.52617925E-19
   46.4199982         1.71508262E-19
   46.5349998         1.94419277E-19
   46.6500015         2.21770819E-19
   46.7649994         2.53879152E-19
   46.8800011         2.90935810E-19
   46.9949989         3.32990215E-19
   47.1100006         3.79937083E-19
   47.2249985         4.31509701E-19
   47.3400002         4.87279381E-19
   47.4550018         5.46661953E-19
   47.5699997         6.08930869E-19
   47.6850014         6.73237079E-19
   47.7999992         7.38635529E-19
   47.9150009         8.04116232E-19
   48.0299988         8.68640663E-19
   48.1450005         9.31180377E-19
   48.2599983         9.90757440E-19
   48.3750000         1.04648449E-18
   48.4900017         1.09760260E-18
   48.6049995         1.14351578E-18
   48.7200012         1.18381891E-18
   48.8349991         1.21831979E-18
   48.9500008         1.24705170E-18
   49.0649986         1.27027686E-18
   49.1800003         1.28847959E-18
   49.2949982         1.30234893E-18
   49.4099998         1.31275052E-18
   49.5250015         1.32068980E-18
   49.6399994         1.32726537E-18
   49.7550011         1.33361646E-18
   49.8699989         1.34086381E-18
   49.9850006         1.35004872E-18
   50.0999985         1.36207137E-18
   50.2150002         1.37763095E-18
   50.3300018         1.39717133E-18
   50.4449997         1.42083377E-18
   50.5600014         1.44842003E-18
   50.6749992         1.47936817E-18
   50.7900009         1.51274108E-18
   50.9049988         1.54723255E-18
   51.0200005         1.58118759E-18
   51.1349983         1.61264030E-18
   51.2500000         1.63936651E-18
   51.3650017         1.65895146E-18
   51.4799995         1.66887018E-18
   51.5950012         1.66657620E-18
   51.7099991         1.64959904E-18
   51.8250008         1.61564307E-18
   51.9399986         1.56268594E-18
   52.0550003         1.48907296E-18
   52.1699982         1.39360009E-18
   52.2849998         1.27558581E-18
   52.4000015         1.13492530E-18
   52.5149994         9.72123335E-19
   52.6300011         7.88306743E-19
   52.7449989         5.85210896E-19
   52.8600006         3.65141562E-19
   52.9749985         1.30912163E-19
   53.0900002        -1.14242767E-19
   53.2050018        -3.66775477E-19
   53.3199997        -6.22950340E-19
   53.4350014        -8.78983212E-19
   53.5499992        -1.13118903E-18
   53.6650009        -1.37613137E-18
   53.7799988        -1.61077056E-18
   53.8950005        -1.83259859E-18
   54.0099983        -2.03976184E-18
   54.1250000        -2.23115778E-18
   54.2400017        -2.40650684E-18
   54.3549995        -2.56639154E-18
   54.4700012        -2.71225905E-18
   54.5849991        -2.84638763E-18
   54.7000008        -2.97181427E-18
   54.8149986        -3.09222612E-18
   54.9300003        -3.21181493E-18
   55.0449982        -3.33510372E-18
   55.1599998        -3.46674745E-18
   55.2750015        -3.61131587E-18
   55.3899994        -3.77306690E-18
   55.5050011        -3.95571996E-18
   55.6199989        -4.16224132E-18
   55.7350006        -4.39464102E-18
   55.8499985        -4.65380870E-18
   55.9650002        -4.93937916E-18
   56.0800018        -5.24964592E-18
   56.1949997        -5.58152940E-18
   56.3100014        -5.93059548E-18
   56.4249992        -6.29113580E-18
   56.5400009        -6.65630709E-18
   56.6549988        -7.01832310E-18
   56.7700005        -7.36870026E-18
   56.8849983        -7.69854597E-18
   57.0000000        -7.99887788E-18
   57.1150017        -8.26096510E-18
   57.2299995        -8.47668387E-18
   57.3450012        -8.63885429E-18
   57.4599991        -8.74157192E-18
   57.5750008        -8.78048415E-18
   57.6899986        -8.75303416E-18
   57.8050003        -8.65863052E-18
   57.9199982        -8.49874726E-18
   58.0349998        -8.27694209E-18
   58.1500015        -7.99878441E-18
   58.2649994        -7.67170313E-18
   58.3800011        -7.30473604E-18
   58.4949989        -6.90821295E-18
   58.6100006        -6.49335788E-18
   58.7249985        -6.07184153E-18
   58.8400002        -5.65528826E-18
   58.9550018        -5.25476410E-18
   59.0699997        -4.88026387E-18
   59.1850014        -4.54022109E-18
   59.2999992        -4.24106088E-18
   59.4150009        -3.98681368E-18
   59.5299988        -3.77881953E-18
   59.6450005        -3.61553118E-18
   59.7599983        -3.49242975E-18
   59.8750000        -3.40206875E-18
   59.9900017        -3.33424159E-18
   60.1049995        -3.27627877E-18
   60.2200012        -3.21346826E-18
   60.3349991        -3.12957912E-18
   60.4500008        -3.00748230E-18
   60.5649986        -2.82983988E-18
   60.6800003        -2.57983798E-18
   60.7949982        -2.24193884E-18
   60.9099998        -1.80261784E-18
   61.0250015        -1.25105257E-18
   61.1399994        -5.79739458E-19
   61.2550011         2.14998277E-19
   61.3699989         1.13262977E-18
   61.4850006         2.16819341E-18
   61.5999985         3.31223962E-18
   61.7150002         4.55095169E-18
   61.8300018         5.86645010E-18
   61.9449997         7.23727119E-18
   62.0600014         8.63901559E-18
   62.1749992         1.00451366E-17
   62.2900009         1.14278534E-17
   62.4049988         1.27591468E-17
   62.5200005         1.40118142E-17
   62.6349983         1.51605233E-17
   62.7500000         1.61828440E-17
   62.8650017         1.70601981E-17
   62.9799995         1.77786938E-17
   63.0950012         1.83298029E-17
   63.2099991         1.87108569E-17
   63.3250008         1.89253068E-17
   63.4399986         1.89827627E-17
   63.5550003         1.88987774E-17
   63.6699982         1.86943778E-17
   63.7849998         1.83953553E-17
   63.9000015         1.80313429E-17
   64.0149994         1.76346850E-17
   64.1299973         1.72391553E-17
   64.2450027         1.68785642E-17
   64.3600006         1.65853088E-17
   64.4749985         1.63889146E-17
   64.5899963         1.63146354E-17
   64.7050018         1.63821664E-17
   64.8199997         1.66045374E-17
   64.9349976         1.69872110E-17
   65.0500031         1.75274725E-17
   65.1650009         1.82141068E-17
   65.2799988         1.90274206E-17
   65.3949966         1.99396056E-17
   65.5100021         2.09154487E-17
   65.6250000         2.19133627E-17
   65.7399979         2.28867492E-17
   65.8550034         2.37855951E-17
   65.9700012         2.45582992E-17
   66.0849991         2.51536509E-17
   66.1999969         2.55228646E-17
   66.3150024         2.56216366E-17
   66.4300003         2.54121018E-17
   66.5449982         2.48646274E-17
   66.6600037         2.39593791E-17
   66.7750015         2.26875409E-17
   66.8899994         2.10521982E-17
   67.0049973         1.90687432E-17
   67.1200027         1.67648649E-17
   67.2350006         1.41800297E-17
   67.3499985         1.13644864E-17
   67.4649963         8.37780436E-18
   67.5800018         5.28699685E-18
   67.6949997         2.16426803E-18
   67.8099976        -9.15527845E-19
   67.9250031        -3.87763660E-18
   68.0400009        -6.65025585E-18
   68.1549988        -9.16738465E-18
   68.2699966        -1.13715538E-17
   68.3850021        -1.32163254E-17
   68.5000000        -1.46684418E-17
   68.6149979        -1.57095512E-17
   68.7300034        -1.63373862E-17
   68.8450012        -1.65663581E-17
   68.9599991        -1.64274910E-17
   69.0749969        -1.59676993E-17
   69.1900024        -1.52483781E-17
   69.3050003        -1.43433763E-17
   69.4199982        -1.33363543E-17
   69.5350037        -1.23176631E-17
   69.6500015        -1.13808083E-17
   69.7649994        -1.06186457E-17
   69.8799973        -1.01194497E-17
   69.9950027        -9.96299343E-18
   70.1100006        -1.02168262E-17
   70.2249985        -1.09328759E-17
   70.3399963        -1.21445566E-17
   70.4550018        -1.38645000E-17
   70.5699997        -1.60830348E-17
   70.6849976        -1.87675138E-17
   70.8000031        -2.18625391E-17
   70.9150009        -2.52911217E-17
   71.0299988        -2.89567676E-17
   71.1449966        -3.27464360E-17
   71.2600021        -3.65342913E-17
   71.3750000        -4.01861381E-17
   71.4899979        -4.35643570E-17
   71.6050034        -4.65332108E-17
   71.7200012        -4.89642748E-17
   71.8349991        -5.07417933E-17
   71.9499969        -5.17677520E-17
   72.0650024        -5.19664639E-17
   72.1800003        -5.12883909E-17
   72.2949982        -4.97131478E-17
   72.4100037        -4.72514054E-17
   72.5250015        -4.39456310E-17
   72.6399994        -3.98696423E-17
   72.7549973        -3.51268269E-17
   72.8700027        -2.98471977E-17
   72.9850006        -2.41832357E-17
   73.0999985        -1.83047096E-17
   73.2149963        -1.23926322E-17
   73.3300018        -6.63256659E-18
   73.4449997        -1.20751371E-18
   73.5599976         3.70933512E-18
   73.6750031         7.96168950E-18
   73.7900009         1.14168246E-17
   73.9049988         1.39715057E-17
   74.0199966         1.55569496E-17
   74.1350021         1.61425570E-17