  -18.8999996         0.00000000    
  -18.7849998         0.00000000    
  -18.6700001         0.00000000    
  -18.5550003         0.00000000    
  -18.4400005         0.00000000    
  -18.3250008         0.00000000    
  -18.2099991         0.00000000    
  -18.0949993         0.00000000    
  -17.9799995         0.00000000    
  -17.8649998         0.00000000    
  -17.7500000         0.00000000    
  -17.6350002         0.00000000    
  -17.5200005         0.00000000    
  -17.4050007         0.00000000    
  -17.2900009         0.00000000    
  -17.1749992         0.00000000    
  -17.0599995         0.00000000    
  -16.9449997         0.00000000    
  -16.8299999         0.00000000    
  -16.7150002         0.00000000    
  -16.6000004         0.00000000    
  -16.4850006         0.00000000    
  -16.3700008         0.00000000    
  -16.2549992         0.00000000    
  -16.1399994         0.00000000    
  -16.0249996         0.00000000    
  -15.9099998         0.00000000    
  -15.7950001         0.00000000    
  -15.6800003         0.00000000    
  -15.5649996         0.00000000    
  -15.4499998         0.00000000    
  -15.3350000         0.00000000    
  -15.2200003         0.00000000    
  -15.1049995         0.00000000    
  -14.9899998         0.00000000    
  -14.8750000         0.00000000    
  -14.7600002         0.00000000    
  -14.6450005         0.00000000    
  -14.5299997         0.00000000    
  -14.4150000         0.00000000    
  -14.3000002         0.00000000    
  -14.1850004         0.00000000    
  -14.0699997         0.00000000    
  -13.9549999         0.00000000    
  -13.8400002         0.00000000    
  -13.7250004         0.00000000    
  -13.6099997         0.00000000    
  -13.4949999         0.00000000    
  -13.3800001         0.00000000    
  -13.2650003         0.00000000    
  -13.1499996         0.00000000    
  -13.0349998         0.00000000    
  -12.9200001         0.00000000    
  -12.8050003         0.00000000    
  -12.6899996         0.00000000    
  -12.5749998         0.00000000    
  -12.4600000         0.00000000    
  -12.3450003         0.00000000    
  -12.2299995         0.00000000    
  -12.1149998         0.00000000    
  -12.0000000         0.00000000    
  -11.8850002         0.00000000    
  -11.7700005         0.00000000    
  -11.6549997         0.00000000    
  -11.5400000         0.00000000    
  -11.4250002         0.00000000    
  -11.3100004         0.00000000    
  -11.1949997         0.00000000    
  -11.0799999         0.00000000    
  -10.9650002         0.00000000    
  -10.8500004         0.00000000    
  -10.7349997         0.00000000    
  -10.6199999         0.00000000    
  -10.5050001         0.00000000    
  -10.3900003         0.00000000    
  -10.2749996         0.00000000    
  -10.1599998         0.00000000    
  -10.0450001         0.00000000    
  -9.93000031         0.00000000    
  -9.81499958         0.00000000    
  -9.69999981         0.00000000    
  -9.58500004         0.00000000    
  -9.47000027         0.00000000    
  -9.35499954         0.00000000    
  -9.23999977         0.00000000    
  -9.12500000         0.00000000    
  -9.01000023         0.00000000    
  -8.89500046         0.00000000    
  -8.77999973         0.00000000    
  -8.66499996         0.00000000    
  -8.55000019         0.00000000    
  -8.43500042         0.00000000    
  -8.31999969         0.00000000    
  -8.20499992         0.00000000    
  -8.09000015         0.00000000    
  -7.97499990         0.00000000    
  -7.86000013         0.00000000    
  -7.74499989         0.00000000    
  -7.63000011         0.00000000    
  -7.51499987         0.00000000    
  -7.40000010         0.00000000    
  -7.28499985         0.00000000    
  -7.17000008         0.00000000    
  -7.05499983         0.00000000    
  -6.94000006         0.00000000    
  -6.82499981         0.00000000    
  -6.71000004         0.00000000    
  -6.59499979         0.00000000    
  -6.48000002         0.00000000    
  -6.36499977         0.00000000    
  -6.25000000         0.00000000    
  -6.13500023         0.00000000    
  -6.01999998         0.00000000    
  -5.90500021         0.00000000    
  -5.78999996         0.00000000    
  -5.67500019         0.00000000    
  -5.55999994         0.00000000    
  -5.44500017         0.00000000    
  -5.32999992         0.00000000    
  -5.21500015         0.00000000    
  -5.09999990         0.00000000    
  -4.98500013         0.00000000    
  -4.86999989         0.00000000    
  -4.75500011         0.00000000    
  -4.63999987         0.00000000    
  -4.52500010         0.00000000    
  -4.40999985         0.00000000    
  -4.29500008         0.00000000    
  -4.17999983         0.00000000    
  -4.06500006         0.00000000    
  -3.95000005         0.00000000    
  -3.83500004         0.00000000    
  -3.72000003         0.00000000    
  -3.60500002         0.00000000    
  -3.49000001         0.00000000    
  -3.37500000        -1.85380774E-34
  -3.25999999        -3.70761548E-34
  -3.14499998        -3.70761548E-34
  -3.02999997         9.75618067E-34
  -2.91499996         3.70728070E-33
  -2.79999995         7.41613288E-33
  -2.68499994         5.95943420E-33
  -2.56999993        -1.27596583E-34
  -2.45499992        -1.07645792E-32
  -2.33999991        -2.49286235E-32
  -2.22499990        -4.43273365E-32
  -2.10999990        -6.04201334E-32
  -1.99500000        -6.87916280E-32
  -1.88000000        -6.54541115E-32
  -1.76499999        -6.38692865E-32
  -1.64999998        -6.09515626E-32
  -1.53499997        -5.28438783E-32
  -1.41999996        -9.61806229E-32
  -1.30499995        -3.04078007E-31
  -1.19000006        -7.53318940E-31
  -1.07500005        -1.35637510E-30
 -0.959999979        -2.04815371E-30
 -0.845000029        -2.75053265E-30
 -0.730000019        -3.28805104E-30
 -0.615000010        -3.50879271E-30
 -0.500000000        -3.23880329E-30
 -0.384999990        -2.62494114E-30
 -0.270000011        -1.76604259E-30
 -0.155000001        -7.36452712E-31
  -3.99999991E-02     4.76408018E-31
   7.50000030E-02     1.78329339E-30
  0.189999998         2.64283555E-30
  0.305000007         2.93071731E-30
  0.419999987         2.75587146E-30
  0.535000026         1.92503130E-30
  0.649999976         1.65159966E-31
  0.764999986        -2.39654503E-30
  0.879999995        -5.90035421E-30
  0.995000005        -1.03279851E-29
   1.11000001        -1.56302245E-29
   1.22500002        -2.12544696E-29
   1.34000003        -2.68140666E-29
   1.45500004        -3.18236872E-29
   1.57000005        -3.57416186E-29
   1.68499994        -3.79661429E-29
   1.79999995        -3.75162697E-29
   1.91499996        -3.40613109E-29
   2.02999997        -2.68704061E-29
   2.14499998        -1.54588258E-29
   2.25999999         1.63256699E-31
   2.37500000         2.02589504E-29
   2.49000001         4.44010149E-29
   2.60500002         7.19063278E-29
   2.72000003         1.01269369E-28
   2.83500004         1.30850521E-28
   2.95000005         1.58551629E-28
   3.06500006         1.81928807E-28
   3.18000007         1.98302835E-28
   3.29500008         2.04963892E-28
   3.41000009         1.99380224E-28
   3.52500010         1.79519192E-28
   3.64000010         1.43885889E-28
   3.75500011         9.18645111E-29
   3.86999989         2.38529854E-29
   3.98499990        -5.84076052E-29
   4.09999990        -1.51613563E-28
   4.21500015        -2.50869179E-28
   4.32999992        -3.49884873E-28
   4.44500017        -4.41120580E-28
   4.55999994        -5.16145036E-28
   4.67500019        -5.66111989E-28
   4.78999996        -5.82301019E-28
   4.90500021        -5.57247126E-28
   5.01999998        -4.84813912E-28
   5.13500023        -3.61504032E-28
   5.25000000        -1.86870070E-28
   5.36499977         3.57718376E-29
   5.48000002         2.98698277E-28
   5.59499979         5.89545789E-28
   5.71000004         8.91676194E-28
   5.82499981         1.18431258E-27
   5.94000006         1.44375355E-27
   6.05499983         1.64436708E-27
   6.17000008         1.76074910E-27
   6.28499985         1.76927769E-27
   6.40000010         1.65016759E-27
   6.51499987         1.38908660E-27
   6.63000011         9.79055154E-28
   6.74499989         4.21743606E-28
   6.86000013        -2.71352503E-28
   6.97499990        -1.07831354E-27
   7.09000015        -1.96788787E-27
   7.20499992        -2.90002467E-27
   7.32000017        -3.82777036E-27
   7.43499994        -4.70044465E-27
   7.55000019        -5.46649484E-27
   7.66499996        -6.07709052E-27
   7.78000021        -6.48938320E-27
   7.89499998        -6.66964485E-27
   8.01000023        -6.59534093E-27
   8.12500000        -6.25619661E-27
   8.23999977        -5.65468439E-27
   8.35499954        -4.80462668E-27
   8.47000027        -3.72763510E-27
   8.58500004        -2.44934108E-27
   8.69999981        -9.94250934E-28
   8.81499958         6.20076497E-28
   8.93000031         2.38849941E-27
   9.04500008         4.32383059E-27
   9.15999985         6.45975277E-27
   9.27499962         8.85212099E-27
   9.39000034         1.15773812E-26
   9.50500011         1.47262073E-26
   9.61999989         1.83949436E-26
   9.73499966         2.26732075E-26
   9.85000038         2.76273695E-26
   9.96500015         3.32829784E-26
   10.0799999         3.96048634E-26
   10.1949997         4.64784150E-26
   10.3100004         5.36928314E-26
   10.4250002         6.09284917E-26
   10.5400000         6.77509984E-26
   10.6549997         7.36125492E-26
   10.7700005         7.78629996E-26
   10.8850002         7.97707179E-26
   11.0000000         7.85536350E-26
   11.1149998         7.34201781E-26
   11.2299995         6.36177062E-26
   11.3450003         4.84870705E-26
   11.4600000         2.75191477E-26
   11.5749998         4.11107465E-28
   11.6899996        -3.28828780E-26
   11.8050003        -7.21095966E-26
   11.9200001        -1.16687763E-25
   12.0349998        -1.65694317E-25
   12.1499996        -2.17868665E-25
   12.2650003        -2.71635452E-25
   12.3800001        -3.25145736E-25
   12.4949999        -3.76334181E-25
   12.6099997        -4.22989337E-25
   12.7250004        -4.62832434E-25
   12.8400002        -4.93599685E-25
   12.9549999        -5.13122119E-25
   13.0699997        -5.19398198E-25
   13.1850004        -5.10653478E-25
   13.3000002        -4.85385030E-25
   13.4150000        -4.42388857E-25
   13.5299997        -3.80769896E-25
   13.6450005        -2.99938425E-25
   13.7600002        -1.99596921E-25
   13.8750000        -7.97248777E-26
   13.9899998         5.94312152E-26
   14.1049995         2.17353982E-25
   14.2200003         3.93228771E-25
   14.3350000         5.85890002E-25
   14.4499998         7.93732565E-25
   14.5649996         1.01459365E-24
   14.6800003         1.24560279E-24
   14.7950001         1.48301245E-24
   14.9099998         1.72202143E-24
   15.0249996         1.95660717E-24
   15.1400003         2.17938918E-24
   15.2550001         2.38154504E-24
   15.3699999         2.55280497E-24
   15.4849997         2.68153859E-24
   15.6000004         2.75496044E-24
   15.7150002         2.75945970E-24
   15.8299999         2.68105561E-24
   15.9449997         2.50597976E-24
   16.0599995         2.22135895E-24
   16.1749992         1.81597989E-24
   16.2900009         1.28109709E-24
   16.4050007         6.11236694E-25
   16.5200005        -1.95046327E-25
   16.6350002        -1.13451786E-24
   16.7500000        -2.19876419E-24
   16.8649998        -3.37388986E-24
   16.9799995        -4.64045298E-24
   17.0949993        -5.97365433E-24
   17.2099991        -7.34380041E-24
   17.3250008        -8.71702108E-24
   17.4400005        -1.00562292E-23
   17.5550003        -1.13222666E-23
   17.6700001        -1.24752002E-23
   17.7849998        -1.34756722E-23
   17.8999996        -1.42862741E-23
   18.0149994        -1.48728238E-23
   18.1299992        -1.52054927E-23
   18.2450008        -1.52597537E-23
   18.3600006        -1.50170370E-23
   18.4750004        -1.44651200E-23
   18.5900002        -1.35982092E-23
   18.7049999        -1.24167495E-23
   18.8199997        -1.09269833E-23
   18.9349995        -9.14028913E-24
   19.0499992        -7.07240228E-24
   19.1650009        -4.74256865E-24
   19.2800007        -2.17268721E-24
   19.3950005         6.13458669E-25
   19.5100002         3.59084948E-24
   19.6250000         6.73370328E-24
   19.7399998         1.00157930E-23
   19.8549995         1.34105581E-23
   19.9699993         1.68911039E-23
   20.0849991         2.04300838E-23
   20.2000008         2.39995911E-23
   20.3150005         2.75710578E-23
   20.4300003         3.11153341E-23
   20.5450001         3.46029071E-23
   20.6599998         3.80044343E-23
   20.7749996         4.12914663E-23
   20.8899994         4.44375445E-23
   21.0049992         4.74193883E-23
   21.1200008         5.02183709E-23
   21.2350006         5.28219527E-23
   21.3500004         5.52250849E-23
   21.4650002         5.74313711E-23
   21.5799999         5.94538716E-23
   21.6949997         6.13154445E-23
   21.8099995         6.30484394E-23
   21.9249992         6.46938076E-23
   22.0400009         6.62994803E-23
   22.1550007         6.79181850E-23
   22.2700005         6.96046813E-23
   22.3850002         7.14127505E-23
   22.5000000         7.33919331E-23
   22.6149998         7.55844489E-23
   22.7299995         7.80225087E-23
   22.8449993         8.07262380E-23
   22.9599991         8.37024145E-23
   23.0750008         8.69444246E-23
   23.1900005         9.04332661E-23
   23.3050003         9.41397574E-23
   23.4200001         9.80279455E-23
   23.5349998         1.02059467E-22
   23.6499996         1.06198525E-22
   23.7649994         1.10417265E-22
   23.8799992         1.14701183E-22
   23.9950008         1.19053777E-22
   24.1100006         1.23500504E-22
   24.2250004         1.28091233E-22
   24.3400002         1.32900937E-22
   24.4549999         1.38028608E-22
   24.5699997         1.43593851E-22
   24.6849995         1.49731593E-22
   24.7999992         1.56584775E-22
   24.9150009         1.64295480E-22
   25.0300007         1.72994887E-22
   25.1450005         1.82792615E-22
   25.2600002         1.93765948E-22
   25.3750000         2.05949684E-22
   25.4899998         2.19327263E-22
   25.6049995         2.33823547E-22
   25.7199993         2.49299913E-22
   25.8349991         2.65551710E-22
   25.9500008         2.82308832E-22
   26.0650005         2.99238367E-22
   26.1800003         3.15950733E-22
   26.2950001         3.32007397E-22
   26.4099998         3.46930777E-22
   26.5249996         3.60215574E-22
   26.6399994         3.71340910E-22
   26.7549992         3.79782606E-22
   26.8700008         3.85025489E-22
   26.9850006         3.86574584E-22
   27.1000004         3.83965209E-22
   27.2150002         3.76771681E-22
   27.3299999         3.64614363E-22
   27.4449997         3.47164507E-22
   27.5599995         3.24148070E-22
   27.6749992         2.95346847E-22
   27.7900009         2.60598950E-22
   27.9050007         2.19797297E-22
   28.0200005         1.72886920E-22
   28.1350002         1.19861571E-22
   28.2500000         6.07589631E-23
   28.3649998        -4.34451260E-24
   28.4799995        -7.53398010E-23
   28.5949993        -1.52091625E-22
   28.7099991        -2.34445498E-22
   28.8250008        -3.22234685E-22
   28.9400005        -4.15287859E-22
   29.0550003        -5.13435813E-22
   29.1700001        -6.16517895E-22
   29.2849998        -7.24387821E-22
   29.3999996        -8.36918261E-22
   29.5149994        -9.54003294E-22
   29.6299992        -1.07555977E-21
   29.7450008        -1.20152578E-21
   29.8600006        -1.33185691E-21
   29.9750004        -1.46652065E-21
   30.0900002        -1.60548850E-21
   30.2049999        -1.74872646E-21
   30.3199997        -1.89618433E-21
   30.4349995        -2.04778496E-21
   30.5499992        -2.20341609E-21
   30.6650009        -2.36292018E-21
   30.7800007        -2.52609145E-21
   30.8950005        -2.69267363E-21
   31.0100002        -2.86236420E-21
   31.1250000        -3.03482348E-21
   31.2399998        -3.20968615E-21
   31.3549995        -3.38658426E-21
   31.4699993        -3.56516662E-21
   31.5849991        -3.74512727E-21
   31.7000008        -3.92623418E-21
   31.8150005        -4.10835407E-21
   31.9300003        -4.29148370E-21
   32.0449982        -4.47576767E-21
   32.1599998        -4.66151818E-21
   32.2750015        -4.84922113E-21
   32.3899994        -5.03953770E-21
   32.5050011        -5.23329345E-21
   32.6199989        -5.43146096E-21
   32.7350006        -5.63512632E-21
   32.8499985        -5.84545719E-21
   32.9650002        -6.06365031E-21
   33.0800018        -6.29088789E-21
   33.1949997        -6.52828065E-21
   33.3100014        -6.77681449E-21
   33.4249992        -7.03730530E-21
   33.5400009        -7.31034518E-21
   33.6549988        -7.59626937E-21
   33.7700005        -7.89512552E-21
   33.8849983        -8.20665273E-21
   34.0000000        -8.53027260E-21
   34.1150017        -8.86508930E-21
   34.2299995        -9.20990649E-21
   34.3450012        -9.56323297E-21
   34.4599991        -9.92332553E-21
   34.5750008        -1.02882051E-20
   34.6899986        -1.06557027E-20
   34.8050003        -1.10234830E-20
   34.9199982        -1.13890847E-20
   35.0349998        -1.17499504E-20
   35.1500015        -1.21034529E-20
   35.2649994        -1.24469163E-20
   35.3800011        -1.27776399E-20
   35.4949989        -1.30929072E-20
   35.6100006        -1.33899999E-20
   35.7249985        -1.36662015E-20
   35.8400002        -1.39188001E-20
   35.9550018        -1.41450922E-20
   36.0699997        -1.43423893E-20
   36.1850014        -1.45079935E-20
   36.2999992        -1.46392147E-20
   36.4150009        -1.47333566E-20
   36.5299988        -1.47876984E-20
   36.6450005        -1.47994922E-20
   36.7599983        -1.47659397E-20
   36.8750000        -1.46841603E-20
   36.9900017        -1.45511781E-20
   37.1049995        -1.43638686E-20
   37.2200012        -1.41189391E-20
   37.3349991        -1.38128742E-20
   37.4500008        -1.34419087E-20
   37.5649986        -1.30019884E-20
   37.6800003        -1.24887478E-20
   37.7949982        -1.18975003E-20
   37.9099998        -1.12232431E-20
   38.0250015        -1.04606884E-20
   38.1399994        -9.60431089E-21
   38.2550011        -8.64843745E-21
   38.3699989        -7.58735294E-21
   38.4850006        -6.41543027E-21
   38.5999985        -5.12730003E-21
   38.7150002        -3.71801772E-21
   38.8300018        -2.18325336E-21
   38.9449997        -5.19480532E-22
   39.0600014         1.27584784E-21
   39.1749992         3.20414348E-21
   39.2900009         5.26556440E-21
   39.4049988         7.45893719E-21
   39.5200005         9.78173628E-21
   39.6349983         1.22301206E-20
   39.7500000         1.47990625E-20
   39.8650017         1.74825075E-20
   39.9799995         2.02736411E-20
   40.0950012         2.31651947E-20
   40.2099991         2.61498093E-20
   40.3250008         2.92204395E-20
   40.4399986         3.23707665E-20
   40.5550003         3.55956368E-20
   40.6699982         3.88914281E-20
   40.7849998         4.22564279E-20
   40.9000015         4.56911144E-20
   41.0149994         4.91983344E-20
   41.1300011         5.27834095E-20
   41.2449989         5.64541075E-20
   41.3600006         6.02204740E-20
   41.4749985         6.40945680E-20
   41.5900002         6.80899990E-20
   41.7050018         7.22214689E-20
   41.8199997         7.65040737E-20
   41.9350014         8.09526381E-20
   42.0499992         8.55809334E-20
   42.1650009         9.04009148E-20
   42.2799988         9.54219528E-20
   42.3950005         1.00650141E-19
   42.5099983         1.06087645E-19
   42.6250000         1.11732274E-19
   42.7400017         1.17577094E-19
   42.8549995         1.23610291E-19
   42.9700012         1.29815321E-19
   43.0849991         1.36171028E-19
   43.2000008         1.42652324E-19
   43.3149986         1.49230775E-19
   43.4300003         1.55875582E-19
   43.5449982         1.62554665E-19
   43.6599998         1.69235854E-19
   43.7750015         1.75888247E-19
   43.8899994         1.82483359E-19
   44.0050011         1.88996566E-19
   44.1199989         1.95408211E-19
   44.2350006         2.01704451E-19
   44.3499985         2.07878088E-19
   44.4650002         2.13928914E-19
   44.5800018         2.19863728E-19
   44.6949997         2.25695920E-19
   44.8100014         2.31444670E-19
   44.9249992         2.37133708E-19
   45.0400009         2.42789452E-19
   45.1549988         2.48439096E-19
   45.2700005         2.54108101E-19
   45.3849983         2.59817560E-19
   45.5000000         2.65581432E-19
   45.6150017         2.71403646E-19
   45.7299995         2.77275336E-19
   45.8450012         2.83172565E-19
   45.9599991         2.89054026E-19
   46.0750008         2.94859593E-19
   46.1899986         3.00509107E-19
   46.3050003         3.05902454E-19
   46.4199982         3.10919641E-19
   46.5349998         3.15422372E-19
   46.6500015         3.19255915E-19
   46.7649994         3.22251912E-19
   46.8800011         3.24232027E-19
   46.9949989         3.25011619E-19
   47.1100006         3.24404365E-19
   47.2249985         3.22226786E-19
   47.3400002         3.18302874E-19
   47.4550018         3.12468510E-19
   47.5699997         3.04575579E-19
   47.6850014         2.94495452E-19
   47.7999992         2.82121864E-19
   47.9150009         2.67372717E-19
   48.0299988         2.50191064E-19
   48.1450005         2.30544956E-19
   48.2599983         2.08426263E-19
   48.3750000         1.83848659E-19
   48.4900017         1.56844275E-19
   48.6049995         1.27459886E-19
   48.7200012         9.57522176E-20
   48.8349991         6.17829601E-20
   48.9500008         2.56134942E-20
   49.0649986        -1.27004633E-20
   49.1800003        -5.31137712E-20
   49.2949982        -9.55964491E-20
   49.4099998        -1.40137372E-19
   49.5250015        -1.86747139E-19
   49.6399994        -2.35459727E-19
   49.7550011        -2.86332886E-19
   49.8699989        -3.39447316E-19
   49.9850006        -3.94904038E-19
   50.0999985        -4.52820949E-19
   50.2150002        -5.13327454E-19
   50.3300018        -5.76558018E-19
   50.4449997        -6.42645200E-19
   50.5600014        -7.11710852E-19
   50.6749992        -7.83857648E-19
   50.7900009        -8.59159674E-19
   50.9049988        -9.37653478E-19
   51.0200005        -1.01932929E-18
   51.1349983        -1.10412275E-18
   51.2500000        -1.19190884E-18
   51.3650017        -1.28249515E-18
   51.4799995        -1.37561945E-18
   51.5950012        -1.47094685E-18
   51.7099991        -1.56807109E-18
   51.8250008        -1.66651623E-18
   51.9399986        -1.76574296E-18
   52.0550003        -1.86515559E-18
   52.1699982        -1.96411059E-18
   52.2849998        -2.06192966E-18
   52.4000015        -2.15791156E-18
   52.5149994        -2.25134699E-18
   52.6300011        -2.34153366E-18
   52.7449989        -2.42779061E-18
   52.8600006        -2.50947345E-18
   52.9749985        -2.58598704E-18
   53.0900002        -2.65679825E-18
   53.2050018        -2.72144448E-18
   53.3199997        -2.77954068E-18
   53.4350014        -2.83078349E-18
   53.5499992        -2.87495100E-18
   53.6650009        -2.91189827E-18
   53.7799988        -2.94155249E-18
   53.8950005        -2.96390001E-18
   54.0099983        -2.97897517E-18
   54.1250000        -2.98684187E-18
   54.2400017        -2.98757661E-18
   54.3549995        -2.98124868E-18
   54.4700012        -2.96789984E-18
   54.5849991        -2.94752494E-18
   54.7000008        -2.92005448E-18
   54.8149986        -2.88533708E-18
   54.9300003        -2.84312895E-18
   55.0449982        -2.79308370E-18
   55.1599998        -2.73474844E-18
   55.2750015        -2.66756566E-18
   55.3899994        -2.59087878E-18
   55.5050011        -2.50394499E-18
   55.6199989        -2.40595097E-18
   55.7350006        -2.29603666E-18
   55.8499985        -2.17332090E-18
   55.9650002        -2.03693143E-18
   56.0800018        -1.88603818E-18
   56.1949997        -1.71988572E-18
   56.3100014        -1.53782771E-18
   56.4249992        -1.33935927E-18
   56.5400009        -1.12414569E-18
   56.6549988        -8.92048116E-19
   56.7700005        -6.43143576E-19
   56.8849983        -3.77737429E-19
   57.0000000        -9.63691780E-20
   57.1150017         2.00189521E-19
   57.2299995         5.10946156E-19
   57.3450012         8.34706302E-19
   57.4599991         1.17010178E-18
   57.5750008         1.51562380E-18
   57.6899986         1.86966393E-18
   57.8050003         2.23056076E-18
   57.9199982         2.59664650E-18
   58.0349998         2.96629677E-18
   58.1500015         3.33797900E-18
   58.2649994         3.71029713E-18
   58.3800011         4.08203210E-18
   58.4949989         4.45217143E-18
   58.6100006         4.81993676E-18
   58.7249985         5.18479207E-18
   58.8400002         5.54644660E-18
   58.9550018         5.90484452E-18
   59.0699997         6.26013886E-18
   59.1850014         6.61266049E-18
   59.2999992         6.96286394E-18
   59.4150009         7.31128565E-18
   59.5299988         7.65846824E-18
   59.6450005         8.00490307E-18
   59.7599983         8.35095656E-18
   59.8750000         8.69680408E-18
   59.9900017         9.04236623E-18
   60.1049995         9.38725008E-18
   60.2200012         9.73070623E-18
   60.3349991         1.00715898E-17
   60.4500008         1.04083458E-17
   60.5649986         1.07389939E-17
   60.6800003         1.10611493E-17
   60.7949982         1.13720509E-17
   60.9099998         1.16686010E-17
   61.0250015         1.19474245E-17
   61.1399994         1.22049490E-17
   61.2550011         1.24374852E-17
   61.3699989         1.26413207E-17
   61.4850006         1.28128110E-17
   61.5999985         1.29484893E-17
   61.7150002         1.30451503E-17
   61.8300018         1.30999477E-17
   61.9449997         1.31104744E-17
   62.0600014         1.30748204E-17
   62.1749992         1.29916358E-17
   62.2900009         1.28601546E-17
   62.4049988         1.26802114E-17
   62.5200005         1.24522355E-17
   62.6349983         1.21772178E-17
   62.7500000         1.18566646E-17
   62.8650017         1.14925281E-17
   62.9799995         1.10871253E-17
   63.0950012         1.06430318E-17
   63.2099991         1.01629859E-17
   63.3250008         9.64975585E-18
   63.4399986         9.10603763E-18
   63.5550003         8.53433340E-18
   63.6699982         7.93684595E-18
   63.7849998         7.31537772E-18
   63.9000015         6.67126168E-18
   64.0149994         6.00529320E-18
   64.1299973         5.31769849E-18
   64.2450027         4.60812145E-18
   64.3600006         3.87564599E-18
   64.4749985         3.11883446E-18
   64.5899963         2.33580419E-18
   64.7050018         1.52432574E-18
   64.8199997         6.81941449E-19
   64.9349976        -1.93891963E-19
   65.0500031        -1.10564983E-18
   65.1650009        -2.05557422E-18
   65.2799988        -3.04550779E-18
   65.3949966        -4.07672904E-18
   65.5100021        -5.14980067E-18
   65.6250000        -6.26443151E-18
   65.7399979        -7.41936176E-18
   65.8550034        -8.61228111E-18
   65.9700012        -9.83977495E-18
   66.0849991        -1.10973103E-17
   66.1999969        -1.23792600E-17
   66.3150024        -1.36789692E-17
   66.4300003        -1.49888568E-17
   66.5449982        -1.63005618E-17
   66.6600037        -1.76051133E-17
   66.7750015        -1.88931377E-17
   66.8899994        -2.01550911E-17
   67.0049973        -2.13814839E-17
   67.1200027        -2.25631429E-17
   67.2350006        -2.36914421E-17
   67.3499985        -2.47585481E-17
   67.4649963        -2.57576102E-17
   67.5800018        -2.66829589E-17
   67.6949997        -2.75302268E-17
   67.8099976        -2.82964624E-17
   67.9250031        -2.89801603E-17
   68.0400009        -2.95812658E-17
   68.1549988        -3.01011025E-17
   68.2699966        -3.05422743E-17
   68.3850021        -3.09084705E-17
   68.5000000        -3.12042670E-17
   68.6149979        -3.14348717E-17
   68.7300034        -3.16058267E-17
   68.8450012        -3.17227140E-17
   68.9599991        -3.17908472E-17
   69.0749969        -3.18149314E-17
   69.1900024        -3.17988014E-17
   69.3050003        -3.17451273E-17
   69.4199982        -3.16552094E-17
   69.5350037        -3.15288030E-17
   69.6500015        -3.13640055E-17
   69.7649994        -3.11572202E-17
   69.8799973        -3.09031997E-17
   69.9950027        -3.05951510E-17
   70.1100006        -3.02249215E-17
   70.2249985        -2.97832898E-17
   70.3399963        -2.92602436E-17
   70.4550018        -2.86453970E-17
   70.5699997        -2.79284001E-17
   70.6849976        -2.70993832E-17
   70.8000031        -2.61494225E-17
   70.9150009        -2.50709659E-17
   71.0299988        -2.38582678E-17
   71.1449966        -2.25077582E-17
   71.2600021        -2.10183318E-17
   71.3750000        -1.93915934E-17
   71.4899979        -1.76319851E-17
   71.6050034        -1.57468223E-17
   71.7200012        -1.37462222E-17
   71.8349991        -1.16429269E-17
   71.9499969        -9.45202081E-18
   72.0650024        -7.19055533E-18
   72.1800003        -4.87708502E-18
   72.2949982        -2.53114662E-18
   72.4100037        -1.72678089E-19
   72.5250015         2.17858487E-18
   72.6399994         4.50371223E-18
   72.7549973         6.78517107E-18
   72.8700027         9.00735829E-18
   72.9850006         1.11570750E-17
   73.0999985         1.32239164E-17
   73.2149963         1.52005456E-17
   73.3300018         1.70828579E-17
   73.4449997         1.88700081E-17
   73.5599976         2.05643188E-17
   73.6750031         2.21710411E-17
   73.7900009         2.36980066E-17
   73.9049988         2.51551729E-17
   74.0199966         2.65540279E-17
   74.1350021         2.79069960E-17