  -18.8999996         0.00000000    
  -18.7849998         4.78347582E-22
  -18.6700001        -6.45990531E-13
  -18.5550003        -3.69194562E-12
  -18.4400005        -1.24806814E-11
  -18.3250008        -3.18148355E-11
  -18.2099991        -6.66905836E-11
  -18.0949993        -1.19803154E-10
  -17.9799995        -1.88353333E-10
  -17.8649998        -2.61238253E-10
  -17.7500000        -3.17947113E-10
  -17.6350002        -3.30251354E-10
  -17.5200005        -2.67088962E-10
  -17.4050007        -1.02085188E-10
  -17.2900009         1.77785536E-10
  -17.1749992         5.64489955E-10
  -17.0599995         1.02432340E-09
  -16.9449997         1.49799939E-09
  -16.8299999         1.90605398E-09
  -16.7150002         2.15901585E-09
  -16.6000004         2.17078044E-09
  -16.4850006         1.87301463E-09
  -16.3700008         1.22832711E-09
  -16.2549992         2.40300224E-10
  -16.1399994        -1.04085329E-09
  -16.0249996        -2.51755483E-09
  -15.9099998        -4.04901312E-09
  -15.7950001        -5.45988454E-09
  -15.6800003        -6.55288135E-09
  -15.5649996        -7.12466131E-09
  -15.4499998        -6.98409863E-09
  -15.3350000        -5.97169292E-09
  -15.2200003        -3.97836253E-09
  -15.1049995        -9.61419833E-10
  -14.9899998         3.04470804E-09
  -14.8750000         7.92518495E-09
  -14.7600002         1.34903395E-08
  -14.6450005         1.94903045E-08
  -14.5299997         2.56374673E-08
  -14.4150000         3.16341655E-08
  -14.3000002         3.72019606E-08
  -14.1850004         4.21086597E-08
  -14.0699997         4.61896086E-08
  -13.9549999         4.93606258E-08
  -13.8400002         5.16213738E-08
  -13.7250004         5.30492201E-08
  -13.6099997         5.37847598E-08
  -13.4949999         5.40109255E-08
  -13.3800001         5.39280016E-08
  -13.2650003         5.37270850E-08
  -13.1499996         5.35644027E-08
  -13.0349998         5.35391003E-08
  -12.9200001         5.36767928E-08
  -12.8050003         5.39210703E-08
  -12.6899996         5.41347411E-08
  -12.5749998         5.41113714E-08
  -12.4600000         5.35968105E-08
  -12.3450003         5.23186614E-08
  -12.2299995         5.00202511E-08
  -12.1149998         4.64947725E-08
  -12.0000000         4.16147650E-08
  -11.8850002         3.53526133E-08
  -11.7700005         2.77892429E-08
  -11.6549997         1.91093861E-08
  -11.5400000         9.58434221E-09
  -11.4250002        -4.55633753E-10
  -11.3100004        -1.06555245E-08
  -11.1949997        -2.06724149E-08
  -11.0799999        -3.02108241E-08
  -10.9650002        -3.90528250E-08
  -10.8500004        -4.70803236E-08
  -10.7349997        -5.42872556E-08
  -10.6199999        -6.07808772E-08
  -10.5050001        -6.67717117E-08
  -10.3900003        -7.25528508E-08
  -10.2749996        -7.84705918E-08
  -10.1599998        -8.48890949E-08
  -10.0450001        -9.21525896E-08
  -9.93000031        -1.00550238E-07
  -9.81499958        -1.10287452E-07
  -9.69999981        -1.21468133E-07
  -9.58500004        -1.34090214E-07
  -9.47000027        -1.48055264E-07
  -9.35499954        -1.63191189E-07
  -9.23999977        -1.79284442E-07
  -9.12500000        -1.96117895E-07
  -9.01000023        -2.13509196E-07
  -8.89500046        -2.31344359E-07
  -8.77999973        -2.49603175E-07
  -8.66499996        -2.68373583E-07
  -8.55000019        -2.87853879E-07
  -8.43500042        -3.08342209E-07
  -8.31999969        -3.30215471E-07
  -8.20499992        -3.53899566E-07
  -8.09000015        -3.79834034E-07
  -7.97499990        -4.08434374E-07
  -7.86000013        -4.40056652E-07
  -7.74499989        -4.74968601E-07
  -7.63000011        -5.13329724E-07
  -7.51499987        -5.55185693E-07
  -7.40000010        -6.00475630E-07
  -7.28499985        -6.49054414E-07
  -7.17000008        -7.00726275E-07
  -7.05499983        -7.55285782E-07
  -6.94000006        -8.12561211E-07
  -6.82499981        -8.72453768E-07
  -6.71000004        -9.34969592E-07
  -6.59499979        -1.00023783E-06
  -6.48000002        -1.06851655E-06
  -6.36499977        -1.14018258E-06
  -6.25000000        -1.21570838E-06
  -6.13500023        -1.29563318E-06
  -6.01999998        -1.38052360E-06
  -5.90500021        -1.47093670E-06
  -5.78999996        -1.56738247E-06
  -5.67500019        -1.67029179E-06
  -5.55999994        -1.77999425E-06
  -5.44500017        -1.89670641E-06
  -5.32999992        -2.02053320E-06
  -5.21500015        -2.15148157E-06
  -5.09999990        -2.28948716E-06
  -4.98500013        -2.43445243E-06
  -4.86999989        -2.58628688E-06
  -4.75500011        -2.74495096E-06
  -4.63999987        -2.91049400E-06
  -4.52500010        -3.08308040E-06
  -4.40999985        -3.26300210E-06
  -4.29500008        -3.45067929E-06
  -4.17999983        -3.64664038E-06
  -4.06500006        -3.85149451E-06
  -3.95000005        -4.06589515E-06
  -3.83500004        -4.29050078E-06
  -3.72000003        -4.52593440E-06
  -3.60500002        -4.77275262E-06
  -3.49000001        -5.03142155E-06
  -3.37500000        -5.30230045E-06
  -3.25999999        -5.58564170E-06
  -3.14499998        -5.88159901E-06
  -3.02999997        -6.19023785E-06
  -2.91499996        -6.51156915E-06
  -2.79999995        -6.84557472E-06
  -2.68499994        -7.19223999E-06
  -2.56999993        -7.55159181E-06
  -2.45499992        -7.92371338E-06
  -2.33999991        -8.30877343E-06
  -2.22499990        -8.70702479E-06
  -2.10999990        -9.11879943E-06
  -1.99500000        -9.54448024E-06
  -1.88000000        -9.98448195E-06
  -1.76499999        -1.04392120E-05
  -1.64999998        -1.09090415E-05
  -1.53499997        -1.13942651E-05
  -1.41999996        -1.18950829E-05
  -1.30499995        -1.24115904E-05
  -1.19000006        -1.29437649E-05
  -1.07500005        -1.34914872E-05
 -0.959999979        -1.40545490E-05
 -0.845000029        -1.46326574E-05
 -0.730000019        -1.52254861E-05
 -0.615000010        -1.58326911E-05
 -0.500000000        -1.64539324E-05
 -0.384999990        -1.70888961E-05
 -0.270000011        -1.77373295E-05
 -0.155000001        -1.83990142E-05
  -3.99999991E-02    -1.90738083E-05
   7.50000030E-02    -1.97616118E-05
  0.189999998        -2.04623611E-05
  0.305000007        -2.11759980E-05
  0.419999987        -2.19024369E-05
  0.535000026        -2.26415614E-05
  0.649999976        -2.33931714E-05
  0.764999986        -2.41569778E-05
  0.879999995        -2.49325931E-05
  0.995000005        -2.57195334E-05
   1.11000001        -2.65172112E-05
   1.22500002        -2.73249480E-05
   1.34000003        -2.81419907E-05
   1.45500004        -2.89675263E-05
   1.57000005        -2.98006908E-05
   1.68499994        -3.06405636E-05
   1.79999995        -3.14862045E-05
   1.91499996        -3.23366403E-05
   2.02999997        -3.31908814E-05
   2.14499998        -3.40479201E-05
   2.25999999        -3.49067268E-05
   2.37500000        -3.57662539E-05
   2.49000001        -3.66254317E-05
   2.60500002        -3.74831470E-05
   2.72000003        -3.83382721E-05
   2.83500004        -3.91895883E-05
   2.95000005        -4.00358767E-05
   3.06500006        -4.08758351E-05
   3.18000007        -4.17081283E-05
   3.29500008        -4.25313774E-05
   3.41000009        -4.33441637E-05
   3.52500010        -4.41450393E-05
   3.64000010        -4.49325307E-05
   3.75500011        -4.57051501E-05
   3.86999989        -4.64613659E-05
   3.98499990        -4.71996245E-05
   4.09999990        -4.79183655E-05
   4.21500015        -4.86159697E-05
   4.32999992        -4.92908257E-05
   4.44500017        -4.99413036E-05
   4.55999994        -5.05657517E-05
   4.67500019        -5.11625403E-05
   4.78999996        -5.17300432E-05
   4.90500021        -5.22666705E-05
   5.01999998        -5.27708580E-05
   5.13500023        -5.32410668E-05
   5.25000000        -5.36757907E-05
   5.36499977        -5.40735491E-05
   5.48000002        -5.44328905E-05
   5.59499979        -5.47524105E-05
   5.71000004        -5.50306904E-05
   5.82499981        -5.52663369E-05
   5.94000006        -5.54579274E-05
   6.05499983        -5.56040213E-05
   6.17000008        -5.57031599E-05
   6.28499985        -5.57538842E-05
   6.40000010        -5.57546846E-05
   6.51499987        -5.57040767E-05
   6.63000011        -5.56005798E-05
   6.74499989        -5.54427425E-05
   6.86000013        -5.52291713E-05
   6.97499990        -5.49586111E-05
   7.09000015        -5.46298979E-05
   7.20499992        -5.42419621E-05
   7.32000017        -5.37938904E-05
   7.43499994        -5.32849554E-05
   7.55000019        -5.27144657E-05
   7.66499996        -5.20819121E-05
   7.78000021        -5.13868545E-05
   7.89499998        -5.06288379E-05
   8.01000023        -4.98075460E-05
   8.12500000        -4.89226804E-05
   8.23999977        -4.79738919E-05
   8.35499954        -4.69609076E-05
   8.47000027        -4.58833783E-05
   8.58500004        -4.47410566E-05
   8.69999981        -4.35336588E-05
   8.81499958        -4.22609337E-05
   8.93000031        -4.09228342E-05
   9.04500008        -3.95193238E-05
   9.15999985        -3.80506608E-05
   9.27499962        -3.65171763E-05
   9.39000034        -3.49194161E-05
   9.50500011        -3.32580894E-05
   9.61999989        -3.15340949E-05
   9.73499966        -2.97484894E-05
   9.85000038        -2.79023952E-05
   9.96500015        -2.59969893E-05
   10.0799999        -2.40335430E-05
   10.1949997        -2.20132497E-05
   10.3100004        -1.99373571E-05
   10.4250002        -1.78069986E-05
   10.5400000        -1.56233218E-05
   10.6549997        -1.33873964E-05
   10.7700005        -1.11002837E-05
   10.8850002        -8.76314516E-06
   11.0000000        -6.37710264E-06
   11.1149998        -3.94351264E-06
   11.2299995        -1.46382990E-06
   11.3450003         1.06025891E-06
   11.4600000         3.62696551E-06
   11.5749998         6.23418691E-06
   11.6899996         8.87967417E-06
   11.8050003         1.15610101E-05
   11.9200001         1.42756799E-05
   12.0349998         1.70210842E-05
   12.1499996         1.97946320E-05
   12.2650003         2.25937492E-05
   12.3800001         2.54160004E-05
   12.4949999         2.82590554E-05
   12.6099997         3.11206823E-05
   12.7250004         3.39988219E-05
   12.8400002         3.68914916E-05
   12.9549999         3.97968179E-05
   13.0699997         4.27129562E-05
   13.1850004         4.56380803E-05
   13.3000002         4.85703094E-05
   13.4150000         5.15076827E-05
   13.5299997         5.44481554E-05
   13.6450005         5.73894940E-05
   13.7600002         6.03294357E-05
   13.8750000         6.32655283E-05
   13.9899998         6.61953163E-05
   14.1049995         6.91163295E-05
   14.2200003         7.20262105E-05
   14.3350000         7.49226747E-05
   14.4499998         7.78035756E-05
   14.5649996         8.06670942E-05
   14.6800003         8.35115134E-05
   14.7950001         8.63354508E-05
   14.9099998         8.91375821E-05
   15.0249996         9.19167796E-05
   15.1400003         9.46721411E-05
   15.2550001         9.74027280E-05
   15.3699999         1.00107616E-04
   15.4849997         1.02785838E-04
   15.6000004         1.05436338E-04
   15.7150002         1.08057931E-04
   15.8299999         1.10649431E-04
   15.9449997         1.13209477E-04
   16.0599995         1.15736686E-04
   16.1749992         1.18229662E-04
   16.2900009         1.20687029E-04
   16.4050007         1.23107646E-04
   16.5200005         1.25490464E-04
   16.6350002         1.27834734E-04
   16.7500000         1.30139844E-04
   16.8649998         1.32405592E-04
   16.9799995         1.34631904E-04
   17.0949993         1.36819013E-04
   17.2099991         1.38967225E-04
   17.3250008         1.41076976E-04
   17.4400005         1.43148660E-04
   17.5550003         1.45182785E-04
   17.6700001         1.47179628E-04
   17.7849998         1.49139480E-04
   17.8999996         1.51062399E-04
   18.0149994         1.52948371E-04
   18.1299992         1.54797221E-04
   18.2450008         1.56608716E-04
   18.3600006         1.58382696E-04
   18.4750004         1.60118943E-04
   18.5900002         1.61817399E-04
   18.7049999         1.63478122E-04
   18.8199997         1.65101403E-04
   18.9349995         1.66687722E-04
   19.0499992         1.68237821E-04
   19.1650009         1.69752529E-04
   19.2800007         1.71232838E-04
   19.3950005         1.72679807E-04
   19.5100002         1.74094588E-04
   19.6250000         1.75478155E-04
   19.7399998         1.76831338E-04
   19.8549995         1.78154864E-04
   19.9699993         1.79449184E-04
   20.0849991         1.80714560E-04
   20.2000008         1.81951051E-04
   20.3150005         1.83158540E-04
   20.4300003         1.84336619E-04
   20.5450001         1.85484925E-04
   20.6599998         1.86602992E-04
   20.7749996         1.87690443E-04
   20.8899994         1.88746635E-04
   21.0049992         1.89771221E-04
   21.1200008         1.90763851E-04
   21.2350006         1.91724088E-04
   21.3500004         1.92651612E-04
   21.4650002         1.93545900E-04
   21.5799999         1.94406457E-04
   21.6949997         1.95232555E-04
   21.8099995         1.96023146E-04
   21.9249992         1.96776964E-04
   22.0400009         1.97492351E-04
   22.1550007         1.98167400E-04
   22.2700005         1.98799826E-04
   22.3850002         1.99386966E-04
   22.5000000         1.99925955E-04
   22.6149998         2.00413560E-04
   22.7299995         2.00846465E-04
   22.8449993         2.01221061E-04
   22.9599991         2.01533840E-04
   23.0750008         2.01781033E-04
   23.1900005         2.01958741E-04
   23.3050003         2.02063195E-04
   23.4200001         2.02090217E-04
   23.5349998         2.02035837E-04
   23.6499996         2.01895658E-04
   23.7649994         2.01665272E-04
   23.8799992         2.01339775E-04
   23.9950008         2.00914263E-04
   24.1100006         2.00383278E-04
   24.2250004         1.99741102E-04
   24.3400002         1.98981885E-04
   24.4549999         1.98099093E-04
   24.5699997         1.97086018E-04
   24.6849995         1.95935892E-04
   24.7999992         1.94641529E-04
   24.9150009         1.93195738E-04
   25.0300007         1.91591214E-04
   25.1450005         1.89820319E-04
   25.2600002         1.87875703E-04
   25.3750000         1.85749814E-04
   25.4899998         1.83434939E-04
   25.6049995         1.80923525E-04
   25.7199993         1.78207731E-04
   25.8349991         1.75279827E-04
   25.9500008         1.72131928E-04
   26.0650005         1.68756058E-04
   26.1800003         1.65143982E-04
   26.2950001         1.61287287E-04
   26.4099998         1.57177536E-04
   26.5249996         1.52806024E-04
   26.6399994         1.48163934E-04
   26.7549992         1.43242505E-04
   26.8700008         1.38032643E-04
   26.9850006         1.32525645E-04
   27.1000004         1.26712635E-04
   27.2150002         1.20584897E-04
   27.3299999         1.14133923E-04
   27.4449997         1.07351334E-04
   27.5599995         1.00229176E-04
   27.6749992         9.27596848E-05
   27.7900009         8.49351418E-05
   27.9050007         7.67484380E-05
   28.0200005         6.81926031E-05
   28.1350002         5.92609285E-05
   28.2500000         4.99468733E-05
   28.3649998         4.02441365E-05
   28.4799995         3.01469991E-05
   28.5949993         1.96497713E-05
   28.7099991         8.74689431E-06
   28.8250008        -2.56663770E-06
   28.9400005        -1.42955978E-05
   29.0550003        -2.64444679E-05
   29.1700001        -3.90170317E-05
   29.2849998        -5.20165486E-05
   29.3999996        -6.54462492E-05
   29.5149994        -7.93085783E-05
   29.6299992        -9.36054566E-05
   29.7450008        -1.08338078E-04
   29.8600006        -1.23507314E-04
   29.9750004        -1.39113428E-04
   30.0900002        -1.55155954E-04
   30.2049999        -1.71634107E-04
   30.3199997        -1.88546284E-04
   30.4349995        -2.05890508E-04
   30.5499992        -2.23663810E-04
   30.6650009        -2.41863047E-04
   30.7800007        -2.60484521E-04
   30.8950005        -2.79523869E-04
   31.0100002        -2.98976083E-04
   31.1250000        -3.18835548E-04
   31.2399998        -3.39096034E-04
   31.3549995        -3.59751255E-04
   31.4699993        -3.80793848E-04
   31.5849991        -4.02216043E-04
   31.7000008        -4.24009369E-04
   31.8150005        -4.46164922E-04
   31.9300003        -4.68673301E-04
   32.0449982        -4.91524348E-04
   32.1599998        -5.14707295E-04
   32.2750015        -5.38211432E-04
   32.3899994        -5.62025176E-04
   32.5050011        -5.86136070E-04
   32.6199989        -6.10532006E-04
   32.7350006        -6.35199714E-04
   32.8499985        -6.60125574E-04
   32.9650002        -6.85296138E-04
   33.0800018        -7.10697030E-04
   33.1949997        -7.36313581E-04
   33.3100014        -7.62130832E-04
   33.4249992        -7.88133708E-04
   33.5400009        -8.14307306E-04
   33.6549988        -8.40635737E-04
   33.7700005        -8.67103226E-04
   33.8849983        -8.93694349E-04
   34.0000000        -9.20392398E-04
   34.1150017        -9.47181194E-04
   34.2299995        -9.74044087E-04
   34.3450012        -1.00096432E-03
   34.4599991        -1.02792459E-03
   34.5750008        -1.05490768E-03
   34.6899986        -1.08189636E-03
   34.8050003        -1.10887212E-03
   34.9199982        -1.13581703E-03
   35.0349998        -1.16271235E-03
   35.1500015        -1.18953874E-03
   35.2649994        -1.21627818E-03
   35.3800011        -1.24291028E-03
   35.4949989        -1.26941619E-03
   35.6100006        -1.29577611E-03
   35.7249985        -1.32197025E-03
   35.8400002        -1.34797767E-03
   35.9550018        -1.37377880E-03
   36.0699997        -1.39935222E-03
   36.1850014        -1.42467744E-03
   36.2999992        -1.44973374E-03
   36.4150009        -1.47449831E-03
   36.5299988        -1.49894878E-03
   36.6450005        -1.52306329E-03
   36.7599983        -1.54681830E-03
   36.8750000        -1.57018960E-03
   36.9900017        -1.59315299E-03
   37.1049995        -1.61568355E-03
   37.2200012        -1.63775485E-03
   37.3349991        -1.65934092E-03
   37.4500008        -1.68041396E-03
   37.5649986        -1.70094636E-03
   37.6800003        -1.72090926E-03
   37.7949982        -1.74027402E-03
   37.9099998        -1.75901037E-03
   38.0250015        -1.77708827E-03
   38.1399994        -1.79447711E-03
   38.2550011        -1.81114511E-03
   38.3699989        -1.82705931E-03
   38.4850006        -1.84218760E-03
   38.5999985        -1.85649516E-03
   38.7150002        -1.86994800E-03
   38.8300018        -1.88251003E-03
   38.9449997        -1.89414492E-03
   39.0600014        -1.90481544E-03
   39.1749992        -1.91448303E-03
   39.2900009        -1.92310871E-03
   39.4049988        -1.93065265E-03
   39.5200005        -1.93707342E-03
   39.6349983        -1.94233027E-03
   39.7500000        -1.94638025E-03
   39.8650017        -1.94918097E-03
   39.9799995        -1.95068994E-03
   40.0950012        -1.95086328E-03
   40.2099991        -1.94965722E-03
   40.3250008        -1.94702623E-03
   40.4399986        -1.94292760E-03
   40.5550003        -1.93731568E-03
   40.6699982        -1.93014531E-03
   40.7849998        -1.92137109E-03
   40.9000015        -1.91094796E-03
   41.0149994        -1.89882971E-03
   41.1300011        -1.88497058E-03
   41.2449989        -1.86932436E-03
   41.3600006        -1.85184530E-03
   41.4749985        -1.83248788E-03
   41.5900002        -1.81120541E-03
   41.7050018        -1.78795273E-03
   41.8199997        -1.76268537E-03
   41.9350014        -1.73535873E-03
   42.0499992        -1.70592987E-03
   42.1650009        -1.67435501E-03
   42.2799988        -1.64059270E-03
   42.3950005        -1.60460290E-03
   42.5099983        -1.56634510E-03
   42.6250000        -1.52578158E-03
   42.7400017        -1.48287392E-03
   42.8549995        -1.43758755E-03
   42.9700012        -1.38988614E-03
   43.0849991        -1.33973791E-03
   43.2000008        -1.28711131E-03
   43.3149986        -1.23197585E-03
   43.4300003        -1.17430324E-03
   43.5449982        -1.11406692E-03
   43.6599998        -1.05124188E-03
   43.7750015        -9.85805411E-04
   43.8899994        -9.17736848E-04
   44.0050011        -8.47017043E-04
   44.1199989        -7.73630338E-04
   44.2350006        -6.97562820E-04
   44.3499985        -6.18803664E-04
   44.4650002        -5.37343847E-04
   44.5800018        -4.53178363E-04
   44.6949997        -3.66305205E-04
   44.8100014        -2.76723527E-04
   44.9249992        -1.84435892E-04
   45.0400009        -8.94490659E-05
   45.1549988         8.22840957E-06
   45.2700005         1.08584070E-04
   45.3849983         2.11603561E-04
   45.5000000         3.17268597E-04
   45.6150017         4.25557402E-04
   45.7299995         5.36446169E-04
   45.8450012         6.49906811E-04
   45.9599991         7.65908218E-04
   46.0750008         8.84417794E-04
   46.1899986         1.00539811E-03
   46.3050003         1.12880778E-03
   46.4199982         1.25460466E-03
   46.5349998         1.38273952E-03
   46.6500015         1.51316239E-03
   46.7649994         1.64582010E-03
   46.8800011         1.78065512E-03
   46.9949989         1.91760622E-03
   47.1100006         2.05660937E-03
   47.2249985         2.19759764E-03
   47.3400002         2.34050117E-03
   47.4550018         2.48524779E-03
   47.5699997         2.63175764E-03
   47.6850014         2.77995365E-03
   47.7999992         2.92975199E-03
   47.9150009         3.08106933E-03
   48.0299988         3.23381717E-03
   48.1450005         3.38790612E-03
   48.2599983         3.54324398E-03
   48.3750000         3.69973527E-03
   48.4900017         3.85728292E-03
   48.6049995         4.01578797E-03
   48.7200012         4.17514984E-03
   48.8349991         4.33526421E-03
   48.9500008         4.49602585E-03
   49.0649986         4.65732627E-03
   49.1800003         4.81905602E-03
   49.2949982         4.98110522E-03
   49.4099998         5.14336210E-03
   49.5250015         5.30571351E-03
   49.6399994         5.46804257E-03
   49.7550011         5.63023752E-03
   49.8699989         5.79218101E-03
   49.9850006         5.95375849E-03
   50.0999985         6.11485122E-03
   50.2150002         6.27534557E-03
   50.3300018         6.43512560E-03
   50.4449997         6.59407442E-03
   50.5600014         6.75207889E-03
   50.6749992         6.90902490E-03
   50.7900009         7.06479885E-03
   50.9049988         7.21928850E-03
   51.0200005         7.37238210E-03
   51.1349983         7.52396882E-03
   51.2500000         7.67393969E-03
   51.3650017         7.82218669E-03
   51.4799995         7.96860270E-03
   51.5950012         8.11308436E-03
   51.7099991         8.25552922E-03
   51.8250008         8.39584041E-03
   51.9399986         8.53391644E-03
   52.0550003         8.66966695E-03
   52.1699982         8.80300067E-03
   52.2849998         8.93382914E-03
   52.4000015         9.06207040E-03
   52.5149994         9.18764435E-03
   52.6300011         9.31047555E-03
   52.7449989         9.43049323E-03
   52.8600006         9.54762939E-03
   52.9749985         9.66181979E-03
   53.0900002         9.77300853E-03
   53.2050018         9.88113694E-03
   53.3199997         9.98615660E-03
   53.4350014         1.00880209E-02
   53.5499992         1.01866908E-02
   53.6650009         1.02821272E-02
   53.7799988         1.03743011E-02
   53.8950005         1.04631856E-02
   54.0099983         1.05487611E-02
   54.1250000         1.06310118E-02
   54.2400017         1.07099311E-02
   54.3549995         1.07855154E-02
   54.4700012         1.08577684E-02
   54.5849991         1.09266993E-02
   54.7000008         1.09923249E-02
   54.8149986         1.10546667E-02
   54.9300003         1.11137517E-02
   55.0449982         1.11696171E-02
   55.1599998         1.12222992E-02
   55.2750015         1.12718455E-02
   55.3899994         1.13183074E-02
   55.5050011         1.13617415E-02
   55.6199989         1.14022084E-02
   55.7350006         1.14397779E-02
   55.8499985         1.14745200E-02
   55.9650002         1.15065156E-02
   56.0800018         1.15358448E-02
   56.1949997         1.15625970E-02
   56.3100014         1.15868654E-02
   56.4249992         1.16087506E-02
   56.5400009         1.16283558E-02
   56.6549988         1.16457911E-02
   56.7700005         1.16611691E-02
   56.8849983         1.16746053E-02
   57.0000000         1.16862291E-02
   57.1150017         1.16961608E-02
   57.2299995         1.17045306E-02
   57.3450012         1.17114699E-02
   57.4599991         1.17171109E-02
   57.5750008         1.17215905E-02
   57.6899986         1.17250448E-02
   57.8050003         1.17276097E-02
   57.9199982         1.17294239E-02
   58.0349998         1.17306281E-02
   58.1500015         1.17313629E-02
   58.2649994         1.17317643E-02
   58.3800011         1.17319738E-02
   58.4949989         1.17321312E-02
   58.6100006         1.17323734E-02
   58.7249985         1.17328390E-02
   58.8400002         1.17336595E-02
   58.9550018         1.17349727E-02
   59.0699997         1.17369071E-02
   59.1850014         1.17395930E-02
   59.2999992         1.17431451E-02
   59.4150009         1.17476899E-02
   59.5299988         1.17533375E-02
   59.6450005         1.17601976E-02
   59.7599983         1.17683718E-02
   59.8750000         1.17779551E-02
   59.9900017         1.17890378E-02
   60.1049995         1.18016973E-02
   60.2200012         1.18160108E-02
   60.3349991         1.18320454E-02
   60.4500008         1.18498579E-02
   60.5649986         1.18695013E-02
   60.6800003         1.18910177E-02
   60.7949982         1.19144460E-02
   60.9099998         1.19398041E-02
   61.0250015         1.19671104E-02
   61.1399994         1.19963717E-02
   61.2550011         1.20275812E-02
   61.3699989         1.20607251E-02
   61.4850006         1.20957810E-02
   61.5999985         1.21327089E-02
   61.7150002         1.21714622E-02
   61.8300018         1.22119812E-02
   61.9449997         1.22541934E-02
   62.0600014         1.22980159E-02
   62.1749992         1.23433517E-02
   62.2900009         1.23900939E-02
   62.4049988         1.24381259E-02
   62.5200005         1.24873118E-02
   62.6349983         1.25375139E-02
   62.7500000         1.25885755E-02
   62.8650017         1.26403337E-02
   62.9799995         1.26926107E-02
   63.0950012         1.27452221E-02
   63.2099991         1.27979666E-02
   63.3250008         1.28506366E-02
   63.4399986         1.29030123E-02
   63.5550003         1.29548637E-02
   63.6699982         1.30059505E-02
   63.7849998         1.30560212E-02
   63.9000015         1.31048150E-02
   64.0149994         1.31520610E-02
   64.1299973         1.31974770E-02
   64.2450027         1.32407760E-02
   64.3600006         1.32816574E-02
   64.4749985         1.33198192E-02
   64.5899963         1.33549459E-02
   64.7050018         1.33867227E-02
   64.8199997         1.34148197E-02
   64.9349976         1.34389130E-02
   65.0500031         1.34586664E-02
   65.1650009         1.34737426E-02
   65.2799988         1.34838047E-02
   65.3949966         1.34885069E-02
   65.5100021         1.34875011E-02
   65.6250000         1.34804389E-02
   65.7399979         1.34669673E-02
   65.8550034         1.34467408E-02
   65.9700012         1.34194009E-02
   66.0849991         1.33845974E-02
   66.1999969         1.33419810E-02
   66.3150024         1.32912034E-02
   66.4300003         1.32319182E-02
   66.5449982         1.31637789E-02
   66.6600037         1.30864521E-02
   66.7750015         1.29996017E-02
   66.8899994         1.29028931E-02
   67.0049973         1.27960108E-02
   67.1200027         1.26786325E-02
   67.2350006         1.25504546E-02
   67.3499985         1.24111734E-02
   67.4649963         1.22604985E-02
   67.5800018         1.20981447E-02
   67.6949997         1.19238431E-02
   67.8099976         1.17373262E-02
   67.9250031         1.15383361E-02
   68.0400009         1.13266343E-02
   68.1549988         1.11019844E-02
   68.2699966         1.08641665E-02
   68.3850021         1.06129702E-02
   68.5000000         1.03481906E-02
   68.6149979         1.00696478E-02
   68.7300034         9.77717340E-03
   68.8450012         9.47060250E-03
   68.9599991         9.14978888E-03
   69.0749969         8.81460309E-03
   69.1900024         8.46493337E-03
   69.3050003         8.10068194E-03
   69.4199982         7.72176171E-03
   69.5350037         7.32809771E-03
   69.6500015         6.91963965E-03
   69.7649994         6.49634469E-03
   69.8799973         6.05819188E-03
   69.9950027         5.60516771E-03
   70.1100006         5.13727684E-03
   70.2249985         4.65453742E-03
   70.3399963         4.15698905E-03
   70.4550018         3.64467455E-03
   70.5699997         3.11765936E-03
   70.6849976         2.57602357E-03
   70.8000031         2.01985915E-03
   70.9150009         1.44927436E-03
   71.0299988         8.64387956E-04
   71.1449966         2.65346374E-04
   71.2600021        -3.47703230E-04
   71.3750000        -9.74590890E-04
   71.4899979        -1.61514478E-03
   71.6050034        -2.26916559E-03
   71.7200012        -2.93644052E-03
   71.8349991        -3.61675629E-03
   71.9499969        -4.30987822E-03
   72.0650024        -5.01556462E-03
   72.1800003        -5.73356077E-03
   72.2949982        -6.46359799E-03
   72.4100037        -7.20540574E-03
   72.5250015        -7.95869343E-03
   72.6399994        -8.72316398E-03
   72.7549973        -9.49851237E-03
   72.8700027        -1.02844238E-02
   72.9850006        -1.10805780E-02
   73.0999985        -1.18866414E-02
   73.2149963        -1.27022676E-02
   73.3300018        -1.35271149E-02
   73.4449997        -1.43608227E-02
   73.5599976        -1.52030252E-02
   73.6750031        -1.60533655E-02
   73.7900009        -1.69114582E-02
   73.9049988        -1.77769344E-02
   74.0199966        -1.86493993E-02
   74.1350021        -1.95284821E-02