  -18.8999996      -0.00000000    
  -18.7849998       6.97738408E-22
  -18.6700001       4.45368482E-12
  -18.5550003       2.04914228E-11
  -18.4400005       5.46572475E-11
  -18.3250008       1.09330670E-10
  -18.2099991       1.80107596E-10
  -18.0949993       2.55051591E-10
  -17.9799995       3.16055793E-10
  -17.8649998       3.41853212E-10
  -17.7500000       3.11754789E-10
  -17.6350002       2.09141884E-10
  -17.5200005       2.40778317E-11
  -17.4050007      -2.45058529E-10
  -17.2900009      -5.90547944E-10
  -17.1749992      -9.94393567E-10
  -17.0599995      -1.42720236E-09
  -16.9449997      -1.84717863E-09
  -16.8299999      -2.20012386E-09
  -16.7150002      -2.42166687E-09
  -16.6000004      -2.44274445E-09
  -16.4850006      -2.19862240E-09
  -16.3700008      -1.64059044E-09
  -16.2549992      -7.48371198E-10
  -16.1399994       4.59452199E-10
  -16.0249996       1.91964311E-09
  -15.9099998       3.52500296E-09
  -15.7950001       5.13198284E-09
  -15.6800003       6.57408172E-09
  -15.5649996       7.67866926E-09
  -15.4499998       8.28430569E-09
  -15.3350000       8.25598967E-09
  -15.2200003       7.49663798E-09
  -15.1049995       5.95443961E-09
  -14.9899998       3.62661301E-09
  -14.8750000       5.60609170E-10
  -14.7600002      -3.14648685E-09
  -14.6450005      -7.35035544E-09
  -14.5299997      -1.18644596E-08
  -14.4150000      -1.64688760E-08
  -14.3000002      -2.09238777E-08
  -14.1850004      -2.49881520E-08
  -14.0699997      -2.84399668E-08
  -13.9549999      -3.10982315E-08
  -13.8400002      -3.28396617E-08
  -13.7250004      -3.36083374E-08
  -13.6099997      -3.34155708E-08
  -13.4949999      -3.23300142E-08
  -13.3800001      -3.04600931E-08
  -13.2650003      -2.79327850E-08
  -13.1499996      -2.48731933E-08
  -13.0349998      -2.13888125E-08
  -12.9200001      -1.75608434E-08
  -12.8050003      -1.34425200E-08
  -12.6899996      -9.06313335E-09
  -12.5749998      -4.43490489E-09
  -12.4600000       4.39514813E-10
  -12.3450003       5.56047741E-09
  -12.2299995       1.09258922E-08
  -12.1149998       1.65258065E-08
  -12.0000000       2.23359464E-08
  -11.8850002       2.83094028E-08
  -11.7700005       3.43672042E-08
  -11.6549997       4.03899669E-08
  -11.5400000       4.62138026E-08
  -11.4250002       5.16333110E-08
  -11.3100004       5.64134410E-08
  -11.1949997       6.03096524E-08
  -11.0799999       6.30939283E-08
  -10.9650002       6.45816058E-08
  -10.8500004       6.46536975E-08
  -10.7349997       6.32705905E-08
  -10.6199999       6.04745054E-08
  -10.5050001       5.63808733E-08
  -10.3900003       5.11613223E-08
  -10.2749996       4.50224995E-08
  -10.1599998       3.81849681E-08
  -10.0450001       3.08654826E-08
  -9.93000031       2.32630288E-08
  -9.81499958       1.55502757E-08
  -9.69999981       7.86648524E-09
  -9.58500004       3.12170539E-10
  -9.47000027      -7.05641723E-09
  -9.35499954      -1.42314134E-08
  -9.23999977      -2.12553157E-08
  -9.12500000      -2.82177428E-08
  -9.01000023      -3.52460496E-08
  -8.89500046      -4.24892015E-08
  -8.77999973      -5.00982686E-08
  -8.66499996      -5.82057815E-08
  -8.55000019      -6.69086191E-08
  -8.43500042      -7.62601147E-08
  -8.31999969      -8.62704681E-08
  -8.20499992      -9.69163523E-08
  -8.09000015      -1.08157273E-07
  -7.97499990      -1.19954052E-07
  -7.86000013      -1.32284484E-07
  -7.74499989      -1.45152782E-07
  -7.63000011      -1.58593892E-07
  -7.51499987      -1.72669900E-07
  -7.40000010      -1.87463442E-07
  -7.28499985      -2.03069703E-07
  -7.17000008      -2.19590603E-07
  -7.05499983      -2.37131673E-07
  -6.94000006      -2.55798909E-07
  -6.82499981      -2.75699392E-07
  -6.71000004      -2.96939589E-07
  -6.59499979      -3.19622188E-07
  -6.48000002      -3.43842089E-07
  -6.36499977      -3.69682994E-07
  -6.25000000      -3.97215729E-07
  -6.13500023      -4.26503249E-07
  -6.01999998      -4.57606745E-07
  -5.90500021      -4.90601053E-07
  -5.78999996      -5.25587495E-07
  -5.67500019      -5.62707044E-07
  -5.55999994      -6.02147338E-07
  -5.44500017      -6.44143938E-07
  -5.32999992      -6.88973444E-07
  -5.21500015      -7.36938489E-07
  -5.09999990      -7.88351656E-07
  -4.98500013      -8.43519274E-07
  -4.86999989      -9.02729653E-07
  -4.75500011      -9.66242851E-07
  -4.63999987      -1.03428897E-06
  -4.52500010      -1.10706958E-06
  -4.40999985      -1.18476498E-06
  -4.29500008      -1.26753650E-06
  -4.17999983      -1.35553682E-06
  -4.06500006      -1.44891430E-06
  -3.95000005      -1.54782731E-06
  -3.83500004      -1.65244683E-06
  -3.72000003      -1.76296965E-06
  -3.60500002      -1.87962928E-06
  -3.49000001      -2.00270301E-06
  -3.37500000      -2.13251565E-06
  -3.25999999      -2.26943780E-06
  -3.14499998      -2.41387920E-06
  -3.02999997      -2.56627618E-06
  -2.91499996      -2.72708030E-06
  -2.79999995      -2.89673767E-06
  -2.68499994      -3.07568371E-06
  -2.56999993      -3.26433360E-06
  -2.45499992      -3.46308093E-06
  -2.33999991      -3.67229973E-06
  -2.22499990      -3.89235720E-06
  -2.10999990      -4.12361806E-06
  -1.99500000      -4.36646405E-06
  -1.88000000      -4.62129401E-06
  -1.76499999      -4.88854266E-06
  -1.64999998      -5.16868522E-06
  -1.53499997      -5.46225056E-06
  -1.41999996      -5.76981256E-06
  -1.30499995      -6.09200379E-06
  -1.19000006      -6.42949772E-06
  -1.07500005      -6.78301012E-06
 -0.959999979      -7.15328133E-06
 -0.845000029      -7.54105440E-06
 -0.730000019      -7.94706648E-06
 -0.615000010      -8.37202333E-06
 -0.500000000      -8.81658434E-06
 -0.384999990      -9.28136615E-06
 -0.270000011      -9.76693354E-06
 -0.155000001      -1.02738049E-05
  -3.99999991E-02  -1.08024569E-05
   7.50000030E-02  -1.13533351E-05
  0.189999998      -1.19268643E-05
  0.305000007      -1.25234483E-05
  0.419999987      -1.31434790E-05
  0.535000026      -1.37873449E-05
  0.649999976      -1.44554433E-05
  0.764999986      -1.51481718E-05
  0.879999995      -1.58659441E-05
  0.995000005      -1.66091886E-05
   1.11000001      -1.73783483E-05
   1.22500002      -1.81738651E-05
   1.34000003      -1.89961793E-05
   1.45500004      -1.98457128E-05
   1.57000005      -2.07228568E-05
   1.68499994      -2.16279623E-05
   1.79999995      -2.25613403E-05
   1.91499996      -2.35232583E-05
   2.02999997      -2.45139581E-05
   2.14499998      -2.55336563E-05
   2.25999999      -2.65825256E-05
   2.37500000      -2.76607516E-05
   2.49000001      -2.87684506E-05
   2.60500002      -2.99057483E-05
   2.72000003      -3.10726828E-05
   2.83500004      -3.22692758E-05
   2.95000005      -3.34954857E-05
   3.06500006      -3.47511668E-05
   3.18000007      -3.60361591E-05
   3.29500008      -3.73502116E-05
   3.41000009      -3.86929823E-05
   3.52500010      -4.00640965E-05
   3.64000010      -4.14630886E-05
   3.75500011      -4.28894309E-05
   3.86999989      -4.43424979E-05
   3.98499990      -4.58215727E-05
   4.09999990      -4.73258697E-05
   4.21500015      -4.88545265E-05
   4.32999992      -5.04066193E-05
   4.44500017      -5.19811620E-05
   4.55999994      -5.35771323E-05
   4.67500019      -5.51934609E-05
   4.78999996      -5.68290307E-05
   4.90500021      -5.84826339E-05
   5.01999998      -6.01530264E-05
   5.13500023      -6.18388076E-05
   5.25000000      -6.35384858E-05
   5.36499977      -6.52504750E-05
   5.48000002      -6.69730653E-05
   5.59499979      -6.87044376E-05
   5.71000004      -7.04427366E-05
   5.82499981      -7.21859833E-05
   5.94000006      -7.39321767E-05
   6.05499983      -7.56792215E-05
   6.17000008      -7.74249784E-05
   6.28499985      -7.91672428E-05
   6.40000010      -8.09037447E-05
   6.51499987      -8.26321557E-05
   6.63000011      -8.43501039E-05
   6.74499989      -8.60551736E-05
   6.86000013      -8.77448547E-05
   6.97499990      -8.94166005E-05
   7.09000015      -9.10677554E-05
   7.20499992      -9.26955690E-05
   7.32000017      -9.42971601E-05
   7.43499994      -9.58694436E-05
   7.55000019      -9.74092472E-05
   7.66499996      -9.89131950E-05
   7.78000021      -1.00377751E-04
   7.89499998      -1.01799247E-04
   8.01000023      -1.03174018E-04
   8.12500000      -1.04498286E-04
   8.23999977      -1.05768180E-04
   8.35499954      -1.06979882E-04
   8.47000027      -1.08129636E-04
   8.58500004      -1.09213579E-04
   8.69999981      -1.10227906E-04
   8.81499958      -1.11168883E-04
   8.93000031      -1.12032736E-04
   9.04500008      -1.12815724E-04
   9.15999985      -1.13514179E-04
   9.27499962      -1.14124377E-04
   9.39000034      -1.14642564E-04
   9.50500011      -1.15064970E-04
   9.61999989      -1.15387738E-04
   9.73499966      -1.15606905E-04
   9.85000038      -1.15718503E-04
   9.96500015      -1.15718402E-04
   10.0799999      -1.15602379E-04
   10.1949997      -1.15366223E-04
   10.3100004      -1.15005627E-04
   10.4250002      -1.14516311E-04
   10.5400000      -1.13894006E-04
   10.6549997      -1.13134513E-04
   10.7700005      -1.12233654E-04
   10.8850002      -1.11187313E-04
   11.0000000      -1.09991423E-04
   11.1149998      -1.08641958E-04
   11.2299995      -1.07134976E-04
   11.3450003      -1.05466446E-04
   11.4600000      -1.03632512E-04
   11.5749998      -1.01629194E-04
   11.6899996      -9.94526708E-05
   11.8050003      -9.70989713E-05
   11.9200001      -9.45642823E-05
   12.0349998      -9.18445730E-05
   12.1499996      -8.89360454E-05
   12.2650003      -8.58347412E-05
   12.3800001      -8.25367824E-05
   12.4949999      -7.90384438E-05
   12.6099997      -7.53360437E-05
   12.7250004      -7.14259513E-05
   12.8400002      -6.73048417E-05
   12.9549999      -6.29694696E-05
   13.0699997      -5.84167501E-05
   13.1850004      -5.36437728E-05
   13.3000002      -4.86477511E-05
   13.4150000      -4.34260000E-05
   13.5299997      -3.79758749E-05
   13.6450005      -3.22949891E-05
   13.7600002      -2.63807815E-05
   13.8750000      -2.02309402E-05
   13.9899998      -1.38430505E-05
   14.1049995      -7.21476772E-06
   14.2200003      -3.43830351E-07
   14.3350000       6.77200842E-06
   14.4499998       1.41349738E-05
   14.5649996       2.17471297E-05
   14.6800003       2.96105900E-05
   14.7950001       3.77271172E-05
   14.9099998       4.60984447E-05
   15.0249996       5.47259078E-05
   15.1400003       6.36108016E-05
   15.2550001       7.27541701E-05
   15.3699999       8.21568246E-05
   15.4849997       9.18193036E-05
   15.6000004       1.01741934E-04
   15.7150002       1.11924957E-04
   15.8299999       1.22368350E-04
   15.9449997       1.33072012E-04
   16.0599995       1.44035701E-04
   16.1749992       1.55258967E-04
   16.2900009       1.66741142E-04
   16.4050007       1.78481539E-04
   16.5200005       1.90479186E-04
   16.6350002       2.02732961E-04
   16.7500000       2.15241322E-04
   16.8649998       2.28002595E-04
   16.9799995       2.41014728E-04
   17.0949993       2.54275277E-04
   17.2099991       2.67781346E-04
   17.3250008       2.81529705E-04
   17.4400005       2.95516453E-04
   17.5550003       3.09737516E-04
   17.6700001       3.24188208E-04
   17.7849998       3.38863640E-04
   17.8999996       3.53758427E-04
   18.0149994       3.68866866E-04
   18.1299992       3.84182931E-04
   18.2450008       3.99700279E-04
   18.3600006       4.15412098E-04
   18.4750004       4.31311550E-04
   18.5900002       4.47391241E-04
   18.7049999       4.63643664E-04
   18.8199997       4.80060757E-04
   18.9349995       4.96634108E-04
   19.0499992       5.13354957E-04
   19.1650009       5.30213816E-04
   19.2800007       5.47200907E-04
   19.3950005       5.64305868E-04
   19.5100002       5.81517466E-04
   19.6250000       5.98824176E-04
   19.7399998       6.16213889E-04
   19.8549995       6.33673859E-04
   19.9699993       6.51190931E-04
   20.0849991       6.68751309E-04
   20.2000008       6.86340965E-04
   20.3150005       7.03945349E-04
   20.4300003       7.21549441E-04
   20.5450001       7.39137933E-04
   20.6599998       7.56694935E-04
   20.7749996       7.74204382E-04
   20.8899994       7.91649625E-04
   21.0049992       8.09013611E-04
   21.1200008       8.26278876E-04
   21.2350006       8.43427435E-04
   21.3500004       8.60440836E-04
   21.4650002       8.77299986E-04
   21.5799999       8.93985562E-04
   21.6949997       9.10477189E-04
   21.8099995       9.26754496E-04
   21.9249992       9.42796119E-04
   22.0400009       9.58580757E-04
   22.1550007       9.74086463E-04
   22.2700005       9.89291002E-04
   22.3850002       1.00417214E-03
   22.5000000       1.01870717E-03
   22.6149998       1.03287352E-03
   22.7299995       1.04664813E-03
   22.8449993       1.06000819E-03
   22.9599991       1.07293029E-03
   23.0750008       1.08539127E-03
   23.1900005       1.09736773E-03
   23.3050003       1.10883568E-03
   23.4200001       1.11977127E-03
   23.5349998       1.13015040E-03
   23.6499996       1.13994838E-03
   23.7649994       1.14914053E-03
   23.8799992       1.15770195E-03
   23.9950008       1.16560736E-03
   24.1100006       1.17283163E-03
   24.2250004       1.17934926E-03
   24.3400002       1.18513522E-03
   24.4549999       1.19016389E-03
   24.5699997       1.19441049E-03
   24.6849995       1.19785022E-03
   24.7999992       1.20045897E-03
   24.9150009       1.20221253E-03
   25.0300007       1.20308762E-03
   25.1450005       1.20306097E-03
   25.2600002       1.20211008E-03
   25.3750000       1.20021205E-03
   25.4899998       1.19734555E-03
   25.6049995       1.19348883E-03
   25.7199993       1.18862058E-03
   25.8349991       1.18272030E-03
   25.9500008       1.17576751E-03
   26.0650005       1.16774242E-03
   26.1800003       1.15862570E-03
   26.2950001       1.14839862E-03
   26.4099998       1.13704300E-03
   26.5249996       1.12454116E-03
   26.6399994       1.11087714E-03
   26.7549992       1.09603466E-03
   26.8700008       1.07999926E-03
   26.9850006       1.06275722E-03
   27.1000004       1.04429550E-03
   27.2150002       1.02460245E-03
   27.3299999       1.00366736E-03
   27.4449997       9.81480349E-04
   27.5599995       9.58032731E-04
   27.6749992       9.33316362E-04
   27.7900009       9.07324720E-04
   27.9050007       8.80051230E-04
   28.0200005       8.51491001E-04
   28.1350002       8.21639958E-04
   28.2500000       7.90494611E-04
   28.3649998       7.58053211E-04
   28.4799995       7.24314712E-04
   28.5949993       6.89279463E-04
   28.7099991       6.52948802E-04
   28.8250008       6.15325233E-04
   28.9400005       5.76412480E-04
   29.0550003       5.36215957E-04
   29.1700001       4.94742300E-04
   29.2849998       4.51998902E-04
   29.3999996       4.07995045E-04
   29.5149994       3.62740684E-04
   29.6299992       3.16247519E-04
   29.7450008       2.68527714E-04
   29.8600006       2.19595080E-04
   29.9750004       1.69463936E-04
   30.0900002       1.18150077E-04
   30.2049999       6.56698394E-05
   30.3199997       1.20406048E-05
   30.4349995      -4.27188352E-05
   30.5499992      -9.85887964E-05
   30.6650009      -1.55548682E-04
   30.7800007      -2.13576495E-04
   30.8950005      -2.72649078E-04
   31.0100002      -3.32742173E-04
   31.1250000      -3.93830356E-04
   31.2399998      -4.55886708E-04
   31.3549995      -5.18883520E-04
   31.4699993      -5.82791632E-04
   31.5849991      -6.47580659E-04
   31.7000008      -7.13219051E-04
   31.8150005      -7.79674447E-04
   31.9300003      -8.46913492E-04
   32.0449982      -9.14901553E-04
   32.1599998      -9.83602717E-04
   32.2750015      -1.05298124E-03
   32.3899994      -1.12299959E-03
   32.5050011      -1.19361910E-03
   32.6199989      -1.26480043E-03
   32.7350006      -1.33650296E-03
   32.8499985      -1.40868535E-03
   32.9650002      -1.48130464E-03
   33.0800018      -1.55431684E-03
   33.1949997      -1.62767677E-03
   33.3100014      -1.70133763E-03
   33.4249992      -1.77525217E-03
   33.5400009      -1.84937112E-03
   33.6549988      -1.92364445E-03
   33.7700005      -1.99802103E-03
   33.8849983      -2.07244838E-03
   34.0000000      -2.14687339E-03
   34.1150017      -2.22124113E-03
   34.2299995      -2.29549618E-03
   34.3450012      -2.36958242E-03
   34.4599991      -2.44344235E-03
   34.5750008      -2.51701707E-03
   34.6899986      -2.59024813E-03
   34.8050003      -2.66307476E-03
   34.9199982      -2.73543550E-03
   35.0349998      -2.80726841E-03
   35.1500015      -2.87851039E-03
   35.2649994      -2.94909696E-03
   35.3800011      -3.01896269E-03
   35.4949989      -3.08804191E-03
   35.6100006      -3.15626687E-03
   35.7249985      -3.22357030E-03
   35.8400002      -3.28988302E-03
   35.9550018      -3.35513498E-03
   36.0699997      -3.41925584E-03
   36.1850014      -3.48217390E-03
   36.2999992      -3.54381767E-03
   36.4150009      -3.60411452E-03
   36.5299988      -3.66299134E-03
   36.6450005      -3.72037408E-03
   36.7599983      -3.77618801E-03
   36.8750000      -3.83035862E-03
   36.9900017      -3.88281094E-03
   37.1049995      -3.93346744E-03
   37.2200012      -3.98225291E-03
   37.3349991      -4.02908912E-03
   37.4500008      -4.07389877E-03
   37.5649986      -4.11660457E-03
   37.6800003      -4.15712688E-03
   37.7949982      -4.19538794E-03
   37.9099998      -4.23130812E-03
   38.0250015      -4.26480826E-03
   38.1399994      -4.29580919E-03
   38.2550011      -4.32423176E-03
   38.3699989      -4.34999540E-03
   38.4850006      -4.37302189E-03
   38.5999985      -4.39323019E-03
   38.7150002      -4.41054394E-03
   38.8300018      -4.42488259E-03
   38.9449997      -4.43616835E-03
   39.0600014      -4.44432348E-03
   39.1749992      -4.44927206E-03
   39.2900009      -4.45093634E-03
   39.4049988      -4.44924179E-03
   39.5200005      -4.44411207E-03
   39.6349983      -4.43547312E-03
   39.7500000      -4.42325184E-03
   39.8650017      -4.40737512E-03
   39.9799995      -4.38777125E-03
   40.0950012      -4.36436990E-03
   40.2099991      -4.33710124E-03
   40.3250008      -4.30589588E-03
   40.4399986      -4.27068770E-03
   40.5550003      -4.23140964E-03
   40.6699982      -4.18799836E-03
   40.7849998      -4.14038962E-03
   40.9000015      -4.08852240E-03
   41.0149994      -4.03233664E-03
   41.1300011      -3.97177506E-03
   41.2449989      -3.90678085E-03
   41.3600006      -3.83730116E-03
   41.4749985      -3.76328290E-03
   41.5900002      -3.68467718E-03
   41.7050018      -3.60143720E-03
   41.8199997      -3.51351663E-03
   41.9350014      -3.42087308E-03
   42.0499992      -3.32346698E-03
   42.1650009      -3.22125969E-03
   42.2799988      -3.11421696E-03
   42.3950005      -3.00230598E-03
   42.5099983      -2.88549718E-03
   42.6250000      -2.76376400E-03
   42.7400017      -2.63708225E-03
   42.8549995      -2.50543072E-03
   42.9700012      -2.36879149E-03
   43.0849991      -2.22714967E-03
   43.2000008      -2.08049547E-03
   43.3149986      -1.92882004E-03
   43.4300003      -1.77211943E-03
   43.5449982      -1.61039259E-03
   43.6599998      -1.44364475E-03
   43.7750015      -1.27188163E-03
   43.8899994      -1.09511404E-03
   44.0050011      -9.13358061E-04
   44.1199989      -7.26633531E-04
   44.2350006      -5.34962863E-04
   44.3499985      -3.38374492E-04
   44.4650002      -1.36899864E-04
   44.5800018       6.94243063E-05
   44.6949997       2.80557579E-04
   44.8100014       4.96454420E-04
   44.9249992       7.17065588E-04
   45.0400009       9.42337792E-04
   45.1549988       1.17221219E-03
   45.2700005       1.40662538E-03
   45.3849983       1.64550892E-03
   45.5000000       1.88878994E-03
   45.6150017       2.13638949E-03
   45.7299995       2.38822401E-03
   45.8450012       2.64420779E-03
   45.9599991       2.90424633E-03
   46.0750008       3.16824112E-03
   46.1899986       3.43608973E-03
   46.3050003       3.70768271E-03
   46.4199982       3.98290763E-03
   46.5349998       4.26164782E-03
   46.6500015       4.54378035E-03
   46.7649994       4.82917717E-03
   46.8800011       5.11770882E-03
   46.9949989       5.40923886E-03
   47.1100006       5.70362760E-03
   47.2249985       6.00072974E-03
   47.3400002       6.30039582E-03
   47.4550018       6.60247356E-03
   47.5699997       6.90680556E-03
   47.6850014       7.21322699E-03
   47.7999992       7.52157392E-03
   47.9150009       7.83167407E-03
   48.0299988       8.14335234E-03
   48.1450005       8.45643226E-03
   48.2599983       8.77073035E-03
   48.3750000       9.08606127E-03
   48.4900017       9.40223411E-03
   48.6049995       9.71905608E-03
   48.7200012       1.00363297E-02
   48.8349991       1.03538623E-02
   48.9500008       1.06714470E-02
   49.0649986       1.09888818E-02
   49.1800003       1.13059599E-02
   49.2949982       1.16224727E-02
   49.4099998       1.19382069E-02
   49.5250015       1.22529501E-02
   49.6399994       1.25664864E-02
   49.7550011       1.28785986E-02
   49.8699989       1.31890671E-02
   49.9850006       1.34976739E-02
   50.0999985       1.38041936E-02
   50.2150002       1.41084045E-02
   50.3300018       1.44100823E-02
   50.4449997       1.47090033E-02
   50.5600014       1.50049413E-02
   50.6749992       1.52976699E-02
   50.7900009       1.55869620E-02
   50.9049988       1.58725958E-02
   51.0200005       1.61543433E-02
   51.1349983       1.64319817E-02
   51.2500000       1.67052858E-02
   51.3650017       1.69740319E-02
   51.4799995       1.72380023E-02
   51.5950012       1.74969751E-02
   51.7099991       1.77507363E-02
   51.8250008       1.79990660E-02
   51.9399986       1.82417538E-02
   52.0550003       1.84785873E-02
   52.1699982       1.87093560E-02
   52.2849998       1.89338550E-02
   52.4000015       1.91518832E-02
   52.5149994       1.93632375E-02
   52.6300011       1.95677243E-02
   52.7449989       1.97651535E-02
   52.8600006       1.99553333E-02
   52.9749985       2.01380793E-02
   53.0900002       2.03132164E-02
   53.2050018       2.04805695E-02
   53.3199997       2.06399653E-02
   53.4350014       2.07912456E-02
   53.5499992       2.09342539E-02
   53.6650009       2.10688319E-02
   53.7799988       2.11948399E-02
   53.8950005       2.13121381E-02
   54.0099983       2.14205869E-02
   54.1250000       2.15200614E-02
   54.2400017       2.16104407E-02
   54.3549995       2.16916092E-02
   54.4700012       2.17634607E-02
   54.5849991       2.18258929E-02
   54.7000008       2.18788087E-02
   54.8149986       2.19221190E-02
   54.9300003       2.19557453E-02
   55.0449982       2.19796170E-02
   55.1599998       2.19936632E-02
   55.2750015       2.19978299E-02
   55.3899994       2.19920669E-02
   55.5050011       2.19763238E-02
   55.6199989       2.19505727E-02
   55.7350006       2.19147820E-02
   55.8499985       2.18689349E-02
   55.9650002       2.18130201E-02
   56.0800018       2.17470322E-02
   56.1949997       2.16709711E-02
   56.3100014       2.15848479E-02
   56.4249992       2.14886852E-02
   56.5400009       2.13824995E-02
   56.6549988       2.12663263E-02
   56.7700005       2.11401954E-02
   56.8849983       2.10041590E-02
   57.0000000       2.08582561E-02
   57.1150017       2.07025521E-02
   57.2299995       2.05371082E-02
   57.3450012       2.03619897E-02
   57.4599991       2.01772731E-02
   57.5750008       1.99830402E-02
   57.6899986       1.97793767E-02
   57.8050003       1.95663776E-02
   57.9199982       1.93441361E-02
   58.0349998       1.91127583E-02
   58.1500015       1.88723505E-02
   58.2649994       1.86230242E-02
   58.3800011       1.83648933E-02
   58.4949989       1.80980768E-02
   58.6100006       1.78227015E-02
   58.7249985       1.75388847E-02
   58.8400002       1.72467623E-02
   58.9550018       1.69464592E-02
   59.0699997       1.66381132E-02
   59.1850014       1.63218584E-02
   59.2999992       1.59978308E-02
   59.4150009       1.56661663E-02
   59.5299988       1.53270140E-02
   59.6450005       1.49805136E-02
   59.7599983       1.46268085E-02
   59.8750000       1.42660411E-02
   59.9900017       1.38983624E-02
   60.1049995       1.35239158E-02
   60.2200012       1.31428475E-02
   60.3349991       1.27553055E-02
   60.4500008       1.23614399E-02
   60.5649986       1.19613977E-02
   60.6800003       1.15553262E-02
   60.7949982       1.11433640E-02
   60.9099998       1.07256696E-02
   61.0250015       1.03023779E-02
   61.1399994       9.87363793E-03
   61.2550011       9.43958946E-03
   61.3699989       9.00038052E-03
   61.4850006       8.55614990E-03
   61.5999985       8.10704473E-03
   61.7150002       7.65320519E-03
   61.8300018       7.19477236E-03
   61.9449997       6.73188595E-03
   62.0600014       6.26468705E-03
   62.1749992       5.79332002E-03
   62.2900009       5.31792734E-03
   62.4049988       4.83864825E-03
   62.5200005       4.35562711E-03
   62.6349983       3.86900129E-03
   62.7500000       3.37891583E-03
   62.8650017       2.88550695E-03
   62.9799995       2.38891621E-03
   63.0950012       1.88929238E-03
   63.2099991       1.38677598E-03
   63.3250008       8.81507993E-04
   63.4399986       3.73630959E-04
   63.5550003      -1.36711533E-04
   63.6699982      -6.49382477E-04
   63.7849998      -1.16422831E-03
   63.9000015      -1.68110535E-03
   64.0149994      -2.19987030E-03
   64.1299973      -2.72036763E-03
   64.2450027      -3.24245659E-03
   64.3600006      -3.76597582E-03
   64.4749985      -4.29078331E-03
   64.5899963      -4.81672492E-03
   64.7050018      -5.34365000E-03
   64.8199997      -5.87140257E-03
   64.9349976      -6.39982801E-03
   65.0500031      -6.92876801E-03
   65.1650009      -7.45807309E-03
   65.2799988      -7.98759703E-03
   65.3949966      -8.51717405E-03
   65.5100021      -9.04665608E-03
   65.6250000      -9.57589410E-03
   65.7399979      -1.01047317E-02
   65.8550034      -1.06330169E-02
   65.9700012      -1.11605981E-02
   66.0849991      -1.16873272E-02
   66.1999969      -1.22130495E-02
   66.3150024      -1.27376216E-02
   66.4300003      -1.32608926E-02
   66.5449982      -1.37827182E-02
   66.6600037      -1.43029578E-02
   66.7750015      -1.48214772E-02
   66.8899994      -1.53381377E-02
   67.0049973      -1.58528052E-02
   67.1200027      -1.63653549E-02
   67.2350006      -1.68756638E-02
   67.3499985      -1.73836127E-02
   67.4649963      -1.78890899E-02
   67.5800018      -1.83919892E-02
   67.6949997      -1.88921988E-02
   67.8099976      -1.93896201E-02
   67.9250031      -1.98841579E-02
   68.0400009      -2.03757230E-02
   68.1549988      -2.08642371E-02
   68.2699966      -2.13496219E-02
   68.3850021      -2.18317974E-02
   68.5000000      -2.23107133E-02
   68.6149979      -2.27862988E-02
   68.7300034      -2.32585110E-02
   68.8450012      -2.37273071E-02
   68.9599991      -2.41926499E-02
   69.0749969      -2.46545132E-02
   69.1900024      -2.51128748E-02
   69.3050003      -2.55677328E-02
   69.4199982      -2.60190722E-02
   69.5350037      -2.64668949E-02
   69.6500015      -2.69112159E-02
   69.7649994      -2.73520574E-02
   69.8799973      -2.77894363E-02
   69.9950027      -2.82233898E-02
   70.1100006      -2.86539588E-02
   70.2249985      -2.90811863E-02
   70.3399963      -2.95051206E-02
   70.4550018      -2.99258269E-02
   70.5699997      -3.03433705E-02
   70.6849976      -3.07578184E-02
   70.8000031      -3.11692599E-02
   70.9150009      -3.15777771E-02
   71.0299988      -3.19834538E-02
   71.1449966      -3.23863812E-02
   71.2600021      -3.27866785E-02
   71.3750000      -3.31844427E-02
   71.4899979      -3.35797779E-02
   71.6050034      -3.39728072E-02
   71.7200012      -3.43636312E-02
   71.8349991      -3.47523801E-02
   71.9499969      -3.51391621E-02
   72.0650024      -3.55241075E-02
   72.1800003      -3.59073132E-02
   72.2949982      -3.62889245E-02
   72.4100037      -3.66690382E-02
   72.5250015      -3.70477811E-02
   72.6399994      -3.74252684E-02
   72.7549973      -3.78016159E-02
   72.8700027      -3.81769352E-02
   72.9850006      -3.85513417E-02
   73.0999985      -3.89249250E-02
   73.2149963      -3.92977968E-02
   73.3300018      -3.96700427E-02
   73.4449997      -4.00417522E-02
   73.5599976      -4.04130071E-02
   73.6750031      -4.07838747E-02
   73.7900009      -4.11544219E-02
   73.9049988      -4.15247045E-02
   74.0199966      -4.18947712E-02
   74.1350021      -4.22646552E-02
   74.2500000      -4.26343754E-02
   74.3649979      -4.30039465E-02
   74.4800034      -4.33733836E-02
   74.5950012      -4.37426642E-02
   74.7099991      -4.41117734E-02
   74.8249969      -4.44806777E-02
   74.9400024      -4.48493436E-02
   75.0550003      -4.52177040E-02
   75.1699982      -4.55856957E-02
   75.2850037      -4.59532440E-02
   75.4000015      -4.63202521E-02
   75.5149994      -4.66866083E-02
   75.6299973      -4.70521823E-02
   75.7450027      -4.74168472E-02
   75.8600006      -4.77804504E-02
   75.9749985      -4.81428280E-02
   76.0899963      -4.85037938E-02
   76.2050018      -4.88631576E-02
   76.3199997      -4.92207073E-02
   76.4349976      -4.95762117E-02
   76.5500031      -4.99294512E-02
   76.6650009      -5.02801649E-02
   76.7799988      -5.06280996E-02
   76.8949966      -5.09729721E-02
   77.0100021      -5.13145179E-02
   77.1250000      -5.16524352E-02
   77.2399979      -5.19864112E-02
   77.3550034      -5.23161404E-02
   77.4700012      -5.26412874E-02
   77.5849991      -5.29615283E-02
   77.6999969      -5.32765239E-02
   77.8150024      -5.35859168E-02
   77.9300003      -5.38893566E-02
   78.0449982      -5.41864745E-02
   78.1600037      -5.44769056E-02
   78.2750015      -5.47602661E-02
   78.3899994      -5.50361648E-02
   78.5049973      -5.53042218E-02
   78.6200027      -5.55640496E-02
   78.7350006      -5.58152460E-02
   78.8499985      -5.60574308E-02
   78.9649963      -5.62902018E-02
   79.0800018      -5.65131865E-02
   79.1949997      -5.67259826E-02
   79.3099976      -5.69282211E-02
   79.4250031      -5.71195148E-02
   79.5400009      -5.72994873E-02