  -18.8999996        -0.00000000    
  -18.7849998        -1.79709815E-21
  -18.6700001         3.65762932E-12
  -18.5550003         1.66156169E-11
  -18.4400005         4.35289860E-11
  -18.3250008         8.49790724E-11
  -18.2099991         1.35534098E-10
  -18.0949993         1.83794882E-10
  -17.9799995         2.14520304E-10
  -17.8649998         2.12156903E-10
  -17.7500000         1.64605898E-10
  -17.6350002         6.60369745E-11
  -17.5200005        -8.20014334E-11
  -17.4050007        -2.71213524E-10
  -17.2900009        -4.88289409E-10
  -17.1749992        -7.16744220E-10
  -17.0599995        -9.37986133E-10
  -16.9449997        -1.13128262E-09
  -16.8299999        -1.27302979E-09
  -16.7150002        -1.33631883E-09
  -16.6000004        -1.29197031E-09
  -16.4850006        -1.11181353E-09
  -16.3700008        -7.74169895E-10
  -16.2549992        -2.70513639E-10
  -16.1399994         3.88454102E-10
  -16.0249996         1.16927379E-09
  -15.9099998         2.01621297E-09
  -15.7950001         2.85620727E-09
  -15.6800003         3.60746366E-09
  -15.5649996         4.18991064E-09
  -15.4499998         4.53525617E-09
  -15.3350000         4.59468819E-09
  -15.2200003         4.34316672E-09
  -15.1049995         3.78036491E-09
  -14.9899998         2.92932634E-09
  -14.8750000         1.83427451E-09
  -14.7600002         5.58793456E-10
  -14.6450005        -8.15210122E-10
  -14.5299997        -2.18834684E-09
  -14.4150000        -3.44560958E-09
  -14.3000002        -4.46065140E-09
  -14.1850004        -5.10321740E-09
  -14.0699997        -5.24927568E-09
  -13.9549999        -4.79227058E-09
  -13.8400002        -3.65297748E-09
  -13.7250004        -1.78546511E-09
  -13.6099997         8.22552693E-10
  -13.4949999         4.15521262E-09
  -13.3800001         8.17836820E-09
  -13.2650003         1.28511743E-08
  -13.1499996         1.81362125E-08
  -13.0349998         2.40055869E-08
  -12.9200001         3.04418393E-08
  -12.8050003         3.74341056E-08
  -12.6899996         4.49713511E-08
  -12.5749998         5.30354605E-08
  -12.4600000         6.15961966E-08
  -12.3450003         7.06095662E-08
  -12.2299995         8.00191344E-08
  -12.1149998         8.97591477E-08
  -12.0000000         9.97575142E-08
  -11.8850002         1.09937076E-07
  -11.7700005         1.20214793E-07
  -11.6549997         1.30499714E-07
  -11.5400000         1.40692023E-07
  -11.4250002         1.50684571E-07
  -11.3100004         1.60369368E-07
  -11.1949997         1.69648445E-07
  -11.0799999         1.78447593E-07
  -10.9650002         1.86730077E-07
  -10.8500004         1.94506782E-07
  -10.7349997         2.01839626E-07
  -10.6199999         2.08837918E-07
  -10.5050001         2.15647219E-07
  -10.3900003         2.22434096E-07
  -10.2749996         2.29370116E-07
  -10.1599998         2.36618206E-07
  -10.0450001         2.44323729E-07
  -9.93000031         2.52611073E-07
  -9.81499958         2.61584063E-07
  -9.69999981         2.71328645E-07
  -9.58500004         2.81915277E-07
  -9.47000027         2.93399864E-07
  -9.35499954         3.05823136E-07
  -9.23999977         3.19209676E-07
  -9.12500000         3.33568181E-07
  -9.01000023         3.48895270E-07
  -8.89500046         3.65182188E-07
  -8.77999973         3.82423877E-07
  -8.66499996         4.00628579E-07
  -8.55000019         4.19824602E-07
  -8.43500042         4.40062081E-07
  -8.31999969         4.61408803E-07
  -8.20499992         4.83940823E-07
  -8.09000015         5.07730419E-07
  -7.97499990         5.32835315E-07
  -7.86000013         5.59290015E-07
  -7.74499989         5.87105092E-07
  -7.63000011         6.16270597E-07
  -7.51499987         6.46765386E-07
  -7.40000010         6.78566096E-07
  -7.28499985         7.11657606E-07
  -7.17000008         7.46037983E-07
  -7.05499983         7.81720530E-07
  -6.94000006         8.18731564E-07
  -6.82499981         8.57106443E-07
  -6.71000004         8.96886320E-07
  -6.59499979         9.38114738E-07
  -6.48000002         9.80835466E-07
  -6.36499977         1.02509284E-06
  -6.25000000         1.07092706E-06
  -6.13500023         1.11837221E-06
  -6.01999998         1.16744832E-06
  -5.90500021         1.21815356E-06
  -5.78999996         1.27045610E-06
  -5.67500019         1.32428931E-06
  -5.55999994         1.37955260E-06
  -5.44500017         1.43611680E-06
  -5.32999992         1.49383663E-06
  -5.21500015         1.55256430E-06
  -5.09999990         1.61216371E-06
  -4.98500013         1.67252631E-06
  -4.86999989         1.73357296E-06
  -4.75500011         1.79525659E-06
  -4.63999987         1.85755880E-06
  -4.52500010         1.92047901E-06
  -4.40999985         1.98402449E-06
  -4.29500008         2.04820185E-06
  -4.17999983         2.11300585E-06
  -4.06500006         2.17841375E-06
  -3.95000005         2.24438008E-06
  -3.83500004         2.31083118E-06
  -3.72000003         2.37766017E-06
  -3.60500002         2.44472699E-06
  -3.49000001         2.51185793E-06
  -3.37500000         2.57884949E-06
  -3.25999999         2.64547316E-06
  -3.14499998         2.71149293E-06
  -3.02999997         2.77667095E-06
  -2.91499996         2.84078396E-06
  -2.79999995         2.90363369E-06
  -2.68499994         2.96505095E-06
  -2.56999993         3.02488934E-06
  -2.45499992         3.08302242E-06
  -2.33999991         3.13933174E-06
  -2.22499990         3.19368223E-06
  -2.10999990         3.24591770E-06
  -1.99500000         3.29583918E-06
  -1.88000000         3.34320453E-06
  -1.76499999         3.38771406E-06
  -1.64999998         3.42901649E-06
  -1.53499997         3.46670618E-06
  -1.41999996         3.50032929E-06
  -1.30499995         3.52940174E-06
  -1.19000006         3.55340853E-06
  -1.07500005         3.57183080E-06
 -0.959999979         3.58415718E-06
 -0.845000029         3.58990019E-06
 -0.730000019         3.58861689E-06
 -0.615000010         3.57991394E-06
 -0.500000000         3.56345549E-06
 -0.384999990         3.53895257E-06
 -0.270000011         3.50615574E-06
 -0.155000001         3.46483489E-06
  -3.99999991E-02     3.41477335E-06
   7.50000030E-02     3.35573122E-06
  0.189999998         3.28745364E-06
  0.305000007         3.20964728E-06
  0.419999987         3.12198154E-06
  0.535000026         3.02408898E-06
  0.649999976         2.91558263E-06
  0.764999986         2.79604274E-06
  0.879999995         2.66504458E-06
  0.995000005         2.52216205E-06
   1.11000001         2.36698725E-06
   1.22500002         2.19913545E-06
   1.34000003         2.01826424E-06
   1.45500004         1.82409758E-06
   1.57000005         1.61640401E-06
   1.68499994         1.39502390E-06
   1.79999995         1.15984494E-06
   1.91499996         9.10793005E-07
   2.02999997         6.47812158E-07
   2.14499998         3.70833732E-07
   2.25999999         7.97813300E-08
   2.37500000        -2.25470103E-07
   2.49000001        -5.45069270E-07
   2.60500002        -8.79224899E-07
   2.72000003        -1.22813253E-06
   2.83500004        -1.59201636E-06
   2.95000005        -1.97107011E-06
   3.06500006        -2.36548067E-06
   3.18000007        -2.77536265E-06
   3.29500008        -3.20078561E-06
   3.41000009        -3.64174639E-06
   3.52500010        -4.09815402E-06
   3.64000010        -4.56984026E-06
   3.75500011        -5.05654270E-06
   3.86999989        -5.55791212E-06
   3.98499990        -6.07350285E-06
   4.09999990        -6.60281285E-06
   4.21500015        -7.14529688E-06
   4.32999992        -7.70035876E-06
   4.44500017        -8.26743144E-06
   4.55999994        -8.84595011E-06
   4.67500019        -9.43535633E-06
   4.78999996        -1.00351344E-05
   4.90500021        -1.06447833E-05
   5.01999998        -1.12637617E-05
   5.13500023        -1.18915323E-05
   5.25000000        -1.25275083E-05
   5.36499977        -1.31710203E-05
   5.48000002        -1.38213609E-05
   5.59499979        -1.44777414E-05
   5.71000004        -1.51393042E-05
   5.82499981        -1.58051334E-05
   5.94000006        -1.64742469E-05
   6.05499983        -1.71456231E-05
   6.17000008        -1.78181854E-05
   6.28499985        -1.84908131E-05
   6.40000010        -1.91623622E-05
   6.51499987        -1.98316848E-05
   6.63000011        -2.04975950E-05
   6.74499989        -2.11589595E-05
   6.86000013        -2.18146379E-05
   6.97499990        -2.24634950E-05
   7.09000015        -2.31044105E-05
   7.20499992        -2.37362510E-05
   7.32000017        -2.43578197E-05
   7.43499994        -2.49679069E-05
   7.55000019        -2.55652212E-05
   7.66499996        -2.61483947E-05
   7.78000021        -2.67160467E-05
   7.89499998        -2.72666839E-05
   8.01000023        -2.77988383E-05
   8.12500000        -2.83110021E-05
   8.23999977        -2.88016890E-05
   8.35499954        -2.92694804E-05
   8.47000027        -2.97129081E-05
   8.58500004        -3.01306463E-05
   8.69999981        -3.05214016E-05
   8.81499958        -3.08839444E-05
   8.93000031        -3.12170887E-05
   9.04500008        -3.15197285E-05
   9.15999985        -3.17908525E-05
   9.27499962        -3.20294639E-05
   9.39000034        -3.22346932E-05
   9.50500011        -3.24056455E-05
   9.61999989        -3.25414294E-05
   9.73499966        -3.26411682E-05
   9.85000038        -3.27040034E-05
   9.96500015        -3.27290109E-05
   10.0799999        -3.27152957E-05
   10.1949997        -3.26619665E-05
   10.3100004        -3.25681867E-05
   10.4250002        -3.24331668E-05
   10.5400000        -3.22561609E-05
   10.6549997        -3.20365725E-05
   10.7700005        -3.17738122E-05
   10.8850002        -3.14674508E-05
   11.0000000        -3.11170697E-05
   11.1149998        -3.07223781E-05
   11.2299995        -3.02831595E-05
   11.3450003        -2.97992792E-05
   11.4600000        -2.92706300E-05
   11.5749998        -2.86972427E-05
   11.6899996        -2.80791737E-05
   11.8050003        -2.74166014E-05
   11.9200001        -2.67096802E-05
   12.0349998        -2.59586996E-05
   12.1499996        -2.51640122E-05
   12.2650003        -2.43260110E-05
   12.3800001        -2.34452345E-05
   12.4949999        -2.25223175E-05
   12.6099997        -2.15580330E-05
   12.7250004        -2.05533015E-05
   12.8400002        -1.95091670E-05
   12.9549999        -1.84268429E-05
   13.0699997        -1.73076623E-05
   13.1850004        -1.61531025E-05
   13.3000002        -1.49647158E-05
   13.4150000        -1.37441339E-05
   13.5299997        -1.24930739E-05
   13.6450005        -1.12133430E-05
   13.7600002        -9.90672106E-06
   13.8750000        -8.57513805E-06
   13.9899998        -7.22058485E-06
   14.1049995        -5.84499867E-06
   14.2200003        -4.45042224E-06
   14.3350000        -3.03906472E-06
   14.4499998        -1.61312437E-06
   14.5649996        -1.74775778E-07
   14.6800003         1.27352541E-06
   14.7950001         2.72936450E-06
   14.9099998         4.19012304E-06
   15.0249996         5.65309711E-06
   15.1400003         7.11543453E-06
   15.2550001         8.57424857E-06
   15.3699999         1.00265015E-05
   15.4849997         1.14690647E-05
   15.6000004         1.28987576E-05
   15.7150002         1.43123907E-05
   15.8299999         1.57066497E-05
   15.9449997         1.70782150E-05
   16.0599995         1.84236851E-05
   16.1749992         1.97396221E-05
   16.2900009         2.10224480E-05
   16.4050007         2.22685667E-05
   16.5200005         2.34742474E-05
   16.6350002         2.46356831E-05
   16.7500000         2.57490719E-05
   16.8649998         2.68104377E-05
   16.9799995         2.78155494E-05
   17.0949993         2.87602779E-05
   17.2099991         2.96401849E-05
   17.3250008         3.04507503E-05
   17.4400005         3.11872973E-05
   17.5550003         3.18451457E-05
   17.6700001         3.24194225E-05
   17.7849998         3.29052600E-05
   17.8999996         3.32975469E-05
   18.0149994         3.35912264E-05
   18.1299992         3.37810925E-05
   18.2450008         3.38617974E-05
   18.3600006         3.38280297E-05
   18.4750004         3.36743105E-05
   18.5900002         3.33951102E-05
   18.7049999         3.29848044E-05
   18.8199997         3.24376015E-05
   18.9349995         3.17477825E-05
   19.0499992         3.09094976E-05
   19.1650009         2.99168532E-05
   19.2800007         2.87637340E-05
   19.3950005         2.74441009E-05
   19.5100002         2.59517637E-05
   19.6250000         2.42804235E-05
   19.7399998         2.24238047E-05
   19.8549995         2.03754571E-05
   19.9699993         1.81288142E-05
   20.0849991         1.56773804E-05
   20.2000008         1.30143835E-05
   20.3150005         1.01331516E-05
   20.4300003         7.02680700E-06
   20.5450001         3.68829569E-06
   20.6599998         1.10583642E-07
   20.7749996        -3.71345232E-06
   20.8899994        -7.79119000E-06
   21.0049992        -1.21299017E-05
   21.1200008        -1.67368962E-05
   21.2350006        -2.16194858E-05
   21.3500004        -2.67851719E-05
   21.4650002        -3.22411652E-05
   21.5799999        -3.79947851E-05
   21.6949997        -4.40532385E-05
   21.8099995        -5.04238269E-05
   21.9249992        -5.71136952E-05
   22.0400009        -6.41300066E-05
   22.1550007        -7.14799098E-05
   22.2700005        -7.91705388E-05
   22.3850002        -8.72089877E-05
   22.5000000        -9.56023869E-05
   22.6149998        -1.04357619E-04
   22.7299995        -1.13481867E-04
   22.8449993        -1.22982165E-04
   22.9599991        -1.32865622E-04
   23.0750008        -1.43139143E-04
   23.1900005        -1.53809786E-04
   23.3050003        -1.64884361E-04
   23.4200001        -1.76369707E-04
   23.5349998        -1.88272505E-04
   23.6499996        -2.00599403E-04
   23.7649994        -2.13356703E-04
   23.8799992        -2.26550794E-04
   23.9950008        -2.40187845E-04
   24.1100006        -2.54273851E-04
   24.2250004        -2.68815056E-04
   24.3400002        -2.83817091E-04
   24.4549999        -2.99285894E-04
   24.5699997        -3.15227109E-04
   24.6849995        -3.31646326E-04
   24.7999992        -3.48549045E-04
   24.9150009        -3.65940592E-04
   25.0300007        -3.83826118E-04
   25.1450005        -4.02210775E-04
   25.2600002        -4.21099481E-04
   25.3750000        -4.40496980E-04
   25.4899998        -4.60407871E-04
   25.6049995        -4.80836403E-04
   25.7199993        -5.01786475E-04
   25.8349991        -5.23261901E-04
   25.9500008        -5.45265968E-04
   26.0650005        -5.67801937E-04
   26.1800003        -5.90872776E-04
   26.2950001        -6.14480989E-04
   26.4099998        -6.38629426E-04
   26.5249996        -6.63320185E-04
   26.6399994        -6.88555534E-04
   26.7549992        -7.14337744E-04
   26.8700008        -7.40668678E-04
   26.9850006        -7.67550315E-04
   27.1000004        -7.94984284E-04
   27.2150002        -8.22972332E-04
   27.3299999        -8.51515913E-04
   27.4449997        -8.80616368E-04
   27.5599995        -9.10274684E-04
   27.6749992        -9.40491736E-04
   27.7900009        -9.71267989E-04
   27.9050007        -1.00260368E-03
   28.0200005        -1.03449915E-03
   28.1350002        -1.06695388E-03
   28.2500000        -1.09996716E-03
   28.3649998        -1.13353843E-03
   28.4799995        -1.16766640E-03
   28.5949993        -1.20235002E-03
   28.7099991        -1.23758812E-03
   28.8250008        -1.27337885E-03
   28.9400005        -1.30972103E-03
   29.0550003        -1.34661293E-03
   29.1700001        -1.38405291E-03
   29.2849998        -1.42203888E-03
   29.3999996        -1.46056886E-03
   29.5149994        -1.49964099E-03
   29.6299992        -1.53925247E-03
   29.7450008        -1.57940073E-03
   29.8600006        -1.62008323E-03
   29.9750004        -1.66129635E-03
   30.0900002        -1.70303683E-03
   30.2049999        -1.74530060E-03
   30.3199997        -1.78808405E-03
   30.4349995        -1.83138240E-03
   30.5499992        -1.87519076E-03
   30.6650009        -1.91950426E-03
   30.7800007        -1.96431763E-03
   30.8950005        -2.00962531E-03
   31.0100002        -2.05542101E-03
   31.1250000        -2.10169866E-03
   31.2399998        -2.14845198E-03
   31.3549995        -2.19567376E-03
   31.4699993        -2.24335608E-03
   31.5849991        -2.29149149E-03
   31.7000008        -2.34007067E-03
   31.8150005        -2.38908501E-03
   31.9300003        -2.43852404E-03
   32.0449982        -2.48837727E-03
   32.1599998        -2.53863260E-03
   32.2750015        -2.58927792E-03
   32.3899994        -2.64029950E-03
   32.5050011        -2.69168359E-03
   32.6199989        -2.74341460E-03
   32.7350006        -2.79547623E-03
   32.8499985        -2.84785149E-03
   32.9650002        -2.90052290E-03
   33.0800018        -2.95347068E-03
   33.1949997        -3.00667505E-03
   33.3100014        -3.06011457E-03
   33.4249992        -3.11376713E-03
   33.5400009        -3.16760945E-03
   33.6549988        -3.22161638E-03
   33.7700005        -3.27576254E-03
   33.8849983        -3.33002070E-03
   34.0000000        -3.38436174E-03
   34.1150017        -3.43875540E-03
   34.2299995        -3.49317072E-03
   34.3450012        -3.54757416E-03
   34.4599991        -3.60193127E-03
   34.5750008        -3.65620642E-03
   34.6899986        -3.71036259E-03
   34.8050003        -3.76436068E-03
   34.9199982        -3.81816132E-03
   35.0349998        -3.87172354E-03
   35.1500015        -3.92500404E-03
   35.2649994        -3.97796044E-03
   35.3800011        -4.03054664E-03
   35.4949989        -4.08271840E-03
   35.6100006        -4.13442729E-03
   35.7249985        -4.18562535E-03
   35.8400002        -4.23626276E-03
   35.9550018        -4.28628875E-03
   36.0699997        -4.33565117E-03
   36.1850014        -4.38429741E-03
   36.2999992        -4.43217158E-03
   36.4150009        -4.47921827E-03
   36.5299988        -4.52537974E-03
   36.6450005        -4.57059965E-03
   36.7599983        -4.61481791E-03
   36.8750000        -4.65797493E-03
   36.9900017        -4.70001018E-03
   37.1049995        -4.74086218E-03
   37.2200012        -4.78046853E-03
   37.3349991        -4.81876777E-03
   37.4500008        -4.85569565E-03
   37.5649986        -4.89118788E-03
   37.6800003        -4.92518116E-03
   37.7949982        -4.95761028E-03
   37.9099998        -4.98841004E-03
   38.0250015        -5.01751434E-03
   38.1399994        -5.04485611E-03
   38.2550011        -5.07037016E-03
   38.3699989        -5.09398710E-03
   38.4850006        -5.11564035E-03
   38.5999985        -5.13526332E-03
   38.7150002        -5.15278568E-03
   38.8300018        -5.16814087E-03
   38.9449997        -5.18126087E-03
   39.0600014        -5.19207772E-03
   39.1749992        -5.20052388E-03
   39.2900009        -5.20653138E-03
   39.4049988        -5.21003362E-03
   39.5200005        -5.21096401E-03
   39.6349983        -5.20925643E-03
   39.7500000        -5.20484429E-03
   39.8650017        -5.19766239E-03
   39.9799995        -5.18764555E-03
   40.0950012        -5.17472811E-03
   40.2099991        -5.15884673E-03
   40.3250008        -5.13993762E-03
   40.4399986        -5.11793653E-03
   40.5550003        -5.09278197E-03
   40.6699982        -5.06441016E-03
   40.7849998        -5.03276102E-03
   40.9000015        -4.99777310E-03
   41.0149994        -4.95938677E-03
   41.1300011        -4.91754431E-03
   41.2449989        -4.87218704E-03
   41.3600006        -4.82326001E-03
   41.4749985        -4.77070920E-03
   41.5900002        -4.71448060E-03
   41.7050018        -4.65452159E-03
   41.8199997        -4.59078467E-03
   41.9350014        -4.52321954E-03
   42.0499992        -4.45177965E-03
   42.1650009        -4.37642029E-03
   42.2799988        -4.29709814E-03
   42.3950005        -4.21377085E-03
   42.5099983        -4.12639836E-03
   42.6250000        -4.03494434E-03
   42.7400017        -3.93937202E-03
   42.8549995        -3.83964833E-03
   42.9700012        -3.73574137E-03
   43.0849991        -3.62762436E-03
   43.2000008        -3.51526937E-03
   43.3149986        -3.39865452E-03
   43.4300003        -3.27775837E-03
   43.5449982        -3.15256300E-03
   43.6599998        -3.02305608E-03
   43.7750015        -2.88922479E-03
   43.8899994        -2.75106216E-03
   44.0050011        -2.60856235E-03
   44.1199989        -2.46172515E-03
   44.2350006        -2.31055054E-03
   44.3499985        -2.15504342E-03
   44.4650002        -1.99521449E-03
   44.5800018        -1.83107425E-03
   44.6949997        -1.66263862E-03
   44.8100014        -1.48992811E-03
   44.9249992        -1.31296588E-03
   45.0400009        -1.13177823E-03
   45.1549988        -9.46397602E-04
   45.2700005        -7.56859488E-04
   45.3849983        -5.63202659E-04
   45.5000000        -3.65472835E-04
   45.6150017        -1.63718010E-04
   45.7299995         4.20104698E-05
   45.8450012         2.51653953E-04
   45.9599991         4.65150806E-04
   46.0750008         6.82437094E-04
   46.1899986         9.03441280E-04
   46.3050003         1.12808996E-03
   46.4199982         1.35630462E-03
   46.5349998         1.58800266E-03
   46.6500015         1.82309584E-03
   46.7649994         2.06149579E-03
   46.8800011         2.30310648E-03
   46.9949989         2.54782825E-03
   47.1100006         2.79555982E-03
   47.2249985         3.04619339E-03
   47.3400002         3.29961651E-03
   47.4550018         3.55571602E-03
   47.5699997         3.81437084E-03
   47.6850014         4.07545641E-03
   47.7999992         4.33884654E-03
   47.9150009         4.60441085E-03
   48.0299988         4.87201475E-03
   48.1450005         5.14152041E-03
   48.2599983         5.41278394E-03
   48.3750000         5.68566239E-03
   48.4900017         5.96000487E-03
   48.6049995         6.23566238E-03
   48.7200012         6.51247893E-03
   48.8349991         6.79029943E-03
   48.9500008         7.06896279E-03
   49.0649986         7.34830741E-03
   49.1800003         7.62816798E-03
   49.2949982         7.90837873E-03
   49.4099998         8.18877108E-03
   49.5250015         8.46917182E-03
   49.6399994         8.74941144E-03
   49.7550011         9.02931020E-03
   49.8699989         9.30869207E-03
   49.9850006         9.58737917E-03
   50.0999985         9.86519083E-03
   50.2150002         1.01419436E-02
   50.3300018         1.04174539E-02
   50.4449997         1.06915403E-02
   50.5600014         1.09640146E-02
   50.6749992         1.12346942E-02
   50.7900009         1.15033928E-02
   50.9049988         1.17699262E-02
   51.0200005         1.20341070E-02
   51.1349983         1.22957509E-02
   51.2500000         1.25546716E-02
   51.3650017         1.28106875E-02
   51.4799995         1.30636143E-02
   51.5950012         1.33132702E-02
   51.7099991         1.35594727E-02
   51.8250008         1.38020404E-02
   51.9399986         1.40407942E-02
   52.0550003         1.42755518E-02
   52.1699982         1.45061407E-02
   52.2849998         1.47323804E-02
   52.4000015         1.49541013E-02
   52.5149994         1.51711302E-02
   52.6300011         1.53832957E-02
   52.7449989         1.55904349E-02
   52.8600006         1.57923866E-02
   52.9749985         1.59889869E-02
   53.0900002         1.61800832E-02
   53.2050018         1.63655132E-02
   53.3199997         1.65451318E-02
   53.4350014         1.67187899E-02
   53.5499992         1.68863442E-02
   53.6650009         1.70476567E-02
   53.7799988         1.72025897E-02
   53.8950005         1.73510090E-02
   54.0099983         1.74927860E-02
   54.1250000         1.76277980E-02
   54.2400017         1.77559182E-02
   54.3549995         1.78770311E-02
   54.4700012         1.79910250E-02
   54.5849991         1.80977918E-02
   54.7000008         1.81972273E-02
   54.8149986         1.82892270E-02
   54.9300003         1.83737054E-02
   55.0449982         1.84505694E-02
   55.1599998         1.85197331E-02
   55.2750015         1.85811259E-02
   55.3899994         1.86346658E-02
   55.5050011         1.86802875E-02
   55.6199989         1.87179279E-02
   55.7350006         1.87475290E-02
   55.8499985         1.87690333E-02
   55.9650002         1.87823940E-02
   56.0800018         1.87875647E-02
   56.1949997         1.87845044E-02
   56.3100014         1.87731832E-02
   56.4249992         1.87535677E-02
   56.5400009         1.87256355E-02
   56.6549988         1.86893605E-02
   56.7700005         1.86447352E-02
   56.8849983         1.85917430E-02
   57.0000000         1.85303837E-02
   57.1150017         1.84606574E-02
   57.2299995         1.83825660E-02
   57.3450012         1.82961244E-02
   57.4599991         1.82013437E-02
   57.5750008         1.80982426E-02
   57.6899986         1.79868434E-02
   57.8050003         1.78671721E-02
   57.9199982         1.77392643E-02
   58.0349998         1.76031515E-02
   58.1500015         1.74588710E-02
   58.2649994         1.73064657E-02
   58.3800011         1.71459801E-02
   58.4949989         1.69774629E-02
   58.6100006         1.68009680E-02
   58.7249985         1.66165475E-02
   58.8400002         1.64242629E-02
   58.9550018         1.62241701E-02
   59.0699997         1.60163417E-02
   59.1850014         1.58008449E-02
   59.2999992         1.55777447E-02
   59.4150009         1.53471222E-02
   59.5299988         1.51090454E-02
   59.6450005         1.48635935E-02
   59.7599983         1.46108456E-02
   59.8750000         1.43508818E-02
   59.9900017         1.40837831E-02
   60.1049995         1.38096288E-02
   60.2200012         1.35285091E-02
   60.3349991         1.32405078E-02
   60.4500008         1.29457070E-02
   60.5649986         1.26441978E-02
   60.6800003         1.23360669E-02
   60.7949982         1.20214112E-02
   60.9099998         1.17003219E-02
   61.0250015         1.13728903E-02
   61.1399994         1.10392151E-02
   61.2550011         1.06993867E-02
   61.3699989         1.03535056E-02
   61.4850006         1.00016659E-02
   61.5999985         9.64396447E-03
   61.7150002         9.28049907E-03
   61.8300018         8.91137589E-03
   61.9449997         8.53669085E-03
   62.0600014         8.15654453E-03
   62.1749992         7.77103473E-03
   62.2900009         7.38026761E-03
   62.4049988         6.98434934E-03
   62.5200005         6.58337865E-03
   62.6349983         6.17746636E-03
   62.7500000         5.76672237E-03
   62.8650017         5.35125658E-03
   62.9799995         4.93117608E-03
   63.0950012         4.50660102E-03
   63.2099991         4.07763943E-03
   63.3250008         3.64440866E-03
   63.4399986         3.20702908E-03
   63.5550003         2.76561361E-03
   63.6699982         2.32028426E-03
   63.7849998         1.87116512E-03
   63.9000015         1.41837064E-03
   64.0149994         9.62026068E-04
   64.1299973         5.02255978E-04
   64.2450027         3.91935464E-05
   64.3600006        -4.27041668E-04
   64.4749985        -8.96317419E-04
   64.5899963        -1.36849890E-03
   64.7050018        -1.84345897E-03
   64.8199997        -2.32105912E-03
   64.9349976        -2.80116173E-03
   65.0500031        -3.28362454E-03
   65.1650009        -3.76831018E-03
   65.2799988        -4.25507780E-03
   65.3949966        -4.74378560E-03
   65.5100021        -5.23429504E-03
   65.6250000        -5.72646130E-03
   65.7399979        -6.22014515E-03
   65.8550034        -6.71519618E-03
   65.9700012        -7.21147750E-03
   66.0849991        -7.70884752E-03
   66.1999969        -8.20716191E-03
   66.3150024        -8.70627072E-03
   66.4300003        -9.20603704E-03
   66.5449982        -9.70631745E-03
   66.6600037        -1.02069620E-02
   66.7750015        -1.07078338E-02
   66.8899994        -1.12087969E-02
   67.0049973        -1.17097041E-02
   67.1200027        -1.22104194E-02
   67.2350006        -1.27108116E-02
   67.3499985        -1.32107474E-02
   67.4649963        -1.37100946E-02
   67.5800018        -1.42087275E-02
   67.6949997        -1.47065157E-02
   67.8099976        -1.52033418E-02
   67.9250031        -1.56990923E-02
   68.0400009        -1.61936432E-02
   68.1549988        -1.66868940E-02
   68.2699966        -1.71787385E-02
   68.3850021        -1.76690724E-02
   68.5000000        -1.81578044E-02
   68.6149979        -1.86448395E-02
   68.7300034        -1.91300921E-02
   68.8450012        -1.96134821E-02
   68.9599991        -2.00949442E-02
   69.0749969        -2.05743946E-02
   69.1900024        -2.10517738E-02
   69.3050003        -2.15270221E-02
   69.4199982        -2.20000949E-02
   69.5350037        -2.24709399E-02
   69.6500015        -2.29395237E-02
   69.7649994        -2.34058071E-02
   69.8799973        -2.38697715E-02
   69.9950027        -2.43313964E-02
   70.1100006        -2.47906689E-02
   70.2249985        -2.52475776E-02
   70.3399963        -2.57021375E-02
   70.4550018        -2.61543486E-02
   70.5699997        -2.66042352E-02
   70.6849976        -2.70518102E-02
   70.8000031        -2.74971109E-02
   70.9150009        -2.79401578E-02
   71.0299988        -2.83809900E-02
   71.1449966        -2.88196541E-02
   71.2600021        -2.92561930E-02
   71.3750000        -2.96906624E-02
   71.4899979        -3.01231127E-02
   71.6050034        -3.05536073E-02
   71.7200012        -3.09822131E-02
   71.8349991        -3.14089954E-02
   71.9499969        -3.18340249E-02
   72.0650024        -3.22573781E-02
   72.1800003        -3.26791294E-02
   72.2949982        -3.30993459E-02
   72.4100037        -3.35181132E-02
   72.5250015        -3.39355022E-02
   72.6399994        -3.43515947E-02
   72.7549973        -3.47664542E-02
   72.8700027        -3.51801626E-02
   72.9850006        -3.55927944E-02
   73.0999985        -3.60044017E-02
   73.2149963        -3.64150703E-02
   73.3300018        -3.68248485E-02
   73.4449997        -3.72337997E-02
   73.5599976        -3.76419649E-02
   73.6750031        -3.80493999E-02
   73.7900009        -3.84561308E-02
   73.9049988        -3.88622023E-02
   74.0199966        -3.92676368E-02
   74.1350021        -3.96724381E-02