  -18.8999996        -0.00000000    
  -18.7849998        -0.00000000    
  -18.6700001        -0.00000000    
  -18.5550003        -0.00000000    
  -18.4400005        -0.00000000    
  -18.3250008        -0.00000000    
  -18.2099991        -0.00000000    
  -18.0949993        -0.00000000    
  -17.9799995        -0.00000000    
  -17.8649998        -0.00000000    
  -17.7500000        -0.00000000    
  -17.6350002        -0.00000000    
  -17.5200005        -8.63917451E-34
  -17.4050007        -6.48129602E-33
  -17.2900009        -1.93451693E-32
  -17.1749992        -6.89467110E-32
  -17.0599995        -1.63440417E-31
  -16.9449997        -3.60162488E-31
  -16.8299999        -7.21729175E-31
  -16.7150002        -1.37455915E-30
  -16.6000004        -2.34145177E-30
  -16.4850006        -3.69345779E-30
  -16.3700008        -5.28968583E-30
  -16.2549992        -6.39050940E-30
  -16.1399994        -5.71050115E-30
  -16.0249996         2.00719986E-31
  -15.9099998         1.64854156E-29
  -15.7950001         5.08317190E-29
  -15.6800003         1.13159952E-28
  -15.5649996         2.13920213E-28
  -15.4499998         3.60223553E-28
  -15.3350000         5.48317070E-28
  -15.2200003         7.51870195E-28
  -15.1049995         9.05991342E-28
  -14.9899998         8.88715847E-28
  -14.8750000         5.03220554E-28
  -14.7600002        -5.32147925E-28
  -14.6450005        -2.57655318E-27
  -14.5299997        -6.02939948E-27
  -14.4150000        -1.12495671E-26
  -14.3000002        -1.84196756E-26
  -14.1850004        -2.73504116E-26
  -14.0699997        -3.72328080E-26
  -13.9549999        -4.63652442E-26
  -13.8400002        -5.19071215E-26
  -13.7250004        -4.97393718E-26
  -13.6099997        -3.45387402E-26
  -13.4949999        -1.90092367E-28
  -13.3800001         5.93402374E-26
  -13.2650003         1.48579018E-25
  -13.1499996         2.68550069E-25
  -13.0349998         4.14310339E-25
  -12.9200001         5.72288561E-25
  -12.8050003         7.17906614E-25
  -12.6899996         8.14178361E-25
  -12.5749998         8.12170217E-25
  -12.4600000         6.54298343E-25
  -12.3450003         2.81369872E-25
  -12.2299995        -3.56039058E-25
  -12.1149998        -1.28187560E-24
  -12.0000000        -2.47550981E-24
  -11.8850002        -3.85138578E-24
  -11.7700005        -5.24093705E-24
  -11.6549997        -6.38158811E-24
  -11.5400000        -6.91861858E-24
  -11.4250002        -6.42588265E-24
  -11.3100004        -4.45048620E-24
  -11.1949997        -5.84112994E-25
  -11.0799999         5.44018281E-24
  -10.9650002         1.36324804E-23
  -10.8500004         2.36249752E-23
  -10.7349997         3.45654552E-23
  -10.6199999         4.50508681E-23
  -10.5050001         5.31297946E-23
  -10.3900003         5.64015983E-23
  -10.2749996         5.22334372E-23
  -10.1599998         3.81037898E-23
  -10.0450001         1.20618584E-23
  -9.93000031        -2.67314227E-23
  -9.81499958        -7.74413139E-23
  -9.69999981        -1.37061137E-22
  -9.58500004        -2.00081253E-22
  -9.47000027        -2.58435654E-22
  -9.35499954        -3.01826689E-22
  -9.23999977        -3.18501316E-22
  -9.12500000        -2.96504794E-22
  -9.01000023        -2.25371452E-22
  -8.89500046        -9.81361836E-23
  -8.77999973         8.65282279E-23
  -8.66499996         3.22317206E-22
  -8.55000019         5.93762956E-22
  -8.43500042         8.75503026E-22
  -8.31999969         1.13266916E-21
  -8.20499992         1.32264787E-21
  -8.09000015         1.39835226E-21
  -7.97499990         1.31299352E-21
  -7.86000013         1.02616188E-21
  -7.74499989         5.10831385E-22
  -7.63000011        -2.39291275E-22
  -7.51499987        -1.20281936E-21
  -7.40000010        -2.32502578E-21
  -7.28499985        -3.51443395E-21
  -7.17000008        -4.64265055E-21
  -7.05499983        -5.54836889E-21
  -6.94000006        -6.04633364E-21
  -6.82499981        -5.94177809E-21
  -6.71000004        -5.05051440E-21
  -6.59499979        -3.22428015E-21
  -6.48000002        -3.80257916E-22
  -6.36499977         3.46704555E-21
  -6.25000000         8.17454859E-21
  -6.13500023         1.34437561E-20
  -6.01999998         1.88032597E-20
  -5.90500021         2.36061046E-20
  -5.78999996         2.70479675E-20
  -5.67500019         2.82113987E-20
  -5.55999994         2.61404502E-20
  -5.44500017         1.99468805E-20
  -5.32999992         8.94600356E-21
  -5.21500015        -7.18523734E-21
  -5.09999990        -2.82407798E-20
  -4.98500013        -5.33273227E-20
  -4.86999989        -8.07402659E-20
  -4.75500011        -1.07901749E-19
  -4.63999987        -1.31390286E-19
  -4.52500010        -1.47088727E-19
  -4.40999985        -1.50469944E-19
  -4.29500008        -1.37026514E-19
  -4.17999983        -1.02833879E-19
  -4.06500006        -4.52137828E-20
  -3.95000005         3.65584169E-20
  -3.83500004         1.40582008E-19
  -3.72000003         2.61793513E-19
  -3.60500002         3.91672863E-19
  -3.49000001         5.18301084E-19
  -3.37500000         6.26862697E-19
  -3.25999999         7.00648294E-19
  -3.14499998         7.22569510E-19
  -3.02999997         6.77125293E-19
  -2.91499996         5.52688378E-19
  -2.79999995         3.43903778E-19
  -2.68499994         5.39166405E-20
  -2.56999993        -3.03898040E-19
  -2.45499992        -7.05055357E-19
  -2.33999991        -1.11426171E-18
  -2.22499990        -1.48715721E-18
  -2.10999990        -1.77364605E-18
  -1.99500000        -1.92279395E-18
  -1.88000000        -1.88905946E-18
  -1.76499999        -1.63941852E-18
  -1.64999998        -1.16070573E-18
  -1.53499997        -4.66309629E-19
  -1.41999996         3.98769298E-19
  -1.30499995         1.35553365E-18
  -1.19000006         2.29223018E-18
  -1.07500005         3.06996711E-18
 -0.959999979         3.53312166E-18
 -0.845000029         3.52448590E-18
 -0.730000019         2.90452292E-18
 -0.615000010         1.57350846E-18
 -0.500000000        -5.05246674E-19
 -0.384999990        -3.28350461E-18
 -0.270000011        -6.61021203E-18
 -0.155000001        -1.02205957E-17
  -3.99999991E-02    -1.37349436E-17
   7.50000030E-02    -1.66694794E-17
  0.189999998        -1.84609094E-17
  0.305000007        -1.85050858E-17
  0.419999987        -1.62090706E-17
  0.535000026        -1.10542258E-17
  0.649999976        -2.66646303E-18
  0.764999986         9.11155575E-18
  0.879999995         2.41527640E-17
  0.995000005         4.19898551E-17
   1.11000001         6.17785862E-17
   1.22500002         8.22873251E-17
   1.34000003         1.01918783E-16
   1.45500004         1.18767651E-16
   1.57000005         1.30716335E-16
   1.68499994         1.35566485E-16
   1.79999995         1.31203008E-16
   1.91499996         1.15781145E-16
   2.02999997         8.79268043E-17
   2.14499998         4.69358095E-17
   2.25999999        -7.04264551E-18
   2.37500000        -7.28549317E-17
   2.49000001        -1.48239832E-16
   2.60500002        -2.29787307E-16
   2.72000003        -3.12970389E-16
   2.83500004        -3.92257173E-16
   2.95000005        -4.61305366E-16
   3.06500006        -5.13236003E-16
   3.18000007        -5.40977868E-16
   3.29500008        -5.37667716E-16
   3.41000009        -4.97087797E-16
   3.52500010        -4.14118087E-16
   3.64000010        -2.85176538E-16
   3.75500011        -1.08622963E-16
   3.86999989         1.14900840E-16
   3.98499990         3.82215756E-16
   4.09999990         6.87457499E-16
   4.21500015         1.02204711E-15
   4.32999992         1.37479165E-15
   4.44500017         1.73211652E-15
   4.55999994         2.07842213E-15
   4.67500019         2.39656199E-15
   4.78999996         2.66842251E-15
   4.90500021         2.87557966E-15
   5.01999998         3.00002172E-15
   5.13500023         3.02490204E-15
   5.25000000         2.93529718E-15
   5.36499977         2.71895035E-15
   5.48000002         2.36696263E-15
   5.59499979         1.87441700E-15
   5.71000004         1.24090327E-15
   5.82499981         4.70934331E-16
   5.94000006        -4.25779349E-16
   6.05499983        -1.43420963E-15
   6.17000008        -2.53404306E-15
   6.28499985        -3.69990810E-15
   6.40000010        -4.90176696E-15
   6.51499987        -6.10549861E-15
   6.63000011        -7.27365996E-15
   6.74499989        -8.36640446E-15
   6.86000013        -9.34255657E-15
   6.97499990        -1.01608014E-14
   7.09000015        -1.07809515E-14
   7.20499992        -1.11652639E-14
   7.32000017        -1.12797497E-14
   7.43499994        -1.10954065E-14
   7.55000019        -1.05893670E-14
   7.66499996        -9.74587554E-15
   7.78000021        -8.55701821E-15
   7.89499998        -7.02328210E-15
   8.01000023        -5.15376604E-15
   8.12500000        -2.96614463E-15
   8.23999977        -4.86346625E-16
   8.35499954         2.25204821E-15
   8.47000027         5.20861862E-15
   8.58500004         8.33714201E-15
   8.69999981         1.15867577E-14
   8.81499958         1.49031974E-14
   8.93000031         1.82300836E-14
   9.04500008         2.15102052E-14
   9.15999985         2.46867261E-14
   9.27499962         2.77043284E-14
   9.39000034         3.05102826E-14
   9.50500011         3.30553930E-14
   9.61999989         3.52949413E-14
   9.73499966         3.71895406E-14
   9.85000038         3.87060074E-14
   9.96500015         3.98182294E-14
   10.0799999         4.05081378E-14
   10.1949997         4.07666454E-14
   10.3100004         4.05947113E-14
   10.4250002         4.00042616E-14
   10.5400000         3.90191995E-14
   10.6549997         3.76761746E-14
   10.7700005         3.60250228E-14
   10.8850002         3.41289632E-14
   11.0000000         3.20640731E-14
   11.1149998         2.99182811E-14
   11.2299995         2.77895128E-14
   11.3450003         2.57831306E-14
   11.4600000         2.40083967E-14
   11.5749998         2.25742327E-14
   11.6899996         2.15840512E-14
   11.8050003         2.11304651E-14
   11.9200001         2.12891347E-14
   12.0349998         2.21127522E-14
   12.1499996         2.36253142E-14
   12.2650003         2.58166257E-14
   12.3800001         2.86384143E-14
   12.4949999         3.20006811E-14
   12.6099997         3.57703504E-14
   12.7250004         3.97713817E-14
   12.8400002         4.37871412E-14
   12.9549999         4.75642678E-14
   13.0699997         5.08193714E-14
   13.1850004         5.32469204E-14
   13.3000002         5.45295112E-14
   13.4150000         5.43488933E-14
   13.5299997         5.23984678E-14
   13.6450005         4.83959864E-14
   13.7600002         4.20959247E-14
   13.8750000         3.33017339E-14
   13.9899998         2.18764283E-14
   14.1049995         7.75111041E-15
   14.2200003        -9.06887006E-15
   14.3350000        -2.85005174E-14
   14.4499998        -5.03835119E-14
   14.5649996        -7.44827919E-14
   14.6800003        -1.00497044E-13
   14.7950001        -1.28068319E-13
   14.9099998        -1.56797427E-13
   15.0249996        -1.86259374E-13
   15.1400003        -2.16023393E-13
   15.2550001        -2.45675008E-13
   15.3699999        -2.74836794E-13
   15.4849997        -3.03190795E-13
   15.6000004        -3.30499354E-13
   15.7150002        -3.56623449E-13
   15.8299999        -3.81540394E-13
   15.9449997        -4.05353946E-13
   16.0599995        -4.28302793E-13
   16.1749992        -4.50762556E-13
   16.2900009        -4.73241997E-13
   16.4050007        -4.96375293E-13
   16.5200005        -5.20905693E-13
   16.6350002        -5.47666404E-13
   16.7500000        -5.77554768E-13
   16.8649998        -6.11505529E-13
   16.9799995        -6.50459558E-13
   17.0949993        -6.95330187E-13
   17.2099991        -7.46973230E-13
   17.3250008        -8.06155110E-13
   17.4400005        -8.73527108E-13
   17.5550003        -9.49600966E-13
   17.6700001        -1.03473328E-12
   17.7849998        -1.12911503E-12
   17.8999996        -1.23276725E-12
   18.0149994        -1.34554759E-12
   18.1299992        -1.46716276E-12
   18.2450008        -1.59718527E-12
   18.3600006        -1.73508397E-12
   18.4750004        -1.88025160E-12
   18.5900002        -2.03204554E-12
   18.7049999        -2.18982146E-12
   18.8199997        -2.35297610E-12
   18.9349995        -2.52098364E-12
   19.0499992        -2.69342925E-12
   19.1650009        -2.87004665E-12
   19.2800007        -3.05073696E-12
   19.3950005        -3.23559083E-12
   19.5100002        -3.42490012E-12
   19.6250000        -3.61915858E-12
   19.7399998        -3.81905705E-12
   19.8549995        -4.02546963E-12
   19.9699993        -4.23943606E-12
   20.0849991        -4.46213205E-12
   20.2000008        -4.69483393E-12
   20.3150005        -4.93889044E-12
   20.4300003        -5.19567809E-12
   20.5450001        -5.46656557E-12
   20.6599998        -5.75287821E-12
   20.7749996        -6.05586067E-12
   20.8899994        -6.37664097E-12
   21.0049992        -6.71621439E-12
   21.1200008        -7.07541751E-12
   21.2350006        -7.45490909E-12
   21.3500004        -7.85516791E-12
   21.4650002        -8.27649494E-12
   21.5799999        -8.71900122E-12
   21.6949997        -9.18264249E-12
   21.8099995        -9.66720974E-12
   21.9249992        -1.01723699E-11
   22.0400009        -1.06976710E-11
   22.1550007        -1.12425772E-11
   22.2700005        -1.18064907E-11
   22.3850002        -1.23887810E-11
   22.5000000        -1.29888071E-11
   22.6149998        -1.36059454E-11
   22.7299995        -1.42396078E-11
   22.8449993        -1.48892704E-11
   22.9599991        -1.55544917E-11
   23.0750008        -1.62349145E-11
   23.1900005        -1.69302870E-11
   23.3050003        -1.76404776E-11
   23.4200001        -1.83654671E-11
   23.5349998        -1.91053631E-11
   23.6499996        -1.98603842E-11
   23.7649994        -2.06308755E-11
   23.8799992        -2.14172725E-11
   23.9950008        -2.22201146E-11
   24.1100006        -2.30400091E-11
   24.2250004        -2.38776221E-11
   24.3400002        -2.47336526E-11
   24.4549999        -2.56088067E-11
   24.5699997        -2.65037645E-11
   24.6849995        -2.74191520E-11
   24.7999992        -2.83555124E-11
   24.9150009        -2.93132497E-11
   25.0300007        -3.02926226E-11
   25.1450005        -3.12936795E-11
   25.2600002        -3.23162504E-11
   25.3750000        -3.33599121E-11
   25.4899998        -3.44239463E-11
   25.6049995        -3.55073297E-11
   25.7199993        -3.66087230E-11
   25.8349991        -3.77264574E-11
   25.9500008        -3.88585483E-11
   26.0650005        -4.00026783E-11
   26.1800003        -4.11562381E-11
   26.2950001        -4.23163345E-11
   26.4099998        -4.34798274E-11
   26.5249996        -4.46433897E-11
   26.6399994        -4.58035207E-11
   26.7549992        -4.69566053E-11
   26.8700008        -4.80989623E-11
   26.9850006        -4.92269038E-11
   27.1000004        -5.03367799E-11
   27.2150002        -5.14249997E-11
   27.3299999        -5.24881041E-11
   27.4449997        -5.35227661E-11
   27.5599995        -5.45258387E-11
   27.6749992        -5.54943452E-11
   27.7900009        -5.64254719E-11
   27.9050007        -5.73165959E-11
   28.0200005        -5.81652157E-11
   28.1350002        -5.89689547E-11
   28.2500000        -5.97255023E-11
   28.3649998        -6.04325548E-11
   28.4799995        -6.10878084E-11
   28.5949993        -6.16888485E-11
   28.7099991        -6.22331145E-11
   28.8250008        -6.27178448E-11
   28.9400005        -6.31400487E-11
   29.0550003        -6.34964234E-11
   29.1700001        -6.37833397E-11
   29.2849998        -6.39968009E-11
   29.3999996        -6.41324771E-11
   29.5149994        -6.41856707E-11
   29.6299992        -6.41513093E-11
   29.7450008        -6.40239736E-11
   29.8600006        -6.37979669E-11
   29.9750004        -6.34673425E-11
   30.0900002        -6.30259456E-11
   30.2049999        -6.24674548E-11
   30.3199997        -6.17854795E-11
   30.4349995        -6.09735734E-11
   30.5499992        -6.00253805E-11
   30.6650009        -5.89345447E-11
   30.7800007        -5.76948975E-11
   30.8950005        -5.63004469E-11
   31.0100002        -5.47453992E-11
   31.1250000        -5.30242239E-11
   31.2399998        -5.11316475E-11
   31.3549995        -4.90626775E-11
   31.4699993        -4.68126406E-11
   31.5849991        -4.43771062E-11
   31.7000008        -4.17519734E-11
   31.8150005        -3.89334120E-11
   31.9300003        -3.59178451E-11
   32.0449982        -3.27019939E-11
   32.1599998        -2.92827984E-11
   32.2750015        -2.56573963E-11
   32.3899994        -2.18232203E-11
   32.5050011        -1.77779024E-11
   32.6199989        -1.35192231E-11
   32.7350006        -9.04515005E-12
   32.8499985        -4.35380031E-12
   32.9650002         5.56478474E-13
   33.0800018         5.68731694E-12
   33.1949997         1.10401306E-11
   33.3100014         1.66163420E-11
   33.4249992         2.24173163E-11
   33.5400009         2.84442799E-11
   33.6549988         3.46985357E-11
   33.7700005         4.11813639E-11
   33.8849983         4.78939943E-11
   34.0000000         5.48377593E-11
   34.1150017         6.20139773E-11
   34.2299995         6.94238764E-11
   34.3450012         7.70687680E-11
   34.4599991         8.49497694E-11
   34.5750008         9.30679700E-11
   34.6899986         1.01424119E-10
   34.8050003         1.10018820E-10
   34.9199982         1.18852206E-10
   35.0349998         1.27923880E-10
   35.1500015         1.37232989E-10
   35.2649994         1.46777937E-10
   35.3800011         1.56556462E-10
   35.4949989         1.66565359E-10
   35.6100006         1.76800644E-10
   35.7249985         1.87257446E-10
   35.8400002         1.97929950E-10
   35.9550018         2.08811482E-10
   36.0699997         2.19894575E-10
   36.1850014         2.31170999E-10
   36.2999992         2.42631915E-10
   36.4150009         2.54268051E-10
   36.5299988         2.66069916E-10
   36.6450005         2.78027823E-10
   36.7599983         2.90132113E-10
   36.8750000         3.02373376E-10
   36.9900017         3.14742704E-10
   37.1049995         3.27231575E-10
   37.2200012         3.39832329E-10
   37.3349991         3.52537888E-10
   37.4500008         3.65342034E-10
   37.5649986         3.78239273E-10
   37.6800003         3.91224941E-10
   37.7949982         4.04294903E-10
   37.9099998         4.17445439E-10
   38.0250015         4.30673219E-10
   38.1399994         4.43974940E-10
   38.2550011         4.57347299E-10
   38.3699989         4.70786521E-10
   38.4850006         4.84288276E-10
   38.5999985         4.97847374E-10
   38.7150002         5.11457765E-10
   38.8300018         5.25112231E-10
   38.9449997         5.38802447E-10
   39.0600014         5.52519031E-10
   39.1749992         5.66251046E-10
   39.2900009         5.79987058E-10
   39.4049988         5.93714466E-10
   39.5200005         6.07420336E-10
   39.6349983         6.21091067E-10
   39.7500000         6.34713559E-10
   39.8650017         6.48274601E-10
   39.9799995         6.61761868E-10
   40.0950012         6.75163925E-10
   40.2099991         6.88470725E-10
   40.3250008         7.01673941E-10
   40.4399986         7.14766635E-10
   40.5550003         7.27743754E-10
   40.6699982         7.40602191E-10
   40.7849998         7.53340668E-10
   40.9000015         7.65959240E-10
   41.0149994         7.78459519E-10
   41.1300011         7.90843890E-10
   41.2449989         8.03115630E-10
   41.3600006         8.15277845E-10
   41.4749985         8.27333813E-10
   41.5900002         8.39285474E-10
   41.7050018         8.51133941E-10
   41.8199997         8.62878657E-10
   41.9350014         8.74517070E-10
   42.0499992         8.86044349E-10
   42.1650009         8.97453556E-10
   42.2799988         9.08735365E-10
   42.3950005         9.19877896E-10
   42.5099983         9.30867272E-10
   42.6250000         9.41688172E-10
   42.7400017         9.52323220E-10
   42.8549995         9.62754543E-10
   42.9700012         9.72963710E-10
   43.0849991         9.82932291E-10
   43.2000008         9.92642524E-10
   43.3149986         1.00207731E-09
   43.4300003         1.01122155E-09
   43.5449982         1.02006115E-09
   43.6599998         1.02858477E-09
   43.7750015         1.03678222E-09
   43.8899994         1.04464559E-09
   44.0050011         1.05216857E-09
   44.1199989         1.05934594E-09
   44.2350006         1.06617348E-09
   44.3499985         1.07264686E-09
   44.4650002         1.07876130E-09
   44.5800018         1.08451148E-09
   44.6949997         1.08988951E-09
   44.8100014         1.09488552E-09
   44.9249992         1.09948650E-09
   45.0400009         1.10367582E-09
   45.1549988         1.10743315E-09
   45.2700005         1.11073406E-09
   45.3849983         1.11355014E-09
   45.5000000         1.11584875E-09
   45.6150017         1.11759380E-09
   45.7299995         1.11874587E-09
   45.8450012         1.11926302E-09
   45.9599991         1.11910092E-09
   46.0750008         1.11821408E-09
   46.1899986         1.11655640E-09
   46.3050003         1.11408149E-09
   46.4199982         1.11074372E-09
   46.5349998         1.10649889E-09
   46.6500015         1.10130394E-09
   46.7649994         1.09511789E-09
   46.8800011         1.08790155E-09
   46.9949989         1.07961751E-09
   47.1100006         1.07023024E-09
   47.2249985         1.05970499E-09
   47.3400002         1.04800835E-09
   47.4550018         1.03510645E-09
   47.5699997         1.02096520E-09
   47.6850014         1.00554942E-09
   47.7999992         9.88821802E-10
   47.9150009         9.70743486E-10
   48.0299988         9.51271839E-10
   48.1450005         9.30362343E-10
   48.2599983         9.07966036E-10
   48.3750000         8.84031737E-10
   48.4900017         8.58504989E-10
   48.6049995         8.31328451E-10
   48.7200012         8.02442723E-10
   48.8349991         7.71787079E-10
   48.9500008         7.39299844E-10
   49.0649986         7.04919678E-10
   49.1800003         6.68585076E-10
   49.2949982         6.30237307E-10
   49.4099998         5.89818361E-10
   49.5250015         5.47274115E-10
   49.6399994         5.02552389E-10
   49.7550011         4.55604471E-10
   49.8699989         4.06385536E-10
   49.9850006         3.54852647E-10
   50.0999985         3.00966252E-10
   50.2150002         2.44689380E-10
   50.3300018         1.85986448E-10
   50.4449997         1.24823152E-10
   50.5600014         6.11654338E-11
   50.6749992        -5.02059505E-12
   50.7900009        -7.37693240E-11
   50.9049988        -1.45115253E-10
   51.0200005        -2.19095020E-10
   51.1349983        -2.95744540E-10
   51.2500000        -3.75101505E-10
   51.3650017        -4.57202998E-10
   51.4799995        -5.42085654E-10
   51.5950012        -6.29782948E-10
   51.7099991        -7.20327353E-10
   51.8250008        -8.13746237E-10
   51.9399986        -9.10061360E-10
   52.0550003        -1.00928899E-09
   52.1699982        -1.11143605E-09
   52.2849998        -1.21650279E-09
   52.4000015        -1.32447853E-09
   52.5149994        -1.43534451E-09
   52.6300011        -1.54907009E-09
   52.7449989        -1.66561764E-09
   52.8600006        -1.78493831E-09
   52.9749985        -1.90697658E-09
   53.0900002        -2.03166950E-09
   53.2050018        -2.15894791E-09
   53.3199997        -2.28873898E-09
   53.4350014        -2.42096765E-09
   53.5499992        -2.55555710E-09
   53.6650009        -2.69242983E-09
   53.7799988        -2.83151147E-09
   53.8950005        -2.97272784E-09
   54.0099983        -3.11600767E-09
   54.1250000        -3.26128191E-09
   54.2400017        -3.40848483E-09
   54.3549995        -3.55755003E-09
   54.4700012        -3.70841113E-09
   54.5849991        -3.86100174E-09
   54.7000008        -4.01525124E-09
   54.8149986        -4.17108392E-09
   54.9300003        -4.32841585E-09
   55.0449982        -4.48715554E-09
   55.1599998        -4.64720085E-09
   55.2750015        -4.80843543E-09
   55.3899994        -4.97073227E-09
   55.5050011        -5.13395015E-09
   55.6199989        -5.29793454E-09
   55.7350006        -5.46251844E-09
   55.8499985        -5.62752200E-09
   55.9650002        -5.79275783E-09
   56.0800018        -5.95803051E-09
   56.1949997        -6.12314022E-09
   56.3100014        -6.28788355E-09
   56.4249992        -6.45205978E-09
   56.5400009        -6.61547173E-09
   56.6549988        -6.77792800E-09
   56.7700005        -6.93924695E-09
   56.8849983        -7.09925452E-09
   57.0000000        -7.25779303E-09
   57.1150017        -7.41471418E-09
   57.2299995        -7.56988161E-09
   57.3450012        -7.72317232E-09
   57.4599991        -7.87446996E-09
   57.5750008        -8.02366795E-09
   57.6899986        -8.17066681E-09
   57.8050003        -8.31536706E-09
   57.9199982        -8.45766746E-09
   58.0349998        -8.59746585E-09
   58.1500015        -8.73465122E-09
   58.2649994        -8.86910367E-09
   58.3800011        -9.00069175E-09
   58.4949989        -9.12927423E-09
   58.6100006        -9.25469301E-09
   58.7249985        -9.37677846E-09
   58.8400002        -9.49534762E-09
   58.9550018        -9.61020952E-09
   59.0699997        -9.72116165E-09
   59.1850014        -9.82800152E-09
   59.2999992        -9.93051774E-09
   59.4150009        -1.00285060E-08
   59.5299988        -1.01217683E-08
   59.6450005        -1.02101119E-08
   59.7599983        -1.02933591E-08
   59.8750000        -1.03713473E-08
   59.9900017        -1.04439311E-08
   60.1049995        -1.05109788E-08
   60.2200012        -1.05723847E-08
   60.3349991        -1.06280540E-08
   60.4500008        -1.06779110E-08
   60.5649986        -1.07218918E-08
   60.6800003        -1.07599458E-08
   60.7949982        -1.07920259E-08
   60.9099998        -1.08180878E-08
   61.0250015        -1.08380904E-08
   61.1399994        -1.08519806E-08
   61.2550011        -1.08597016E-08
   61.3699989        -1.08611822E-08
   61.4850006        -1.08563398E-08
   61.5999985        -1.08450715E-08
   61.7150002        -1.08272635E-08
   61.8300018        -1.08027818E-08
   61.9449997        -1.07714824E-08
   62.0600014        -1.07332081E-08
   62.1749992        -1.06877929E-08
   62.2900009        -1.06350679E-08
   62.4049988        -1.05748637E-08
   62.5200005        -1.05070175E-08
   62.6349983        -1.04313695E-08
   62.7500000        -1.03477795E-08
   62.8650017        -1.02561186E-08
   62.9799995        -1.01562803E-08
   63.0950012        -1.00481738E-08
   63.2099991        -9.93173010E-09
   63.3250008        -9.80690196E-09
   63.4399986        -9.67365654E-09
   63.5550003        -9.53197699E-09
   63.6699982        -9.38185707E-09
   63.7849998        -9.22329502E-09
   63.9000015        -9.05629083E-09
   64.0149994        -8.88084362E-09
   64.1299973        -8.69693917E-09
   64.2450027        -8.50455173E-09
   64.3600006        -8.30363511E-09
   64.4749985        -8.09412182E-09
   64.5899963        -7.87592569E-09
   64.7050018        -7.64893127E-09
   64.8199997        -7.41300532E-09
   64.9349976        -7.16798887E-09
   65.0500031        -6.91370428E-09
   65.1650009        -6.64996236E-09
   65.2799988        -6.37656150E-09
   65.3949966        -6.09329520E-09
   65.5100021        -5.79995918E-09
   65.6250000        -5.49635715E-09
   65.7399979        -5.18229992E-09
   65.8550034        -4.85761920E-09
   65.9700012        -4.52216131E-09
   66.0849991        -4.17579926E-09
   66.1999969        -3.81842602E-09
   66.3150024        -3.44995588E-09
   66.4300003        -3.07032888E-09
   66.5449982        -2.67949707E-09
   66.6600037        -2.27743113E-09
   66.7750015        -1.86410931E-09
   66.8899994        -1.43951739E-09
   67.0049973        -1.00363939E-09
   67.1200027        -5.56450885E-10
   67.2350006        -9.79221149E-11
   67.3499985         3.71993547E-10
   67.4649963         8.53353832E-10
   67.5800018         1.34623779E-09
   67.6949997         1.85074134E-09
   67.8099976         2.36697417E-09
   67.9250031         2.89505531E-09
   68.0400009         3.43511619E-09
   68.1549988         3.98728606E-09
   68.2699966         4.55169147E-09
   68.3850021         5.12844345E-09
   68.5000000         5.71764147E-09
   68.6149979         6.31935215E-09
   68.7300034         6.93361191E-09
   68.8450012         7.56042340E-09
   68.9599991         8.19974666E-09
   69.0749969         8.85148843E-09
   69.1900024         9.51552259E-09
   69.3050003         1.01916742E-08
   69.4199982         1.08797202E-08
   69.5350037         1.15794085E-08
   69.6500015         1.22904478E-08
   69.7649994         1.30125217E-08
   69.8799973         1.37452965E-08
   69.9950027         1.44884060E-08
   70.1100006         1.52415005E-08
   70.2249985         1.60042042E-08
   70.3399963         1.67761645E-08
   70.4550018         1.75570101E-08
   70.5699997         1.83463946E-08
   70.6849976         1.91439646E-08
   70.8000031         1.99493755E-08
   70.9150009         2.07622772E-08
   71.0299988         2.15823128E-08
   71.1449966         2.24091110E-08
   71.2600021         2.32422828E-08
   71.3750000         2.40813982E-08
   71.4899979         2.49259902E-08
   71.6050034         2.57755559E-08
   71.7200012         2.66295288E-08
   71.8349991         2.74872729E-08
   71.9499969         2.83480954E-08
   72.0650024         2.92112414E-08
   72.1800003         3.00758849E-08
   72.2949982         3.09411377E-08
   72.4100037         3.18060600E-08
   72.5250015         3.26696536E-08
   72.6399994         3.35308741E-08
   72.7549973         3.43886555E-08
   72.8700027         3.52419107E-08
   72.9850006         3.60895207E-08
   73.0999985         3.69303947E-08
   73.2149963         3.77634350E-08
   73.3300018         3.85875616E-08
   73.4449997         3.94017299E-08
   73.5599976         4.02049061E-08
   73.6750031         4.09961061E-08
   73.7900009         4.17743564E-08
   73.9049988         4.25387192E-08
   74.0199966         4.32882743E-08
   74.1350021         4.40221015E-08