  -18.8999996         0.00000000    
  -18.7849998         0.00000000    
  -18.6700001         0.00000000    
  -18.5550003         0.00000000    
  -18.4400005         0.00000000    
  -18.3250008         0.00000000    
  -18.2099991         0.00000000    
  -18.0949993         0.00000000    
  -17.9799995         0.00000000    
  -17.8649998         0.00000000    
  -17.7500000         0.00000000    
  -17.6350002         0.00000000    
  -17.5200005        -1.46449120E-33
  -17.4050007        -2.33790765E-33
  -17.2900009        -1.72219730E-33
  -17.1749992         1.27366517E-32
  -17.0599995         9.16536883E-32
  -16.9449997         2.99607602E-31
  -16.8299999         7.86466799E-31
  -16.7150002         1.83547500E-30
  -16.6000004         3.70800082E-30
  -16.4850006         6.46239774E-30
  -16.3700008         1.02802206E-29
  -16.2549992         1.45129083E-29
  -16.1399994         1.68952987E-29
  -16.0249996         1.27246011E-29
  -15.9099998        -6.43112470E-30
  -15.7950001        -5.24196663E-29
  -15.6800003        -1.39643752E-28
  -15.5649996        -2.80407937E-28
  -15.4499998        -4.76569728E-28
  -15.3350000        -7.06844119E-28
  -15.2200003        -9.10282218E-28
  -15.1049995        -9.70723388E-28
  -14.9899998        -7.07912625E-28
  -14.8750000         1.13605383E-28
  -14.7600002         1.74643135E-27
  -14.6450005         4.38251753E-27
  -14.5299997         8.03222411E-27
  -14.4150000         1.23699491E-26
  -14.3000002         1.65757749E-26
  -14.1850004         1.92258252E-26
  -14.0699997         1.83052061E-26
  -13.9549999         1.14277488E-26
  -13.8400002        -3.66435982E-27
  -13.7250004        -2.82906167E-26
  -13.6099997        -6.17612145E-26
  -13.4949999        -1.00208009E-25
  -13.3800001        -1.35612906E-25
  -13.2650003        -1.55449368E-25
  -13.1499996        -1.43418216E-25
  -13.0349998        -8.17185880E-26
  -12.9200001         4.48978582E-26
  -12.8050003         2.43410329E-25
  -12.6899996         5.05807752E-25
  -12.5749998         8.02656505E-25
  -12.4600000         1.07886688E-24
  -12.3450003         1.25397408E-24
  -12.2299995         1.22924596E-24
  -12.1149998         9.03315945E-25
  -12.0000000         1.96656133E-25
  -11.8850002        -9.16896186E-25
  -11.7700005        -2.37602854E-24
  -11.6549997        -4.00254692E-24
  -11.5400000        -5.48627477E-24
  -11.4250002        -6.39490606E-24
  -11.3100004        -6.21838857E-24
  -11.1949997        -4.45356078E-24
  -11.0799999        -7.27905031E-25
  -10.9650002         5.04849759E-24
  -10.8500004         1.25249954E-23
  -10.7349997         2.07799673E-23
  -10.6199999         2.82601026E-23
  -10.5050001         3.28342968E-23
  -10.3900003         3.20013101E-23
  -10.2749996         2.32736749E-23
  -10.1599998         4.73197307E-24
  -10.0450001        -2.42952261E-23
  -9.93000031        -6.25151883E-23
  -9.81499958        -1.06053059E-22
  -9.69999981        -1.48101138E-22
  -9.58500004        -1.79019790E-22
  -9.47000027        -1.87057146E-22
  -9.35499954        -1.59801346E-22
  -9.23999977        -8.63781424E-23
  -9.12500000         3.97290263E-23
  -9.01000023         2.17528761E-22
  -8.89500046         4.35507311E-22
  -8.77999973         6.69368597E-22
  -8.66499996         8.81244418E-22
  -8.55000019         1.02108994E-21
  -8.43500042         1.03084900E-21
  -8.31999969         8.51702196E-22
  -8.20499992         4.34269064E-22
  -8.09000015        -2.48915984E-22
  -7.97499990        -1.18998140E-21
  -7.86000013        -2.33330404E-21
  -7.74499989        -3.56658187E-21
  -7.63000011        -4.71814007E-21
  -7.51499987        -5.56313495E-21
  -7.40000010        -5.84077522E-21
  -7.28499985        -5.28355114E-21
  -7.17000008        -3.65793161E-21
  -7.05499983        -8.13872516E-22
  -6.94000006         3.26170886E-21
  -6.82499981         8.39458429E-21
  -6.71000004         1.41848663E-20
  -6.59499979         1.99904690E-20
  -6.48000002         2.49419673E-20
  -6.36499977         2.79965967E-20
  -6.25000000         2.80355614E-20
  -6.13500023         2.40037765E-20
  -6.01999998         1.50842169E-20
  -5.90500021         8.92058149E-22
  -5.78999996        -1.83339041E-20
  -5.67500019        -4.15709343E-20
  -5.55999994        -6.69152539E-20
  -5.44500017        -9.15804679E-20
  -5.32999992        -1.12019073E-19
  -5.21500015        -1.24184858E-19
  -5.09999990        -1.23939263E-19
  -4.98500013        -1.07584894E-19
  -4.86999989        -7.24876530E-20
  -4.75500011        -1.77261251E-20
  -4.63999987         5.53135417E-20
  -4.52500010         1.42492278E-19
  -4.40999985         2.36722341E-19
  -4.29500008         3.28112615E-19
  -4.17999983         4.04524665E-19
  -4.06500006         4.52570159E-19
  -3.95000005         4.59031525E-19
  -3.83500004         4.12624444E-19
  -3.72000003         3.05956686E-19
  -3.60500002         1.37477198E-19
  -3.49000001        -8.68430042E-20
  -3.37500000        -3.52380750E-19
  -3.25999999        -6.35564224E-19
  -3.14499998        -9.04652694E-19
  -3.02999997        -1.12175628E-18
  -2.91499996        -1.24614149E-18
  -2.79999995        -1.23871703E-18
  -2.68499994        -1.06742478E-18
  -2.56999993        -7.13081749E-19
  -2.45499992        -1.75062127E-19
  -2.33999991         5.23916916E-19
  -2.22499990         1.33469635E-18
  -2.10999990         2.18103643E-18
  -1.99500000         2.96208911E-18
  -1.88000000         3.55842057E-18
  -1.76499999         3.84170056E-18
  -1.64999998         3.68778582E-18
  -1.53499997         2.99248799E-18
  -1.41999996         1.68884194E-18
  -1.30499995        -2.35682652E-19
  -1.19000006        -2.72394009E-18
  -1.07500005        -5.63790672E-18
 -0.959999979        -8.75356852E-18
 -0.845000029        -1.17637110E-17
 -0.730000019        -1.42899653E-17
 -0.615000010        -1.59047145E-17
 -0.500000000        -1.61626509E-17
 -0.384999990        -1.46406485E-17
 -0.270000011        -1.09836044E-17
 -0.155000001        -4.95292093E-18
  -3.99999991E-02     3.52666055E-18
   7.50000030E-02     1.43266359E-17
  0.189999998         2.70857099E-17
  0.305000007         4.11968933E-17
  0.419999987         5.58146537E-17
  0.535000026         6.98848305E-17
  0.649999976         8.21983007E-17
  0.764999986         9.14672697E-17
  0.879999995         9.64209301E-17
  0.995000005         9.59147485E-17
   1.11000001         8.90458804E-17
   1.22500002         7.52652301E-17
   1.34000003         5.44758023E-17
   1.45500004         2.71068493E-17
   1.57000005        -5.84626690E-18
   1.68499994        -4.28245697E-17
   1.79999995        -8.17562156E-17
   1.91499996        -1.20157672E-16
   2.02999997        -1.55283533E-16
   2.14499998        -1.84318949E-16
   2.25999999        -2.04604369E-16
   2.37500000        -2.13878043E-16
   2.49000001        -2.10518644E-16
   2.60500002        -1.93768554E-16
   2.72000003        -1.63916929E-16
   2.83500004        -1.22423167E-16
   2.95000005        -7.19634891E-17
   3.06500006        -1.63871295E-17
   3.18000007         3.94248474E-17
   3.29500008         8.98007655E-17
   3.41000009         1.28612120E-16
   3.52500010         1.49687874E-16
   3.64000010         1.47287237E-16
   3.75500011         1.16605825E-16
   3.86999989         5.42832182E-17
   3.98499990        -4.11234794E-17
   4.09999990        -1.68733913E-16
   4.21500015        -3.25042858E-16
   4.32999992        -5.03750928E-16
   4.44500017        -6.95754345E-16
   4.55999994        -8.89309420E-16
   4.67500019        -1.07038103E-15
   4.78999996        -1.22317032E-15
   4.90500021        -1.33081338E-15
   5.01999998        -1.37622197E-15
   5.13500023        -1.34303914E-15
   5.25000000        -1.21666309E-15
   5.36499977        -9.85294771E-16
   5.48000002        -6.40956766E-16
   5.59499979        -1.80425509E-16
   5.71000004         3.93975405E-16
   5.82499981         1.07377202E-15
   5.94000006         1.84397527E-15
   6.05499983         2.68299190E-15
   6.17000008         3.56283911E-15
   6.28499985         4.44968091E-15
   6.40000010         5.30468613E-15
   6.51499987         6.08519989E-15
   6.63000011         6.74620323E-15
   6.74499989         7.24201481E-15
   6.86000013         7.52817727E-15
   6.97499990         7.56347144E-15
   7.09000015         7.31197380E-15
   7.20499992         6.74505888E-15
   7.32000017         5.84327034E-15
   7.43499994         4.59797266E-15
   7.55000019         3.01267512E-15
   7.66499996         1.10398314E-15
   7.78000021        -1.09793194E-15
   7.89499998        -3.54934270E-15
   8.01000023        -6.19351846E-15
   8.12500000        -8.96179493E-15
   8.23999977        -1.17751632E-14
   8.35499954        -1.45463052E-14
   8.47000027        -1.71820210E-14
   8.58500004        -1.95859208E-14
   8.69999981        -2.16613328E-14
   8.81499958        -2.33142329E-14
   8.93000031        -2.44561197E-14
   9.04500008        -2.50066657E-14
   9.15999985        -2.48961025E-14
   9.27499962        -2.40671469E-14
   9.39000034        -2.24764529E-14
   9.50500011        -2.00955297E-14
   9.61999989        -1.69110670E-14
   9.73499966        -1.29246979E-14
   9.85000038        -8.15221608E-15
   9.96500015        -2.62229563E-15
   10.0799999         3.62521716E-15
   10.1949997         1.05413589E-14
   10.3100004         1.80703637E-14
   10.4250002         2.61521558E-14
   10.5400000         3.47249559E-14
   10.6549997         4.37278896E-14
   10.7700005         5.31035990E-14
   10.8850002         6.28008455E-14
   11.0000000         7.27769218E-14
   11.1149998         8.30001215E-14
   11.2299995         9.34519660E-14
   11.3450003         1.04129460E-13
   11.4600000         1.15047200E-13
   11.5749998         1.26239365E-13
   11.6899996         1.37761520E-13
   11.8050003         1.49692230E-13
   11.9200001         1.62134466E-13
   12.0349998         1.75216436E-13
   12.1499996         1.89092109E-13
   12.2650003         2.03940827E-13
   12.3800001         2.19966501E-13
   12.4949999         2.37395498E-13
   12.6099997         2.56473743E-13
   12.7250004         2.77462623E-13
   12.8400002         3.00633975E-13
   12.9549999         3.26263485E-13
   13.0699997         3.54623530E-13
   13.1850004         3.85975160E-13
   13.3000002         4.20559095E-13
   13.4150000         4.58586728E-13
   13.5299997         5.00231204E-13
   13.6450005         5.45618834E-13
   13.7600002         5.94821610E-13
   13.8750000         6.47850914E-13
   13.9899998         7.04653458E-13
   14.1049995         7.65109438E-13
   14.2200003         8.29032914E-13
   14.3350000         8.96175549E-13
   14.4499998         9.66233387E-13
   14.5649996         1.03885715E-12
   14.6800003         1.11366363E-12
   14.7950001         1.19025341E-12
   14.9099998         1.26822587E-12
   15.0249996         1.34720132E-12
   15.1400003         1.42684020E-12
   15.2550001         1.50686386E-12
   15.3699999         1.58707411E-12
   15.4849997         1.66737229E-12
   15.6000004         1.74777402E-12
   15.7150002         1.82842240E-12
   15.8299999         1.90959423E-12
   15.9449997         1.99170476E-12
   16.0599995         2.07530195E-12
   16.1749992         2.16106234E-12
   16.2900009         2.24977285E-12
   16.4050007         2.34231298E-12
   16.5200005         2.43963075E-12
   16.6350002         2.54271105E-12
   16.7500000         2.65254637E-12
   16.8649998         2.77010229E-12
   16.9799995         2.89627957E-12
   17.0949993         3.03188572E-12
   17.2099991         3.17759838E-12
   17.3250008         3.33394120E-12
   17.4400005         3.50126091E-12
   17.5550003         3.67971062E-12
   17.6700001         3.86924433E-12
   17.7849998         4.06961487E-12
   17.8999996         4.28038291E-12
   18.0149994         4.50093435E-12
   18.1299992         4.73050765E-12
   18.2450008         4.96822201E-12
   18.3600006         5.21311900E-12
   18.4750004         5.46420331E-12
   18.5900002         5.72048875E-12
   18.7049999         5.98104725E-12
   18.8199997         6.24504788E-12
   18.9349995         6.51180282E-12
   19.0499992         6.78080465E-12
   19.1650009         7.05174938E-12
   19.2800007         7.32456630E-12
   19.3950005         7.59941936E-12
   19.5100002         7.87671491E-12
   19.6250000         8.15709132E-12
   19.7399998         8.44139168E-12
   19.8549995         8.73064294E-12
   19.9699993         9.02600650E-12
   20.0849991         9.32873744E-12
   20.2000008         9.64013157E-12
   20.3150005         9.96146481E-12
   20.4300003         1.02939419E-11
   20.5450001         1.06386341E-11
   20.6599998         1.09964260E-11
   20.7749996         1.13679708E-11
   20.8899994         1.17536458E-11
   21.0049992         1.21535204E-11
   21.1200008         1.25673343E-11
   21.2350006         1.29944874E-11
   21.3500004         1.34340377E-11
   21.4650002         1.38847111E-11
   21.5799999         1.43449263E-11
   21.6949997         1.48128228E-11
   21.8099995         1.52863035E-11
   21.9249992         1.57630749E-11
   22.0400009         1.62407084E-11
   22.1550007         1.67166801E-11
   22.2700005         1.71884312E-11
   22.3850002         1.76534256E-11
   22.5000000         1.81091860E-11
   22.6149998         1.85533481E-11
   22.7299995         1.89836879E-11
   22.8449993         1.93981567E-11
   22.9599991         1.97949001E-11
   23.0750008         2.01722562E-11
   23.1900005         2.05287766E-11
   23.3050003         2.08632001E-11
   23.4200001         2.11744407E-11
   23.5349998         2.14615686E-11
   23.6499996         2.17237651E-11
   23.7649994         2.19603051E-11
   23.8799992         2.21704946E-11
   23.9950008         2.23536502E-11
   24.1100006         2.25090259E-11
   24.2250004         2.26358082E-11
   24.3400002         2.27330325E-11
   24.4549999         2.27995851E-11
   24.5699997         2.28341356E-11
   24.6849995         2.28351314E-11
   24.7999992         2.28007630E-11
   24.9150009         2.27289593E-11
   25.0300007         2.26173611E-11
   25.1450005         2.24633385E-11
   25.2600002         2.22639823E-11
   25.3750000         2.20161389E-11
   25.4899998         2.17163978E-11
   25.6049995         2.13611594E-11
   25.7199993         2.09466316E-11
   25.8349991         2.04688974E-11
   25.9500008         1.99239410E-11
   26.0650005         1.93077030E-11
   26.1800003         1.86161364E-11
   26.2950001         1.78452478E-11
   26.4099998         1.69911602E-11
   26.5249996         1.60501560E-11
   26.6399994         1.50187293E-11
   26.7549992         1.38936397E-11
   26.8700008         1.26719364E-11
   26.9850006         1.13510017E-11
   27.1000004         9.92857706E-12
   27.2150002         8.40277153E-12
   27.3299999         6.77208593E-12
   27.4449997         5.03539354E-12
   27.5599995         3.19193717E-12
   27.6749992         1.24131304E-12
   27.7900009        -8.16562096E-13
   27.9050007        -2.98148572E-12
   28.0200005        -5.25303499E-12
   28.1350002        -7.63057065E-12
   28.2500000        -1.01133268E-11
   28.3649998        -1.27004388E-11
   28.4799995        -1.53909906E-11
   28.5949993        -1.81840827E-11
   28.7099991        -2.10788279E-11
   28.8250008        -2.40744282E-11
   28.9400005        -2.71701411E-11
   29.0550003        -3.03653248E-11
   29.1700001        -3.36594086E-11
   29.2849998        -3.70518893E-11
   29.3999996        -4.05422917E-11
   29.5149994        -4.41301024E-11
   29.6299992        -4.78147556E-11
   29.7450008        -5.15955403E-11
   29.8600006        -5.54715510E-11
   29.9750004        -5.94416044E-11
   30.0900002        -6.35041603E-11
   30.2049999        -6.76572826E-11
   30.3199997        -7.18985774E-11
   30.4349995        -7.62250679E-11
   30.5499992        -8.06332848E-11
   30.6650009        -8.51190993E-11
   30.7800007        -8.96778068E-11
   30.8950005        -9.43040923E-11
   31.0100002        -9.89920229E-11
   31.1250000        -1.03735132E-10
   31.2399998        -1.08526382E-10
   31.3549995        -1.13358267E-10
   31.4699993        -1.18222862E-10
   31.5849991        -1.23111854E-10
   31.7000008        -1.28016570E-10
   31.8150005        -1.32928141E-10
   31.9300003        -1.37837380E-10
   32.0449982        -1.42734935E-10
   32.1599998        -1.47611312E-10
   32.2750015        -1.52456769E-10
   32.3899994        -1.57261482E-10
   32.5050011        -1.62015401E-10
   32.6199989        -1.66708272E-10
   32.7350006        -1.71329603E-10
   32.8499985        -1.75868667E-10
   32.9650002        -1.80314416E-10
   33.0800018        -1.84655444E-10
   33.1949997        -1.88880009E-10
   33.3100014        -1.92975982E-10
   33.4249992        -1.96930833E-10
   33.5400009        -2.00731709E-10
   33.6549988        -2.04365400E-10
   33.7700005        -2.07818429E-10
   33.8849983        -2.11077156E-10
   34.0000000        -2.14127743E-10
   34.1150017        -2.16956383E-10
   34.2299995        -2.19549337E-10
   34.3450012        -2.21893129E-10
   34.4599991        -2.23974506E-10
   34.5750008        -2.25780755E-10
   34.6899986        -2.27299568E-10
   34.8050003        -2.28519328E-10
   34.9199982        -2.29428934E-10
   35.0349998        -2.30018046E-10
   35.1500015        -2.30276964E-10
   35.2649994        -2.30196542E-10
   35.3800011        -2.29768218E-10
   35.4949989        -2.28983874E-10
   35.6100006        -2.27835709E-10
   35.7249985        -2.26316160E-10
   35.8400002        -2.24417596E-10
   35.9550018        -2.22132257E-10
   36.0699997        -2.19452290E-10
   36.1850014        -2.16369256E-10
   36.2999992        -2.12874302E-10
   36.4150009        -2.08957976E-10
   36.5299988        -2.04610176E-10
   36.6450005        -1.99820244E-10
   36.7599983        -1.94576910E-10
   36.8750000        -1.88868449E-10
   36.9900017        -1.82682730E-10
   37.1049995        -1.76007542E-10
   37.2200012        -1.68830588E-10
   37.3349991        -1.61139990E-10
   37.4500008        -1.52924284E-10
   37.5649986        -1.44172674E-10
   37.6800003        -1.34875319E-10
   37.7949982        -1.25023700E-10
   37.9099998        -1.14610495E-10
   38.0250015        -1.03629716E-10
   38.1399994        -9.20771931E-11
   38.2550011        -7.99500605E-11
   38.3699989        -6.72470968E-11
   38.4850006        -5.39685345E-11
   38.5999985        -4.01157649E-11
   38.7150002        -2.56914212E-11
   38.8300018        -1.06990181E-11
   38.9449997         4.85728818E-12
   39.0600014         2.09730011E-11
   39.1749992         3.76434717E-11
   39.2900009         5.48640369E-11
   39.4049988         7.26304572E-11
   39.5200005         9.09388745E-11
   39.6349983         1.09786111E-10
   39.7500000         1.29169550E-10
   39.8650017         1.49087367E-10
   39.9799995         1.69538383E-10
   40.0950012         1.90521987E-10
   40.2099991         2.12037984E-10
   40.3250008         2.34086361E-10
   40.4399986         2.56667188E-10
   40.5550003         2.79780477E-10
   40.6699982         3.03425896E-10
   40.7849998         3.27602473E-10
   40.9000015         3.52308682E-10
   41.0149994         3.77542053E-10
   41.1300011         4.03299366E-10
   41.2449989         4.29576430E-10
   41.3600006         4.56368249E-10
   41.4749985         4.83668938E-10
   41.5900002         5.11472087E-10
   41.7050018         5.39770839E-10
   41.8199997         5.68557923E-10
   41.9350014         5.97826066E-10
   42.0499992         6.27568109E-10
   42.1650009         6.57777000E-10
   42.2799988         6.88446467E-10
   42.3950005         7.19570570E-10
   42.5099983         7.51143758E-10
   42.6250000         7.83161314E-10
   42.7400017         8.15618684E-10
   42.8549995         8.48511650E-10
   42.9700012         8.81836104E-10
   43.0849991         9.15587495E-10
   43.2000008         9.49761048E-10
   43.3149986         9.84350823E-10
   43.4300003         1.01935005E-09
   43.5449982         1.05475007E-09
   43.6599998         1.09054155E-09
   43.7750015         1.12671217E-09
   43.8899994         1.16324905E-09
   44.0050011         1.20013655E-09
   44.1199989         1.23735788E-09
   44.2350006         1.27489530E-09
   44.3499985         1.31272970E-09
   44.4650002         1.35084155E-09
   44.5800018         1.38921141E-09
   44.6949997         1.42782053E-09
   44.8100014         1.46665169E-09
   44.9249992         1.50568880E-09
   45.0400009         1.54491842E-09
   45.1549988         1.58432967E-09
   45.2700005         1.62391511E-09
   45.3849983         1.66366965E-09
   45.5000000         1.70359216E-09
   45.6150017         1.74368353E-09
   45.7299995         1.78394788E-09
   45.8450012         1.82439164E-09
   45.9599991         1.86502214E-09
   46.0750008         1.90584770E-09
   46.1899986         1.94687599E-09
   46.3050003         1.98811367E-09
   46.4199982         2.02956518E-09
   46.5349998         2.07123230E-09
   46.6500015         2.11311257E-09
   46.7649994         2.15519957E-09
   46.8800011         2.19748153E-09
   46.9949989         2.23994157E-09
   47.1100006         2.28255770E-09
   47.2249985         2.32530262E-09
   47.3400002         2.36814524E-09
   47.4550018         2.41104914E-09
   47.5699997         2.45397525E-09
   47.6850014         2.49688381E-09
   47.7999992         2.53973154E-09
   47.9150009         2.58247690E-09
   48.0299988         2.62507904E-09
   48.1450005         2.66749955E-09
   48.2599983         2.70970268E-09
   48.3750000         2.75165712E-09
   48.4900017         2.79333556E-09
   48.6049995         2.83471557E-09
   48.7200012         2.87577917E-09
   48.8349991         2.91651303E-09
   48.9500008         2.95690716E-09
   49.0649986         2.99695513E-09
   49.1800003         3.03665071E-09
   49.2949982         3.07599013E-09
   49.4099998         3.11496740E-09
   49.5250015         3.15357584E-09
   49.6399994         3.19180371E-09
   49.7550011         3.22963545E-09
   49.8699989         3.26704996E-09
   49.9850006         3.30401906E-09
   50.0999985         3.34050831E-09
   50.2150002         3.37647510E-09
   50.3300018         3.41186901E-09
   50.4449997         3.44663453E-09
   50.5600014         3.48070794E-09
   50.6749992         3.51402107E-09
   50.7900009         3.54650131E-09
   50.9049988         3.57807295E-09
   51.0200005         3.60865782E-09
   51.1349983         3.63817865E-09
   51.2500000         3.66655795E-09
   51.3650017         3.69371911E-09
   51.4799995         3.71958953E-09
   51.5950012         3.74409792E-09
   51.7099991         3.76717813E-09
   51.8250008         3.78876619E-09
   51.9399986         3.80879994E-09
   52.0550003         3.82721987E-09
   52.1699982         3.84396825E-09
   52.2849998         3.85898558E-09
   52.4000015         3.87221188E-09
   52.5149994         3.88358412E-09
   52.6300011         3.89303523E-09
   52.7449989         3.90049237E-09
   52.8600006         3.90587696E-09
   52.9749985         3.90910238E-09
   53.0900002         3.91007582E-09
   53.2050018         3.90869737E-09
   53.3199997         3.90485866E-09
   53.4350014         3.89844557E-09
   53.5499992         3.88933952E-09
   53.6650009         3.87741750E-09
   53.7799988         3.86255383E-09
   53.8950005         3.84462329E-09
   54.0099983         3.82349974E-09
   54.1250000         3.79906195E-09
   54.2400017         3.77119136E-09
   54.3549995         3.73977516E-09
   54.4700012         3.70470588E-09
   54.5849991         3.66588382E-09
   54.7000008         3.62321395E-09
   54.8149986         3.57660879E-09
   54.9300003         3.52598395E-09
   55.0449982         3.47125995E-09
   55.1599998         3.41235795E-09
   55.2750015         3.34919870E-09
   55.3899994         3.28170002E-09
   55.5050011         3.20977578E-09
   55.6199989         3.13333115E-09
   55.7350006         3.05226378E-09
   55.8499985         2.96645863E-09
   55.9650002         2.87579027E-09
   56.0800018         2.78011969E-09
   56.1949997         2.67929545E-09
   56.3100014         2.57315302E-09
   56.4249992         2.46151721E-09
   56.5400009         2.34420305E-09
   56.6549988         2.22101670E-09
   56.7700005         2.09176032E-09
   56.8849983         1.95623295E-09
   57.0000000         1.81423354E-09
   57.1150017         1.66556502E-09
   57.2299995         1.51003421E-09
   57.3450012         1.34745737E-09
   57.4599991         1.17765986E-09
   57.5750008         1.00047770E-09
   57.6899986         8.15759182E-10
   57.8050003         6.23363305E-10
   57.9199982         4.23160118E-10
   58.0349998         2.15028995E-10
   58.1500015        -1.14341869E-12
   58.2649994        -2.25464980E-10
   58.3800011        -4.58041605E-10
   58.4949989        -6.98978764E-10
   58.6100006        -9.48387369E-10
   58.7249985        -1.20638133E-09
   58.8400002        -1.47308643E-09
   58.9550018        -1.74863790E-09
   59.0699997        -2.03318118E-09
   59.1850014        -2.32687358E-09
   59.2999992        -2.62988742E-09
   59.4150009        -2.94240210E-09
   59.5299988        -3.26460947E-09
   59.6450005        -3.59670493E-09
   59.7599983        -3.93888833E-09
   59.8750000        -4.29135971E-09
   59.9900017        -4.65431693E-09
   60.1049995        -5.02794739E-09
   60.2200012        -5.41242873E-09
   60.3349991        -5.80792303E-09
   60.4500008        -6.21457419E-09
   60.5649986        -6.63251010E-09
   60.6800003        -7.06183156E-09
   60.7949982        -7.50262252E-09
   60.9099998        -7.95494159E-09
   61.0250015        -8.41882919E-09
   61.1399994        -8.89430396E-09
   61.2550011        -9.38136857E-09
   61.3699989        -9.88001325E-09
   61.4850006        -1.03902149E-08
   61.5999985        -1.09119451E-08
   61.7150002        -1.14451684E-08
   61.8300018        -1.19898473E-08
   61.9449997        -1.25459447E-08
   62.0600014        -1.31134277E-08
   62.1749992        -1.36922615E-08
   62.2900009        -1.42824099E-08
   62.4049988        -1.48838453E-08
   62.5200005        -1.54965303E-08
   62.6349983        -1.61204259E-08
   62.7500000        -1.67554823E-08
   62.8650017        -1.74016357E-08
   62.9799995        -1.80588096E-08
   63.0950012        -1.87268956E-08
   63.2099991        -1.94057606E-08
   63.3250008        -2.00952464E-08
   63.4399986        -2.07951469E-08
   63.5550003        -2.15052278E-08
   63.6699982        -2.22252137E-08
   63.7849998        -2.29547812E-08
   63.9000015        -2.36935751E-08
   64.0149994        -2.44411975E-08
   64.1299973        -2.51972185E-08
   64.2450027        -2.59611710E-08
   64.3600006        -2.67325593E-08
   64.4749985        -2.75108665E-08
   64.5899963        -2.82955579E-08
   64.7050018        -2.90860793E-08
   64.8199997        -2.98818712E-08
   64.9349976        -3.06823580E-08
   65.0500031        -3.14869695E-08
   65.1650009        -3.22951266E-08
   65.2799988        -3.31062466E-08
   65.3949966        -3.39197506E-08
   65.5100021        -3.47350380E-08
   65.6250000        -3.55515191E-08
   65.7399979        -3.63685686E-08
   65.8550034        -3.71855577E-08
   65.9700012        -3.80018257E-08
   66.0849991        -3.88166868E-08
   66.1999969        -3.96294091E-08
   66.3150024        -4.04392360E-08
   66.4300003        -4.12453467E-08
   66.5449982        -4.20468886E-08
   66.6600037        -4.28429452E-08
   66.7750015        -4.36325642E-08
   66.8899994        -4.44147297E-08
   67.0049973        -4.51883899E-08
   67.1200027        -4.59524472E-08
   67.2350006        -4.67057610E-08
   67.3499985        -4.74471697E-08
   67.4649963        -4.81754867E-08
   67.5800018        -4.88895040E-08
   67.6949997        -4.95880208E-08
   67.8099976        -5.02698256E-08
   67.9250031        -5.09337141E-08
   68.0400009        -5.15785032E-08
   68.1549988        -5.22030241E-08
   68.2699966        -5.28061257E-08
   68.3850021        -5.33866888E-08
   68.5000000        -5.39436051E-08
   68.6149979        -5.44757910E-08
   68.7300034        -5.49821912E-08
   68.8450012        -5.54617436E-08
   68.9599991        -5.59134214E-08
   69.0749969        -5.63361624E-08
   69.1900024        -5.67289362E-08
   69.3050003        -5.70906806E-08
   69.4199982        -5.74203263E-08
   69.5350037        -5.77167825E-08
   69.6500015        -5.79789301E-08
   69.7649994        -5.82056430E-08
   69.8799973        -5.83957629E-08
   69.9950027        -5.85481033E-08
   70.1100006        -5.86614846E-08
   70.2249985        -5.87346847E-08
   70.3399963        -5.87665028E-08
   70.4550018        -5.87557345E-08
   70.5699997        -5.87011861E-08
   70.6849976        -5.86016924E-08
   70.8000031        -5.84561164E-08
   70.9150009        -5.82633639E-08
   71.0299988        -5.80223798E-08
   71.1449966        -5.77321799E-08
   71.2600021        -5.73918122E-08
   71.3750000        -5.70004168E-08
   71.4899979        -5.65571625E-08
   71.6050034        -5.60612996E-08
   71.7200012        -5.55121211E-08
   71.8349991        -5.49089805E-08
   71.9499969        -5.42512701E-08
   72.0650024        -5.35384217E-08
   72.1800003        -5.27698916E-08
   72.2949982        -5.19451753E-08
   72.4100037        -5.10637719E-08
   72.5250015        -5.01251947E-08
   72.6399994        -4.91289640E-08
   72.7549973        -4.80746074E-08
   72.8700027        -4.69616523E-08
   72.9850006        -4.57896192E-08
   73.0999985        -4.45580532E-08
   73.2149963        -4.32665068E-08
   73.3300018        -4.19145465E-08
   73.4449997        -4.05017708E-08
   73.5599976        -3.90278139E-08
   73.6750031        -3.74923452E-08
   73.7900009        -3.58951091E-08
   73.9049988        -3.42358888E-08
   74.0199966        -3.25145528E-08
   74.1350021        -3.07310302E-08