  -18.8999996         0.00000000    
  -18.7849998         0.00000000    
  -18.6700001         0.00000000    
  -18.5550003         0.00000000    
  -18.4400005         0.00000000    
  -18.3250008         0.00000000    
  -18.2099991         0.00000000    
  -18.0949993         0.00000000    
  -17.9799995         0.00000000    
  -17.8649998         0.00000000    
  -17.7500000         0.00000000    
  -17.6350002         0.00000000    
  -17.5200005         2.71165627E-33
  -17.4050007         1.20709399E-32
  -17.2900009         2.24761117E-32
  -17.1749992         3.95268850E-32
  -17.0599995         1.51775834E-32
  -16.9449997        -1.41467407E-31
  -16.8299999        -5.50368148E-31
  -16.7150002        -1.37509884E-30
  -16.6000004        -2.97225082E-30
  -16.4850006        -5.43295922E-30
  -16.3700008        -8.32817473E-30
  -16.2549992        -9.69556768E-30
  -16.1399994        -5.08947338E-30
  -16.0249996         1.47233507E-29
  -15.9099998         6.35536178E-29
  -15.7950001         1.58827145E-28
  -15.6800003         3.17107856E-28
  -15.5649996         5.43826668E-28
  -15.4499998         8.17796462E-28
  -15.3350000         1.07027095E-27
  -15.2200003         1.16444950E-27
  -15.1049995         8.83911711E-28
  -14.9899998        -5.55753025E-29
  -14.8750000        -1.95420972E-27
  -14.7600002        -5.02128840E-27
  -14.6450005        -9.20835332E-27
  -14.5299997        -1.39960904E-26
  -14.4150000        -1.81777835E-26
  -14.3000002        -1.97168588E-26
  -14.1850004        -1.57875288E-26
  -14.0699997        -3.12412665E-27
  -13.9549999         2.12122987E-26
  -13.8400002         5.86045383E-26
  -13.7250004         1.07262342E-25
  -13.6099997         1.60466757E-25
  -13.4949999         2.05127834E-25
  -13.3800001         2.21296956E-25
  -13.2650003         1.83384473E-25
  -13.1499996         6.37830773E-26
  -13.0349998        -1.60677876E-25
  -12.9200001        -4.99574962E-25
  -12.8050003        -9.37975239E-25
  -12.6899996        -1.42569855E-24
  -12.5749998        -1.86968160E-24
  -12.4600000        -2.13309034E-24
  -12.3450003        -2.04496728E-24
  -12.2299995        -1.42341993E-24
  -12.1149998        -1.13463811E-25
  -12.0000000         1.96245184E-24
  -11.8850002         4.74725291E-24
  -11.7700005         7.99580499E-24
  -11.6549997         1.12395592E-23
  -11.5400000         1.37857182E-23
  -11.4250002         1.47666068E-23
  -11.3100004         1.32498955E-23
  -11.1949997         8.41079395E-24
  -11.0799999        -2.46651019E-25
  -10.9650002        -1.26489176E-23
  -10.8500004        -2.79395379E-23
  -10.7349997        -4.43524233E-23
  -10.6199999        -5.92355969E-23
  -10.5050001        -6.92801502E-23
  -10.3900003        -7.09830990E-23
  -10.2749996        -6.13298649E-23
  -10.1599998        -3.86243212E-23
  -10.0450001        -3.33014910E-24
  -9.93000031         4.12712777E-23
  -9.81499958         8.88367252E-23
  -9.69999981         1.30357207E-22
  -9.58500004         1.55361233E-22
  -9.47000027         1.53967536E-22
  -9.35499954         1.19643429E-22
  -9.23999977         5.22948200E-23
  -9.12500000        -3.89251202E-23
  -9.01000023        -1.33897552E-22
  -8.89500046        -2.01808580E-22
  -8.77999973        -2.04229878E-22
  -8.66499996        -1.01531851E-22
  -8.55000019         1.37388823E-22
  -8.43500042         5.22842013E-22
  -8.31999969         1.03120948E-21
  -8.20499992         1.59351993E-21
  -8.09000015         2.08900647E-21
  -7.97499990         2.34723747E-21
  -7.86000013         2.16205585E-21
  -7.74499989         1.31944910E-21
  -7.63000011        -3.60535737E-22
  -7.51499987        -2.97048919E-21
  -7.40000010        -6.45688624E-21
  -7.28499985        -1.05651854E-20
  -7.17000008        -1.48008429E-20
  -7.05499983        -1.84197823E-20
  -6.94000006        -2.04613400E-20
  -6.82499981        -1.98335680E-20
  -6.71000004        -1.54548180E-20
  -6.59499979        -6.44681103E-21
  -6.48000002         7.63638924E-21
  -6.36499977         2.65704323E-20
  -6.25000000         4.92513676E-20
  -6.13500023         7.35597695E-20
  -6.01999998         9.63452544E-20
  -5.90500021         1.13573023E-19
  -5.78999996         1.20660448E-19
  -5.67500019         1.13009053E-19
  -5.55999994         8.67080122E-20
  -5.44500017         3.93498994E-20
  -5.32999992        -2.91348812E-20
  -5.21500015        -1.15748624E-19
  -5.09999990        -2.13944604E-19
  -4.98500013        -3.13537254E-19
  -4.86999989        -4.01129063E-19
  -4.75500011        -4.61134580E-19
  -4.63999987        -4.77414011E-19
  -4.52500010        -4.35442195E-19
  -4.40999985        -3.24838660E-19
  -4.29500008        -1.41988732E-19
  -4.17999983         1.07600675E-19
  -4.06500006         4.07616899E-19
  -3.95000005         7.30343716E-19
  -3.83500004         1.03751486E-18
  -3.72000003         1.28286924E-18
  -3.60500002         1.41648631E-18
  -3.49000001         1.39074776E-18
  -3.37500000         1.16752025E-18
  -3.25999999         7.25883196E-19
  -3.14499998         6.94995794E-20
  -3.02999997        -7.67442611E-19
  -2.91499996        -1.71684666E-18
  -2.79999995        -2.67693989E-18
  -2.68499994        -3.51695318E-18
  -2.56999993        -4.08669740E-18
  -2.45499992        -4.23097258E-18
  -2.33999991        -3.80811951E-18
  -2.22499990        -2.71136425E-18
  -2.10999990        -8.90974022E-19
  -1.99500000         1.62528159E-18
  -1.88000000         4.71619797E-18
  -1.76499999         8.15861059E-18
  -1.64999998         1.16288889E-17
  -1.53499997         1.47164331E-17
  -1.41999996         1.69501550E-17
  -1.30499995         1.78376933E-17
  -1.19000006         1.69155871E-17
  -1.07500005         1.38070879E-17
 -0.959999979         8.28286305E-18
 -0.845000029         3.18599418E-19
 -0.730000019        -9.85726403E-18
 -0.615000010        -2.17325741E-17
 -0.500000000        -3.45037051E-17
 -0.384999990        -4.70961204E-17
 -0.270000011        -5.82164024E-17
 -0.155000001        -6.64362814E-17
  -3.99999991E-02    -7.03059713E-17
   7.50000030E-02    -6.84910246E-17
  0.189999998        -5.99235775E-17
  0.305000007        -4.39559972E-17
  0.419999987        -2.05032365E-17
  0.535000026         9.84114063E-18
  0.649999976         4.57297570E-17
  0.764999986         8.50399440E-17
  0.879999995         1.24915681E-16
  0.995000005         1.61878544E-16
   1.11000001         1.92007559E-16
   1.22500002         2.11182228E-16
   1.34000003         2.15376987E-16
   1.45500004         2.00988848E-16
   1.57000005         1.65177248E-16
   1.68499994         1.06189437E-16
   1.79999995         2.36458727E-17
   1.91499996        -8.12409284E-17
   2.02999997        -2.05536528E-16
   2.14499998        -3.44560827E-16
   2.25999999        -4.91981300E-16
   2.37500000        -6.40025242E-16
   2.49000001        -7.79804366E-16
   2.60500002        -9.01735288E-16
   2.72000003        -9.96033348E-16
   2.83500004        -1.05324841E-15
   2.95000005        -1.06480872E-15
   3.06500006        -1.02353661E-15
   3.18000007        -9.24101299E-16
   3.29500008        -7.63376903E-16
   3.41000009        -5.40682888E-16
   3.52500010        -2.57889028E-16
   3.64000010         8.06199276E-17
   3.75500011         4.68116835E-16
   3.86999989         8.95827445E-16
   3.98499990         1.35332635E-15
   4.09999990         1.82900523E-15
   4.21500015         2.31057840E-15
   4.32999992         2.78559490E-15
   4.44500017         3.24191993E-15
   4.55999994         3.66815749E-15
   4.67500019         4.05399413E-15
   4.78999996         4.39044366E-15
   4.90500021         4.66998444E-15
   5.01999998         4.88659575E-15
   5.13500023         5.03569007E-15
   5.25000000         5.11396438E-15
   5.36499977         5.11917660E-15
   5.48000002         5.04987491E-15
   5.59499979         4.90509919E-15
   5.71000004         4.68406552E-15
   5.82499981         4.38586841E-15
   5.94000006         4.00919752E-15
   6.05499983         3.55209894E-15
   6.17000008         3.01178594E-15
   6.28499985         2.38451570E-15
   6.40000010         1.66554100E-15
   6.51499987         8.49151271E-16
   6.63000011        -7.11830806E-17
   6.74499989        -1.10255727E-15
   6.86000013        -2.25225341E-15
   6.97499990        -3.52722625E-15
   7.09000015        -4.93346124E-15
   7.20499992        -6.47520435E-15
   7.32000017        -8.15407109E-15
   7.43499994        -9.96806838E-15
   7.55000019        -1.19105597E-14
   7.66499996        -1.39692055E-14
   7.78000021        -1.61249476E-14
   7.89499998        -1.83510840E-14
   8.01000023        -2.06124943E-14
   8.12500000        -2.28650378E-14
   8.23999977        -2.50552244E-14
   8.35499954        -2.71201705E-14
   8.47000027        -2.89878120E-14
   8.58500004        -3.05774422E-14
   8.69999981        -3.18004968E-14
   8.81499958        -3.25616202E-14
   8.93000031        -3.27598666E-14
   9.04500008        -3.22900852E-14
   9.15999985        -3.10443233E-14
   9.27499962        -2.89132867E-14
   9.39000034        -2.57877453E-14
   9.50500011        -2.15598633E-14
   9.61999989        -1.61244749E-14
   9.73499966        -9.38027749E-15
   9.85000038        -1.23097911E-15
   9.96500015         8.41349864E-15
   10.0799999         1.96358416E-14
   10.1949997         3.25099377E-14
   10.3100004         4.70993551E-14
   10.4250002         6.34555478E-14
   10.5400000         8.16158800E-14
   10.6549997         1.01601446E-13
   10.7700005         1.23414666E-13
   10.8850002         1.47036842E-13
   11.0000000         1.72425971E-13
   11.1149998         1.99514640E-13
   11.2299995         2.28208430E-13
   11.3450003         2.58385300E-13
   11.4600000         2.89895305E-13
   11.5749998         3.22562316E-13
   11.6899996         3.56185865E-13
   11.8050003         3.90545669E-13
   11.9200001         4.25406536E-13
   12.0349998         4.60525335E-13
   12.1499996         4.95658744E-13
   12.2650003         5.30572548E-13
   12.3800001         5.65051207E-13
   12.4949999         5.98907967E-13
   12.6099997         6.31994945E-13
   12.7250004         6.64212663E-13
   12.8400002         6.95518458E-13
   12.9549999         7.25933148E-13
   13.0699997         7.55545745E-13
   13.1850004         7.84516386E-13
   13.3000002         8.13075302E-13
   13.4150000         8.41519779E-13
   13.5299997         8.70207823E-13
   13.6450005         8.99548556E-13
   13.7600002         9.29990026E-13
   13.8750000         9.62004890E-13
   13.9899998         9.96073775E-13
   14.1049995         1.03266787E-12
   14.2200003         1.07222976E-12
   14.3350000         1.11515571E-12
   14.4499998         1.16177857E-12
   14.5649996         1.21235270E-12
   14.6800003         1.26704116E-12
   14.7950001         1.32590705E-12
   14.9099998         1.38890733E-12
   15.0249996         1.45589324E-12
   15.1400003         1.52661477E-12
   15.2550001         1.60072910E-12
   15.3699999         1.67781349E-12
   15.4849997         1.75738612E-12
   15.6000004         1.83892485E-12
   15.7150002         1.92189472E-12
   15.8299999         2.00577250E-12
   15.9449997         2.09007551E-12
   16.0599995         2.17438892E-12
   16.1749992         2.25839139E-12
   16.2900009         2.34187908E-12
   16.4050007         2.42478368E-12
   16.5200005         2.50718738E-12
   16.6350002         2.58933131E-12
   16.7500000         2.67161879E-12
   16.8649998         2.75461099E-12
   16.9799995         2.83901548E-12
   17.0949993         2.92566947E-12
   17.2099991         3.01551579E-12
   17.3250008         3.10957640E-12
   17.4400005         3.20891772E-12
   17.5550003         3.31461659E-12
   17.6700001         3.42772252E-12
   17.7849998         3.54922060E-12
   17.8999996         3.67999468E-12
   18.0149994         3.82079481E-12
   18.1299992         3.97220928E-12
   18.2450008         4.13463491E-12
   18.3600006         4.30826295E-12
   18.4750004         4.49306564E-12
   18.5900002         4.68879102E-12
   18.7049999         4.89496594E-12
   18.8199997         5.11090475E-12
   18.9349995         5.33572448E-12
   19.0499992         5.56837389E-12
   19.1650009         5.80765167E-12
   19.2800007         6.05224768E-12
   19.3950005         6.30077024E-12
   19.5100002         6.55178819E-12
   19.6250000         6.80386867E-12
   19.7399998         7.05561000E-12
   19.8549995         7.30567863E-12
   19.9699993         7.55283336E-12
   20.0849991         7.79595746E-12
   20.2000008         8.03407427E-12
   20.3150005         8.26635808E-12
   20.4300003         8.49214362E-12
   20.5450001         8.71091740E-12
   20.6599998         8.92230994E-12
   20.7749996         9.12608444E-12
   20.8899994         9.32210559E-12
   21.0049992         9.51031441E-12
   21.1200008         9.69069529E-12
   21.2350006         9.86324130E-12
   21.3500004         1.00279125E-11
   21.4650002         1.01846014E-11
   21.5799999         1.03330938E-11
   21.6949997         1.04730365E-11
   21.8099995         1.06039040E-11
   21.9249992         1.07249782E-11
   22.0400009         1.08353248E-11
   22.1550007         1.09337895E-11
   22.2700005         1.10189852E-11
   22.3850002         1.10893031E-11
   22.5000000         1.11429217E-11
   22.6149998         1.11778286E-11
   22.7299995         1.11918452E-11
   22.8449993         1.11826676E-11
   22.9599991         1.11479020E-11
   23.0750008         1.10851129E-11
   23.1900005         1.09918758E-11
   23.3050003         1.08658213E-11
   23.4200001         1.07046941E-11
   23.5349998         1.05064065E-11
   23.6499996         1.02690877E-11
   23.7649994         9.99113119E-12
   23.8799992         9.67123343E-12
   23.9950008         9.30843510E-12
   24.1100006         8.90213771E-12
   24.2250004         8.45212875E-12
   24.3400002         7.95858605E-12
   24.4549999         7.42206990E-12
   24.5699997         6.84351013E-12
   24.6849995         6.22417135E-12
   24.7999992         5.56561741E-12
   24.9150009         4.86966674E-12
   25.0300007         4.13831859E-12
   25.1450005         3.37370127E-12
   25.2600002         2.57799966E-12
   25.3750000         1.75337978E-12
   25.4899998         9.01922254E-13
   25.6049995         2.55540099E-14
   25.7199993        -8.74013047E-13
   25.8349991        -1.79532994E-12
   25.9500008        -2.73724056E-12
   26.0650005        -3.69890837E-12
   26.1800003        -4.67982901E-12
   26.2950001        -5.67979604E-12
   26.4099998        -6.69888190E-12
   26.5249996        -7.73738712E-12
   26.6399994        -8.79577400E-12
   26.7549992        -9.87457251E-12
   26.8700008        -1.09742944E-11
   26.9850006        -1.20953273E-11
   27.1000004        -1.32378232E-11
   27.2150002        -1.44015772E-11
   27.3299999        -1.55859076E-11
   27.4449997        -1.67895836E-11
   27.5599995        -1.80107179E-11
   27.6749992        -1.92466893E-11
   27.7900009        -2.04940648E-11
   27.9050007        -2.17485873E-11
   28.0200005        -2.30051794E-11
   28.1350002        -2.42579255E-11
   28.2500000        -2.55001263E-11
   28.3649998        -2.67243675E-11
   28.4799995        -2.79225879E-11
   28.5949993        -2.90862213E-11
   28.7099991        -3.02062646E-11
   28.8250008        -3.12734665E-11
   28.9400005        -3.22784230E-11
   29.0550003        -3.32117840E-11
   29.1700001        -3.40643000E-11
   29.2849998        -3.48270406E-11
   29.3999996        -3.54914639E-11
   29.5149994        -3.60495453E-11
   29.6299992        -3.64937906E-11
   29.7450008        -3.68173998E-11
   29.8600006        -3.70142077E-11
   29.9750004        -3.70787602E-11
   30.0900002        -3.70062626E-11
   30.2049999        -3.67925551E-11
   30.3199997        -3.64340641E-11
   30.4349995        -3.59277330E-11
   30.5499992        -3.52709702E-11
   30.6650009        -3.44614684E-11
   30.7800007        -3.34972571E-11
   30.8950005        -3.23765494E-11
   31.0100002        -3.10976869E-11
   31.1250000        -2.96591085E-11
   31.2399998        -2.80592563E-11
   31.3549995        -2.62966281E-11
   31.4699993        -2.43697094E-11
   31.5849991        -2.22770621E-11
   31.7000008        -2.00173073E-11
   31.8150005        -1.75892460E-11
   31.9300003        -1.49918186E-11
   32.0449982        -1.22243110E-11
   32.1599998        -9.28636421E-12
   32.2750015        -6.17803335E-12
   32.3899994        -2.89991317E-12
   32.5050011         5.46740821E-13
   32.6199989         4.16006856E-12
   32.7350006         7.93745451E-12
   32.8499985         1.18756151E-11
   32.9650002         1.59704854E-11
   33.0800018         2.02173122E-11
   33.1949997         2.46106989E-11
   33.3100014         2.91445791E-11
   33.4249992         3.38123037E-11
   33.5400009         3.86067393E-11
   33.6549988         4.35203436E-11
   33.7700005         4.85451020E-11
   33.8849983         5.36727676E-11
   34.0000000         5.88946877E-11
   34.1150017         6.42020326E-11
   34.2299995         6.95856914E-11
   34.3450012         7.50362827E-11
   34.4599991         8.05441824E-11
   34.5750008         8.60993082E-11
   34.6899986         9.16912241E-11
   34.8050003         9.73088068E-11
   34.9199982         1.02940427E-10
   35.0349998         1.08573622E-10
   35.1500015         1.14195028E-10
   35.2649994         1.19790414E-10
   35.3800011         1.25344471E-10
   35.4949989         1.30840852E-10
   35.6100006         1.36262238E-10
   35.7249985         1.41590281E-10
   35.8400002         1.46805790E-10
   35.9550018         1.51888752E-10
   36.0699997         1.56818711E-10
   36.1850014         1.61574656E-10
   36.2999992         1.66135578E-10
   36.4150009         1.70480532E-10
   36.5299988         1.74588941E-10
   36.6450005         1.78441026E-10
   36.7599983         1.82017915E-10
   36.8750000         1.85301996E-10
   36.9900017         1.88277074E-10
   37.1049995         1.90928606E-10
   37.2200012         1.93243907E-10
   37.3349991         1.95212096E-10
   37.4500008         1.96824196E-10
   37.5649986         1.98073058E-10
   37.6800003         1.98953326E-10
   37.7949982         1.99461211E-10
   37.9099998         1.99594480E-10
   38.0250015         1.99351993E-10
   38.1399994         1.98733557E-10
   38.2550011         1.97739589E-10
   38.3699989         1.96370864E-10
   38.4850006         1.94628369E-10
   38.5999985         1.92512867E-10
   38.7150002         1.90024621E-10
   38.8300018         1.87163410E-10
   38.9449997         1.83928400E-10
   39.0600014         1.80317788E-10
   39.1749992         1.76329132E-10
   39.2900009         1.71959155E-10
   39.4049988         1.67204112E-10
   39.5200005         1.62059616E-10
   39.6349983         1.56521074E-10
   39.7500000         1.50583920E-10
   39.8650017         1.44243964E-10
   39.9799995         1.37497805E-10
   40.0950012         1.30342945E-10
   40.2099991         1.22778482E-10
   40.3250008         1.14805082E-10
   40.4399986         1.06425709E-10
   40.5550003         9.76456763E-11
   40.6699982         8.84732149E-11
   40.7849998         7.89196070E-11
   40.9000015         6.89993201E-11
   41.0149994         5.87303539E-11
   41.1300011         4.81343854E-11
   41.2449989         3.72368386E-11
   41.3600006         2.60669559E-11
   41.4749985         1.46577334E-11
   41.5900002         3.04592441E-12
   41.7050018        -8.72814841E-12
   41.8199997        -2.06206753E-11
   41.9350014        -3.25845496E-11
   42.0499992        -4.45697368E-11
   42.1650009        -5.65235601E-11
   42.2799988        -6.83908555E-11
   42.3950005        -8.01145747E-11
   42.5099983        -9.16364831E-11
   42.6250000        -1.02897094E-10
   42.7400017        -1.13836829E-10
   42.8549995        -1.24396160E-10
   42.9700012        -1.34516481E-10
   43.0849991        -1.44140741E-10
   43.2000008        -1.53213969E-10
   43.3149986        -1.61684013E-10
   43.4300003        -1.69502204E-10
   43.5449982        -1.76623743E-10
   43.6599998        -1.83008636E-10
   43.7750015        -1.88621549E-10
   43.8899994        -1.93432687E-10
   44.0050011        -1.97417804E-10
   44.1199989        -2.00558112E-10
   44.2350006        -2.02840550E-10
   44.3499985        -2.04257625E-10
   44.4650002        -2.04806810E-10
   44.5800018        -2.04490258E-10
   44.6949997        -2.03314005E-10
   44.8100014        -2.01287570E-10
   44.9249992        -1.98422709E-10
   45.0400009        -1.94733174E-10
   45.1549988        -1.90233038E-10
   45.2700005        -1.84936497E-10
   45.3849983        -1.78856610E-10
   45.5000000        -1.72004744E-10
   45.6150017        -1.64389807E-10
   45.7299995        -1.56017865E-10
   45.8450012        -1.46891915E-10
   45.9599991        -1.37011846E-10
   46.0750008        -1.26374133E-10
   46.1899986        -1.14972656E-10
   46.3050003        -1.02799096E-10
   46.4199982        -8.98439170E-11
   46.5349998        -7.60968927E-11
   46.6500015        -6.15486481E-11
   46.7649994        -4.61918663E-11
   46.8800011        -3.00220578E-11
   46.9949989        -1.30393387E-11
   47.1100006         4.75022278E-12
   47.2249985         2.33341020E-11
   47.3400002         4.26914303E-11
   47.4550018         6.27932151E-11
   47.5699997         8.36008346E-11
   47.6850014         1.05066282E-10
   47.7999992         1.27131652E-10
   47.9150009         1.49729881E-10
   48.0299988         1.72784190E-10
   48.1450005         1.96210423E-10
   48.2599983         2.19916169E-10
   48.3750000         2.43803311E-10
   48.4900017         2.67768946E-10
   48.6049995         2.91706215E-10
   48.7200012         3.15506593E-10
   48.8349991         3.39060308E-10
   48.9500008         3.62259417E-10
   49.0649986         3.84997617E-10
   49.1800003         4.07171408E-10
   49.2949982         4.28681618E-10
   49.4099998         4.49433935E-10
   49.5250015         4.69339234E-10
   49.6399994         4.88314056E-10
   49.7550011         5.06279796E-10
   49.8699989         5.23163790E-10
   49.9850006         5.38897815E-10
   50.0999985         5.53418533E-10
   50.2150002         5.66665381E-10
   50.3300018         5.78581072E-10
   50.4449997         5.89110372E-10
   50.5600014         5.98198269E-10
   50.6749992         6.05790085E-10
   50.7900009         6.11830919E-10
   50.9049988         6.16264095E-10
   51.0200005         6.19031548E-10
   51.1349983         6.20073604E-10
   51.2500000         6.19328033E-10
   51.3650017         6.16729667E-10
   51.4799995         6.12212281E-10
   51.5950012         6.05706818E-10
   51.7099991         5.97144056E-10
   51.8250008         5.86452775E-10
   51.9399986         5.73561698E-10
   52.0550003         5.58400048E-10
   52.1699982         5.40897716E-10
   52.2849998         5.20986698E-10
   52.4000015         4.98600383E-10
   52.5149994         4.73675710E-10
   52.6300011         4.46152754E-10
   52.7449989         4.15975532E-10
   52.8600006         3.83092558E-10
   52.9749985         3.47456869E-10
   53.0900002         3.09027109E-10
   53.2050018         2.67767225E-10
   53.3199997         2.23647836E-10
   53.4350014         1.76646170E-10
   53.5499992         1.26747154E-10
   53.6650009         7.39432127E-11
   53.7799988         1.82365633E-11
   53.8950005        -4.03626403E-11
   54.0099983        -1.01832841E-10
   54.1250000        -1.66141836E-10
   54.2400017        -2.33245312E-10
   54.3549995        -3.03086778E-10
   54.4700012        -3.75596915E-10
   54.5849991        -4.50692761E-10
   54.7000008        -5.28278032E-10
   54.8149986        -6.08241735E-10
   54.9300003        -6.90459578E-10
   55.0449982        -7.74793840E-10
   55.1599998        -8.61094085E-10
   55.2750015        -9.49199053E-10
   55.3899994        -1.03893771E-09
   55.5050011        -1.13013021E-09
   55.6199989        -1.22259192E-09
   55.7350006        -1.31613409E-09
   55.8499985        -1.41056689E-09
   55.9650002        -1.50570145E-09
   56.0800018        -1.60135205E-09
   56.1949997        -1.69734060E-09
   56.3100014        -1.79349458E-09
   56.4249992        -1.88965354E-09
   56.5400009        -1.98566807E-09
   56.6549988        -2.08140238E-09
   56.7700005        -2.17673435E-09
   56.8849983        -2.27155694E-09
   57.0000000        -2.36577513E-09
   57.1150017        -2.45931009E-09
   57.2299995        -2.55209498E-09
   57.3450012        -2.64407207E-09
   57.4599991        -2.73519518E-09
   57.5750008        -2.82542367E-09
   57.6899986        -2.91472113E-09
   57.8050003        -3.00305292E-09
   57.9199982        -3.09038461E-09
   58.0349998        -3.17667892E-09
   58.1500015        -3.26189187E-09
   58.2649994        -3.34597217E-09
   58.3800011        -3.42886031E-09
   58.4949989        -3.51048457E-09
   58.6100006        -3.59076213E-09
   58.7249985        -3.66959818E-09
   58.8400002        -3.74688547E-09
   58.9550018        -3.82250365E-09
   59.0699997        -3.89632149E-09
   59.1850014        -3.96819777E-09
   59.2999992        -4.03798284E-09
   59.4150009        -4.10551859E-09
   59.5299988        -4.17064427E-09
   59.6450005        -4.23319380E-09
   59.7599983        -4.29300329E-09
   59.8750000        -4.34990755E-09
   59.9900017        -4.40374670E-09
   60.1049995        -4.45436310E-09
   60.2200012        -4.50160798E-09
   60.3349991        -4.54533744E-09
   60.4500008        -4.58541560E-09
   60.5649986        -4.62171679E-09
   60.6800003        -4.65412464E-09
   60.7949982        -4.68253036E-09
   60.9099998        -4.70683625E-09
   61.0250015        -4.72695172E-09
   61.1399994        -4.74279105E-09
   61.2550011        -4.75427919E-09
   61.3699989        -4.76134376E-09
   61.4850006        -4.76391593E-09
   61.5999985        -4.76193174E-09
   61.7150002        -4.75532858E-09
   61.8300018        -4.74404382E-09
   61.9449997        -4.72801176E-09
   62.0600014        -4.70716444E-09
   62.1749992        -4.68142991E-09
   62.2900009        -4.65073224E-09
   62.4049988        -4.61498528E-09
   62.5200005        -4.57409977E-09
   62.6349983        -4.52797178E-09
   62.7500000        -4.47648896E-09
   62.8650017        -4.41953141E-09
   62.9799995        -4.35696013E-09
   63.0950012        -4.28862412E-09
   63.2099991        -4.21435820E-09
   63.3250008        -4.13398293E-09
   63.4399986        -4.04730072E-09
   63.5550003        -3.95409616E-09
   63.6699982        -3.85414145E-09
   63.7849998        -3.74718834E-09
   63.9000015        -3.63297770E-09
   64.0149994        -3.51124019E-09
   64.1299973        -3.38168737E-09
   64.2450027        -3.24402571E-09
   64.3600006        -3.09795234E-09
   64.4749985        -2.94316083E-09
   64.5899963        -2.77934475E-09
   64.7050018        -2.60619593E-09
   64.8199997        -2.42340903E-09
   64.9349976        -2.23069363E-09
   65.0500031        -2.02776596E-09
   65.1650009        -1.81435689E-09
   65.2799988        -1.59021585E-09
   65.3949966        -1.35511091E-09
   65.5100021        -1.10883291E-09
   65.6250000        -8.51193727E-10
   65.7399979        -5.82026372E-10
   65.8550034        -3.01191211E-10
   65.9700012        -8.56388224E-12
   66.0849991         2.95953761E-10
   66.1999969         6.12451312E-10
   66.3150024         9.41000278E-10
   66.4300003         1.28165922E-09
   66.5449982         1.63448088E-09
   66.6600037         1.99950745E-09
   66.7750015         2.37678632E-09
   66.8899994         2.76636869E-09
   67.0049973         3.16830207E-09
   67.1200027         3.58264418E-09
   67.2350006         4.00946165E-09
   67.3499985         4.44882442E-09
   67.4649963         4.90081487E-09
   67.5800018         5.36551603E-09
   67.6949997         5.84302029E-09
   67.8099976         6.33341024E-09
   67.9250031         6.83676937E-09
   68.0400009         7.35316252E-09
   68.1549988         7.88264742E-09
   68.2699966         8.42525338E-09
   68.3850021         8.98098218E-09
   68.5000000         9.54979384E-09
   68.6149979         1.01316084E-08
   68.7300034         1.07263007E-08
   68.8450012         1.13336753E-08
   68.9599991         1.19534818E-08
   69.0749969         1.25854083E-08
   69.1900024         1.32290676E-08
   69.3050003         1.38840033E-08
   69.4199982         1.45496895E-08
   69.5350037         1.52255240E-08
   69.6500015         1.59108442E-08
   69.7649994         1.66049166E-08
   69.8799973         1.73069470E-08
   69.9950027         1.80160864E-08
   70.1100006         1.87314324E-08
   70.2249985         1.94520329E-08
   70.3399963         2.01768984E-08
   70.4550018         2.09050128E-08
   70.5699997         2.16353246E-08
   70.6849976         2.23667644E-08
   70.8000031         2.30982504E-08
   70.9150009         2.38286901E-08
   71.0299988         2.45569858E-08
   71.1449966         2.52820378E-08
   71.2600021         2.60027484E-08
   71.3750000         2.67180305E-08
   71.4899979         2.74268004E-08
   71.6050034         2.81279799E-08
   71.7200012         2.88205015E-08
   71.8349991         2.95033082E-08
   71.9499969         3.01753431E-08
   72.0650024         3.08355581E-08
   72.1800003         3.14829016E-08
   72.2949982         3.21163292E-08
   72.4100037         3.27347891E-08
   72.5250015         3.33372334E-08
   72.6399994         3.39226034E-08
   72.7549973         3.44898403E-08
   72.8700027         3.50378819E-08
   72.9850006         3.55656589E-08
   73.0999985         3.60720911E-08
   73.2149963         3.65560950E-08
   73.3300018         3.70165836E-08
   73.4449997         3.74524518E-08
   73.5599976         3.78625877E-08
   73.6750031         3.82458794E-08
   73.7900009         3.86011969E-08
   73.9049988         3.89274071E-08
   74.0199966         3.92233694E-08
   74.1350021         3.94879400E-08