  -18.8999996       0.00000000    
  -18.7849998       0.00000000    
  -18.6700001       0.00000000    
  -18.5550003       0.00000000    
  -18.4400005       0.00000000    
  -18.3250008       0.00000000    
  -18.2099991       0.00000000    
  -18.0949993       7.30426219E-37
  -17.9799995       9.97675504E-36
  -17.8649998       7.11079377E-35
  -17.7500000       3.50502523E-34
  -17.6350002       1.33454627E-33
  -17.5200005       4.15433295E-33
  -17.4050007       1.09185352E-32
  -17.2900009       2.46703409E-32
  -17.1749992       4.83200177E-32
  -17.0599995       8.20566880E-32
  -16.9449997       1.20025637E-31
  -16.8299999       1.50179419E-31
  -16.7150002       1.65988054E-31
  -16.6000004       2.02727049E-31
  -16.4850006       4.08352773E-31
  -16.3700008       1.14017742E-30
  -16.2549992       3.03415705E-30
  -16.1399994       6.92235571E-30
  -16.0249996       1.33960585E-29
  -15.9099998       2.17812385E-29
  -15.7950001       2.84044123E-29
  -15.6800003       2.43960134E-29
  -15.5649996      -5.99920256E-30
  -15.4499998      -8.45951547E-29
  -15.3350000      -2.32797504E-28
  -15.2200003      -4.55797851E-28
  -15.1049995      -7.14596565E-28
  -14.9899998      -8.86457983E-28
  -14.8750000      -7.21338090E-28
  -14.7600002       1.87781311E-28
  -14.6450005       2.39032770E-27
  -14.5299997       6.47877210E-27
  -14.4150000       1.28619056E-26
  -14.3000002       2.13829454E-26
  -14.1850004       3.07936292E-26
  -14.0699997       3.81625360E-26
  -13.9549999       3.83874816E-26
  -13.8400002       2.40809837E-26
  -13.7250004      -1.38260446E-26
  -13.6099997      -8.44068596E-26
  -13.4949999      -1.93738199E-25
  -13.3800001      -3.40587269E-25
  -13.2650003      -5.11230875E-25
  -13.1499996      -6.74417550E-25
  -13.0349998      -7.78097243E-25
  -12.9200001      -7.50028636E-25
  -12.8050003      -5.04523831E-25
  -12.6899996       4.28313816E-26
  -12.5749998       9.51830891E-25
  -12.4600000       2.22702021E-24
  -12.3450003       3.78383917E-24
  -12.2299995       5.41857670E-24
  -12.1149998       6.79182024E-24
  -12.0000000       7.43650656E-24
  -11.8850002       6.80099706E-24
  -11.7700005       4.33395961E-24
  -11.6549997      -3.89039993E-25
  -11.5400000      -7.50728631E-24
  -11.4250002      -1.67067929E-23
  -11.3100004      -2.70757920E-23
  -11.1949997      -3.70262153E-23
  -11.0799999      -4.43263562E-23
  -10.9650002      -4.62840597E-23
  -10.8500004      -4.01031862E-23
  -10.7349997      -2.34085481E-23
  -10.6199999       5.10186600E-24
  -10.5050001       4.49597389E-23
  -10.3900003       9.33050353E-23
  -10.2749996       1.44489101E-22
  -10.1599998       1.90059437E-22
  -10.0450001       2.19264835E-22
  -9.93000031       2.20169564E-22
  -9.81499958       1.81383798E-22
  -9.69999981       9.43105868E-23
  -9.58500004      -4.43130370E-23
  -9.47000027      -2.29921475E-22
  -9.35499954      -4.48110658E-22
  -9.23999977      -6.73605272E-22
  -9.12500000      -8.70681104E-22
  -9.01000023      -9.95441084E-22
  -8.89500046      -1.00016133E-21
  -8.77999973      -8.39682278E-22
  -8.66499996      -4.79496063E-22
  -8.55000019       9.51622032E-23
  -8.43500042       8.70274986E-22
  -8.31999969       1.79540279E-21
  -8.20499992       2.77901020E-21
  -8.09000015       3.68837896E-21
  -7.97499990       4.35557364E-21
  -7.86000013       4.59055634E-21
  -7.74499989       4.20187920E-21
  -7.63000011       3.02448978E-21
  -7.51499987       9.53027378E-22
  -7.40000010      -2.02230291E-21
  -7.28499985      -5.78150175E-21
  -7.17000008      -1.00476143E-20
  -7.05499983      -1.43728415E-20
  -6.94000006      -1.81443602E-20
  -6.82499981      -2.06155914E-20
  -6.71000004      -2.09670155E-20
  -6.59499979      -1.83975970E-20
  -6.48000002      -1.22439589E-20
  -6.36499977      -2.11932074E-21
  -6.25000000       1.19413627E-20
  -6.13500023       2.93488625E-20
  -6.01999998       4.88630742E-20
  -5.90500021       6.85578795E-20
  -5.78999996       8.58721979E-20
  -5.67500019       9.77672489E-20
  -5.55999994       1.01000646E-19
  -5.44500017       9.25141868E-20
  -5.32999992       6.99146108E-20
  -5.21500015       3.20066229E-20
  -5.09999990      -2.06827303E-20
  -4.98500013      -8.54655934E-20
  -4.86999989      -1.57229043E-19
  -4.75500011      -2.28433526E-19
  -4.63999987      -2.89450452E-19
  -4.52500010      -3.29289021E-19
  -4.40999985      -3.36720050E-19
  -4.29500008      -3.01752515E-19
  -4.17999983      -2.17354372E-19
  -4.06500006      -8.12481419E-20
  -3.95000005       1.02445737E-19
  -3.83500004       3.21983026E-19
  -3.72000003       5.57463846E-19
  -3.60500002       7.81249134E-19
  -3.49000001       9.59516172E-19
  -3.37500000       1.05503806E-18
  -3.25999999       1.03113057E-18
  -3.14499998       8.56546093E-19
  -3.02999997       5.10911259E-19
  -2.91499996      -9.84931629E-21
  -2.79999995      -6.88797432E-19
  -2.68499994      -1.48472882E-18
  -2.56999993      -2.33112028E-18
  -2.45499992      -3.13790221E-18
  -2.33999991      -3.79646371E-18
  -2.22499990      -4.18798277E-18
  -2.10999990      -4.19479212E-18
  -1.99500000      -3.71406370E-18
  -1.88000000      -2.67267474E-18
  -1.76499999      -1.04176988E-18
  -1.64999998       1.15072900E-18
  -1.53499997       3.81145553E-18
  -1.41999996       6.77847422E-18
  -1.30499995       9.82501143E-18
  -1.19000006       1.26708072E-17
  -1.07500005       1.50010792E-17
 -0.959999979       1.64922096E-17
 -0.845000029       1.68423469E-17
 -0.730000019       1.58042302E-17
 -0.615000010       1.32168755E-17
 -0.500000000       9.03233583E-18
 -0.384999990       3.33370413E-18
 -0.270000011      -3.65909258E-18
 -0.155000001      -1.15983080E-17
  -3.99999991E-02  -2.00335733E-17
   7.50000030E-02  -2.84530874E-17
  0.189999998      -3.63387822E-17
  0.305000007      -4.32316385E-17
  0.419999987      -4.88017172E-17
  0.535000026      -5.29160739E-17
  0.649999976      -5.56969558E-17
  0.764999986      -5.75626981E-17
  0.879999995      -5.92442306E-17
  0.995000005      -6.17716578E-17
   1.11000001      -6.64275861E-17
   1.22500002      -7.46664638E-17
   1.34000003      -8.80025079E-17
   1.45500004      -1.07871730E-16
   1.57000005      -1.35476819E-16
   1.68499994      -1.71625829E-16
   1.79999995      -2.16577404E-16
   1.91499996      -2.69905990E-16
   2.02999997      -3.30399574E-16
   2.14499998      -3.96001323E-16
   2.25999999      -4.63803055E-16
   2.37500000      -5.30095612E-16
   2.49000001      -5.90475879E-16
   2.60500002      -6.40006448E-16
   2.72000003      -6.73418986E-16
   2.83500004      -6.85349445E-16
   2.95000005      -6.70589155E-16
   3.06500006      -6.24335439E-16
   3.18000007      -5.42424494E-16
   3.29500008      -4.21532087E-16
   3.41000009      -2.59328322E-16
   3.52500010      -5.45792529E-17
   3.64000010       1.92808138E-16
   3.75500011       4.81796046E-16
   3.86999989       8.10272141E-16
   3.98499990       1.17514143E-15
   4.09999990       1.57243630E-15
   4.21500015       1.99742693E-15
   4.32999992       2.44471412E-15
   4.44500017       2.90828572E-15
   4.55999994       3.38152599E-15
   4.67500019       3.85716358E-15
   4.78999996       4.32716226E-15
   4.90500021       4.78254834E-15
   5.01999998       5.21319514E-15
   5.13500023       5.60757707E-15
   5.25000000       5.95251175E-15
   5.36499977       6.23292667E-15
   5.48000002       6.43167025E-15
   5.59499979       6.52940345E-15
   5.71000004       6.50459301E-15
   5.82499981       6.33364439E-15
   5.94000006       5.99118135E-15
   6.05499983       5.45049693E-15
   6.17000008       4.68418071E-15
   6.28499985       3.66493199E-15
   6.40000010       2.36654399E-15
   6.51499987       7.65059746E-16
   6.63000011      -1.15992395E-15
   6.74499989      -3.42382491E-15
   6.86000013      -6.03554470E-15
   6.97499990      -8.99587022E-15
   7.09000015      -1.22958504E-14
   7.20499992      -1.59151850E-14
   7.32000017      -1.98206862E-14
   7.43499994      -2.39648575E-14
   7.55000019      -2.82846476E-14
   7.66499996      -3.27004455E-14
   7.78000021      -3.71153744E-14
   7.89499998      -4.14149272E-14
   8.01000023      -4.54670345E-14
   8.12500000      -4.91225848E-14
   8.23999977      -5.22164133E-14
   8.35499954      -5.45688305E-14
   8.47000027      -5.59876445E-14
   8.58500004      -5.62707026E-14
   8.69999981      -5.52088824E-14
   8.81499958      -5.25894940E-14
   8.93000031      -4.81999796E-14
   9.04500008      -4.18319317E-14
   9.15999985      -3.32851185E-14
   9.27499962      -2.23716631E-14
   9.39000034      -8.92000571E-15
   9.50500011       7.22128368E-15
   9.61999989       2.61800520E-14
   9.73499966       4.80575290E-14
   9.85000038       7.29257963E-14
   9.96500015       1.00825876E-13
   10.0799999       1.31766410E-13
   10.1949997       1.65723094E-13
   10.3100004       2.02638701E-13
   10.4250002       2.42423947E-13
   10.5400000       2.84958933E-13
   10.6549997       3.30095434E-13
   10.7700005       3.77659872E-13
   10.8850002       4.27456871E-13
   11.0000000       4.79273413E-13
   11.1149998       5.32883850E-13
   11.2299995       5.88055375E-13
   11.3450003       6.44554017E-13
   11.4600000       7.02150903E-13
   11.5749998       7.60629407E-13
   11.6899996       8.19791934E-13
   11.8050003       8.79467181E-13
   11.9200001       9.39517344E-13
   12.0349998       9.99844630E-13
   12.1499996       1.06039786E-12
   12.2650003       1.12117780E-12
   12.3800001       1.18224170E-12
   12.4949999       1.24370664E-12
   12.6099997       1.30575075E-12
   12.7250004       1.36861323E-12
   12.8400002       1.43259265E-12
   12.9549999       1.49804182E-12
   13.0699997       1.56536199E-12
   13.1850004       1.63499379E-12
   13.3000002       1.70740733E-12
   13.4150000       1.78308876E-12
   13.5299997       1.86252706E-12
   13.6450005       1.94619884E-12
   13.7600002       2.03455286E-12
   13.8750000       2.12799418E-12
   13.9899998       2.22686951E-12
   14.1049995       2.33145382E-12
   14.2200003       2.44193858E-12
   14.3350000       2.55842266E-12
   14.4499998       2.68090758E-12
   14.5649996       2.80929533E-12
   14.6800003       2.94338946E-12
   14.7950001       3.08290394E-12
   14.9099998       3.22747298E-12
   15.0249996       3.37666613E-12
   15.1400003       3.53000853E-12
   15.2550001       3.68700253E-12
   15.3699999       3.84715306E-12
   15.4849997       4.00999459E-12
   15.6000004       4.17511989E-12
   15.7150002       4.34220498E-12
   15.8299999       4.51103608E-12
   15.9449997       4.68153207E-12
   16.0599995       4.85376236E-12
   16.1749992       5.02796069E-12
   16.2900009       5.20452995E-12
   16.4050007       5.38404824E-12
   16.5200005       5.56725673E-12
   16.6350002       5.75504878E-12
   16.7500000       5.94844963E-12
   16.8649998       6.14858685E-12
   16.9799995       6.35665912E-12
   17.0949993       6.57389594E-12
   17.2099991       6.80151595E-12
   17.3250008       7.04068314E-12
   17.4400005       7.29246351E-12
   17.5550003       7.55777819E-12
   17.6700001       7.83736617E-12
   17.7849998       8.13174268E-12
   17.8999996       8.44117484E-12
   18.0149994       8.76565227E-12
   18.1299992       9.10487484E-12
   18.2450008       9.45824408E-12
   18.3600006       9.82486661E-12
   18.4750004       1.02035646E-11
   18.5900002       1.05928955E-11
   18.7049999       1.09911828E-11
   18.8199997       1.13965504E-11
   18.9349995       1.18069617E-11
   19.0499992       1.22202673E-11
   19.1650009       1.26342522E-11
   19.2800007       1.30466853E-11
   19.3950005       1.34553627E-11
   19.5100002       1.38581559E-11
   19.6250000       1.42530449E-11
   19.7399998       1.46381570E-11
   19.8549995       1.50117800E-11
   19.9699993       1.53723839E-11
   20.0849991       1.57186208E-11
   20.2000008       1.60493216E-11
   20.3150005       1.63634661E-11
   20.4300003       1.66601732E-11
   20.5450001       1.69386501E-11
   20.6599998       1.71981457E-11
   20.7749996       1.74379157E-11
   20.8899994       1.76571518E-11
   21.0049992       1.78549259E-11
   21.1200008       1.80301434E-11
   21.2350006       1.81814737E-11
   21.3500004       1.83073053E-11
   21.4650002       1.84057110E-11
   21.5799999       1.84743974E-11
   21.6949997       1.85106999E-11
   21.8099995       1.85115603E-11
   21.9249992       1.84735300E-11
   22.0400009       1.83927890E-11
   22.1550007       1.82651758E-11
   22.2700005       1.80862252E-11
   22.3850002       1.78512240E-11
   22.5000000       1.75552715E-11
   22.6149998       1.71933578E-11
   22.7299995       1.67604351E-11
   22.8449993       1.62514932E-11
   22.9599991       1.56616577E-11
   23.0750008       1.49862553E-11
   23.1900005       1.42208944E-11
   23.3050003       1.33615332E-11
   23.4200001       1.24045375E-11
   23.5349998       1.13467300E-11
   23.6499996       1.01854280E-11
   23.7649994       8.91846146E-12
   23.8799992       7.54418316E-12
   23.9950008       6.06145689E-12
   24.1100006       4.46963256E-12
   24.2250004       2.76851654E-12
   24.3400002       9.58320229E-13
   24.4549999      -9.60409703E-13
   24.5699997      -2.98684710E-12
   24.6849995      -5.11997519E-12
   24.7999992      -7.35865882E-12
   24.9150009      -9.70172120E-12
   25.0300007      -1.21480291E-11
   25.1450005      -1.46965565E-11
   25.2600002      -1.73464559E-11
   25.3750000      -2.00971011E-11
   25.4899998      -2.29481243E-11
   25.6049995      -2.58994388E-11
   25.7199993      -2.89512216E-11
   25.8349991      -3.21039133E-11
   25.9500008      -3.53581608E-11
   26.0650005      -3.87147467E-11
   26.1800003      -4.21745312E-11
   26.2950001      -4.57383194E-11
   26.4099998      -4.94067461E-11
   26.5249996      -5.31801651E-11
   26.6399994      -5.70584691E-11
   26.7549992      -6.10409778E-11
   26.8700008      -6.51262724E-11
   26.9850006      -6.93120353E-11
   27.1000004      -7.35949288E-11
   27.2150002      -7.79704565E-11
   27.3299999      -8.24328869E-11
   27.4449997      -8.69751424E-11
   27.5599995      -9.15887435E-11
   27.6749992      -9.62637678E-11
   27.7900009      -1.00988863E-10
   27.9050007      -1.05751276E-10
   28.0200005      -1.10536899E-10
   28.1350002      -1.15330342E-10
   28.2500000      -1.20115098E-10
   28.3649998      -1.24873639E-10
   28.4799995      -1.29587577E-10
   28.5949993      -1.34237912E-10
   28.7099991      -1.38805051E-10
   28.8250008      -1.43269174E-10
   28.9400005      -1.47610271E-10
   29.0550003      -1.51808427E-10
   29.1700001      -1.55843907E-10
   29.2849998      -1.59697339E-10
   29.3999996      -1.63349806E-10
   29.5149994      -1.66782976E-10
   29.6299992      -1.69979170E-10
   29.7450008      -1.72921399E-10
   29.8600006      -1.75593304E-10
   29.9750004      -1.77979242E-10
   30.0900002      -1.80064200E-10
   30.2049999      -1.81833701E-10
   30.3199997      -1.83273799E-10
   30.4349995      -1.84370921E-10
   30.5499992      -1.85111829E-10
   30.6650009      -1.85483490E-10
   30.7800007      -1.85473026E-10
   30.8950005      -1.85067572E-10
   31.0100002      -1.84254279E-10
   31.1250000      -1.83020266E-10
   31.2399998      -1.81352627E-10
   31.3549995      -1.79238360E-10
   31.4699993      -1.76664502E-10
   31.5849991      -1.73618175E-10
   31.7000008      -1.70086584E-10
   31.8150005      -1.66057196E-10
   31.9300003      -1.61517910E-10
   32.0449982      -1.56457097E-10
   32.1599998      -1.50863891E-10
   32.2750015      -1.44728229E-10
   32.3899994      -1.38041023E-10
   32.5050011      -1.30794375E-10
   32.6199989      -1.22981639E-10
   32.7350006      -1.14597665E-10
   32.8499985      -1.05638734E-10
   32.9650002      -9.61028132E-11
   33.0800018      -8.59895280E-11
   33.1949997      -7.53000787E-11
   33.3100014      -6.40374698E-11
   33.4249992      -5.22063191E-11
   33.5400009      -3.98128613E-11
   33.6549988      -2.68650085E-11
   33.7700005      -1.33721471E-11
   33.8849983       6.54886518E-13
   34.0000000       1.52037601E-11
   34.1150017       3.02608251E-11
   34.2299995       4.58110806E-11
   34.3450012       6.18383469E-11
   34.4599991       7.83250964E-11
   34.5750008       9.52526183E-11
   34.6899986       1.12600998E-10
   34.8050003       1.30349009E-10
   34.9199982       1.48474205E-10
   35.0349998       1.66952910E-10
   35.1500015       1.85760032E-10
   35.2649994       2.04869233E-10
   35.3800011       2.24252755E-10
   35.4949989       2.43881471E-10
   35.6100006       2.63724875E-10
   35.7249985       2.83751245E-10
   35.8400002       3.03927494E-10
   35.9550018       3.24219485E-10
   36.0699997       3.44591938E-10
   36.1850014       3.65008579E-10
   36.2999992       3.85432603E-10
   36.4150009       4.05826428E-10
   36.5299988       4.26152197E-10
   36.6450005       4.46371773E-10
   36.7599983       4.66447159E-10
   36.8750000       4.86340468E-10
   36.9900017       5.06014064E-10
   37.1049995       5.25430865E-10
   37.2200012       5.44554624E-10
   37.3349991       5.63349367E-10
   37.4500008       5.81780069E-10
   37.5649986       5.99812477E-10
   37.6800003       6.17412788E-10
   37.7949982       6.34547914E-10
   37.9099998       6.51185106E-10
   38.0250015       6.67292055E-10
   38.1399994       6.82836454E-10
   38.2550011       6.97786218E-10
   38.3699989       7.12108872E-10
   38.4850006       7.25771665E-10
   38.5999985       7.38741568E-10
   38.7150002       7.50984774E-10
   38.8300018       7.62466812E-10
   38.9449997       7.73153042E-10
   39.0600014       7.83008103E-10
   39.1749992       7.91996135E-10
   39.2900009       8.00081279E-10
   39.4049988       8.07227285E-10
   39.5200005       8.13398793E-10
   39.6349983       8.18560775E-10
   39.7500000       8.22679647E-10
   39.8650017       8.25723157E-10
   39.9799995       8.27661495E-10
   40.0950012       8.28467572E-10
   40.2099991       8.28117519E-10
   40.3250008       8.26591351E-10
   40.4399986       8.23873747E-10
   40.5550003       8.19954216E-10
   40.6699982       8.14827816E-10
   40.7849998       8.08495770E-10
   40.9000015       8.00965794E-10
   41.0149994       7.92252042E-10
   41.1300011       7.82375886E-10
   41.2449989       7.71365916E-10
   41.3600006       7.59257435E-10
   41.4749985       7.46093520E-10
   41.5900002       7.31923966E-10
   41.7050018       7.16805615E-10
   41.8199997       7.00801472E-10
   41.9350014       6.83981094E-10
   42.0499992       6.66419309E-10
   42.1650009       6.48195719E-10
   42.2799988       6.29394259E-10
   42.3950005       6.10102191E-10
   42.5099983       5.90409832E-10
   42.6250000       5.70408887E-10
   42.7400017       5.50192114E-10
   42.8549995       5.29852329E-10
   42.9700012       5.09481457E-10
   43.0849991       4.89170093E-10
   43.2000008       4.69005890E-10
   43.3149986       4.49073362E-10
   43.4300003       4.29453667E-10
   43.5449982       4.10223161E-10
   43.6599998       3.91453508E-10
   43.7750015       3.73211101E-10
   43.8899994       3.55557139E-10
   44.0050011       3.38547329E-10
   44.1199989       3.22232296E-10
   44.2350006       3.06657116E-10
   44.3499985       2.91862617E-10
   44.4650002       2.77884854E-10
   44.5800018       2.64756161E-10
   44.6949997       2.52506016E-10
   44.8100014       2.41161313E-10
   44.9249992       2.30746977E-10
   45.0400009       2.21287363E-10
   45.1549988       2.12806051E-10
   45.2700005       2.05327297E-10
   45.3849983       1.98875874E-10
   45.5000000       1.93478289E-10
   45.6150017       1.89161978E-10
   45.7299995       1.85956611E-10
   45.8450012       1.83892762E-10
   45.9599991       1.83003127E-10
   46.0750008       1.83320470E-10
   46.1899986       1.84878501E-10
   46.3050003       1.87710167E-10
   46.4199982       1.91846580E-10
   46.5349998       1.97317329E-10
   46.6500015       2.04147671E-10
   46.7649994       2.12358409E-10
   46.8800011       2.21964558E-10
   46.9949989       2.32973890E-10
   47.1100006       2.45386850E-10
   47.2249985       2.59193556E-10
   47.3400002       2.74375883E-10
   47.4550018       2.90905078E-10
   47.5699997       3.08741893E-10
   47.6850014       3.27836119E-10
   47.7999992       3.48127305E-10
   47.9150009       3.69544562E-10
   48.0299988       3.92007593E-10
   48.1450005       4.15427720E-10
   48.2599983       4.39707271E-10
   48.3750000       4.64742467E-10
   48.4900017       4.90424312E-10
   48.6049995       5.16638343E-10
   48.7200012       5.43267320E-10
   48.8349991       5.70192060E-10
   48.9500008       5.97291661E-10
   49.0649986       6.24446106E-10
   49.1800003       6.51534993E-10
   49.2949982       6.78439471E-10
   49.4099998       7.05042524E-10
   49.5250015       7.31229077E-10
   49.6399994       7.56885332E-10
   49.7550011       7.81899157E-10
   49.8699989       8.06160527E-10
   49.9850006       8.29558588E-10
   50.0999985       8.51983262E-10
   50.2150002       8.73323081E-10
   50.3300018       8.93465524E-10
   50.4449997       9.12295073E-10
   50.5600014       9.29693322E-10
   50.6749992       9.45537981E-10
   50.7900009       9.59701763E-10
   50.9049988       9.72052661E-10
   51.0200005       9.82453563E-10
   51.1349983       9.90761695E-10
   51.2500000       9.96830507E-10
   51.3650017       1.00050690E-09
   51.4799995       1.00163511E-09
   51.5950012       1.00005515E-09
   51.7099991       9.95605265E-10
   51.8250008       9.88121696E-10
   51.9399986       9.77440906E-10
   52.0550003       9.63399915E-10
   52.1699982       9.45838741E-10
   52.2849998       9.24601562E-10
   52.4000015       8.99536723E-10
   52.5149994       8.70499339E-10
   52.6300011       8.37352132E-10
   52.7449989       7.99967037E-10
   52.8600006       7.58226038E-10
   52.9749985       7.12022774E-10
   53.0900002       6.61262212E-10
   53.2050018       6.05862305E-10
   53.3199997       5.45755219E-10
   53.4350014       4.80886664E-10
   53.5499992       4.11217838E-10
   53.6650009       3.36725814E-10
   53.7799988       2.57403099E-10
   53.8950005       1.73258047E-10
   54.0099983       8.43158182E-11
   54.1250000      -9.38177834E-12
   54.2400017      -1.07776114E-10
   54.3549995      -2.10791273E-10
   54.4700012      -3.18334442E-10
   54.5849991      -4.30296104E-10
   54.7000008      -5.46551360E-10
   54.8149986      -6.66957933E-10
   54.9300003      -7.91359478E-10
   55.0449982      -9.19585186E-10
   55.1599998      -1.05145126E-09
   55.2750015      -1.18676124E-09
   55.3899994      -1.32531053E-09
   55.5050011      -1.46688406E-09
   55.6199989      -1.61126168E-09
   55.7350006      -1.75821857E-09
   55.8499985      -1.90752636E-09
   55.9650002      -2.05895812E-09
   56.0800018      -2.21228835E-09
   56.1949997      -2.36729658E-09
   56.3100014      -2.52376897E-09
   56.4249992      -2.68149902E-09
   56.5400009      -2.84029178E-09
   56.6549988      -2.99996095E-09
   56.7700005      -3.16033599E-09
   56.8849983      -3.32125949E-09
   57.0000000      -3.48258555E-09
   57.1150017      -3.64418296E-09
   57.2299995      -3.80593690E-09
   57.3450012      -3.96774036E-09
   57.4599991      -4.12950119E-09
   57.5750008      -4.29113722E-09
   57.6899986      -4.45257564E-09
   57.8050003      -4.61374672E-09
   57.9199982      -4.77458917E-09
   58.0349998      -4.93504437E-09
   58.1500015      -5.09505149E-09
   58.2649994      -5.25455279E-09
   58.3800011      -5.41348388E-09
   58.4949989      -5.57177771E-09
   58.6100006      -5.72936010E-09
   58.7249985      -5.88615023E-09
   58.8400002      -6.04205841E-09
   58.9550018      -6.19698559E-09
   59.0699997      -6.35082698E-09
   59.1850014      -6.50346532E-09
   59.2999992      -6.65477540E-09
   59.4150009      -6.80462664E-09
   59.5299988      -6.95288183E-09
   59.6450005      -7.09939751E-09
   59.7599983      -7.24402760E-09
   59.8750000      -7.38662420E-09
   59.9900017      -7.52703855E-09
   60.1049995      -7.66512009E-09
   60.2200012      -7.80072806E-09
   60.3349991      -7.93372035E-09
   60.4500008      -8.06395661E-09
   60.5649986      -8.19130808E-09
   60.6800003      -8.31565039E-09
   60.7949982      -8.43686632E-09
   60.9099998      -8.55484750E-09
   61.0250015      -8.66949357E-09
   61.1399994      -8.78071305E-09
   61.2550011      -8.88842067E-09
   61.3699989      -8.99253649E-09
   61.4850006      -9.09298592E-09
   61.5999985      -9.18970589E-09
   61.7150002      -9.28263066E-09
   61.8300018      -9.37169631E-09
   61.9449997      -9.45684064E-09
   62.0600014      -9.53800061E-09
   62.1749992      -9.61511137E-09
   62.2900009      -9.68810365E-09
   62.4049988      -9.75689840E-09
   62.5200005      -9.82140858E-09
   62.6349983      -9.88154092E-09
   62.7500000      -9.93719151E-09
   62.8650017      -9.98824135E-09
   62.9799995      -1.00345563E-08
   63.0950012      -1.00759969E-08
   63.2099991      -1.01123989E-08
   63.3250008      -1.01435909E-08
   63.4399986      -1.01693773E-08
   63.5550003      -1.01895505E-08
   63.6699982      -1.02038893E-08
   63.7849998      -1.02121493E-08
   63.9000015      -1.02140767E-08
   64.0149994      -1.02094004E-08
   64.1299973      -1.01978390E-08
   64.2450027      -1.01790967E-08
   64.3600006      -1.01528679E-08
   64.4749985      -1.01188462E-08
   64.5899963      -1.00767084E-08
   64.7050018      -1.00261355E-08
   64.8199997      -9.96680249E-09
   64.9349976      -9.89839322E-09
   65.0500031      -9.82058879E-09
   65.1650009      -9.73306769E-09
   65.2799988      -9.63552171E-09
   65.3949966      -9.52764356E-09
   65.5100021      -9.40913480E-09
   65.6250000      -9.27970234E-09
   65.7399979      -9.13906018E-09
   65.8550034      -8.98692853E-09
   65.9700012      -8.82303208E-09
   66.0849991      -8.64709992E-09
   66.1999969      -8.45886561E-09
   66.3150024      -8.25805913E-09
   66.4300003      -8.04440958E-09
   66.5449982      -7.81763720E-09
   66.6600037      -7.57746133E-09
   66.7750015      -7.32358751E-09
   66.8899994      -7.05571113E-09
   67.0049973      -6.77351153E-09
   67.1200027      -6.47665654E-09
   67.2350006      -6.16479534E-09
   67.3499985      -5.83756865E-09
   67.4649963      -5.49460522E-09
   67.5800018      -5.13552001E-09
   67.6949997      -4.75993023E-09
   67.8099976      -4.36744108E-09
   67.9250031      -3.95765953E-09
   68.0400009      -3.53020591E-09
   68.1549988      -3.08471071E-09
   68.2699966      -2.62081756E-09
   68.3850021      -2.13820317E-09
   68.5000000      -1.63656710E-09
   68.6149979      -1.11565712E-09
   68.7300034      -5.75257675E-10
   68.8450012      -1.52104232E-11
   68.9599991       5.64585489E-10
   69.0749969       1.16417176E-09
   69.1900024       1.78352355E-09
   69.3050003       2.42254861E-09
   69.4199982       3.08108206E-09
   69.5350037       3.75888920E-09
   69.6500015       4.45566073E-09
   69.7649994       5.17102094E-09
   69.8799973       5.90452753E-09
   69.9950027       6.65567468E-09
   70.1100006       7.42389572E-09
   70.2249985       8.20857071E-09
   70.3399963       9.00902997E-09
   70.4550018       9.82456694E-09
   70.5699997       1.06544276E-08
   70.6849976       1.14978267E-08
   70.8000031       1.23539552E-08
   70.9150009       1.32219773E-08
   71.0299988       1.41010394E-08
   71.1449966       1.49902828E-08
   71.2600021       1.58888209E-08
   71.3750000       1.67957754E-08
   71.4899979       1.77102475E-08
   71.6050034       1.86313454E-08
   71.7200012       1.95581666E-08
   71.8349991       2.04898019E-08
   71.9499969       2.14253308E-08
   72.0650024       2.23638388E-08
   72.1800003       2.33043895E-08
   72.2949982       2.42460452E-08
   72.4100037       2.51878554E-08
   72.5250015       2.61288537E-08
   72.6399994       2.70680527E-08
   72.7549973       2.80044610E-08
   72.8700027       2.89370643E-08
   72.9850006       2.98648288E-08
   73.0999985       3.07867047E-08
   73.2149963       3.17016173E-08
   73.3300018       3.26085008E-08
   73.4449997       3.35062467E-08
   73.5599976       3.43937501E-08
   73.6750031       3.52698919E-08
   73.7900009       3.61335353E-08
   73.9049988       3.69835611E-08
   74.0199966       3.78188183E-08
   74.1350021       3.86381735E-08
   74.2500000       3.94404829E-08
   74.3649979       4.02245881E-08
   74.4800034       4.09893772E-08
   74.5950012       4.17337063E-08
   74.7099991       4.24564526E-08
   74.8249969       4.31565041E-08
   74.9400024       4.38327667E-08
   75.0550003       4.44841532E-08
   75.1699982       4.51096085E-08
   75.2850037       4.57080915E-08
   75.4000015       4.62785827E-08
   75.5149994       4.68201051E-08
   75.6299973       4.73316994E-08
   75.7450027       4.78124491E-08
   75.8600006       4.82614730E-08
   75.9749985       4.86779292E-08
   76.0899963       4.90610184E-08
   76.2050018       4.94100014E-08
   76.3199997       4.97241714E-08
   76.4349976       5.00028818E-08
   76.5500031       5.02455357E-08
   76.6650009       5.04515931E-08
   76.7799988       5.06205318E-08
   76.8949966       5.07519005E-08
   77.0100021       5.08452942E-08
   77.1250000       5.09003364E-08
   77.2399979       5.09166895E-08
   77.3550034       5.08940445E-08
   77.4700012       5.08321101E-08
   77.5849991       5.07306197E-08
   77.6999969       5.05893070E-08
   77.8150024       5.04079161E-08
   77.9300003       5.01861877E-08
   78.0449982       4.99238411E-08
   78.1600037       4.96205921E-08
   78.2750015       4.92761174E-08
   78.3899994       4.88900866E-08
   78.5049973       4.84621445E-08
   78.6200027       4.79918860E-08
   78.7350006       4.74789132E-08
   78.8499985       4.69227857E-08
   78.9649963       4.63230556E-08
   79.0800018       4.56792577E-08
   79.1949997       4.49909230E-08
   79.3099976       4.42575647E-08
   79.4250031       4.34787246E-08
   79.5400009       4.26539373E-08