  -18.8999996      -0.00000000    
  -18.7849998      -0.00000000    
  -18.6700001      -0.00000000    
  -18.5550003      -0.00000000    
  -18.4400005      -0.00000000    
  -18.3250008      -0.00000000    
  -18.2099991      -0.00000000    
  -18.0949993      -0.00000000    
  -17.9799995       2.65985336E-36
  -17.8649998       4.98933928E-35
  -17.7500000       5.03061624E-34
  -17.6350002       3.56277864E-33
  -17.5200005       1.96904326E-32
  -17.4050007       8.97487527E-32
  -17.2900009       3.48993012E-31
  -17.1749992       1.18441842E-30
  -17.0599995       3.56514309E-30
  -16.9449997       9.62781257E-30
  -16.8299999       2.35124825E-29
  -16.7150002       5.21698010E-29
  -16.6000004       1.05287400E-28
  -16.4850006       1.92563130E-28
  -16.3700008       3.15414506E-28
  -16.2549992       4.49316037E-28
  -16.1399994       5.13193886E-28
  -16.0249996       3.25003134E-28
  -15.9099998      -4.50731596E-28
  -15.7950001      -2.34592423E-27
  -15.6800003      -6.08841537E-27
  -15.5649996      -1.25050932E-26
  -15.4499998      -2.22610307E-26
  -15.3350000      -3.53665788E-26
  -15.2200003      -5.04125167E-26
  -15.1049995      -6.35651668E-26
  -14.9899998      -6.74809861E-26
  -14.8750000      -5.04829348E-26
  -14.7600002       3.44174004E-27
  -14.6450005       1.13065782E-25
  -14.5299997       2.95925416E-25
  -14.4150000       5.61212461E-25
  -14.3000002       8.99390672E-25
  -14.1850004       1.26938468E-24
  -14.0699997       1.58569266E-24
  -13.9549999       1.70961502E-24
  -13.8400002       1.45055250E-24
  -13.7250004       5.84352068E-25
  -13.6099997      -1.10491891E-24
  -13.4949999      -3.75649371E-24
  -13.3800001      -7.34069782E-24
  -13.2650003      -1.15553237E-23
  -13.1499996      -1.57341652E-23
  -13.0349998      -1.88021415E-23
  -12.9200001      -1.93179556E-23
  -12.8050003      -1.56430991E-23
  -12.6899996      -6.26089042E-24
  -12.5749998       9.76140665E-24
  -12.4600000       3.22193040E-23
  -12.3450003       5.92321323E-23
  -12.2299995       8.68745063E-23
  -12.1149998       1.09165728E-22
  -12.0000000       1.18598712E-22
  -11.8850002       1.07330231E-22
  -11.7700005       6.90329212E-23
  -11.6549997       1.23081500E-24
  -11.5400000      -9.22711731E-23
  -11.4250002      -1.99457384E-22
  -11.3100004      -2.99402375E-22
  -11.1949997      -3.63543001E-22
  -11.0799999      -3.59486388E-22
  -10.9650002      -2.57530294E-22
  -10.8500004      -3.94788059E-23
  -10.7349997       2.91391032E-22
  -10.6199999       7.01100597E-22
  -10.5050001       1.11895797E-21
  -10.3900003       1.43748612E-21
  -10.2749996       1.52073642E-21
  -10.1599998       1.22250862E-21
  -10.0450001       4.14423318E-22
  -9.93000031      -9.78332925E-22
  -9.81499958      -2.93816311E-21
  -9.69999981      -5.31992931E-21
  -9.58500004      -7.82796880E-21
  -9.47000027      -1.00141474E-20
  -9.35499954      -1.13046622E-20
  -9.23999977      -1.10603475E-20
  -9.12500000      -8.67037147E-21
  -9.01000023      -3.67300948E-21
  -8.89500046       4.10981900E-21
  -8.77999973       1.44440453E-20
  -8.66499996       2.65856802E-20
  -8.55000019       3.92402980E-20
  -8.43500042       5.06038952E-20
  -8.31999969       5.85021808E-20
  -8.20499992       6.06329722E-20
  -8.09000015       5.49002551E-20
  -7.97499990       3.98093239E-20
  -7.86000013       1.48740160E-20
  -7.74499989      -1.90289604E-20
  -7.63000011      -5.94321515E-20
  -7.51499987      -1.02248655E-19
  -7.40000010      -1.42001967E-19
  -7.28499985      -1.72347100E-19
  -7.17000008      -1.86877019E-19
  -7.05499983      -1.80160687E-19
  -6.94000006      -1.48907451E-19
  -6.82499981      -9.31064545E-20
  -6.71000004      -1.69548810E-20
  -6.59499979       7.06231879E-20
  -6.48000002       1.56049135E-19
  -6.36499977       2.21886288E-19
  -6.25000000       2.48411799E-19
  -6.13500023       2.15906199E-19
  -6.01999998       1.07480896E-19
  -5.90500021      -8.78593765E-20
  -5.78999996      -3.72320766E-19
  -5.67500019      -7.37051168E-19
  -5.55999994      -1.16095130E-18
  -5.44500017      -1.61094779E-18
  -5.32999992      -2.04394840E-18
  -5.21500015      -2.41049240E-18
  -5.09999990      -2.65983648E-18
  -4.98500013      -2.74595508E-18
  -4.86999989      -2.63369447E-18
  -4.75500011      -2.30416826E-18
  -4.63999987      -1.75845715E-18
  -4.52500010      -1.01879431E-18
  -4.40999985      -1.26722674E-19
  -4.29500008       8.61858867E-19
  -4.17999983       1.88427008E-18
  -4.06500006       2.88018230E-18
  -3.95000005       3.80068150E-18
  -3.83500004       4.61525630E-18
  -3.72000003       5.31458291E-18
  -3.60500002       5.90714780E-18
  -3.49000001       6.40835308E-18
  -3.37500000       6.82169647E-18
  -3.25999999       7.11288225E-18
  -3.14499998       7.17916671E-18
  -3.02999997       6.81772187E-18
  -2.91499996       5.69800511E-18
  -2.79999995       3.34401845E-18
  -2.68499994      -8.67603068E-19
  -2.56999993      -7.68821201E-18
  -2.45499992      -1.79528484E-17
  -2.33999991      -3.25093661E-17
  -2.22499990      -5.21229367E-17
  -2.10999990      -7.73609154E-17
  -1.99500000      -1.08466976E-16
  -1.88000000      -1.45236412E-16
  -1.76499999      -1.86906806E-16
  -1.64999998      -2.32079140E-16
  -1.53499997      -2.78683633E-16
  -1.41999996      -3.24001881E-16
  -1.30499995      -3.64752822E-16
  -1.19000006      -3.97243417E-16
  -1.07500005      -4.17578296E-16
 -0.959999979      -4.21915131E-16
 -0.845000029      -4.06746148E-16
 -0.730000019      -3.69179707E-16
 -0.615000010      -3.07193783E-16
 -0.500000000      -2.19833359E-16
 -0.384999990      -1.07325970E-16
 -0.270000011       2.89032391E-17
 -0.155000001       1.86324352E-16
  -3.99999991E-02   3.61500930E-16
   7.50000030E-02   5.50377445E-16
  0.189999998       7.48624712E-16
  0.305000007       9.52004787E-16
  0.419999987       1.15670703E-15
  0.535000026       1.35960763E-15
  0.649999976       1.55840107E-15
  0.764999986       1.75157498E-15
  0.879999995       1.93819858E-15
  0.995000005       2.11753112E-15
   1.11000001       2.28846703E-15
   1.22500002       2.44886987E-15
   1.34000003       2.59486129E-15
   1.45500004       2.72015229E-15
   1.57000005       2.81552079E-15
   1.68499994       2.86853150E-15
   1.79999995       2.86359139E-15
   1.91499996       2.78242001E-15
   2.02999997       2.60497211E-15
   2.14499998       2.31082044E-15
   2.25999999       1.88096096E-15
   2.37500000       1.29995936E-15
   2.49000001       5.58299321E-16
   2.60500002      -3.45220004E-16
   2.72000003      -1.40123888E-15
   2.83500004      -2.58794527E-15
   2.95000005      -3.86973651E-15
   3.06500006      -5.19660854E-15
   3.18000007      -6.50440666E-15
   3.29500008      -7.71600513E-15
   3.41000009      -8.74342899E-15
   3.52500010      -9.49083138E-15
   3.64000010      -9.85817940E-15
   3.75500011      -9.74543170E-15
   3.86999989      -9.05690402E-15
   3.98499990      -7.70552902E-15
   4.09999990      -5.61667505E-15
   4.21500015      -2.73119421E-15
   4.32999992       9.92521656E-16
   4.44500017       5.57769968E-15
   4.55999994       1.10296234E-14
   4.67500019       1.73373262E-14
   4.78999996       2.44763977E-14
   4.90500021       3.24126339E-14
   5.01999998       4.11061600E-14
   5.13500023       5.05156728E-14
   5.25000000       6.06021784E-14
   5.36499977       7.13320123E-14
   5.48000002       8.26784794E-14
   5.59499979       9.46220912E-14
   5.71000004       1.07148963E-13
   5.82499981       1.20247643E-13
   5.94000006       1.33904213E-13
   6.05499983       1.48096474E-13
   6.17000008       1.62787142E-13
   6.28499985       1.77917211E-13
   6.40000010       1.93399631E-13
   6.51499987       2.09114450E-13
   6.63000011       2.24905679E-13
   6.74499989       2.40580667E-13
   6.86000013       2.55911910E-13
   6.97499990       2.70641880E-13
   7.09000015       2.84490340E-13
   7.20499992       2.97163688E-13
   7.32000017       3.08366370E-13
   7.43499994       3.17812373E-13
   7.55000019       3.25237016E-13
   7.66499996       3.30407332E-13
   7.78000021       3.33130089E-13
   7.89499998       3.33257320E-13
   8.01000023       3.30687707E-13
   8.12500000       3.25364112E-13
   8.23999977       3.17267507E-13
   8.35499954       3.06406810E-13
   8.47000027       2.92806225E-13
   8.58500004       2.76490311E-13
   8.69999981       2.57468932E-13
   8.81499958       2.35722439E-13
   8.93000031       2.11189519E-13
   9.04500008       1.83758160E-13
   9.15999985       1.53261572E-13
   9.27499962       1.19479567E-13
   9.39000034       8.21454314E-14
   9.50500011       4.09588880E-14
   9.61999989      -4.39609210E-15
   9.73499966      -5.42293126E-14
   9.85000038      -1.08819983E-13
   9.96500015      -1.68391465E-13
   10.0799999      -2.33087556E-13
   10.1949997      -3.02951891E-13
   10.3100004      -3.77912518E-13
   10.4250002      -4.57773413E-13
   10.5400000      -5.42213952E-13
   10.6549997      -6.30796034E-13
   10.7700005      -7.22980540E-13
   10.8850002      -8.18150994E-13
   11.0000000      -9.15642562E-13
   11.1149998      -1.01477702E-12
   11.2299995      -1.11489713E-12
   11.3450003      -1.21540354E-12
   11.4600000      -1.31578526E-12
   11.5749998      -1.41564701E-12
   11.6899996      -1.51472671E-12
   11.8050003      -1.61290707E-12
   11.9200001      -1.71021324E-12
   12.0349998      -1.80680590E-12
   12.1499996      -1.90296064E-12
   12.2650003      -1.99904329E-12
   12.3800001      -2.09547982E-12
   12.4949999      -2.19272322E-12
   12.6099997      -2.29122103E-12
   12.7250004      -2.39138744E-12
   12.8400002      -2.49358021E-12
   12.9549999      -2.59808733E-12
   13.0699997      -2.70512128E-12
   13.1850004      -2.81482520E-12
   13.3000002      -2.92728949E-12
   13.4150000      -3.04257466E-12
   13.5299997      -3.16074402E-12
   13.6450005      -3.28190014E-12
   13.7600002      -3.40622170E-12
   13.8750000      -3.53399775E-12
   13.9899998      -3.66566239E-12
   14.1049995      -3.80181477E-12
   14.2200003      -3.94323550E-12
   14.3350000      -4.09088952E-12
   14.4499998      -4.24592002E-12
   14.5649996      -4.40962935E-12
   14.6800003      -4.58345384E-12
   14.7950001      -4.76892787E-12
   14.9099998      -4.96765172E-12
   15.0249996      -5.18124692E-12
   15.1400003      -5.41132287E-12
   15.2550001      -5.65944470E-12
   15.3699999      -5.92710820E-12
   15.4849997      -6.21572195E-12
   15.6000004      -6.52659567E-12
   15.7150002      -6.86094367E-12
   15.8299999      -7.21988615E-12
   15.9449997      -7.60446133E-12
   16.0599995      -8.01563243E-12
   16.1749992      -8.45430063E-12
   16.2900009      -8.92130814E-12
   16.4050007      -9.41743732E-12
   16.5200005      -9.94339767E-12
   16.6350002      -1.04998102E-11
   16.7500000      -1.10871711E-11
   16.8649998      -1.17058229E-11
   16.9799995      -1.23559045E-11
   17.0949993      -1.30373117E-11
   17.2099991      -1.37496516E-11
   17.3250008      -1.44921991E-11
   17.4400005      -1.52638787E-11
   17.5550003      -1.60632393E-11
   17.6700001      -1.68884559E-11
   17.7849998      -1.77373411E-11
   17.8999996      -1.86073778E-11
   18.0149994      -1.94957609E-11
   18.1299992      -2.03994460E-11
   18.2450008      -2.13152083E-11
   18.3600006      -2.22397066E-11
   18.4750004      -2.31695253E-11
   18.5900002      -2.41012262E-11
   18.7049999      -2.50313815E-11
   18.8199997      -2.59565685E-11
   18.9349995      -2.68733733E-11
   19.0499992      -2.77783612E-11
   19.1650009      -2.86680263E-11
   19.2800007      -2.95387326E-11
   19.3950005      -3.03866515E-11
   19.5100002      -3.12076857E-11
   19.6250000      -3.19974151E-11
   19.7399998      -3.27510380E-11
   19.8549995      -3.34633536E-11
   19.9699993      -3.41287380E-11
   20.0849991      -3.47411926E-11
   20.2000008      -3.52943647E-11
   20.3150005      -3.57816381E-11
   20.4300003      -3.61962404E-11
   20.5450001      -3.65313231E-11
   20.6599998      -3.67801171E-11
   20.7749996      -3.69360098E-11
   20.8899994      -3.69926693E-11
   21.0049992      -3.69441110E-11
   21.1200008      -3.67847419E-11
   21.2350006      -3.65093823E-11
   21.3500004      -3.61132201E-11
   21.4650002      -3.55917656E-11
   21.5799999      -3.49407447E-11
   21.6949997      -3.41559836E-11
   21.8099995      -3.32332703E-11
   21.9249992      -3.21682160E-11
   22.0400009      -3.09561474E-11
   22.1550007      -2.95919990E-11
   22.2700005      -2.80702458E-11
   22.3850002      -2.63849047E-11
   22.5000000      -2.45295798E-11
   22.6149998      -2.24975368E-11
   22.7299995      -2.02818543E-11
   22.8449993      -1.78756159E-11
   22.9599991      -1.52721221E-11
   23.0750008      -1.24651244E-11
   23.1900005      -9.44904485E-12
   23.3050003      -6.21920527E-12
   23.4200001      -2.77196365E-12
   23.5349998       8.95153851E-13
   23.6499996       4.78341845E-12
   23.7649994       8.89293760E-12
   23.8799992       1.32227337E-11
   23.9950008       1.77709930E-11
   24.1100006       2.25352393E-11
   24.2250004       2.75126553E-11
   24.3400002       3.27003875E-11
   24.4549999       3.80958841E-11
   24.5699997       4.36971466E-11
   24.6849995       4.95030371E-11
   24.7999992       5.55134098E-11
   24.9150009       6.17291912E-11
   25.0300007       6.81524143E-11
   25.1450005       7.47861217E-11
   25.2600002       8.16341231E-11
   25.3750000       8.87007690E-11
   25.4899998       9.59905280E-11
   25.6049995       1.03507668E-10
   25.7199993       1.11255803E-10
   25.8349991       1.19237523E-10
   25.9500008       1.27453992E-10
   26.0650005       1.35904690E-10
   26.1800003       1.44587134E-10
   26.2950001       1.53496924E-10
   26.4099998       1.62627550E-10
   26.5249996       1.71970563E-10
   26.6399994       1.81515761E-10
   26.7549992       1.91251417E-10
   26.8700008       2.01164682E-10
   26.9850006       2.11241732E-10
   27.1000004       2.21468260E-10
   27.2150002       2.31829569E-10
   27.3299999       2.42311171E-10
   27.4449997       2.52898369E-10
   27.5599995       2.63576772E-10
   27.6749992       2.74332057E-10
   27.7900009       2.85149848E-10
   27.9050007       2.96015601E-10
   28.0200005       3.06914216E-10
   28.1350002       3.17829735E-10
   28.2500000       3.28745225E-10
   28.3649998       3.39642287E-10
   28.4799995       3.50501100E-10
   28.5949993       3.61300212E-10
   28.7099991       3.72016418E-10
   28.8250008       3.82624932E-10
   28.9400005       3.93099692E-10
   29.0550003       4.03413636E-10
   29.1700001       4.13538898E-10
   29.2849998       4.23447527E-10
   29.3999996       4.33111630E-10
   29.5149994       4.42503895E-10
   29.6299992       4.51597926E-10
   29.7450008       4.60368521E-10
   29.8600006       4.68791894E-10
   29.9750004       4.76845230E-10
   30.0900002       4.84506824E-10
   30.2049999       4.91756080E-10
   30.3199997       4.98572350E-10
   30.4349995       5.04935094E-10
   30.5499992       5.10823106E-10
   30.6650009       5.16213738E-10
   30.7800007       5.21082677E-10
   30.8950005       5.25403498E-10
   31.0100002       5.29147393E-10
   31.1250000       5.32283106E-10
   31.2399998       5.34776945E-10
   31.3549995       5.36593159E-10
   31.4699993       5.37694556E-10
   31.5849991       5.38043277E-10
   31.7000008       5.37601186E-10
   31.8150005       5.36331479E-10
   31.9300003       5.34199129E-10
   32.0449982       5.31171884E-10
   32.1599998       5.27221322E-10
   32.2750015       5.22323407E-10
   32.3899994       5.16458765E-10
   32.5050011       5.09613296E-10
   32.6199989       5.01777897E-10
   32.7350006       4.92948182E-10
   32.8499985       4.83124152E-10
   32.9650002       4.72309358E-10
   33.0800018       4.60509936E-10
   33.1949997       4.47733989E-10
   33.3100014       4.33990233E-10
   33.4249992       4.19287438E-10
   33.5400009       4.03633377E-10
   33.6549988       3.87034349E-10
   33.7700005       3.69494740E-10
   33.8849983       3.51016910E-10
   34.0000000       3.31601191E-10
   34.1150017       3.11246390E-10
   34.2299995       2.89950036E-10
   34.3450012       2.67709549E-10
   34.4599991       2.44522541E-10
   34.5750008       2.20388097E-10
   34.6899986       1.95307159E-10
   34.8050003       1.69283657E-10
   34.9199982       1.42324902E-10
   35.0349998       1.14441887E-10
   35.1500015       8.56495985E-11
   35.2649994       5.59668180E-11
   35.3800011       2.54159298E-11
   35.4949989      -5.97727944E-12
   35.6100006      -3.81845909E-11
   35.7249985      -7.11757250E-11
   35.8400002      -1.04918997E-10
   35.9550018      -1.39381923E-10
   36.0699997      -1.74531681E-10
   36.1850014      -2.10335513E-10
   36.2999992      -2.46760640E-10
   36.4150009      -2.83774421E-10
   36.5299988      -3.21344229E-10
   36.6450005      -3.59436592E-10
   36.7599983      -3.98017314E-10
   36.8750000      -4.37050424E-10
   36.9900017      -4.76498119E-10
   37.1049995      -5.16319987E-10
   37.2200012      -5.56472646E-10
   37.3349991      -5.96910077E-10
   37.4500008      -6.37583264E-10
   37.5649986      -6.78440637E-10
   37.6800003      -7.19428850E-10
   37.7949982      -7.60492946E-10
   37.9099998      -8.01577915E-10
   38.0250015      -8.42628856E-10
   38.1399994      -8.83592366E-10
   38.2550011      -9.24417598E-10
   38.3699989      -9.65055369E-10
   38.4850006      -1.00546094E-09
   38.5999985      -1.04559184E-09
   38.7150002      -1.08540921E-09
   38.8300018      -1.12487664E-09
   38.9449997      -1.16395960E-09
   39.0600014      -1.20262433E-09
   39.1749992      -1.24083732E-09
   39.2900009      -1.27856359E-09
   39.4049988      -1.31576627E-09
   39.5200005      -1.35240530E-09
   39.6349983      -1.38843703E-09
   39.7500000      -1.42381373E-09
   39.8650017      -1.45848422E-09
   39.9799995      -1.49239332E-09
   40.0950012      -1.52548341E-09
   40.2099991      -1.55769542E-09
   40.3250008      -1.58896885E-09
   40.4399986      -1.61924518E-09
   40.5550003      -1.64846703E-09
   40.6699982      -1.67658032E-09
   40.7849998      -1.70353509E-09
   40.9000015      -1.72928605E-09
   41.0149994      -1.75379189E-09
   41.1300011      -1.77701653E-09
   41.2449989      -1.79892645E-09
   41.3600006      -1.81949145E-09
   41.4749985      -1.83868243E-09
   41.5900002      -1.85647020E-09
   41.7050018      -1.87282301E-09
   41.8199997      -1.88770666E-09
   41.9350014      -1.90108240E-09
   42.0499992      -1.91290650E-09
   42.1650009      -1.92312988E-09
   42.2799988      -1.93169858E-09
   42.3950005      -1.93855376E-09
   42.5099983      -1.94363436E-09
   42.6250000      -1.94687666E-09
   42.7400017      -1.94821825E-09
   42.8549995      -1.94759875E-09
   42.9700012      -1.94496286E-09
   43.0849991      -1.94026062E-09
   43.2000008      -1.93345073E-09
   43.3149986      -1.92450011E-09
   43.4300003      -1.91338501E-09
   43.5449982      -1.90009031E-09
   43.6599998      -1.88460914E-09
   43.7750015      -1.86694127E-09
   43.8899994      -1.84709115E-09
   44.0050011      -1.82506654E-09
   44.1199989      -1.80087545E-09
   44.2350006      -1.77452486E-09
   44.3499985      -1.74601900E-09
   44.4650002      -1.71535763E-09
   44.5800018      -1.68253567E-09
   44.6949997      -1.64754344E-09
   44.8100014      -1.61036695E-09
   44.9249992      -1.57098912E-09
   45.0400009      -1.52939228E-09
   45.1549988      -1.48555956E-09
   45.2700005      -1.43947776E-09
   45.3849983      -1.39113965E-09
   45.5000000      -1.34054601E-09
   45.6150017      -1.28770727E-09
   45.7299995      -1.23264499E-09
   45.8450012      -1.17539178E-09
   45.9599991      -1.11599174E-09
   46.0750008      -1.05449827E-09
   46.1899986      -9.90973525E-10
   46.3050003      -9.25485799E-10
   46.4199982      -8.58106919E-10
   46.5349998      -7.88910104E-10
   46.6500015      -7.17967630E-10
   46.7649994      -6.45348774E-10
   46.8800011      -5.71118375E-10
   46.9949989      -4.95336605E-10
   47.1100006      -4.18058699E-10
   47.2249985      -3.39336254E-10
   47.3400002      -2.59218647E-10
   47.4550018      -1.77755644E-10
   47.5699997      -9.49998830E-11
   47.6850014      -1.10094277E-11
   47.7999992       7.41495754E-11
   47.9150009       1.60400374E-10
   48.0299988       2.47654425E-10
   48.1450005       3.35810657E-10
   48.2599983       4.24755592E-10
   48.3750000       5.14364884E-10
   48.4900017       6.04505446E-10
   48.6049995       6.95038416E-10
   48.7200012       7.85822907E-10
   48.8349991       8.76719808E-10
   48.9500008       9.67596336E-10
   49.0649986       1.05832887E-09
   49.1800003       1.14880694E-09
   49.2949982       1.23893507E-09
   49.4099998       1.32863454E-09
   49.5250015       1.41784240E-09
   49.6399994       1.50651192E-09
   49.7550011       1.59460933E-09
   49.8699989       1.68211123E-09
   49.9850006       1.76900128E-09
   50.0999985       1.85526494E-09
   50.2150002       1.94088678E-09
   50.3300018       2.02584616E-09
   50.4449997       2.11011408E-09
   50.5600014       2.19365037E-09
   50.6749992       2.27640440E-09
   50.7900009       2.35831243E-09
   50.9049988       2.43930076E-09
   51.0200005       2.51928700E-09
   51.1349983       2.59818278E-09
   51.2500000       2.67589706E-09
   51.3650017       2.75234058E-09
   51.4799995       2.82742896E-09
   51.5950012       2.90108559E-09
   51.7099991       2.97324365E-09
   51.8250008       3.04384784E-09
   51.9399986       3.11285553E-09
   52.0550003       3.18023430E-09
   52.1699982       3.24596194E-09
   52.2849998       3.31002159E-09
   52.4000015       3.37240103E-09
   52.5149994       3.43308781E-09
   52.6300011       3.49206508E-09
   52.7449989       3.54930996E-09
   52.8600006       3.60479158E-09
   52.9749985       3.65846753E-09
   53.0900002       3.71028697E-09
   53.2050018       3.76018772E-09
   53.3199997       3.80810228E-09
   53.4350014       3.85395849E-09
   53.5499992       3.89768484E-09
   53.6650009       3.93921384E-09
   53.7799988       3.97848821E-09
   53.8950005       4.01546174E-09
   54.0099983       4.05010736E-09
   54.1250000       4.08241618E-09
   54.2400017       4.11240064E-09
   54.3549995       4.14009316E-09
   54.4700012       4.16554613E-09
   54.5849991       4.18882928E-09
   54.7000008       4.21002255E-09
   54.8149986       4.22921698E-09
   54.9300003       4.24650448E-09
   55.0449982       4.26197522E-09
   55.1599998       4.27571090E-09
   55.2750015       4.28778391E-09
   55.3899994       4.29824976E-09
   55.5050011       4.30714620E-09
   55.6199989       4.31449454E-09
   55.7350006       4.32029967E-09
   55.8499985       4.32454961E-09
   55.9650002       4.32722258E-09
   56.0800018       4.32828795E-09
   56.1949997       4.32771285E-09
   56.3100014       4.32546754E-09
   56.4249992       4.32152758E-09
   56.5400009       4.31588010E-09
   56.6549988       4.30852642E-09
   56.7700005       4.29948388E-09
   56.8849983       4.28878666E-09
   57.0000000       4.27648672E-09
   57.1150017       4.26264934E-09
   57.2299995       4.24735447E-09
   57.3450012       4.23068958E-09
   57.4599991       4.21274704E-09
   57.5750008       4.19362056E-09
   57.6899986       4.17340029E-09
   57.8050003       4.15216972E-09
   57.9199982       4.13000212E-09
   58.0349998       4.10695833E-09
   58.1500015       4.08308543E-09
   58.2649994       4.05841716E-09
   58.3800011       4.03297351E-09
   58.4949989       4.00676337E-09
   58.6100006       3.97978406E-09
   58.7249985       3.95202582E-09
   58.8400002       3.92347310E-09
   58.9550018       3.89410726E-09
   59.0699997       3.86390653E-09
   59.1850014       3.83285004E-09
   59.2999992       3.80091425E-09
   59.4150009       3.76807607E-09
   59.5299988       3.73431197E-09
   59.6450005       3.69959241E-09
   59.7599983       3.66388409E-09
   59.8750000       3.62714503E-09
   59.9900017       3.58932373E-09
   60.1049995       3.55035601E-09
   60.2200012       3.51016372E-09
   60.3349991       3.46865336E-09
   60.4500008       3.42571482E-09
   60.5649986       3.38122397E-09
   60.6800003       3.33504158E-09
   60.7949982       3.28701710E-09
   60.9099998       3.23699068E-09
   61.0250015       3.18479576E-09
   61.1399994       3.13026272E-09
   61.2550011       3.07322501E-09
   61.3699989       3.01351744E-09
   61.4850006       2.95098501E-09
   61.5999985       2.88548097E-09
   61.7150002       2.81687007E-09
   61.8300018       2.74502798E-09
   61.9449997       2.66984457E-09
   62.0600014       2.59121813E-09
   62.1749992       2.50905674E-09
   62.2900009       2.42327602E-09
   62.4049988       2.33379382E-09
   62.5200005       2.24052976E-09
   62.6349983       2.14340279E-09
   62.7500000       2.04232475E-09
   62.8650017       1.93720462E-09
   62.9799995       1.82794246E-09
   63.0950012       1.71443038E-09
   63.2099991       1.59655589E-09
   63.3250008       1.47420087E-09
   63.4399986       1.34724398E-09
   63.5550003       1.21556520E-09
   63.6699982       1.07904918E-09
   63.7849998       9.37587452E-10
   63.9000015       7.91084753E-10
   64.0149994       6.39458209E-10
   64.1299973       4.82645257E-10
   64.2450027       3.20602656E-10
   64.3600006       1.53306229E-10
   64.4749985      -1.92461273E-11
   64.5899963      -1.97037414E-10
   64.7050018      -3.80032172E-10
   64.8199997      -5.68179448E-10
   64.9349976      -7.61414987E-10
   65.0500031      -9.59664903E-10
   65.1650009      -1.16284815E-09
   65.2799988      -1.37087874E-09
   65.3949966      -1.58366642E-09
   65.5100021      -1.80111781E-09
   65.6250000      -2.02313588E-09
   65.7399979      -2.24961760E-09
   65.8550034      -2.48045184E-09
   65.9700012      -2.71551492E-09
   66.0849991      -2.95466673E-09
   66.1999969      -3.19774895E-09
   66.3150024      -3.44457662E-09
   66.4300003      -3.69493858E-09
   66.5449982      -3.94859256E-09
   66.6600037      -4.20526547E-09
   66.7750015      -4.46465176E-09
   66.8899994      -4.72642014E-09
   67.0049973      -4.99021269E-09
   67.1200027      -5.25565236E-09
   67.2350006      -5.52234924E-09
   67.3499985      -5.78990811E-09
   67.4649963      -6.05793771E-09
   67.5800018      -6.32605612E-09
   67.6949997      -6.59389654E-09
   67.8099976      -6.86111834E-09
   67.9250031      -7.12740267E-09
   68.0400009      -7.39245998E-09
   68.1549988      -7.65602692E-09
   68.2699966      -7.91786192E-09
   68.3850021      -8.17774470E-09
   68.5000000      -8.43546388E-09
   68.6149979      -8.69081429E-09
   68.7300034      -8.94358632E-09
   68.8450012      -9.19356058E-09
   68.9599991      -9.44049905E-09
   69.0749969      -9.68414060E-09
   69.1900024      -9.92420013E-09
   69.3050003      -1.01603659E-08
   69.4199982      -1.03923012E-08
   69.5350037      -1.06196554E-08
   69.6500015      -1.08420641E-08
   69.7649994      -1.10591580E-08
   69.8799973      -1.12705800E-08
   69.9950027      -1.14759882E-08
   70.1100006      -1.16750680E-08
   70.2249985      -1.18675398E-08
   70.3399963      -1.20531674E-08
   70.4550018      -1.22317534E-08
   70.5699997      -1.24031541E-08
   70.6849976      -1.25672601E-08
   70.8000031      -1.27240050E-08
   70.9150009      -1.28733459E-08
   71.0299988      -1.30152635E-08
   71.1449966      -1.31497409E-08
   71.2600021      -1.32767646E-08
   71.3750000      -1.33963045E-08
   71.4899979      -1.35083145E-08
   71.6050034      -1.36127145E-08
   71.7200012      -1.37094043E-08
   71.8349991      -1.37982541E-08
   71.9499969      -1.38791121E-08
   72.0650024      -1.39518050E-08
   72.1800003      -1.40161669E-08
   72.2949982      -1.40720280E-08
   72.4100037      -1.41192444E-08
   72.5250015      -1.41576937E-08
   72.6399994      -1.41873011E-08
   72.7549973      -1.42080392E-08
   72.8700027      -1.42199337E-08
   72.9850006      -1.42230618E-08
   73.0999985      -1.42175569E-08
   73.2149963      -1.42035885E-08
   73.3300018      -1.41813707E-08
   73.4449997      -1.41511380E-08
   73.5599976      -1.41131293E-08
   73.6750031      -1.40675862E-08
   73.7900009      -1.40147307E-08
   73.9049988      -1.39547573E-08
   74.0199966      -1.38878242E-08
   74.1350021      -1.38140575E-08
   74.2500000      -1.37335308E-08
   74.3649979      -1.36462939E-08
   74.4800034      -1.35523628E-08
   74.5950012      -1.34517402E-08
   74.7099991      -1.33444242E-08
   74.8249969      -1.32304194E-08
   74.9400024      -1.31097639E-08
   75.0550003      -1.29825271E-08
   75.1699982      -1.28488269E-08
   75.2850037      -1.27088358E-08
   75.4000015      -1.25627837E-08
   75.5149994      -1.24109558E-08
   75.6299973      -1.22536878E-08
   75.7450027      -1.20913581E-08
   75.8600006      -1.19243699E-08
   75.9749985      -1.17531451E-08
   76.0899963      -1.15781047E-08
   76.2050018      -1.13996590E-08
   76.3199997      -1.12181926E-08
   76.4349976      -1.10340581E-08
   76.5500031      -1.08475691E-08
   76.6650009      -1.06590035E-08
   76.7799988      -1.04686002E-08
   76.8949966      -1.02765760E-08
   77.0100021      -1.00831254E-08
   77.1250000      -9.88844118E-09
   77.2399979      -9.69272751E-09
   77.3550034      -9.49621093E-09
   77.4700012      -9.29915167E-09
   77.5849991      -9.10186149E-09
   77.6999969      -8.90470186E-09
   77.8150024      -8.70808670E-09
   77.9300003      -8.51248938E-09
   78.0449982      -8.31842684E-09
   78.1600037      -8.12645951E-09
   78.2750015      -7.93717092E-09
   78.3899994      -7.75116504E-09
   78.5049973      -7.56903962E-09
   78.6200027      -7.39139328E-09
   78.7350006      -7.21879356E-09
   78.8499985      -7.05178582E-09
   78.9649963      -6.89088164E-09
   79.0800018      -6.73656064E-09
   79.1949997      -6.58927801E-09
   79.3099976      -6.44946851E-09
   79.4250031      -6.31755759E-09
   79.5400009      -6.19397067E-09