  -18.8999996        -0.00000000    
  -18.7849998        -0.00000000    
  -18.6700001        -0.00000000    
  -18.5550003        -0.00000000    
  -18.4400005        -0.00000000    
  -18.3250008        -0.00000000    
  -18.2099991        -0.00000000    
  -18.0949993        -0.00000000    
  -17.9799995        -0.00000000    
  -17.8649998        -0.00000000    
  -17.7500000        -0.00000000    
  -17.6350002        -0.00000000    
  -17.5200005        -0.00000000    
  -17.4050007        -0.00000000    
  -17.2900009         5.32780830E-34
  -17.1749992        -2.41289942E-33
  -17.0599995         6.03830007E-31
  -16.9449997         2.48418726E-30
  -16.8299999         6.89617886E-30
  -16.7150002         1.55029506E-29
  -16.6000004         3.00320668E-29
  -16.4850006         5.15193603E-29
  -16.3700008         7.79469228E-29
  -16.2549992         1.00651536E-28
  -16.1399994         1.00689212E-28
  -16.0249996         4.46624268E-29
  -15.9099998        -1.16680540E-28
  -15.7950001        -4.45871560E-28
  -15.6800003        -1.01012926E-27
  -15.5649996        -1.86793230E-27
  -15.4499998        -3.05394846E-27
  -15.3350000        -4.56807086E-27
  -15.2200003        -6.37263140E-27
  -15.1049995        -8.39421497E-27
  -14.9899998        -1.05114714E-26
  -14.8750000        -1.24918998E-26
  -14.7600002        -1.38255978E-26
  -14.6450005        -1.34113149E-26
  -14.5299997        -9.09275284E-27
  -14.4150000         2.86344760E-27
  -14.3000002         2.81174278E-26
  -14.1850004         7.40475813E-26
  -14.0699997         1.48487596E-25
  -13.9549999         2.56934610E-25
  -13.8400002         3.97996301E-25
  -13.7250004         5.57367059E-25
  -13.6099997         7.01401326E-25
  -13.4949999         7.72256123E-25
  -13.3800001         6.87340916E-25
  -13.2650003         3.46088908E-25
  -13.1499996        -3.53509624E-25
  -13.0349998        -1.48784087E-24
  -12.9200001        -3.07203578E-24
  -12.8050003        -5.02116593E-24
  -12.6899996        -7.11695163E-24
  -12.5749998        -8.99079762E-24
  -12.4600000        -1.01337671E-23
  -12.3450003        -9.94080230E-24
  -12.2299995        -7.79008269E-24
  -12.1149998        -3.14971807E-24
  -12.0000000         4.30496305E-24
  -11.8850002         1.45866566E-23
  -11.7700005         2.73282496E-23
  -11.6549997         4.17702417E-23
  -11.5400000         5.68082845E-23
  -11.4250002         7.10872602E-23
  -11.3100004         8.31093615E-23
  -11.1949997         9.13106876E-23
  -11.0799999         9.40609471E-23
  -10.9650002         8.95580975E-23
  -10.8500004         7.56248512E-23
  -10.7349997         4.94614683E-23
  -10.6199999         7.45810557E-24
  -10.5050001        -5.47941964E-23
  -10.3900003        -1.42150892E-22
  -10.2749996        -2.59112105E-22
  -10.1599998        -4.08544676E-22
  -10.0450001        -5.90016662E-22
  -9.93000031        -7.97954843E-22
  -9.81499958        -1.01994217E-21
  -9.69999981        -1.23550350E-21
  -9.58500004        -1.41569710E-21
  -9.47000027        -1.52366144E-21
  -9.35499954        -1.51606535E-21
  -9.23999977        -1.34515421E-21
  -9.12500000        -9.60892965E-22
  -9.01000023        -3.12670939E-22
  -8.89500046         6.49763700E-22
  -8.77999973         1.97600867E-21
  -8.66499996         3.71445010E-21
  -8.55000019         5.90965577E-21
  -8.43500042         8.59503260E-21
  -8.31999969         1.17775034E-20
  -8.20499992         1.54109419E-20
  -8.09000015         1.93561200E-20
  -7.97499990         2.33268746E-20
  -7.86000013         2.68255513E-20
  -7.74499989         2.90750269E-20
  -7.63000011         2.89595060E-20
  -7.51499987         2.49913655E-20
  -7.40000010         1.53250540E-20
  -7.28499985        -2.15824750E-21
  -7.17000008        -2.96736343E-20
  -7.05499983        -6.92448659E-20
  -6.94000006        -1.22299481E-19
  -6.82499981        -1.89153808E-19
  -6.71000004        -2.68415275E-19
  -6.59499979        -3.56353234E-19
  -6.48000002        -4.46314709E-19
  -6.36499977        -5.28286653E-19
  -6.25000000        -5.88725173E-19
  -6.13500023        -6.10782926E-19
  -6.01999998        -5.75063200E-19
  -5.90500021        -4.61004402E-19
  -5.78999996        -2.48957454E-19
  -5.67500019         7.70559324E-20
  -5.55999994         5.26000843E-19
  -5.44500017         1.09612195E-18
  -5.32999992         1.77120028E-18
  -5.21500015         2.51723199E-18
  -5.09999990         3.28008194E-18
  -4.98500013         3.98472464E-18
  -4.86999989         4.53668406E-18
  -4.75500011         4.82620844E-18
  -4.63999987         4.73553746E-18
  -4.52500010         4.14935964E-18
  -4.40999985         2.96818274E-18
  -4.29500008         1.12393807E-18
  -4.17999983        -1.40335223E-18
  -4.06500006        -4.56942966E-18
  -3.95000005        -8.25214735E-18
  -3.83500004        -1.22424997E-17
  -3.72000003        -1.62425317E-17
  -3.60500002        -1.98721027E-17
  -3.49000001        -2.26859196E-17
  -3.37500000        -2.42015048E-17
  -3.25999999        -2.39376275E-17
  -3.14499998        -2.14615021E-17
  -3.02999997        -1.64418194E-17
  -2.91499996        -8.70329083E-18
  -2.79999995         1.72245784E-18
  -2.68499994         1.45555217E-17
  -2.56999993         2.92417975E-17
  -2.45499992         4.49478695E-17
  -2.33999991         6.05807559E-17
  -2.22499990         7.48347058E-17
  -2.10999990         8.62648066E-17
  -1.99500000         9.33842310E-17
  -1.88000000         9.47791751E-17
  -1.76499999         8.92327769E-17
  -1.64999998         7.58473270E-17
  -1.53499997         5.41527817E-17
  -1.41999996         2.41895024E-17
  -1.30499995        -1.34452071E-17
  -1.19000006        -5.75951567E-17
  -1.07500005        -1.06591811E-16
 -0.959999979        -1.58348826E-16
 -0.845000029        -2.10498355E-16
 -0.730000019        -2.60557922E-16
 -0.615000010        -3.06111831E-16
 -0.500000000        -3.44987626E-16
 -0.384999990        -3.75406829E-16
 -0.270000011        -3.96090023E-16
 -0.155000001        -4.06298994E-16
  -3.99999991E-02    -4.05805226E-16
   7.50000030E-02    -3.94781225E-16
  0.189999998        -3.73620621E-16
  0.305000007        -3.42702781E-16
  0.419999987        -3.02127123E-16
  0.535000026        -2.51450254E-16
  0.649999976        -1.89463774E-16
  0.764999986        -1.14052748E-16
  0.879999995        -2.21710973E-17
  0.995000005         9.00360686E-17
   1.11000001         2.26945617E-16
   1.22500002         3.93003223E-16
   1.34000003         5.92119017E-16
   1.45500004         8.26947096E-16
   1.57000005         1.09810177E-15
   1.68499994         1.40337965E-15
   1.79999995         1.73706573E-15
   1.91499996         2.08940793E-15
   2.02999997         2.44634211E-15
   2.14499998         2.78953530E-15
   2.25999999         3.09679925E-15
   2.37500000         3.34289917E-15
   2.49000001         3.50075011E-15
   2.60500002         3.54296200E-15
   2.72000003         3.44365226E-15
   2.83500004         3.18042533E-15
   2.95000005         2.73637932E-15
   3.06500006         2.10199336E-15
   3.18000007         1.27673975E-15
   3.29500008         2.70273152E-16
   3.41000009        -8.96927952E-16
   3.52500010        -2.19355932E-15
   3.64000010        -3.57817845E-15
   3.75500011        -5.00057081E-15
   3.86999989        -6.40373806E-15
   3.98499990        -7.72638891E-15
   4.09999990        -8.90576793E-15
   4.21500015        -9.88061815E-15
   4.32999992        -1.05940528E-14
   4.44500017        -1.09961029E-14
   4.55999994        -1.10457306E-14
   4.67500019        -1.07121216E-14
   4.78999996        -9.97513517E-15
   4.90500021        -8.82485681E-15
   5.01999998        -7.26027091E-15
   5.13500023        -5.28715086E-15
   5.25000000        -2.91535019E-15
   5.36499977        -1.55733995E-16
   5.48000002         2.98296417E-15
   5.59499979         6.49704594E-15
   5.71000004         1.03902008E-14
   5.82499981         1.46750322E-14
   5.94000006         1.93735510E-14
   6.05499983         2.45164793E-14
   6.17000008         3.01413320E-14
   6.28499985         3.62893580E-14
   6.40000010         4.30015046E-14
   6.51499987         5.03136825E-14
   6.63000011         5.82516687E-14
   6.74499989         6.68261223E-14
   6.86000013         7.60279697E-14
   6.97499990         8.58247935E-14
   7.09000015         9.61584125E-14
   7.20499992         1.06943900E-13
   7.32000017         1.18070362E-13
   7.43499994         1.29403243E-13
   7.55000019         1.40788246E-13
   7.66499996         1.52056427E-13
   7.78000021         1.63030356E-13
   7.89499998         1.73530230E-13
   8.01000023         1.83380424E-13
   8.12500000         1.92414688E-13
   8.23999977         2.00480759E-13
   8.35499954         2.07442855E-13
   8.47000027         2.13182485E-13
   8.58500004         2.17597221E-13
   8.69999981         2.20597276E-13
   8.81499958         2.22100645E-13
   8.93000031         2.22026648E-13
   9.04500008         2.20288875E-13
   9.15999985         2.16788122E-13
   9.27499962         2.11406074E-13
   9.39000034         2.04000337E-13
   9.50500011         1.94401827E-13
   9.61999989         1.82414766E-13
   9.73499966         1.67819873E-13
   9.85000038         1.50380549E-13
   9.96500015         1.29852441E-13
   10.0799999         1.05995284E-13
   10.1949997         7.85869172E-14
   10.3100004         4.74381615E-14
   10.4250002         1.24077452E-14
   10.5400000        -2.65840274E-14
   10.6549997        -6.95440274E-14
   10.7700005        -1.16398373E-13
   10.8850002        -1.66988941E-13
   11.0000000        -2.21074623E-13
   11.1149998        -2.78337737E-13
   11.2299995        -3.38395463E-13
   11.3450003        -4.00815665E-13
   11.4600000        -4.65136393E-13
   11.5749998        -5.30887400E-13
   11.6899996        -5.97612780E-13
   11.8050003        -6.64892837E-13
   11.9200001        -7.32363497E-13
   12.0349998        -7.99731971E-13
   12.1499996        -8.66787545E-13
   12.2650003        -9.33405913E-13
   12.3800001        -9.99548534E-13
   12.4949999        -1.06525379E-12
   12.6099997        -1.13062522E-12
   12.7250004        -1.19581331E-12
   12.8400002        -1.26099478E-12
   12.9549999        -1.32635233E-12
   13.0699997        -1.39205346E-12
   13.1850004        -1.45823360E-12
   13.3000002        -1.52498261E-12
   13.4150000        -1.59233976E-12
   13.5299997        -1.66029321E-12
   13.6450005        -1.72878910E-12
   13.7600002        -1.79774641E-12
   13.8750000        -1.86707919E-12
   13.9899998        -1.93672292E-12
   14.1049995        -2.00666393E-12
   14.2200003        -2.07696881E-12
   14.3350000        -2.14781253E-12
   14.4499998        -2.21950171E-12
   14.5649996        -2.29249150E-12
   14.6800003        -2.36739469E-12
   14.7950001        -2.44498085E-12
   14.9099998        -2.52616829E-12
   15.0249996        -2.61200415E-12
   15.1400003        -2.70364091E-12
   15.2550001        -2.80230483E-12
   15.3699999        -2.90926333E-12
   15.4849997        -3.02578969E-12
   15.6000004        -3.15313379E-12
   15.7150002        -3.29249475E-12
   15.8299999        -3.44500145E-12
   15.9449997        -3.61170252E-12
   16.0599995        -3.79356269E-12
   16.1749992        -3.99147035E-12
   16.2900009        -4.20624733E-12
   16.4050007        -4.43866818E-12
   16.5200005        -4.68948101E-12
   16.6350002        -4.95942133E-12
   16.7500000        -5.24923247E-12
   16.8649998        -5.55966991E-12
   16.9799995        -5.89150343E-12
   17.0949993        -6.24550368E-12
   17.2099991        -6.62242873E-12
   17.3250008        -7.02298723E-12
   17.4400005        -7.44781060E-12
   17.5550003        -7.89740669E-12
   17.6700001        -8.37212244E-12
   17.7849998        -8.87210964E-12
   17.8999996        -9.39728850E-12
   18.0149994        -9.94734069E-12
   18.1299992        -1.05216894E-11
   18.2450008        -1.11195194E-11
   18.3600006        -1.17397932E-11
   18.4750004        -1.23812956E-11
   18.5900002        -1.30426702E-11
   18.7049999        -1.37224745E-11
   18.8199997        -1.44192375E-11
   18.9349995        -1.51314933E-11
   19.0499992        -1.58578289E-11
   19.1650009        -1.65968975E-11
   19.2800007        -1.73474169E-11
   19.3950005        -1.81081643E-11
   19.5100002        -1.88779097E-11
   19.6250000        -1.96553798E-11
   19.7399998        -2.04391729E-11
   19.8549995        -2.12276932E-11
   19.9699993        -2.20190463E-11
   20.0849991        -2.28109961E-11
   20.2000008        -2.36008955E-11
   20.3150005        -2.43856636E-11
   20.4300003        -2.51617876E-11
   20.5450001        -2.59253660E-11
   20.6599998        -2.66721749E-11
   20.7749996        -2.73977768E-11
   20.8899994        -2.80976475E-11
   21.0049992        -2.87673444E-11
   21.1200008        -2.94026296E-11
   21.2350006        -2.99996521E-11
   21.3500004        -3.05550515E-11
   21.4650002        -3.10660803E-11
   21.5799999        -3.15306427E-11
   21.6949997        -3.19472955E-11
   21.8099995        -3.23152165E-11
   21.9249992        -3.26340899E-11
   22.0400009        -3.29039504E-11
   22.1550007        -3.31249923E-11
   22.2700005        -3.32973649E-11
   22.3850002        -3.34209362E-11
   22.5000000        -3.34950678E-11
   22.6149998        -3.35184519E-11
   22.7299995        -3.34889477E-11
   22.8449993        -3.34035195E-11
   22.9599991        -3.32582052E-11
   23.0750008        -3.30482100E-11
   23.1900005        -3.27680175E-11
   23.3050003        -3.24116151E-11
   23.4200001        -3.19727404E-11
   23.5349998        -3.14451971E-11
   23.6499996        -3.08231426E-11
   23.7649994        -3.01013867E-11
   23.8799992        -2.92756618E-11
   23.9950008        -2.83428194E-11
   24.1100006        -2.73009705E-11
   24.2250004        -2.61495131E-11
   24.3400002        -2.48890596E-11
   24.4549999        -2.35213307E-11
   24.5699997        -2.20488940E-11
   24.6849995        -2.04748579E-11
   24.7999992        -1.88025429E-11
   24.9150009        -1.70350990E-11
   25.0300007        -1.51751632E-11
   25.1450005        -1.32245187E-11
   25.2600002        -1.11838559E-11
   25.3750000        -9.05258160E-12
   25.4899998        -6.82873202E-12
   25.6049995        -4.50902683E-12
   25.7199993        -2.08899738E-12
   25.8349991         4.36825923E-13
   25.9500008         3.07456144E-12
   26.0650005         5.83065540E-12
   26.1800003         8.71150374E-12
   26.2950001         1.17230479E-11
   26.4099998         1.48704746E-11
   26.5249996         1.81578849E-11
   26.6399994         2.15881358E-11
   26.7549992         2.51626827E-11
   26.8700008         2.88816002E-11
   26.9850006         3.27436273E-11
   27.1000004         3.67463455E-11
   27.2150002         4.08863846E-11
   27.3299999         4.51597093E-11
   27.4449997         4.95618546E-11
   27.5599995         5.40882200E-11
   27.6749992         5.87342952E-11
   27.7900009         6.34957226E-11
   27.9050007         6.83685192E-11
   28.0200005         7.33489519E-11
   28.1350002         7.84335166E-11
   28.2500000         8.36187300E-11
   28.3649998         8.89009560E-11
   28.4799995         9.42761563E-11
   28.5949993         9.97396124E-11
   28.7099991         1.05285711E-10
   28.8250008         1.10907776E-10
   28.9400005         1.16597967E-10
   29.0550003         1.22347243E-10
   29.1700001         1.28145397E-10
   29.2849998         1.33981368E-10
   29.3999996         1.39843345E-10
   29.5149994         1.45719159E-10
   29.6299992         1.51596624E-10
   29.7450008         1.57463875E-10
   29.8600006         1.63309755E-10
   29.9750004         1.69123993E-10
   30.0900002         1.74897458E-10
   30.2049999         1.80622156E-10
   30.3199997         1.86291274E-10
   30.4349995         1.91898886E-10
   30.5499992         1.97439731E-10
   30.6650009         2.02908745E-10
   30.7800007         2.08300613E-10
   30.8950005         2.13609325E-10
   31.0100002         2.18827595E-10
   31.1250000         2.23946528E-10
   31.2399998         2.28955216E-10
   31.3549995         2.33840475E-10
   31.4699993         2.38586900E-10
   31.5849991         2.43176895E-10
   31.7000008         2.47590948E-10
   31.8150005         2.51808102E-10
   31.9300003         2.55806626E-10
   32.0449982         2.59564370E-10
   32.1599998         2.63059852E-10
   32.2750015         2.66272837E-10
   32.3899994         2.69184897E-10
   32.5050011         2.71780209E-10
   32.6199989         2.74045980E-10
   32.7350006         2.75972578E-10
   32.8499985         2.77553869E-10
   32.9650002         2.78786993E-10
   33.0800018         2.79672119E-10
   33.1949997         2.80211965E-10
   33.3100014         2.80411305E-10
   33.4249992         2.80276358E-10
   33.5400009         2.79813922E-10
   33.6549988         2.79030854E-10
   33.7700005         2.77933287E-10
   33.8849983         2.76526191E-10
   34.0000000         2.74813033E-10
   34.1150017         2.72795425E-10
   34.2299995         2.70472950E-10
   34.3450012         2.67843581E-10
   34.4599991         2.64903571E-10
   34.5750008         2.61648120E-10
   34.6899986         2.58071509E-10
   34.8050003         2.54167937E-10
   34.9199982         2.49931825E-10
   35.0349998         2.45358234E-10
   35.1500015         2.40443554E-10
   35.2649994         2.35185593E-10
   35.3800011         2.29583852E-10
   35.4949989         2.23639676E-10
   35.6100006         2.17356175E-10
   35.7249985         2.10738246E-10
   35.8400002         2.03792233E-10
   35.9550018         1.96525837E-10
   36.0699997         1.88947816E-10
   36.1850014         1.81067841E-10
   36.2999992         1.72896183E-10
   36.4150009         1.64443778E-10
   36.5299988         1.55721963E-10
   36.6450005         1.46742646E-10
   36.7599983         1.37518247E-10
   36.8750000         1.28061825E-10
   36.9900017         1.18387231E-10
   37.1049995         1.08509104E-10
   37.2200012         9.84429135E-11
   37.3349991         8.82049642E-11
   37.4500008         7.78122011E-11
   37.5649986         6.72819717E-11
   37.6800003         5.66316577E-11
   37.7949982         4.58782873E-11
   37.9099998         3.50379691E-11
   38.0250015         2.41254065E-11
   38.1399994         1.31533794E-11
   38.2550011         2.13236026E-12
   38.3699989        -8.92987073E-12
   38.4850006        -2.00283609E-11
   38.5999985        -3.11609002E-11
   38.7150002        -4.23277524E-11
   38.8300018        -5.35311830E-11
   38.9449997        -6.47747689E-11
   39.0600014        -7.60626284E-11
   39.1749992        -8.73982553E-11
   39.2900009        -9.87836896E-11
   39.4049988        -1.10218515E-10
   39.5200005        -1.21698901E-10
   39.6349983        -1.33217118E-10
   39.7500000        -1.44760925E-10
   39.8650017        -1.56313656E-10
   39.9799995        -1.67854425E-10
   40.0950012        -1.79358764E-10
   40.2099991        -1.90799543E-10
   40.3250008        -2.02148270E-10
   40.4399986        -2.13376247E-10
   40.5550003        -2.24456648E-10
   40.6699982        -2.35365394E-10
   40.7849998        -2.46083154E-10
   40.9000015        -2.56596078E-10
   41.0149994        -2.66896838E-10
   41.1300011        -2.76985129E-10
   41.2449989        -2.86867474E-10
   41.3600006        -2.96556862E-10
   41.4749985        -3.06071807E-10
   41.5900002        -3.15434873E-10
   41.7050018        -3.24671207E-10
   41.8199997        -3.33806482E-10
   41.9350014        -3.42865181E-10
   42.0499992        -3.51868784E-10
   42.1650009        -3.60833891E-10
   42.2799988        -3.69771297E-10
   42.3950005        -3.78684917E-10
   42.5099983        -3.87571669E-10
   42.6250000        -3.96421562E-10
   42.7400017        -4.05218498E-10
   42.8549995        -4.13941409E-10
   42.9700012        -4.22565982E-10
   43.0849991        -4.31066294E-10
   43.2000008        -4.39416920E-10
   43.3149986        -4.47594711E-10
   43.4300003        -4.55580518E-10
   43.5449982        -4.63360544E-10
   43.6599998        -4.70927353E-10
   43.7750015        -4.78280082E-10
   43.8899994        -4.85424756E-10
   44.0050011        -4.92373309E-10
   44.1199989        -4.99142616E-10
   44.2350006        -5.05753328E-10
   44.3499985        -5.12227927E-10
   44.4650002        -5.18588950E-10
   44.5800018        -5.24858323E-10
   44.6949997        -5.31054589E-10
   44.8100014        -5.37192901E-10
   44.9249992        -5.43284029E-10
   45.0400009        -5.49334356E-10
   45.1549988        -5.55346213E-10
   45.2700005        -5.61319102E-10
   45.3849983        -5.67250413E-10
   45.5000000        -5.73137371E-10
   45.6150017        -5.78978476E-10
   45.7299995        -5.84775228E-10
   45.8450012        -5.90533400E-10
   45.9599991        -5.96264316E-10
   46.0750008        -6.01985128E-10
   46.1899986        -6.07719208E-10
   46.3050003        -6.13495421E-10
   46.4199982        -6.19347462E-10
   46.5349998        -6.25312080E-10
   46.6500015        -6.31427188E-10
   46.7649994        -6.37730257E-10
   46.8800011        -6.44255815E-10
   46.9949989        -6.51033727E-10
   47.1100006        -6.58087806E-10
   47.2249985        -6.65434263E-10
   47.3400002        -6.73081202E-10
   47.4550018        -6.81029066E-10
   47.5699997        -6.89270641E-10
   47.6850014        -6.97792824E-10
   47.7999992        -7.06577963E-10
   47.9150009        -7.15606130E-10
   48.0299988        -7.24857341E-10
   48.1450005        -7.34313499E-10
   48.2599983        -7.43960338E-10
   48.3750000        -7.53789309E-10
   48.4900017        -7.63798025E-10
   48.6049995        -7.73991149E-10
   48.7200012        -7.84379284E-10
   48.8349991        -7.94978749E-10
   48.9500008        -8.05808975E-10
   49.0649986        -8.16891166E-10
   49.1800003        -8.28244917E-10
   49.2949982        -8.39886216E-10
   49.4099998        -8.51824333E-10
   49.5250015        -8.64059713E-10
   49.6399994        -8.76582029E-10
   49.7550011        -8.89369023E-10
   49.8699989        -9.02385444E-10
   49.9850006        -9.15583942E-10
   50.0999985        -9.28905064E-10
   50.2150002        -9.42279810E-10
   50.3300018        -9.55630797E-10
   50.4449997        -9.68875424E-10
   50.5600014        -9.81927761E-10
   50.6749992        -9.94701432E-10
   50.7900009        -1.00711217E-09
   50.9049988        -1.01907904E-09
   51.0200005        -1.03052633E-09
   51.1349983        -1.04138376E-09
   51.2500000        -1.05158726E-09
   51.3650017        -1.06107689E-09
   51.4799995        -1.06979792E-09
   51.5950012        -1.07769715E-09
   51.7099991        -1.08472209E-09
   51.8250008        -1.09081910E-09
   51.9399986        -1.09593168E-09
   52.0550003        -1.09999909E-09
   52.1699982        -1.10295495E-09
   52.2849998        -1.10472742E-09
   52.4000015        -1.10523912E-09
   52.5149994        -1.10440823E-09
   52.6300011        -1.10214948E-09
   52.7449989        -1.09837583E-09
   52.8600006        -1.09300113E-09
   52.9749985        -1.08594134E-09
   53.0900002        -1.07711695E-09
   53.2050018        -1.06645470E-09
   53.3199997        -1.05388864E-09
   53.4350014        -1.03936093E-09
   53.5499992        -1.02282172E-09
   53.6650009        -1.00422859E-09
   53.7799988        -9.83545356E-10
   53.8950005        -9.60739821E-10
   54.0099983        -9.35783118E-10
   54.1250000        -9.08645603E-10
   54.2400017        -8.79296191E-10
   54.3549995        -8.47699577E-10
   54.4700012        -8.13814904E-10
   54.5849991        -7.77595210E-10
   54.7000008        -7.38986816E-10
   54.8149986        -6.97929825E-10
   54.9300003        -6.54359678E-10
   55.0449982        -6.08209094E-10
   55.1599998        -5.59410074E-10
   55.2750015        -5.07896836E-10
   55.3899994        -4.53609317E-10
   55.5050011        -3.96495253E-10
   55.6199989        -3.36513012E-10
   55.7350006        -2.73633255E-10
   55.8499985        -2.07840689E-10
   55.9650002        -1.39133954E-10
   56.0800018        -6.75254297E-11
   56.1949997         6.95987712E-12
   56.3100014         8.42862169E-11
   56.4249992         1.64409764E-10
   56.5400009         2.47281501E-10
   56.6549988         3.32849914E-10
   56.7700005         4.21064128E-10
   56.8849983         5.11876375E-10
   57.0000000         6.05243189E-10
   57.1150017         7.01127378E-10
   57.2299995         7.99497579E-10
   57.3450012         9.00328034E-10
   57.4599991         1.00359610E-09
   57.5750008         1.10928089E-09
   57.6899986         1.21735988E-09
   57.8050003         1.32780520E-09
   57.9199982         1.44058132E-09
   58.0349998         1.55564028E-09
   58.1500015         1.67292047E-09
   58.2649994         1.79234338E-09
   58.3800011         1.91381266E-09
   58.4949989         2.03721418E-09
   58.6100006         2.16241602E-09
   58.7249985         2.28926988E-09
   58.8400002         2.41761500E-09
   58.9550018         2.54727972E-09
   59.0699997         2.67808420E-09
   59.1850014         2.80984613E-09
   59.2999992         2.94238145E-09
   59.4150009         3.07550785E-09
   59.5299988         3.20904858E-09
   59.6450005         3.34283023E-09
   59.7599983         3.47668494E-09
   59.8750000         3.61045083E-09
   59.9900017         3.74396691E-09
   60.1049995         3.87707422E-09
   60.2200012         4.00961042E-09
   60.3349991         4.14140988E-09
   60.4500008         4.27229763E-09
   60.5649986         4.40208936E-09
   60.6800003         4.53058968E-09
   60.7949982         4.65759031E-09
   60.9099998         4.78287276E-09
   61.0250015         4.90620744E-09
   61.1399994         5.02735809E-09
   61.2550011         5.14608578E-09
   61.3699989         5.26215338E-09
   61.4850006         5.37532774E-09
   61.5999985         5.48538726E-09
   61.7150002         5.59212543E-09
   61.8300018         5.69535397E-09
   61.9449997         5.79490544E-09
   62.0600014         5.89063331E-09
   62.1749992         5.98241545E-09
   62.2900009         6.07014838E-09
   62.4049988         6.15374685E-09
   62.5200005         6.23313623E-09
   62.6349983         6.30825303E-09
   62.7500000         6.37903552E-09
   62.8650017         6.44542109E-09
   62.9799995         6.50733867E-09
   63.0950012         6.56470833E-09
   63.2099991         6.61743771E-09
   63.3250008         6.66542155E-09
   63.4399986         6.70854172E-09
   63.5550003         6.74666989E-09
   63.6699982         6.77967371E-09
   63.7849998         6.80741907E-09
   63.9000015         6.82977985E-09
   64.0149994         6.84663926E-09
   64.1299973         6.85790091E-09
   64.2450027         6.86349111E-09
   64.3600006         6.86336588E-09
   64.4749985         6.85751056E-09
   64.5899963         6.84594248E-09
   64.7050018         6.82870871E-09
   64.8199997         6.80588386E-09
   64.9349976         6.77756518E-09
   65.0500031         6.74386635E-09
   65.1650009         6.70491218E-09
   65.2799988         6.66083011E-09
   65.3949966         6.61174315E-09
   65.5100021         6.55776766E-09
   65.6250000         6.49900667E-09
   65.7399979         6.43554765E-09
   65.8550034         6.36746433E-09
   65.9700012         6.29481800E-09
   66.0849991         6.21766016E-09
   66.1999969         6.13604367E-09
   66.3150024         6.05002004E-09
   66.4300003         5.95965810E-09
   66.5449982         5.86504356E-09
   66.6600037         5.76629233E-09
   66.7750015         5.66354830E-09
   66.8899994         5.55699398E-09
   67.0049973         5.44684786E-09
   67.1200027         5.33336530E-09
   67.2350006         5.21683452E-09
   67.3499985         5.09756770E-09
   67.4649963         4.97589747E-09
   67.5800018         4.85216445E-09
   67.6949997         4.72670880E-09
   67.8099976         4.59986005E-09
   67.9250031         4.47192949E-09
   68.0400009         4.34319825E-09
   68.1549988         4.21391810E-09
   68.2699966         4.08430489E-09
   68.3850021         3.95453892E-09
   68.5000000         3.82476673E-09
   68.6149979         3.69510711E-09
   68.7300034         3.56565577E-09
   68.8450012         3.43649353E-09
   68.9599991         3.30769323E-09
   69.0749969         3.17932902E-09
   69.1900024         3.05148085E-09
   69.3050003         2.92423907E-09
   69.4199982         2.79770829E-09
   69.5350037         2.67200706E-09
   69.6500015         2.54726285E-09
   69.7649994         2.42360976E-09
   69.8799973         2.30117991E-09
   69.9950027         2.18009566E-09
   70.1100006         2.06046114E-09
   70.2249985         1.94235250E-09
   70.3399963         1.82581150E-09
   70.4550018         1.71083814E-09
   70.5699997         1.59738900E-09
   70.6849976         1.48537604E-09
   70.8000031         1.37466916E-09
   70.9150009         1.26510058E-09
   71.0299988         1.15647580E-09
   71.1449966         1.04858122E-09
   71.2600021         9.41196676E-10
   71.3750000         8.34105174E-10
   71.4899979         7.27107097E-10
   71.6050034         6.20027141E-10
   71.7200012         5.12723752E-10
   71.8349991         4.05090739E-10
   71.9499969         2.97061931E-10
   72.0650024         1.88606353E-10
   72.1800003         7.97235611E-11
   72.2949982        -2.95636848E-11
   72.4100037        -1.39219192E-10
   72.5250015        -2.49204657E-10
   72.6399994        -3.59493768E-10
   72.7549973        -4.70077643E-10
   72.8700027        -5.80977710E-10
   72.9850006        -6.92249036E-10
   73.0999985        -8.03983990E-10
   73.2149963        -9.16314691E-10
   73.3300018        -1.02940456E-09
   73.4449997        -1.14344523E-09
   73.5599976        -1.25864597E-09
   73.6750031        -1.37522260E-09
   73.7900009        -1.49338641E-09
   73.9049988        -1.61333336E-09
   74.0199966        -1.73523340E-09
   74.1350021        -1.85922422E-09