  -18.8999996       0.00000000    
  -18.7849998       0.00000000    
  -18.6700001       0.00000000    
  -18.5550003       0.00000000    
  -18.4400005       0.00000000    
  -18.3250008       0.00000000    
  -18.2099991       0.00000000    
  -18.0949993       0.00000000    
  -17.9799995       7.47970072E-37
  -17.8649998       3.19643632E-35
  -17.7500000       4.28270245E-34
  -17.6350002       3.33764393E-33
  -17.5200005       1.84201434E-32
  -17.4050007       7.89939668E-32
  -17.2900009       2.77147432E-31
  -17.1749992       8.19820699E-31
  -17.0599995       2.07777222E-30
  -16.9449997       4.52750922E-30
  -16.8299999       8.36501792E-30
  -16.7150002       1.24282674E-29
  -16.6000004       1.19992312E-29
  -16.4850006      -4.75036301E-30
  -16.3700008      -6.12039592E-29
  -16.2549992      -1.95740385E-28
  -16.1399994      -4.60100812E-28
  -16.0249996      -9.06145898E-28
  -15.9099998      -1.55283793E-27
  -15.7950001      -2.32645674E-27
  -15.6800003      -2.97355649E-27
  -15.5649996      -2.96048366E-27
  -15.4499998      -1.39641419E-27
  -15.3350000       2.95340972E-27
  -15.2200003       1.14688620E-26
  -15.1049995       2.51823552E-26
  -14.9899998       4.39092891E-26
  -14.8750000       6.50074511E-26
  -14.7600002       8.19469633E-26
  -14.6450005       8.31410891E-26
  -14.5299997       5.18197737E-26
  -14.4150000      -3.19607027E-26
  -14.3000002      -1.85940715E-25
  -14.1850004      -4.15934061E-25
  -14.0699997      -7.01668109E-25
  -13.9549999      -9.79826775E-25
  -13.8400002      -1.12852942E-24
  -13.7250004      -9.60659625E-25
  -13.6099997      -2.36473678E-25
  -13.4949999       1.29252670E-24
  -13.3800001       3.79810967E-24
  -13.2650003       7.24459484E-24
  -13.1499996       1.12225751E-23
  -13.0349998       1.47768178E-23
  -12.9200001       1.62829553E-23
  -12.8050003       1.34522920E-23
  -12.6899996       3.56042312E-24
  -12.5749998      -1.60075166E-23
  -12.4600000      -4.68360919E-23
  -12.3450003      -8.81985683E-23
  -12.2299995      -1.35548859E-22
  -12.1149998      -1.79072460E-22
  -12.0000000      -2.02748524E-22
  -11.8850002      -1.84514528E-22
  -11.7700005      -9.81868663E-23
  -11.6549997       8.22863587E-23
  -11.5400000       3.75929960E-22
  -11.4250002       7.85382041E-22
  -11.3100004       1.28594677E-21
  -11.1949997       1.81478297E-21
  -11.0799999       2.26281517E-21
  -10.9650002       2.47264056E-21
  -10.8500004       2.24599590E-21
  -10.7349997       1.36398276E-21
  -10.6199999      -3.77949242E-22
  -10.5050001      -3.12039730E-21
  -10.3900003      -6.87893656E-21
  -10.2749996      -1.14783807E-20
  -10.1599998      -1.64929458E-20
  -10.0450001      -2.12061693E-20
  -9.93000031      -2.46063452E-20
  -9.81499958      -2.54330089E-20
  -9.69999981      -2.22869680E-20
  -9.58500004      -1.38098563E-20
  -9.47000027       1.07046966E-21
  -9.35499954       2.28448447E-20
  -9.23999977       5.11083009E-20
  -9.12500000       8.42701235E-20
  -9.01000023       1.19343732E-19
  -8.89500046       1.51877469E-19
  -8.77999973       1.76085827E-19
  -8.66499996       1.85228758E-19
  -8.55000019       1.72264175E-19
  -8.43500042       1.30765170E-19
  -8.31999969       5.60505596E-20
  -8.20499992      -5.35702101E-20
  -8.09000015      -1.95584620E-19
  -7.97499990      -3.62284093E-19
  -7.86000013      -5.40202293E-19
  -7.74499989      -7.10197525E-19
  -7.63000011      -8.48363467E-19
  -7.51499987      -9.27889025E-19
  -7.40000010      -9.21890311E-19
  -7.28499985      -8.07108506E-19
  -7.17000008      -5.68218125E-19
  -7.05499983      -2.02337567E-19
  -6.94000006       2.76811055E-19
  -6.82499981       8.35746378E-19
  -6.71000004       1.41977715E-18
  -6.59499979       1.95392365E-18
  -6.48000002       2.34675152E-18
  -6.36499977       2.49743053E-18
  -6.25000000       2.30601515E-18
  -6.13500023       1.68655075E-18
  -6.01999998       5.82171680E-19
  -5.90500021      -1.01907576E-18
  -5.78999996      -3.06934238E-18
  -5.67500019      -5.44895302E-18
  -5.55999994      -7.95932376E-18
  -5.44500017      -1.03228211E-17
  -5.32999992      -1.21912757E-17
  -5.21500015      -1.31643354E-17
  -5.09999990      -1.28181033E-17
  -4.98500013      -1.07435558E-17
  -4.86999989      -6.59319610E-18
  -4.75500011      -1.33286585E-19
  -4.63999987       8.70205419E-18
  -4.52500010       1.97594886E-17
  -4.40999985       3.26230902E-17
  -4.29500008       4.65844761E-17
  -4.17999983       6.06318889E-17
  -4.06500006       7.34628896E-17
  -3.95000005       8.35243903E-17
  -3.83500004       8.90820580E-17
  -3.72000003       8.83189541E-17
  -3.60500002       7.94613453E-17
  -3.49000001       6.09267358E-17
  -3.37500000       3.14869477E-17
  -3.25999999      -9.56320133E-18
  -3.14499998      -6.22428198E-17
  -3.02999997      -1.25739950E-16
  -2.91499996      -1.98297282E-16
  -2.79999995      -2.77140816E-16
  -2.68499994      -3.58462014E-16
  -2.56999993      -4.37461415E-16
  -2.45499992      -5.08457996E-16
  -2.33999991      -5.65065102E-16
  -2.22499990      -6.00427934E-16
  -2.10999990      -6.07514688E-16
  -1.99500000      -5.79446716E-16
  -1.88000000      -5.09852424E-16
  -1.76499999      -3.93224034E-16
  -1.64999998      -2.25258089E-16
  -1.53499997      -3.15963121E-18
  -1.41999996       2.74107035E-16
  -1.30499995       6.05633587E-16
  -1.19000006       9.88456533E-16
  -1.07500005       1.41751948E-15
 -0.959999979       1.88570350E-15
 -0.845000029       2.38391218E-15
 -0.730000019       2.90119351E-15
 -0.615000010       3.42487756E-15
 -0.500000000       3.94070771E-15
 -0.384999990       4.43294947E-15
 -0.270000011       4.88445657E-15
 -0.155000001       5.27670228E-15
  -3.99999991E-02   5.58977159E-15
   7.50000030E-02   5.80234298E-15
  0.189999998       5.89169140E-15
  0.305000007       5.83376112E-15
  0.419999987       5.60335969E-15
  0.535000026       5.17453529E-15
  0.649999976       4.52119845E-15
  0.764999986       3.61803135E-15
  0.879999995       2.44172218E-15
  0.995000005       9.72533690E-16
   1.11000001      -8.03812403E-16
   1.22500002      -2.89399161E-15
   1.34000003      -5.29475721E-15
   1.45500004      -7.99057255E-15
   1.57000005      -1.09513440E-14
   1.68499994      -1.41304450E-14
   1.79999995      -1.74631970E-14
   1.91499996      -2.08660231E-14
   2.02999997      -2.42364265E-14
   2.14499998      -2.74539624E-14
   2.25999999      -3.03822756E-14
   2.37500000      -3.28722746E-14
   2.49000001      -3.47663894E-14
   2.60500002      -3.59038361E-14
   2.72000003      -3.61267074E-14
   2.83500004      -3.52866438E-14
   2.95000005      -3.32517996E-14
   3.06500006      -2.99137343E-14
   3.18000007      -2.51938820E-14
   3.29500008      -1.90492509E-14
   3.41000009      -1.14769339E-14
   3.52500010      -2.51724301E-15
   3.64000010       7.74483389E-15
   3.75500011       1.91799362E-14
   3.86999989       3.16164196E-14
   3.98499990       4.48441672E-14
   4.09999990       5.86198638E-14
   4.21500015       7.26735160E-14
   4.32999992       8.67157705E-14
   4.44500017       1.00445666E-13
   4.55999994       1.13558339E-13
   4.67500019       1.25752287E-13
   4.78999996       1.36735797E-13
   4.90500021       1.46232269E-13
   5.01999998       1.53984274E-13
   5.13500023       1.59756214E-13
   5.25000000       1.63335816E-13
   5.36499977       1.64534456E-13
   5.48000002       1.63186833E-13
   5.59499979       1.59150186E-13
   5.71000004       1.52303639E-13
   5.82499981       1.42547934E-13
   5.94000006       1.29806078E-13
   6.05499983       1.14024946E-13
   6.17000008       9.51782463E-14
   6.28499985       7.32705387E-14
   6.40000010       4.83423353E-14
   6.51499987       2.04757645E-14
   6.63000011      -1.01995887E-14
   6.74499989      -4.35013794E-14
   6.86000013      -7.91902893E-14
   6.97499990      -1.16967728E-13
   7.09000015      -1.56475879E-13
   7.20499992      -1.97300523E-13
   7.32000017      -2.38977214E-13
   7.43499994      -2.81000348E-13
   7.55000019      -3.22835237E-13
   7.66499996      -3.63932788E-13
   7.78000021      -4.03745315E-13
   7.89499998      -4.41743457E-13
   8.01000023      -4.77432113E-13
   8.12500000      -5.10364971E-13
   8.23999977      -5.40155702E-13
   8.35499954      -5.66485281E-13
   8.47000027      -5.89104124E-13
   8.58500004      -6.07828512E-13
   8.69999981      -6.22531486E-13
   8.81499958      -6.33127936E-13
   8.93000031      -6.39554815E-13
   9.04500008      -6.41747343E-13
   9.15999985      -6.39613200E-13
   9.27499962      -6.33005909E-13
   9.39000034      -6.21699903E-13
   9.50500011      -6.05368999E-13
   9.61999989      -5.83570681E-13
   9.73499966      -5.55738019E-13
   9.85000038      -5.21179996E-13
   9.96500015      -4.79092189E-13
   10.0799999      -4.28577611E-13
   10.1949997      -3.68677148E-13
   10.3100004      -2.98409626E-13
   10.4250002      -2.16818967E-13
   10.5400000      -1.23026508E-13
   10.6549997      -1.62859855E-14
   10.7700005       1.03961910E-13
   10.8850002       2.38038566E-13
   11.0000000       3.85983753E-13
   11.1149998       5.47520688E-13
   11.2299995       7.22034303E-13
   11.3450003       9.08562505E-13
   11.4600000       1.10580392E-12
   11.5749998       1.31214028E-12
   11.6899996       1.52567336E-12
   11.8050003       1.74427779E-12
   11.9200001       1.96566157E-12
   12.0349998       2.18743860E-12
   12.1499996       2.40720399E-12
   12.2650003       2.62261133E-12
   12.3800001       2.83144732E-12
   12.4949999       3.03169946E-12
   12.6099997       3.22161373E-12
   12.7250004       3.39973926E-12
   12.8400002       3.56495736E-12
   12.9549999       3.71649499E-12
   13.0699997       3.85392109E-12
   13.1850004       3.97712419E-12
   13.3000002       4.08627993E-12
   13.4150000       4.18180161E-12
   13.5299997       4.26428684E-12
   13.6450005       4.33445814E-12
   13.7600002       4.39310220E-12
   13.8750000       4.44101656E-12
   13.9899998       4.47896234E-12
   14.1049995       4.50763385E-12
   14.2200003       4.52764172E-12
   14.3350000       4.53951503E-12
   14.4499998       4.54372521E-12
   14.5649996       4.54072674E-12
   14.6800003       4.53102183E-12
   14.7950001       4.51523367E-12
   14.9099998       4.49419625E-12
   15.0249996       4.46905100E-12
   15.1400003       4.44133706E-12
   15.2550001       4.41308535E-12
   15.3699999       4.38689059E-12
   15.4849997       4.36596983E-12
   15.6000004       4.35419019E-12
   15.7150002       4.35607236E-12
   15.8299999       4.37675677E-12
   15.9449997       4.42193244E-12
   16.0599995       4.49773595E-12
   16.1749992       4.61061224E-12
   16.2900009       4.76715369E-12
   16.4050007       4.97391104E-12
   16.5200005       5.23718915E-12
   16.6350002       5.56284923E-12
   16.7500000       5.95610236E-12
   16.8649998       6.42133438E-12
   16.9799995       6.96194317E-12
   17.0949993       7.58022638E-12
   17.2099991       8.27730332E-12
   17.3250008       9.05309508E-12
   17.4400005       9.90634831E-12
   17.5550003       1.08347194E-11
   17.6700001       1.18349011E-11
   17.7849998       1.29028021E-11
   17.8999996       1.40337516E-11
   18.0149994       1.52227311E-11
   18.1299992       1.64646196E-11
   18.2450008       1.77544247E-11
   18.3600006       1.90875076E-11
   18.4750004       2.04597676E-11
   18.5900002       2.18677923E-11
   18.7049999       2.33089416E-11
   18.8199997       2.47813835E-11
   18.9349995       2.62840669E-11
   19.0499992       2.78166292E-11
   19.1650009       2.93792525E-11
   19.2800007       3.09724676E-11
   19.3950005       3.25969217E-11
   19.5100002       3.42531351E-11
   19.6250000       3.59412396E-11
   19.7399998       3.76607391E-11
   19.8549995       3.94102737E-11
   19.9699993       4.11874423E-11
   20.0849991       4.29886647E-11
   20.2000008       4.48090835E-11
   20.3150005       4.66425683E-11
   20.4300003       4.84817360E-11
   20.5450001       5.03180275E-11
   20.6599998       5.21418707E-11
   20.7749996       5.39428224E-11
   20.8899994       5.57097632E-11
   21.0049992       5.74310911E-11
   21.1200008       5.90949373E-11
   21.2350006       6.06893216E-11
   21.3500004       6.22022850E-11
   21.4650002       6.36220590E-11
   21.5799999       6.49370765E-11
   21.6949997       6.61360619E-11
   21.8099995       6.72080308E-11
   21.9249992       6.81422835E-11
   22.0400009       6.89284047E-11
   22.1550007       6.95562705E-11
   22.2700005       7.00160624E-11
   22.3850002       7.02983366E-11
   22.5000000       7.03941419E-11
   22.6149998       7.02951378E-11
   22.7299995       6.99938510E-11
   22.8449993       6.94838978E-11
   22.9599991       6.87603099E-11
   23.0750008       6.78198400E-11
   23.1900005       6.66612598E-11
   23.3050003       6.52856935E-11
   23.4200001       6.36968187E-11
   23.5349998       6.19011023E-11
   23.6499996       5.99078009E-11
   23.7649994       5.77289432E-11
   23.8799992       5.53791145E-11
   23.9950008       5.28751244E-11
   24.1100006       5.02355102E-11
   24.2250004       4.74799158E-11
   24.3400002       4.46283392E-11
   24.4549999       4.17003307E-11
   24.5699997       3.87141257E-11
   24.6849995       3.56857530E-11
   24.7999992       3.26281918E-11
   24.9150009       2.95506779E-11
   25.0300007       2.64580354E-11
   25.1450005       2.33502315E-11
   25.2600002       2.02221868E-11
   25.3750000       1.70637272E-11
   25.4899998       1.38597987E-11
   25.6049995       1.05909552E-11
   25.7199993       7.23404886E-12
   25.8349991       3.76308750E-12
   25.9500008       1.50320864E-13
   26.0650005      -3.63266925E-12
   26.1800003      -7.61370827E-12
   26.2950001      -1.18188332E-11
   26.4099998      -1.62711060E-11
   26.5249996      -2.09895799E-11
   26.6399994      -2.59883243E-11
   26.7549992      -3.12757424E-11
   26.8700008      -3.68540962E-11
   26.9850006      -4.27191477E-11
   27.1000004      -4.88602700E-11
   27.2150002      -5.52605427E-11
   27.3299999      -6.18972790E-11
   27.4449997      -6.87425533E-11
   27.5599995      -7.57640756E-11
   27.6749992      -8.29261104E-11
   27.7900009      -9.01903413E-11
   27.9050007      -9.75168973E-11
   28.0200005      -1.04865443E-10
   28.1350002      -1.12196141E-10
   28.2500000      -1.19470503E-10
   28.3649998      -1.26652133E-10
   28.4799995      -1.33707545E-10
   28.5949993      -1.40606596E-10
   28.7099991      -1.47323043E-10
   28.8250008      -1.53834681E-10
   28.9400005      -1.60123650E-10
   29.0550003      -1.66176434E-10
   29.1700001      -1.71983788E-10
   29.2849998      -1.77540566E-10
   29.3999996      -1.82845475E-10
   29.5149994      -1.87900751E-10
   29.6299992      -1.92711652E-10
   29.7450008      -1.97285993E-10
   29.8600006      -2.01633668E-10
   29.9750004      -2.05765821E-10
   30.0900002      -2.09694331E-10
   30.2049999      -2.13430953E-10
   30.3199997      -2.16986679E-10
   30.4349995      -2.20370874E-10
   30.5499992      -2.23590577E-10
   30.6650009      -2.26649935E-10
   30.7800007      -2.29549449E-10
   30.8950005      -2.32285496E-10
   31.0100002      -2.34850084E-10
   31.1250000      -2.37230541E-10
   31.2399998      -2.39409437E-10
   31.3549995      -2.41364845E-10
   31.4699993      -2.43070564E-10
   31.5849991      -2.44496812E-10
   31.7000008      -2.45610865E-10
   31.8150005      -2.46377946E-10
   31.9300003      -2.46762250E-10
   32.0449982      -2.46728110E-10
   32.1599998      -2.46240972E-10
   32.2750015      -2.45268639E-10
   32.3899994      -2.43782272E-10
   32.5050011      -2.41757309E-10
   32.6199989      -2.39174180E-10
   32.7350006      -2.36018982E-10
   32.8499985      -2.32283762E-10
   32.9650002      -2.27966590E-10
   33.0800018      -2.23071506E-10
   33.1949997      -2.17608181E-10
   33.3100014      -2.11591369E-10
   33.4249992      -2.05040193E-10
   33.5400009      -1.97977357E-10
   33.6549988      -1.90428298E-10
   33.7700005      -1.82420135E-10
   33.8849983      -1.73980885E-10
   34.0000000      -1.65138653E-10
   34.1150017      -1.55920915E-10
   34.2299995      -1.46353984E-10
   34.3450012      -1.36462633E-10
   34.4599991      -1.26269925E-10
   34.5750008      -1.15797094E-10
   34.6899986      -1.05063805E-10
   34.8050003      -9.40883829E-11
   34.9199982      -8.28882171E-11
   35.0349998      -7.14803217E-11
   35.1500015      -5.98818217E-11
   35.2649994      -4.81105884E-11
   35.3800011      -3.61858529E-11
   35.4949989      -2.41286852E-11
   35.6100006      -1.19627372E-11
   35.7249985       2.85489622E-13
   35.8400002       1.25860199E-11
   35.9550018       2.49052844E-11
   36.0699997       3.72057107E-11
   36.1850014       4.94457045E-11
   36.2999992       6.15793805E-11
   36.4150009       7.35567857E-11
   36.5299988       8.53237064E-11
   36.6450005       9.68220087E-11
   36.7599983       1.07989749E-10
   36.8750000       1.18761709E-10
   36.9900017       1.29069436E-10
   37.1049995       1.38842285E-10
   37.2200012       1.48007592E-10
   37.3349991       1.56492028E-10
   37.4500008       1.64221942E-10
   37.5649986       1.71124823E-10
   37.6800003       1.77130394E-10
   37.7949982       1.82171736E-10
   37.9099998       1.86186441E-10
   38.0250015       1.89118096E-10
   38.1399994       1.90917421E-10
   38.2550011       1.91543476E-10
   38.3699989       1.90964772E-10
   38.4850006       1.89160063E-10
   38.5999985       1.86119176E-10
   38.7150002       1.81843332E-10
   38.8300018       1.76345397E-10
   38.9449997       1.69649614E-10
   39.0600014       1.61791344E-10
   39.1749992       1.52816274E-10
   39.2900009       1.42779358E-10
   39.4049988       1.31743644E-10
   39.5200005       1.19779020E-10
   39.6349983       1.06960427E-10
   39.7500000       9.33665367E-11
   39.8650017       7.90778970E-11
   39.9799995       6.41754289E-11
   40.0950012       4.87387283E-11
   40.2099991       3.28447061E-11
   40.3250008       1.65663160E-11
   40.4399986      -2.86782893E-14
   40.5550003      -1.68786513E-11
   40.6699982      -3.39288458E-11
   40.7849998      -5.11318245E-11
   40.9000015      -6.84480250E-11
   41.0149994      -8.58456015E-11
   41.1300011      -1.03300569E-10
   41.2449989      -1.20796359E-10
   41.3600006      -1.38323478E-10
   41.4749985      -1.55878699E-10
   41.5900002      -1.73464271E-10
   41.7050018      -1.91086882E-10
   41.8199997      -2.08756470E-10
   41.9350014      -2.26484873E-10
   42.0499992      -2.44284454E-10
   42.1650009      -2.62166372E-10
   42.2799988      -2.80139273E-10
   42.3950005      -2.98207625E-10
   42.5099983      -3.16370236E-10
   42.6250000      -3.34619138E-10
   42.7400017      -3.52938567E-10
   42.8549995      -3.71304293E-10
   42.9700012      -3.89683480E-10
   43.0849991      -4.08034689E-10
   43.2000008      -4.26308933E-10
   43.3149986      -4.44450310E-10
   43.4300003      -4.62397898E-10
   43.5449982      -4.80087636E-10
   43.6599998      -4.97454467E-10
   43.7750015      -5.14434884E-10
   43.8899994      -5.30969435E-10
   44.0050011      -5.47005163E-10
   44.1199989      -5.62497604E-10
   44.2350006      -5.77412951E-10
   44.3499985      -5.91728833E-10
   44.4650002      -6.05434702E-10
   44.5800018      -6.18532114E-10
   44.6949997      -6.31033448E-10
   44.8100014      -6.42960074E-10
   44.9249992      -6.54340138E-10
   45.0400009      -6.65205668E-10
   45.1549988      -6.75589307E-10
   45.2700005      -6.85520973E-10
   45.3849983      -6.95024649E-10
   45.5000000      -7.04115100E-10
   45.6150017      -7.12795656E-10
   45.7299995      -7.21056215E-10
   45.8450012      -7.28872351E-10
   45.9599991      -7.36205596E-10
   46.0750008      -7.43003992E-10
   46.1899986      -7.49204365E-10
   46.3050003      -7.54735607E-10
   46.4199982      -7.59521446E-10
   46.5349998      -7.63484831E-10
   46.6500015      -7.66551933E-10
   46.7649994      -7.68656194E-10
   46.8800011      -7.69741215E-10
   46.9949989      -7.69764308E-10
   47.1100006      -7.68698216E-10
   47.2249985      -7.66531505E-10
   47.3400002      -7.63268837E-10
   47.4550018      -7.58929197E-10
   47.5699997      -7.53543505E-10
   47.6850014      -7.47151230E-10
   47.7999992      -7.39796169E-10
   47.9150009      -7.31522010E-10
   48.0299988      -7.22367721E-10
   48.1450005      -7.12363613E-10
   48.2599983      -7.01527503E-10
   48.3750000      -6.89862389E-10
   48.4900017      -6.77354728E-10
   48.6049995      -6.63974653E-10
   48.7200012      -6.49676923E-10
   48.8349991      -6.34403363E-10
   48.9500008      -6.18086582E-10
   49.0649986      -6.00654360E-10
   49.1800003      -5.82034365E-10
   49.2949982      -5.62159874E-10
   49.4099998      -5.40974321E-10
   49.5250015      -5.18436516E-10
   49.6399994      -4.94523811E-10
   49.7550011      -4.69234707E-10
   49.8699989      -4.42590326E-10
   49.9850006      -4.14633244E-10
   50.0999985      -3.85426802E-10
   50.2150002      -3.55050933E-10
   50.3300018      -3.23598537E-10
   50.4449997      -2.91169922E-10
   50.5600014      -2.57867422E-10
   50.6749992      -2.23789320E-10
   50.7900009      -1.89025129E-10
   50.9049988      -1.53650453E-10
   51.0200005      -1.17723747E-10
   51.1349983      -8.12840767E-11
   51.2500000      -4.43506482E-11
   51.3650017      -6.92313828E-12
   51.4799995       3.10157178E-11
   51.5950012       6.94965821E-11
   51.7099991       1.08558711E-10
   51.8250008       1.48245222E-10
   51.9399986       1.88596805E-10
   52.0550003       2.29646246E-10
   52.1699982       2.71413308E-10
   52.2849998       3.13900406E-10
   52.4000015       3.57089996E-10
   52.5149994       4.00942834E-10
   52.6300011       4.45397635E-10
   52.7449989       4.90372465E-10
   52.8600006       5.35767430E-10
   52.9749985       5.81469983E-10
   53.0900002       6.27358943E-10
   53.2050018       6.73308909E-10
   53.3199997       7.19197035E-10
   53.4350014       7.64907693E-10
   53.5499992       8.10338241E-10
   53.6650009       8.55401028E-10
   53.7799988       9.00027108E-10
   53.8950005       9.44166523E-10
   54.0099983       9.87787963E-10
   54.1250000       1.03087738E-09
   54.2400017       1.07343412E-09
   54.3549995       1.11546639E-09
   54.4700012       1.15698673E-09
   54.5849991       1.19800547E-09
   54.7000008       1.23852517E-09
   54.8149986       1.27853539E-09
   54.9300003       1.31800826E-09
   55.0449982       1.35689382E-09
   55.1599998       1.39511969E-09
   55.2750015       1.43258905E-09
   55.3899994       1.46918178E-09
   55.5050011       1.50475676E-09
   55.6199989       1.53915602E-09
   55.7350006       1.57220914E-09
   55.8499985       1.60374047E-09
   55.9650002       1.63357483E-09
   56.0800018       1.66154523E-09
   56.1949997       1.68750081E-09
   56.3100014       1.71131365E-09
   56.4249992       1.73288384E-09
   56.5400009       1.75214743E-09
   56.6549988       1.76907866E-09
   56.7700005       1.78369308E-09
   56.8849983       1.79604875E-09
   57.0000000       1.80624549E-09
   57.1150017       1.81442283E-09
   57.2299995       1.82075677E-09
   57.3450012       1.82545445E-09
   57.4599991       1.82874860E-09
   57.5750008       1.83089122E-09
   57.6899986       1.83214455E-09
   57.8050003       1.83277515E-09
   57.9199982       1.83304560E-09
   58.0349998       1.83320603E-09
   58.1500015       1.83348670E-09
   58.2649994       1.83409221E-09
   58.3800011       1.83519533E-09
   58.4949989       1.83693183E-09
   58.6100006       1.83939897E-09
   58.7249985       1.84265225E-09
   58.8400002       1.84670568E-09
   58.9550018       1.85153293E-09
   59.0699997       1.85706972E-09
   59.1850014       1.86321736E-09
   59.2999992       1.86984672E-09
   59.4150009       1.87680405E-09
   59.5299988       1.88391747E-09
   59.6450005       1.89100335E-09
   59.7599983       1.89787230E-09
   59.8750000       1.90433780E-09
   59.9900017       1.91021976E-09
   60.1049995       1.91535232E-09
   60.2200012       1.91958716E-09
   60.3349991       1.92279859E-09
   60.4500008       1.92488470E-09
   60.5649986       1.92576932E-09
   60.6800003       1.92540139E-09
   60.7949982       1.92375449E-09
   60.9099998       1.92082750E-09
   61.0250015       1.91663863E-09
   61.1399994       1.91122496E-09
   61.2550011       1.90464000E-09
   61.3699989       1.89695015E-09
   61.4850006       1.88823313E-09
   61.5999985       1.87857441E-09
   61.7150002       1.86806837E-09
   61.8300018       1.85681703E-09
   61.9449997       1.84492943E-09
   62.0600014       1.83252435E-09
   62.1749992       1.81972970E-09
   62.2900009       1.80668569E-09
   62.4049988       1.79354587E-09
   62.5200005       1.78047843E-09
   62.6349983       1.76766668E-09
   62.7500000       1.75531001E-09
   62.8650017       1.74362114E-09
   62.9799995       1.73282344E-09
   63.0950012       1.72314829E-09
   63.2099991       1.71482761E-09
   63.3250008       1.70808945E-09
   63.4399986       1.70315106E-09
   63.5550003       1.70020931E-09
   63.6699982       1.69943348E-09
   63.7849998       1.70095871E-09
   63.9000015       1.70487935E-09
   64.0149994       1.71124492E-09
   64.1299973       1.72005565E-09
   64.2450027       1.73126047E-09
   64.3600006       1.74476056E-09
   64.4749985       1.76041315E-09
   64.5899963       1.77803439E-09
   64.7050018       1.79741011E-09
   64.8199997       1.81830317E-09
   64.9349976       1.84046334E-09
   65.0500031       1.86364013E-09
   65.1650009       1.88759008E-09
   65.2799988       1.91208804E-09
   65.3949966       1.93693572E-09
   65.5100021       1.96196459E-09
   65.6250000       1.98704142E-09
   65.7399979       2.01206807E-09
   65.8550034       2.03697903E-09
   65.9700012       2.06173567E-09
   66.0849991       2.08631867E-09
   66.1999969       2.11071960E-09
   66.3150024       2.13492979E-09
   66.4300003       2.15892992E-09
   66.5449982       2.18268004E-09
   66.6600037       2.20610796E-09
   66.7750015       2.22910468E-09
   66.8899994       2.25151653E-09
   67.0049973       2.27314323E-09
   67.1200027       2.29373787E-09
   67.2350006       2.31300890E-09
   67.3499985       2.33062725E-09
   67.4649963       2.34623321E-09
   67.5800018       2.35944753E-09
   67.6949997       2.36988185E-09
   67.8099976       2.37715247E-09
   67.9250031       2.38088904E-09
   68.0400009       2.38074782E-09
   68.1549988       2.37641862E-09
   68.2699966       2.36763209E-09
   68.3850021       2.35416220E-09
   68.5000000       2.33582975E-09
   68.6149979       2.31249864E-09
   68.7300034       2.28407249E-09
   68.8450012       2.25049002E-09
   68.9599991       2.21171703E-09
   69.0749969       2.16773977E-09
   69.1900024       2.11855533E-09
   69.3050003       2.06416506E-09
   69.4199982       2.00456607E-09
   69.5350037       1.93974703E-09
   69.6500015       1.86968463E-09
   69.7649994       1.79434323E-09
   69.8799973       1.71367343E-09
   69.9950027       1.62761660E-09
   70.1100006       1.53610935E-09
   70.2249985       1.43908863E-09
   70.3399963       1.33649880E-09
   70.4550018       1.22829757E-09
   70.5699997       1.11446041E-09
   70.6849976       9.94987204E-10
   70.8000031       8.69906425E-10
   70.9150009       7.39276307E-10
   71.0299988       6.03186390E-10
   71.1449966       4.61756328E-10
   71.2600021       3.15137083E-10
   71.3750000       1.63507138E-10
   71.4899979       7.06956889E-12
   71.6050034      -1.53949131E-10
   71.7200012      -3.19303556E-10
   71.8349991      -4.88730001E-10
   71.9499969      -6.61947164E-10
   72.0650024      -8.38655867E-10
   72.1800003      -1.01853770E-09
   72.2949982      -1.20124954E-09
   72.4100037      -1.38642220E-09
   72.5250015      -1.57365598E-09
   72.6399994      -1.76251280E-09
   72.7549973      -1.95251615E-09
   72.8700027      -2.14314744E-09
   72.9850006      -2.33384423E-09
   73.0999985      -2.52400212E-09
   73.2149963      -2.71297740E-09
   73.3300018      -2.90009461E-09
   73.4449997      -3.08465209E-09
   73.5599976      -3.26593219E-09
   73.6750031      -3.44321194E-09
   73.7900009      -3.61577635E-09
   73.9049988      -3.78293086E-09
   74.0199966      -3.94401356E-09
   74.1350021      -4.09840650E-09
   74.2500000      -4.24554614E-09
   74.3649979      -4.38493153E-09
   74.4800034      -4.51612792E-09
   74.5950012      -4.63876937E-09
   74.7099991      -4.75255835E-09
   74.8249969      -4.85726126E-09
   74.9400024      -4.95270402E-09
   75.0550003      -5.03876318E-09
   75.1699982      -5.11535703E-09
   75.2850037      -5.18243715E-09
   75.4000015      -5.23998356E-09
   75.5149994      -5.28799271E-09
   75.6299973      -5.32647393E-09
   75.7450027      -5.35544764E-09
   75.8600006      -5.37494049E-09
   75.9749985      -5.38499201E-09
   76.0899963      -5.38565281E-09
   76.2050018      -5.37699441E-09
   76.3199997      -5.35911404E-09
   76.4349976      -5.33214761E-09
   76.5500031      -5.29627364E-09
   76.6650009      -5.25172572E-09
   76.7799988      -5.19880050E-09
   76.8949966      -5.13786214E-09
   77.0100021      -5.06934938E-09
   77.1250000      -4.99377562E-09
   77.2399979      -4.91172880E-09
   77.3550034      -4.82387108E-09
   77.4700012      -4.73092721E-09
   77.5849991      -4.63368455E-09
   77.6999969      -4.53298066E-09
   77.8150024      -4.42969350E-09
   77.9300003      -4.32473168E-09
   78.0449982      -4.21902380E-09
   78.1600037      -4.11350642E-09
   78.2750015      -4.00911526E-09
   78.3899994      -3.90677224E-09
   78.5049973      -3.80738108E-09
   78.6200027      -3.71181685E-09
   78.7350006      -3.62091512E-09
   78.8499985      -3.53547036E-09
   78.9649963      -3.45622286E-09
   79.0800018      -3.38385608E-09
   79.1949997      -3.31898842E-09
   79.3099976      -3.26216831E-09
   79.4250031      -3.21386584E-09
   79.5400009      -3.17446358E-09