  -18.8999996        -0.00000000    
  -18.7849998        -0.00000000    
  -18.6700001         2.31576430E-23
  -18.5550003         8.86447111E-18
  -18.4400005         5.73328809E-17
  -18.3250008         2.06879790E-16
  -18.2099991         5.45897911E-16
  -18.0949993         1.16810672E-15
  -17.9799995         2.13414165E-15
  -17.8649998         3.42399495E-15
  -17.7500000         4.89315602E-15
  -17.6350002         6.24727329E-15
  -17.5200005         7.04826365E-15
  -17.4050007         6.75943092E-15
  -17.2900009         4.82965905E-15
  -17.1749992         8.08618044E-16
  -17.0599995        -5.52222071E-15
  -16.9449997        -1.40231700E-14
  -16.8299999        -2.40974504E-14
  -16.7150002        -3.46424481E-14
  -16.6000004        -4.40704297E-14
  -16.4850006        -5.04118198E-14
  -16.3700008        -5.15051631E-14
  -16.2549992        -4.52672093E-14
  -16.1399994        -3.00238960E-14
  -16.0249996        -4.87152026E-15
  -15.9099998         2.99728571E-14
  -15.7950001         7.28789994E-14
  -15.6800003         1.20617099E-13
  -15.5649996         1.68320246E-13
  -15.4499998         2.09626262E-13
  -15.3350000         2.37010959E-13
  -15.2200003         2.42302272E-13
  -15.1049995         2.17337555E-13
  -14.9899998         1.54703927E-13
  -14.8750000         4.84786263E-14
  -14.7600002        -1.05122176E-13
  -14.6450005        -3.07279836E-13
  -14.5299997        -5.56372982E-13
  -14.4150000        -8.48092213E-13
  -14.3000002        -1.17588469E-12
  -14.1850004        -1.53169881E-12
  -14.0699997        -1.90695897E-12
  -13.9549999        -2.29366439E-12
  -13.8400002        -2.68548161E-12
  -13.7250004        -3.07869225E-12
  -13.6099997        -3.47287390E-12
  -13.4949999        -3.87119937E-12
  -13.3800001        -4.28031005E-12
  -13.2650003        -4.70972523E-12
  -13.1499996        -5.17084943E-12
  -13.0349998        -5.67565092E-12
  -12.9200001        -6.23516776E-12
  -12.8050003        -6.85799334E-12
  -12.6899996        -7.54894845E-12
  -12.5749998        -8.30810074E-12
  -12.4600000        -9.13029548E-12
  -12.3450003        -1.00052692E-11
  -12.2299995        -1.09183860E-11
  -12.1149998        -1.18519257E-11
  -12.0000000        -1.27867977E-11
  -11.8850002        -1.37044742E-11
  -11.7700005        -1.45889308E-11
  -11.6549997        -1.54283183E-11
  -11.5400000        -1.62161794E-11
  -11.4250002        -1.69520196E-11
  -11.3100004        -1.76411420E-11
  -11.1949997        -1.82937242E-11
  -11.0799999        -1.89232605E-11
  -10.9650002        -1.95444737E-11
  -10.8500004        -2.01710176E-11
  -10.7349997        -2.08131359E-11
  -10.6199999        -2.14757136E-11
  -10.5050001        -2.21568146E-11
  -10.3900003        -2.28470558E-11
  -10.2749996        -2.35298551E-11
  -10.1599998        -2.41825587E-11
  -10.0450001        -2.47784016E-11
  -9.93000031        -2.52890348E-11
  -9.81499958        -2.56873585E-11
  -9.69999981        -2.59502871E-11
  -9.58500004        -2.60611706E-11
  -9.47000027        -2.60114152E-11
  -9.35499954        -2.58012240E-11
  -9.23999977        -2.54392393E-11
  -9.12500000        -2.49410388E-11
  -9.01000023        -2.43267628E-11
  -8.89500046        -2.36180190E-11
  -8.77999973        -2.28344704E-11
  -8.66499996        -2.19904390E-11
  -8.55000019        -2.10920031E-11
  -8.43500042        -2.01349475E-11
  -8.31999969        -1.91036718E-11
  -8.20499992        -1.79713883E-11
  -8.09000015        -1.67014510E-11
  -7.97499990        -1.52496453E-11
  -7.86000013        -1.35674215E-11
  -7.74499989        -1.16053243E-11
  -7.63000011        -9.31653019E-12
  -7.51499987        -6.65992261E-12
  -7.40000010        -3.60241004E-12
  -7.28499985        -1.20216337E-13
  -7.17000008         3.80111220E-12
  -7.05499983         8.16782059E-12
  -6.94000006         1.29801447E-11
  -6.82499981         1.82354756E-11
  -6.71000004         2.39315581E-11
  -6.59499979         3.00701478E-11
  -6.48000002         3.66600708E-11
  -6.36499977         4.37193615E-11
  -6.25000000         5.12768508E-11
  -6.13500023         5.93724236E-11
  -6.01999998         6.80562551E-11
  -5.90500021         7.73872494E-11
  -5.78999996         8.74312567E-11
  -5.67500019         9.82590537E-11
  -5.55999994         1.09944456E-10
  -5.44500017         1.22563237E-10
  -5.32999992         1.36192613E-10
  -5.21500015         1.50912144E-10
  -5.09999990         1.66804667E-10
  -4.98500013         1.83958820E-10
  -4.86999989         2.02471165E-10
  -4.75500011         2.22448587E-10
  -4.63999987         2.44010229E-10
  -4.52500010         2.67288247E-10
  -4.40999985         2.92427721E-10
  -4.29500008         3.19584664E-10
  -4.17999983         3.48922918E-10
  -4.06500006         3.80609627E-10
  -3.95000005         4.14809909E-10
  -3.83500004         4.51680748E-10
  -3.72000003         4.91365337E-10
  -3.60500002         5.33987632E-10
  -3.49000001         5.79649218E-10
  -3.37500000         6.28426866E-10
  -3.25999999         6.80372758E-10
  -3.14499998         7.35516537E-10
  -3.02999997         7.93869304E-10
  -2.91499996         8.55429838E-10
  -2.79999995         9.20190035E-10
  -2.68499994         9.88143123E-10
  -2.56999993         1.05928910E-09
  -2.45499992         1.13364096E-09
  -2.33999991         1.21122889E-09
  -2.22499990         1.29210453E-09
  -2.10999990         1.37634093E-09
  -1.99500000         1.46403467E-09
  -1.88000000         1.55530588E-09
  -1.76499999         1.65029923E-09
  -1.64999998         1.74918435E-09
  -1.53499997         1.85216031E-09
  -1.41999996         1.95946015E-09
  -1.30499995         2.07135664E-09
  -1.19000006         2.18817386E-09
  -1.07500005         2.31029440E-09
 -0.959999979         2.43817189E-09
 -0.845000029         2.57233901E-09
 -0.730000019         2.71341483E-09
 -0.615000010         2.86210922E-09
 -0.500000000         3.01921421E-09
 -0.384999990         3.18559956E-09
 -0.270000011         3.36219252E-09
 -0.155000001         3.54995122E-09
  -3.99999991E-02     3.74983333E-09
   7.50000030E-02     3.96275457E-09
  0.189999998         4.18954738E-09
  0.305000007         4.43091830E-09
  0.419999987         4.68740069E-09
  0.535000026         4.95932095E-09
  0.649999976         5.24676746E-09
  0.764999986         5.54957147E-09
  0.879999995         5.86730176E-09
  0.995000005         6.19927176E-09
   1.11000001         6.54456445E-09
   1.22500002         6.90206825E-09
   1.34000003         7.27052907E-09
   1.45500004         7.64861152E-09
   1.57000005         8.03496114E-09
   1.68499994         8.42828385E-09
   1.79999995         8.82740459E-09
   1.91499996         9.23134102E-09
   2.02999997         9.63934887E-09
   2.14499998         1.00509716E-08
   2.25999999         1.04660609E-08
   2.37500000         1.08847944E-08
   2.49000001         1.13076588E-08
   2.60500002         1.17354393E-08
   2.72000003         1.21691706E-08
   2.83500004         1.26100987E-08
   2.95000005         1.30596041E-08
   3.06500006         1.35191573E-08
   3.18000007         1.39902294E-08
   3.29500008         1.44742351E-08
   3.41000009         1.49724713E-08
   3.52500010         1.54860462E-08
   3.64000010         1.60158429E-08
   3.75500011         1.65624705E-08
   3.86999989         1.71262489E-08
   3.98499990         1.77071886E-08
   4.09999990         1.83049789E-08
   4.21500015         1.89190121E-08
   4.32999992         1.95483931E-08
   4.44500017         2.01919725E-08
   4.55999994         2.08483772E-08
   4.67500019         2.15160618E-08
   4.78999996         2.21933512E-08
   4.90500021         2.28784902E-08
   5.01999998         2.35697115E-08
   5.13500023         2.42652689E-08
   5.25000000         2.49635033E-08
   5.36499977         2.56628852E-08
   5.48000002         2.63620485E-08
   5.59499979         2.70598495E-08
   5.71000004         2.77553660E-08
   5.82499981         2.84479249E-08
   5.94000006         2.91371158E-08
   6.05499983         2.98227540E-08
   6.17000008         3.05048857E-08
   6.28499985         3.11837525E-08
   6.40000010         3.18597309E-08
   6.51499987         3.25332863E-08
   6.63000011         3.32049197E-08
   6.74499989         3.38750858E-08
   6.86000013         3.45441329E-08
   6.97499990         3.52122314E-08
   7.09000015         3.58793066E-08
   7.20499992         3.65449928E-08
   7.32000017         3.72085793E-08
   7.43499994         3.78690039E-08
   7.55000019         3.85248029E-08
   7.66499996         3.91741537E-08
   7.78000021         3.98148714E-08
   7.89499998         4.04444549E-08
   8.01000023         4.10601402E-08
   8.12500000         4.16589749E-08
   8.23999977         4.22378648E-08
   8.35499954         4.27936513E-08
   8.47000027         4.33232223E-08
   8.58500004         4.38235048E-08
   8.69999981         4.42915855E-08
   8.81499958         4.47247004E-08
   8.93000031         4.51202595E-08
   9.04500008         4.54758471E-08
   9.15999985         4.57892071E-08
   9.27499962         4.60581617E-08
   9.39000034         4.62805687E-08
   9.50500011         4.64542431E-08
   9.61999989         4.65768650E-08
   9.73499966         4.66458978E-08
   9.85000038         4.66585313E-08
   9.96500015         4.66115608E-08
   10.0799999         4.65014338E-08
   10.1949997         4.63241250E-08
   10.3100004         4.60752290E-08
   10.4250002         4.57499780E-08
   10.5400000         4.53432776E-08
   10.6549997         4.48498412E-08
   10.7700005         4.42642758E-08
   10.8850002         4.35812133E-08
   11.0000000         4.27954205E-08
   11.1149998         4.19019912E-08
   11.2299995         4.08963672E-08
   11.3450003         3.97744699E-08
   11.4600000         3.85327681E-08
   11.5749998         3.71682773E-08
   11.6899996         3.56785712E-08
   11.8050003         3.40617383E-08
   11.9200001         3.23162723E-08
   12.0349998         3.04410506E-08
   12.1499996         2.84351280E-08
   12.2650003         2.62976734E-08
   12.3800001         2.40278322E-08
   12.4949999         2.16246292E-08
   12.6099997         1.90868796E-08
   12.7250004         1.64131126E-08
   12.8400002         1.36015945E-08
   12.9549999         1.06502824E-08
   13.0699997         7.55691509E-09
   13.1850004         4.31910330E-09
   13.3000002         9.34404554E-10
   13.4150000        -2.59948152E-09
   13.5299997        -6.28464036E-09
   13.6450005        -1.01227222E-08
   13.7600002        -1.41148444E-08
   13.8750000        -1.82614137E-08
   13.9899998        -2.25620393E-08
   14.1049995        -2.70154210E-08
   14.2200003        -3.16192725E-08
   14.3350000        -3.63703201E-08
   14.4499998        -4.12642507E-08
   14.5649996        -4.62957743E-08
   14.6800003        -5.14586418E-08
   14.7950001        -5.67457228E-08
   14.9099998        -6.21490628E-08
   15.0249996        -6.76600820E-08
   15.1400003        -7.32695682E-08
   15.2550001        -7.89678722E-08
   15.3699999        -8.47450039E-08
   15.4849997        -9.05907882E-08
   15.6000004        -9.64950360E-08
   15.7150002        -1.02447615E-07
   15.8299999        -1.08438570E-07
   15.9449997        -1.14458281E-07
   16.0599995        -1.20497504E-07
   16.1749992        -1.26547548E-07
   16.2900009        -1.32600277E-07
   16.4050007        -1.38648119E-07
   16.5200005        -1.44684094E-07
   16.6350002        -1.50701837E-07
   16.7500000        -1.56695378E-07
   16.8649998        -1.62659234E-07
   16.9799995        -1.68588102E-07
   17.0949993        -1.74476909E-07
   17.2099991        -1.80320455E-07
   17.3250008        -1.86113311E-07
   17.4400005        -1.91849722E-07
   17.5550003        -1.97523150E-07
   17.6700001        -2.03126518E-07
   17.7849998        -2.08651826E-07
   17.8999996        -2.14090051E-07
   18.0149994        -2.19431172E-07
   18.1299992        -2.24664120E-07
   18.2450008        -2.29776788E-07
   18.3600006        -2.34755930E-07
   18.4750004        -2.39587592E-07
   18.5900002        -2.44256711E-07
   18.7049999        -2.48747568E-07
   18.8199997        -2.53043765E-07
   18.9349995        -2.57128022E-07
   19.0499992        -2.60982659E-07
   19.1650009        -2.64589175E-07
   19.2800007        -2.67928726E-07
   19.3950005        -2.70981673E-07
   19.5100002        -2.73727522E-07
   19.6250000        -2.76145101E-07
   19.7399998        -2.78212184E-07
   19.8549995        -2.79905521E-07
   19.9699993        -2.81200442E-07
   20.0849991        -2.82071198E-07
   20.2000008        -2.82490305E-07
   20.3150005        -2.82428800E-07
   20.4300003        -2.81856103E-07
   20.5450001        -2.80740210E-07
   20.6599998        -2.79047413E-07
   20.7749996        -2.76742071E-07
   20.8899994        -2.73787720E-07
   21.0049992        -2.70146188E-07
   21.1200008        -2.65778397E-07
   21.2350006        -2.60644100E-07
   21.3500004        -2.54702599E-07
   21.4650002        -2.47912681E-07
   21.5799999        -2.40232396E-07
   21.6949997        -2.31620049E-07
   21.8099995        -2.22034032E-07
   21.9249992        -2.11432877E-07
   22.0400009        -1.99775428E-07
   22.1550007        -1.87021072E-07
   22.2700005        -1.73129507E-07
   22.3850002        -1.58061368E-07
   22.5000000        -1.41777463E-07
   22.6149998        -1.24238483E-07
   22.7299995        -1.05405917E-07
   22.8449993        -8.52409983E-08
   22.9599991        -6.37051869E-08
   23.0750008        -4.07592893E-08
   23.1900005        -1.63639129E-08
   23.3050003         9.52087476E-09
   23.4200001         3.69356599E-08
   23.5349998         6.59218244E-08
   23.6499996         9.65212621E-08
   23.7649994         1.28777572E-07
   23.8799992         1.62734011E-07
   23.9950008         1.98435117E-07
   24.1100006         2.35925967E-07
   24.2250004         2.75251892E-07
   24.3400002         3.16458369E-07
   24.4549999         3.59590899E-07
   24.5699997         4.04695811E-07
   24.6849995         4.51818863E-07
   24.7999992         5.01005616E-07
   24.9150009         5.52302538E-07
   25.0300007         6.05755190E-07
   25.1450005         6.61410297E-07
   25.2600002         7.19314073E-07
   25.3750000         7.79514096E-07
   25.4899998         8.42058625E-07
   25.6049995         9.06996775E-07
   25.7199993         9.74379077E-07
   25.8349991         1.04425783E-06
   25.9500008         1.11668624E-06
   26.0650005         1.19171955E-06
   26.1800003         1.26941495E-06
   26.2950001         1.34983088E-06
   26.4099998         1.43302748E-06
   26.5249996         1.51906670E-06
   26.6399994         1.60801119E-06
   26.7549992         1.69992484E-06
   26.8700008         1.79487165E-06
   26.9850006         1.89291620E-06
   27.1000004         1.99412284E-06
   27.2150002         2.09855534E-06
   27.3299999         2.20627771E-06
   27.4449997         2.31735203E-06
   27.5599995         2.43183831E-06
   27.6749992         2.54979568E-06
   27.7900009         2.67128098E-06
   27.9050007         2.79634855E-06
   28.0200005         2.92504910E-06
   28.1350002         3.05743197E-06
   28.2500000         3.19353990E-06
   28.3649998         3.33341632E-06
   28.4799995         3.47709783E-06
   28.5949993         3.62461674E-06
   28.7099991         3.77600168E-06
   28.8250008         3.93127630E-06
   28.9400005         4.09045970E-06
   29.0550003         4.25356529E-06
   29.1700001         4.42060264E-06
   29.2849998         4.59157673E-06
   29.3999996         4.76648665E-06
   29.5149994         4.94532742E-06
   29.6299992         5.12808856E-06
   29.7450008         5.31475644E-06
   29.8600006         5.50530967E-06
   29.9750004         5.69972326E-06
   30.0900002         5.89796764E-06
   30.2049999         6.10000734E-06
   30.3199997         6.30580098E-06
   30.4349995         6.51529808E-06
   30.5499992         6.72844817E-06
   30.6650009         6.94518621E-06
   30.7800007         7.16544400E-06
   30.8950005         7.38914332E-06
   31.0100002         7.61619776E-06
   31.1250000         7.84651183E-06
   31.2399998         8.07998276E-06
   31.3549995         8.31649595E-06
   31.4699993         8.55593316E-06
   31.5849991         8.79816162E-06
   31.7000008         9.04304579E-06
   31.8150005         9.29043927E-06
   31.9300003         9.54019379E-06
   32.0449982         9.79215019E-06
   32.1599998         1.00461457E-05
   32.2750015         1.03020147E-05
   32.3899994         1.05595864E-05
   32.5050011         1.08186896E-05
   32.6199989         1.10791480E-05
   32.7350006         1.13407805E-05
   32.8499985         1.16034098E-05
   32.9650002         1.18668531E-05
   33.0800018         1.21309249E-05
   33.1949997         1.23954405E-05
   33.3100014         1.26602099E-05
   33.4249992         1.29250438E-05
   33.5400009         1.31897459E-05
   33.6549988         1.34541206E-05
   33.7700005         1.37179650E-05
   33.8849983         1.39810763E-05
   34.0000000         1.42432473E-05
   34.1150017         1.45042632E-05
   34.2299995         1.47639112E-05
   34.3450012         1.50219712E-05
   34.4599991         1.52782195E-05
   34.5750008         1.55324287E-05
   34.6899986         1.57843679E-05
   34.8050003         1.60338022E-05
   34.9199982         1.62804972E-05
   35.0349998         1.65242145E-05
   35.1500015         1.67647122E-05
   35.2649994         1.70017465E-05
   35.3800011         1.72350738E-05
   35.4949989         1.74644556E-05
   35.6100006         1.76896356E-05
   35.7249985         1.79103772E-05
   35.8400002         1.81264368E-05
   35.9550018         1.83375705E-05
   36.0699997         1.85435347E-05
   36.1850014         1.87440892E-05
   36.2999992         1.89389975E-05
   36.4150009         1.91280233E-05
   36.5299988         1.93109299E-05
   36.6450005         1.94874883E-05
   36.7599983         1.96574601E-05
   36.8750000         1.98206162E-05
   36.9900017         1.99767237E-05
   37.1049995         2.01255461E-05
   37.2200012         2.02668489E-05
   37.3349991         2.04003991E-05
   37.4500008         2.05259530E-05
   37.5649986         2.06432687E-05
   37.6800003         2.07521007E-05
   37.7949982         2.08521997E-05
   37.9099998         2.09433128E-05
   38.0250015         2.10251837E-05
   38.1399994         2.10975595E-05
   38.2550011         2.11601764E-05
   38.3699989         2.12127816E-05
   38.4850006         2.12551131E-05
   38.5999985         2.12869199E-05
   38.7150002         2.13079493E-05
   38.8300018         2.13179555E-05
   38.9449997         2.13166950E-05
   39.0600014         2.13039330E-05
   39.1749992         2.12794439E-05
   39.2900009         2.12429986E-05
   39.4049988         2.11943880E-05
   39.5200005         2.11333972E-05
   39.6349983         2.10598246E-05
   39.7500000         2.09734717E-05
   39.8650017         2.08741421E-05
   39.9799995         2.07616431E-05
   40.0950012         2.06357836E-05
   40.2099991         2.04963726E-05
   40.3250008         2.03432173E-05
   40.4399986         2.01761231E-05
   40.5550003         1.99948900E-05
   40.6699982         1.97993195E-05
   40.7849998         1.95892062E-05
   40.9000015         1.93643355E-05
   41.0149994         1.91244962E-05
   41.1300011         1.88694630E-05
   41.2449989         1.85990139E-05
   41.3600006         1.83129196E-05
   41.4749985         1.80109455E-05
   41.5900002         1.76928515E-05
   41.7050018         1.73583976E-05
   41.8199997         1.70073363E-05
   41.9350014         1.66394202E-05
   42.0499992         1.62544002E-05
   42.1650009         1.58520197E-05
   42.2799988         1.54320242E-05
   42.3950005         1.49941543E-05
   42.5099983         1.45381500E-05
   42.6250000         1.40637476E-05
   42.7400017         1.35706841E-05
   42.8549995         1.30586941E-05
   42.9700012         1.25275092E-05
   43.0849991         1.19768629E-05
   43.2000008         1.14064878E-05
   43.3149986         1.08161175E-05
   43.4300003         1.02054837E-05
   43.5449982         9.57432439E-06
   43.6599998         8.92237586E-06
   43.7750015         8.24938070E-06
   43.8899994         7.55508290E-06
   44.0050011         6.83923281E-06
   44.1199989         6.10158531E-06
   44.2350006         5.34190121E-06
   44.3499985         4.55995178E-06
   44.4650002         3.75551349E-06
   44.5800018         2.92837694E-06
   44.6949997         2.07834091E-06
   44.8100014         1.20522122E-06
   44.9249992         3.08846438E-07
   45.0400009        -6.10937832E-07
   45.1549988        -1.55426505E-06
   45.2700005        -2.52124414E-06
   45.3849983        -3.51196491E-06
   45.5000000        -4.52649056E-06
   45.6150017        -5.56485656E-06
   45.7299995        -6.62706771E-06
   45.8450012        -7.71310260E-06
   45.9599991        -8.82290624E-06
   46.0750008        -9.95639402E-06
   46.1899986        -1.11134450E-05
   46.3050003        -1.22939036E-05
   46.4199982        -1.34975999E-05
   46.5349998        -1.47243154E-05
   46.6500015        -1.59738083E-05
   46.7649994        -1.72458076E-05
   46.8800011        -1.85400186E-05
   46.9949989        -1.98561193E-05
   47.1100006        -2.11937568E-05
   47.2249985        -2.25525619E-05
   47.3400002        -2.39321453E-05
   47.4550018        -2.53320832E-05
   47.5699997        -2.67519372E-05
   47.6850014        -2.81912471E-05
   47.7999992        -2.96495291E-05
   47.9150009        -3.11262811E-05
   48.0299988        -3.26209774E-05
   48.1450005        -3.41330779E-05
   48.2599983        -3.56620149E-05
   48.3750000        -3.72072027E-05
   48.4900017        -3.87680411E-05
   48.6049995        -4.03439226E-05
   48.7200012        -4.19342032E-05
   48.8349991        -4.35382681E-05
   48.9500008        -4.51554406E-05
   49.0649986        -4.67850950E-05
   49.1800003        -4.84265693E-05
   49.2949982        -5.00792084E-05
   49.4099998        -5.17423796E-05
   49.5250015        -5.34154387E-05
   49.6399994        -5.50977929E-05
   49.7550011        -5.67888237E-05
   49.8699989        -5.84879708E-05
   49.9850006        -6.01946886E-05
   50.0999985        -6.19084676E-05
   50.2150002        -6.36288169E-05
   50.3300018        -6.53552997E-05
   50.4449997        -6.70874942E-05
   50.5600014        -6.88250511E-05
   50.6749992        -7.05676284E-05
   50.7900009        -7.23149424E-05
   50.9049988        -7.40667601E-05
   51.0200005        -7.58228925E-05
   51.1349983        -7.75831795E-05
   51.2500000        -7.93475265E-05
   51.3650017        -8.11158534E-05
   51.4799995        -8.28881748E-05
   51.5950012        -8.46644834E-05
   51.7099991        -8.64448812E-05
   51.8250008        -8.82294626E-05
   51.9399986        -9.00184023E-05
   52.0550003        -9.18118894E-05
   52.1699982        -9.36101496E-05
   52.2849998        -9.54134593E-05
   52.4000015        -9.72221242E-05
   52.5149994        -9.90364788E-05
   52.6300011        -1.00856902E-04
   52.7449989        -1.02683785E-04
   52.8600006        -1.04517560E-04
   52.9749985        -1.06358668E-04
   53.0900002        -1.08207547E-04
   53.2050018        -1.10064728E-04
   53.3199997        -1.11930669E-04
   53.4350014        -1.13805901E-04
   53.5499992        -1.15690927E-04
   53.6650009        -1.17586242E-04
   53.7799988        -1.19492353E-04
   53.8950005        -1.21409721E-04
   54.0099983        -1.23338803E-04
   54.1250000        -1.25279985E-04
   54.2400017        -1.27233696E-04
   54.3549995        -1.29200213E-04
   54.4700012        -1.31179826E-04
   54.5849991        -1.33172696E-04
   54.7000008        -1.35178969E-04
   54.8149986        -1.37198658E-04
   54.9300003        -1.39231663E-04
   55.0449982        -1.41277822E-04
   55.1599998        -1.43336816E-04
   55.2750015        -1.45408267E-04
   55.3899994        -1.47491621E-04
   55.5050011        -1.49586180E-04
   55.6199989        -1.51691143E-04
   55.7350006        -1.53805537E-04
   55.8499985        -1.55928326E-04
   55.9650002        -1.58058261E-04
   56.0800018        -1.60193958E-04
   56.1949997        -1.62333890E-04
   56.3100014        -1.64476412E-04
   56.4249992        -1.66619735E-04
   56.5400009        -1.68761850E-04
   56.6549988        -1.70900719E-04
   56.7700005        -1.73034059E-04
   56.8849983        -1.75159556E-04
   57.0000000        -1.77274618E-04
   57.1150017        -1.79376628E-04
   57.2299995        -1.81462819E-04
   57.3450012        -1.83530283E-04
   57.4599991        -1.85575904E-04
   57.5750008        -1.87596554E-04
   57.6899986        -1.89588929E-04
   57.8050003        -1.91549625E-04
   57.9199982        -1.93475120E-04
   58.0349998        -1.95361819E-04
   58.1500015        -1.97206013E-04
   58.2649994        -1.99003844E-04
   58.3800011        -2.00751529E-04
   58.4949989        -2.02445110E-04
   58.6100006        -2.04080628E-04
   58.7249985        -2.05654011E-04
   58.8400002        -2.07161298E-04
   58.9550018        -2.08598402E-04
   59.0699997        -2.09961261E-04
   59.1850014        -2.11245904E-04
   59.2999992        -2.12448300E-04
   59.4150009        -2.13564519E-04
   59.5299988        -2.14590662E-04
   59.6450005        -2.15522930E-04
   59.7599983        -2.16357614E-04
   59.8750000        -2.17091059E-04
   59.9900017        -2.17719746E-04
   60.1049995        -2.18240253E-04
   60.2200012        -2.18649322E-04
   60.3349991        -2.18943809E-04
   60.4500008        -2.19120673E-04
   60.5649986        -2.19177105E-04
   60.6800003        -2.19110399E-04
   60.7949982        -2.18918009E-04
   60.9099998        -2.18597561E-04
   61.0250015        -2.18146888E-04
   61.1399994        -2.17563982E-04
   61.2550011        -2.16846995E-04
   61.3699989        -2.15994311E-04
   61.4850006        -2.15004475E-04
   61.5999985        -2.13876265E-04
   61.7150002        -2.12608633E-04
   61.8300018        -2.11200793E-04
   61.9449997        -2.09652120E-04
   62.0600014        -2.07962323E-04
   62.1749992        -2.06131197E-04
   62.2900009        -2.04158932E-04
   62.4049988        -2.02045863E-04
   62.5200005        -1.99792586E-04
   62.6349983        -1.97400033E-04
   62.7500000        -1.94869295E-04
   62.8650017        -1.92201755E-04
   62.9799995        -1.89399099E-04
   63.0950012        -1.86463207E-04
   63.2099991        -1.83396274E-04
   63.3250008        -1.80200703E-04
   63.4399986        -1.76879141E-04
   63.5550003        -1.73434571E-04
   63.6699982        -1.69870124E-04
   63.7849998        -1.66189202E-04
   63.9000015        -1.62395503E-04
   64.0149994        -1.58492854E-04
   64.1299973        -1.54485431E-04
   64.2450027        -1.50377542E-04
   64.3600006        -1.46173828E-04
   64.4749985        -1.41879078E-04
   64.5899963        -1.37498399E-04
   64.7050018        -1.33037058E-04
   64.8199997        -1.28500658E-04
   64.9349976        -1.23895006E-04
   65.0500031        -1.19226170E-04
   65.1650009        -1.14500486E-04
   65.2799988        -1.09724577E-04
   65.3949966        -1.04905252E-04
   65.5100021        -1.00049649E-04
   65.6250000        -9.51651382E-05
   65.7399979        -9.02593747E-05
   65.8550034        -8.53402671E-05
   65.9700012        -8.04159572E-05
   66.0849991        -7.54947978E-05
   66.1999969        -7.05854109E-05
   66.3150024        -6.56967241E-05
   66.4300003        -6.08377486E-05
   66.5449982        -5.60177868E-05
   66.6600037        -5.12462357E-05
   66.7750015        -4.65327394E-05
   66.8899994        -4.18870768E-05
   67.0049973        -3.73191542E-05
   67.1200027        -3.28390452E-05
   67.2350006        -2.84568414E-05
   67.3499985        -2.41827984E-05
   67.4649963        -2.00271970E-05
   67.5800018        -1.60004165E-05
   67.6949997        -1.21128323E-05
   67.8099976        -8.37480184E-06
   67.9250031        -4.79669325E-06
   68.0400009        -1.38888208E-06
   68.1549988         1.83838711E-06
   68.2699966         4.87494253E-06
   68.3850021         7.71065606E-06
   68.5000000         1.03356251E-05
   68.6149979         1.27400599E-05
   68.7300034         1.49144180E-05
   68.8450012         1.68493680E-05
   68.9599991         1.85357967E-05
   69.0749969         1.99649694E-05
   69.1900024         2.11284896E-05
   69.3050003         2.20182665E-05
   69.4199982         2.26266893E-05
   69.5350037         2.29464786E-05
   69.6500015         2.29709767E-05
   69.7649994         2.26939810E-05
   69.8799973         2.21098198E-05
   69.9950027         2.12134182E-05
   70.1100006         2.00003306E-05
   70.2249985         1.84667115E-05
   70.3399963         1.66094542E-05
   70.4550018         1.44260957E-05
   70.5699997         1.19149154E-05
   70.6849976         9.07485810E-06
   70.8000031         5.90566924E-06
   70.9150009         2.40780719E-06
   71.0299988        -1.41756391E-06
   71.1449966        -5.56848499E-06
   71.2600021        -1.00422403E-05
   71.3750000        -1.48354029E-05
   71.4899979        -1.99438327E-05
   71.6050034        -2.53626040E-05
   71.7200012        -3.10861833E-05
   71.8349991        -3.71082569E-05
   71.9499969        -4.34219291E-05
   72.0650024        -5.00196074E-05
   72.1800003        -5.68930045E-05
   72.2949982        -6.40333164E-05
   72.4100037        -7.14311245E-05
   72.5250015        -7.90764316E-05
   72.6399994        -8.69587093E-05
   72.7549973        -9.50669491E-05
   72.8700027        -1.03389597E-04
   72.9850006        -1.11914691E-04
   73.0999985        -1.20629884E-04
   73.2149963        -1.29522421E-04
   73.3300018        -1.38579213E-04
   73.4449997        -1.47786923E-04
   73.5599976        -1.57131901E-04
   73.6750031        -1.66600308E-04
   73.7900009        -1.76178146E-04
   73.9049988        -1.85851299E-04
   74.0199966        -1.95605608E-04
   74.1350021        -2.05426855E-04