  -18.8999996      -0.00000000    
  -18.7849998      -0.00000000    
  -18.6700001       1.22178743E-18
  -18.5550003       2.46824474E-17
  -18.4400005       1.38255788E-16
  -18.3250008       4.74697275E-16
  -18.2099991       1.22267861E-15
  -18.0949993       2.58019407E-15
  -17.9799995       4.67257213E-15
  -17.8649998       7.45154789E-15
  -17.7500000       1.06027807E-14
  -17.6350002       1.34932628E-14
  -17.5200005       1.51858303E-14
  -17.4050007       1.45364694E-14
  -17.2900009       1.03740564E-14
  -17.1749992       1.74491625E-15
  -17.0599995      -1.18102736E-14
  -16.9449997      -2.99903873E-14
  -16.8299999      -5.15265287E-14
  -16.7150002      -7.40802818E-14
  -16.6000004      -9.42871134E-14
  -16.4850006      -1.07971737E-13
  -16.3700008      -1.10544095E-13
  -16.2549992      -9.75625695E-14
  -16.1399994      -6.54268509E-14
  -16.0249996      -1.21382862E-14
  -15.9099998       6.19546461E-14
  -15.7950001       1.53522323E-13
  -15.6800003       2.55831380E-13
  -15.5649996       3.58624317E-13
  -15.4499998       4.48369803E-13
  -15.3350000       5.08914742E-13
  -15.2200003       5.22522780E-13
  -15.1049995       4.71228796E-13
  -14.9899998       3.38386600E-13
  -14.8750000       1.10240667E-13
  -14.7600002      -2.22673740E-13
  -14.6450005      -6.64500789E-13
  -14.5299997      -1.21357807E-12
  -14.4150000      -1.86261119E-12
  -14.3000002      -2.59954927E-12
  -14.1850004      -3.40911240E-12
  -14.0699997      -4.27482312E-12
  -13.9549999      -5.18132976E-12
  -13.8400002      -6.11674990E-12
  -13.7250004      -7.07473533E-12
  -13.6099997      -8.05599251E-12
  -13.4949999      -9.06903632E-12
  -13.3800001      -1.01300201E-11
  -13.2650003      -1.12616062E-11
  -13.1499996      -1.24909553E-11
  -13.0349998      -1.38469852E-11
  -12.9200001      -1.53572138E-11
  -12.8050003      -1.70445272E-11
  -12.6899996      -1.89242597E-11
  -12.5749998      -2.10019866E-11
  -12.4600000      -2.32723684E-11
  -12.3450003      -2.57192132E-11
  -12.2299995      -2.83169165E-11
  -12.1149998      -3.10330789E-11
  -12.0000000      -3.38321524E-11
  -11.8850002      -3.66795899E-11
  -11.7700005      -3.95461025E-11
  -11.6549997      -4.24114598E-11
  -11.5400000      -4.52672864E-11
  -11.4250002      -4.81185404E-11
  -11.3100004      -5.09833252E-11
  -11.1949997      -5.38911207E-11
  -11.0799999      -5.68794248E-11
  -10.9650002      -5.99892913E-11
  -10.8500004      -6.32601610E-11
  -10.7349997      -6.67246744E-11
  -10.6199999      -7.04040784E-11
  -10.5050001      -7.43047776E-11
  -10.3900003      -7.84166967E-11
  -10.2749996      -8.27134056E-11
  -10.1599998      -8.71545891E-11
  -10.0450001      -9.16901069E-11
  -9.93000031      -9.62657176E-11
  -9.81499958      -1.00829539E-10
  -9.69999981      -1.05338571E-10
  -9.58500004      -1.09764690E-10
  -9.47000027      -1.14098828E-10
  -9.35499954      -1.18353438E-10
  -9.23999977      -1.22562280E-10
  -9.12500000      -1.26777672E-10
  -9.01000023      -1.31065589E-10
  -8.89500046      -1.35498612E-10
  -8.77999973      -1.40148046E-10
  -8.66499996      -1.45075868E-10
  -8.55000019      -1.50327181E-10
  -8.43500042      -1.55924607E-10
  -8.31999969      -1.61864702E-10
  -8.20499992      -1.68117270E-10
  -8.09000015      -1.74627535E-10
  -7.97499990      -1.81320861E-10
  -7.86000013      -1.88109528E-10
  -7.74499989      -1.94901012E-10
  -7.63000011      -2.01606676E-10
  -7.51499987      -2.08149803E-10
  -7.40000010      -2.14472315E-10
  -7.28499985      -2.20539059E-10
  -7.17000008      -2.26339752E-10
  -7.05499983      -2.31887357E-10
  -6.94000006      -2.37214443E-10
  -6.82499981      -2.42366432E-10
  -6.71000004      -2.47394077E-10
  -6.59499979      -2.52344479E-10
  -6.48000002      -2.57253080E-10
  -6.36499977      -2.62136313E-10
  -6.25000000      -2.66986822E-10
  -6.13500023      -2.71770773E-10
  -6.01999998      -2.76427881E-10
  -5.90500021      -2.80873103E-10
  -5.78999996      -2.85001661E-10
  -5.67500019      -2.88693625E-10
  -5.55999994      -2.91820013E-10
  -5.44500017      -2.94247932E-10
  -5.32999992      -2.95844599E-10
  -5.21500015      -2.96479646E-10
  -5.09999990      -2.96025648E-10
  -4.98500013      -2.94356456E-10
  -4.86999989      -2.91344587E-10
  -4.75500011      -2.86856566E-10
  -4.63999987      -2.80748980E-10
  -4.52500010      -2.72863954E-10
  -4.40999985      -2.63026240E-10
  -4.29500008      -2.51041521E-10
  -4.17999983      -2.36697439E-10
  -4.06500006      -2.19765303E-10
  -3.95000005      -2.00004610E-10
  -3.83500004      -1.77168585E-10
  -3.72000003      -1.51009913E-10
  -3.60500002      -1.21287771E-10
  -3.49000001      -8.77723588E-11
  -3.37500000      -5.02484408E-11
  -3.25999999      -8.51851228E-12
  -3.14499998       3.75969637E-11
  -3.02999997       8.82613704E-11
  -2.91499996       1.43622753E-10
  -2.79999995       2.03816491E-10
  -2.68499994       2.68967459E-10
  -2.56999993       3.39190204E-10
  -2.45499992       4.14587864E-10
  -2.33999991       4.95250507E-10
  -2.22499990       5.81251547E-10
  -2.10999990       6.72644607E-10
  -1.99500000       7.69461661E-10
  -1.88000000       8.71712424E-10
  -1.76499999       9.79388570E-10
  -1.64999998       1.09247633E-09
  -1.53499997       1.21096899E-09
  -1.41999996       1.33489375E-09
  -1.30499995       1.46433732E-09
  -1.19000006       1.59948388E-09
  -1.07500005       1.74065118E-09
 -0.959999979       1.88832905E-09
 -0.845000029       2.04321338E-09
 -0.730000019       2.20623564E-09
 -0.615000010       2.37857756E-09
 -0.500000000       2.56167709E-09
 -0.384999990       2.75721113E-09
 -0.270000011       2.96706637E-09
 -0.155000001       3.19328763E-09
  -3.99999991E-02   3.43801299E-09
   7.50000030E-02   3.70339026E-09
  0.189999998       3.99149069E-09
  0.305000007       4.30421565E-09
  0.419999987       4.64320182E-09
  0.535000026       5.00974373E-09
  0.649999976       5.40471978E-09
  0.764999986       5.82854698E-09
  0.879999995       6.28115426E-09
  0.995000005       6.76198342E-09
   1.11000001       7.27000726E-09
   1.22500002       7.80378873E-09
   1.34000003       8.36154079E-09
   1.45500004       8.94122820E-09
   1.57000005       9.54065627E-09
   1.68499994       1.01575912E-08
   1.79999995       1.07898570E-08
   1.91499996       1.14354464E-08
   2.02999997       1.20926167E-08
   2.14499998       1.27599691E-08
   2.25999999       1.34365177E-08
   2.37500000       1.41217464E-08
   2.49000001       1.48156358E-08
   2.60500002       1.55186850E-08
   2.72000003       1.62319225E-08
   2.83500004       1.69568857E-08
   2.95000005       1.76956068E-08
   3.06500006       1.84505655E-08
   3.18000007       1.92246468E-08
   3.29500008       2.00210870E-08
   3.41000009       2.08433732E-08
   3.52500010       2.16951737E-08
   3.64000010       2.25802275E-08
   3.75500011       2.35022242E-08
   3.86999989       2.44646632E-08
   3.98499990       2.54707277E-08
   4.09999990       2.65231357E-08
   4.21500015       2.76239902E-08
   4.32999992       2.87746680E-08
   4.44500017       2.99756699E-08
   4.55999994       3.12265662E-08
   4.67500019       3.25259073E-08
   4.78999996       3.38712383E-08
   4.90500021       3.52591023E-08
   5.01999998       3.66851438E-08
   5.13500023       3.81442113E-08
   5.25000000       3.96305495E-08
   5.36499977       4.11379908E-08
   5.48000002       4.26602043E-08
   5.59499979       4.41909194E-08
   5.71000004       4.57242209E-08
   5.82499981       4.72547583E-08
   5.94000006       4.87779523E-08
   6.05499983       5.02901898E-08
   6.17000008       5.17889056E-08
   6.28499985       5.32726681E-08
   6.40000010       5.47411751E-08
   6.51499987       5.61951481E-08
   6.63000011       5.76362140E-08
   6.74499989       5.90667391E-08
   6.86000013       6.04895405E-08
   6.97499990       6.19076701E-08
   7.09000015       6.33241157E-08
   7.20499992       6.47414851E-08
   7.32000017       6.61617676E-08
   7.43499994       6.75860932E-08
   7.55000019       6.90144830E-08
   7.66499996       7.04457435E-08
   7.78000021       7.18773379E-08
   7.89499998       7.33053582E-08
   8.01000023       7.47245679E-08
   8.12500000       7.61284227E-08
   8.23999977       7.75093127E-08
   8.35499954       7.88586476E-08
   8.47000027       8.01671547E-08
   8.58500004       8.14250924E-08
   8.69999981       8.26225133E-08
   8.81499958       8.37495691E-08
   8.93000031       8.47967527E-08
   9.04500008       8.57551257E-08
   9.15999985       8.66165593E-08
   9.27499962       8.73738202E-08
   9.39000034       8.80207907E-08
   9.50500011       8.85524472E-08
   9.61999989       8.89648746E-08
   9.73499966       8.92551810E-08
   9.85000038       8.94214196E-08
   9.96500015       8.94623469E-08
   10.0799999       8.93772523E-08
   10.1949997       8.91656384E-08
   10.3100004       8.88269795E-08
   10.4250002       8.83603732E-08
   10.5400000       8.77642918E-08
   10.6549997       8.70363124E-08
   10.7700005       8.61728040E-08
   10.8850002       8.51688284E-08
   11.0000000       8.40179410E-08
   11.1149998       8.27121696E-08
   11.2299995       8.12419430E-08
   11.3450003       7.95962549E-08
   11.4600000       7.77627349E-08
   11.5749998       7.57278755E-08
   11.6899996       7.34772669E-08
   11.8050003       7.09958883E-08
   11.9200001       6.82684274E-08
   12.0349998       6.52795649E-08
   12.1499996       6.20142799E-08
   12.2650003       5.84580881E-08
   12.3800001       5.45973471E-08
   12.4949999       5.04193594E-08
   12.6099997       4.59125005E-08
   12.7250004       4.10662508E-08
   12.8400002       3.58712278E-08
   12.9549999       3.03190220E-08
   13.0699997       2.44021496E-08
   13.1850004       1.81137363E-08
   13.3000002       1.14474572E-08
   13.4150000       4.39717374E-09
   13.5299997      -3.04325143E-09
   13.6450005      -1.08801723E-08
   13.7600002      -1.91203284E-08
   13.8750000      -2.77710104E-08
   13.9899998      -3.68401700E-08
   14.1049995      -4.63363499E-08
   14.2200003      -5.62687248E-08
   14.3350000      -6.66469475E-08
   14.4499998      -7.74809337E-08
   14.5649996      -8.87806451E-08
   14.6800003      -1.00555745E-07
   14.7950001      -1.12815350E-07
   14.9099998      -1.25567610E-07
   15.0249996      -1.38819473E-07
   15.1400003      -1.52576249E-07
   15.2550001      -1.66841474E-07
   15.3699999      -1.81616585E-07
   15.4849997      -1.96900885E-07
   15.6000004      -2.12691404E-07
   15.7150002      -2.28983069E-07
   15.8299999      -2.45768661E-07
   15.9449997      -2.63039254E-07
   16.0599995      -2.80784320E-07
   16.1749992      -2.98992347E-07
   16.2900009      -3.17651029E-07
   16.4050007      -3.36747746E-07
   16.5200005      -3.56270192E-07
   16.6350002      -3.76206543E-07
   16.7500000      -3.96546199E-07
   16.8649998      -4.17279750E-07
   16.9799995      -4.38399496E-07
   17.0949993      -4.59899354E-07
   17.2099991      -4.81775146E-07
   17.3250008      -5.04024229E-07
   17.4400005      -5.26645579E-07
   17.5550003      -5.49639537E-07
   17.6700001      -5.73007014E-07
   17.7849998      -5.96749601E-07
   17.8999996      -6.20868605E-07
   18.0149994      -6.45364821E-07
   18.1299992      -6.70237966E-07
   18.2450008      -6.95485880E-07
   18.3600006      -7.21104527E-07
   18.4750004      -7.47087142E-07
   18.5900002      -7.73424347E-07
   18.7049999      -8.00103464E-07
   18.8199997      -8.27108920E-07
   18.9349995      -8.54421728E-07
   19.0499992      -8.82019833E-07
   19.1650009      -9.09878509E-07
   19.2800007      -9.37970299E-07
   19.3950005      -9.66265475E-07
   19.5100002      -9.94731863E-07
   19.6250000      -1.02333627E-06
   19.7399998      -1.05204367E-06
   19.8549995      -1.08081804E-06
   19.9699993      -1.10962253E-06
   20.0849991      -1.13841907E-06
   20.2000008      -1.16716876E-06
   20.3150005      -1.19583160E-06
   20.4300003      -1.22436597E-06
   20.5450001      -1.25272857E-06
   20.6599998      -1.28087333E-06
   20.7749996      -1.30875173E-06
   20.8899994      -1.33631215E-06
   21.0049992      -1.36349831E-06
   21.1200008      -1.39025042E-06
   21.2350006      -1.41650355E-06
   21.3500004      -1.44218848E-06
   21.4650002      -1.46723085E-06
   21.5799999      -1.49155187E-06
   21.6949997      -1.51506890E-06
   21.8099995      -1.53769554E-06
   21.9249992      -1.55934242E-06
   22.0400009      -1.57991849E-06
   22.1550007      -1.59933199E-06
   22.2700005      -1.61749062E-06
   22.3850002      -1.63430366E-06
   22.5000000      -1.64968264E-06
   22.6149998      -1.66354175E-06
   22.7299995      -1.67579924E-06
   22.8449993      -1.68637757E-06
   22.9599991      -1.69520365E-06
   23.0750008      -1.70220903E-06
   23.1900005      -1.70733063E-06
   23.3050003      -1.71050863E-06
   23.4200001      -1.71168801E-06
   23.5349998      -1.71081615E-06
   23.6499996      -1.70784347E-06
   23.7649994      -1.70272233E-06
   23.8799992      -1.69540442E-06
   23.9950008      -1.68584347E-06
   24.1100006      -1.67399105E-06
   24.2250004      -1.65979804E-06
   24.3400002      -1.64321295E-06
   24.4549999      -1.62418212E-06
   24.5699997      -1.60264756E-06
   24.6849995      -1.57855015E-06
   24.7999992      -1.55182636E-06
   24.9150009      -1.52240921E-06
   25.0300007      -1.49022878E-06
   25.1450005      -1.45521187E-06
   25.2600002      -1.41728287E-06
   25.3750000      -1.37636368E-06
   25.4899998      -1.33237359E-06
   25.6049995      -1.28523095E-06
   25.7199993      -1.23485290E-06
   25.8349991      -1.18115554E-06
   25.9500008      -1.12405610E-06
   26.0650005      -1.06347159E-06
   26.1800003      -9.99320605E-07
   26.2950001      -9.31523289E-07
   26.4099998      -8.60001819E-07
   26.5249996      -7.84680594E-07
   26.6399994      -7.05486570E-07
   26.7549992      -6.22349205E-07
   26.8700008      -5.35200570E-07
   26.9850006      -4.43975040E-07
   27.1000004      -3.48608523E-07
   27.2150002      -2.49038976E-07
   27.3299999      -1.45205405E-07
   27.4449997      -3.70478865E-08
   27.5599995       7.54926006E-08
   27.6749992       1.92475483E-07
   27.7900009       3.13958850E-07
   27.9050007       4.40000633E-07
   28.0200005       5.70656994E-07
   28.1350002       7.05982529E-07
   28.2500000       8.46029025E-07
   28.3649998       9.90843887E-07
   28.4799995       1.14046964E-06
   28.5949993       1.29494151E-06
   28.7099991       1.45428646E-06
   28.8250008       1.61852233E-06
   28.9400005       1.78765504E-06
   29.0550003       1.96167844E-06
   29.1700001       2.14057263E-06
   29.2849998       2.32430421E-06
   29.3999996       2.51282404E-06
   29.5149994       2.70606802E-06
   29.6299992       2.90395724E-06
   29.7450008       3.10639757E-06
   29.8600006       3.31327942E-06
   29.9750004       3.52447887E-06
   30.0900002       3.73985836E-06
   30.2049999       3.95926463E-06
   30.3199997       4.18253239E-06
   30.4349995       4.40948270E-06
   30.5499992       4.63992228E-06
   30.6650009       4.87364377E-06
   30.7800007       5.11042754E-06
   30.8950005       5.35003801E-06
   31.0100002       5.59222690E-06
   31.1250000       5.83673136E-06
   31.2399998       6.08327309E-06
   31.3549995       6.33156060E-06
   31.4699993       6.58128693E-06
   31.5849991       6.83213148E-06
   31.7000008       7.08376001E-06
   31.8150005       7.33582419E-06
   31.9300003       7.58796614E-06
   32.0449982       7.83981613E-06
   32.1599998       8.09099038E-06
   32.2750015       8.34109869E-06
   32.3899994       8.58973817E-06
   32.5050011       8.83650227E-06
   32.6199989       9.08097172E-06
   32.7350006       9.32271814E-06
   32.8499985       9.56130771E-06
   32.9650002       9.79629749E-06
   33.0800018       1.00272318E-05
   33.1949997       1.02536478E-05
   33.3100014       1.04750707E-05
   33.4249992       1.06910193E-05
   33.5400009       1.09009916E-05
   33.6549988       1.11044819E-05
   33.7700005       1.13009728E-05
   33.8849983       1.14899303E-05
   34.0000000       1.16708097E-05
   34.1150017       1.18430589E-05
   34.2299995       1.20061131E-05
   34.3450012       1.21593957E-05
   34.4599991       1.23023256E-05
   34.5750008       1.24343105E-05
   34.6899986       1.25547476E-05
   34.8050003       1.26630357E-05
   34.9199982       1.27585618E-05
   35.0349998       1.28407119E-05
   35.1500015       1.29088630E-05
   35.2649994       1.29623941E-05
   35.3800011       1.30006738E-05
   35.4949989       1.30230783E-05
   35.6100006       1.30289718E-05
   35.7249985       1.30177232E-05
   35.8400002       1.29886976E-05
   35.9550018       1.29412601E-05
   36.0699997       1.28747788E-05
   36.1850014       1.27886178E-05
   36.2999992       1.26821506E-05
   36.4150009       1.25547476E-05
   36.5299988       1.24057879E-05
   36.6450005       1.22346537E-05
   36.7599983       1.20407321E-05
   36.8750000       1.18234138E-05
   36.9900017       1.15820976E-05
   37.1049995       1.13161886E-05
   37.2200012       1.10250976E-05
   37.3349991       1.07082415E-05
   37.4500008       1.03650445E-05
   37.5649986       9.99493295E-06
   37.6800003       9.59734098E-06
   37.7949982       9.17171201E-06
   37.9099998       8.71749489E-06
   38.0250015       8.23414666E-06
   38.1399994       7.72112799E-06
   38.2550011       7.17792318E-06
   38.3699989       6.60401793E-06
   38.4850006       5.99891473E-06
   38.5999985       5.36213929E-06
   38.7150002       4.69323231E-06
   38.8300018       3.99176224E-06
   38.9449997       3.25731389E-06
   39.0600014       2.48950869E-06
   39.1749992       1.68799397E-06
   39.2900009       8.52455798E-07
   39.4049988      -1.73921837E-08
   39.5200005      -9.21797152E-07
   39.6349983      -1.86097213E-06
   39.7500000      -2.83508575E-06
   39.8650017      -3.84428540E-06
   39.9799995      -4.88866726E-06
   40.0950012      -5.96829705E-06
   40.2099991      -7.08320295E-06
   40.3250008      -8.23336813E-06
   40.4399986      -9.41875169E-06
   40.5550003      -1.06392617E-05
   40.6699982      -1.18947792E-05
   40.7849998      -1.31851339E-05
   40.9000015      -1.45101340E-05
   41.0149994      -1.58695311E-05
   41.1300011      -1.72630480E-05
   41.2449989      -1.86903453E-05
   41.3600006      -2.01510720E-05
   41.4749985      -2.16448007E-05
   41.5900002      -2.31710874E-05
   41.7050018      -2.47294247E-05
   41.8199997      -2.63192760E-05
   41.9350014      -2.79400592E-05
   42.0499992      -2.95911486E-05
   42.1650009      -3.12718803E-05
   42.2799988      -3.29815557E-05
   42.3950005      -3.47194364E-05
   42.5099983      -3.64847510E-05
   42.6250000      -3.82767066E-05
   42.7400017      -4.00944555E-05
   42.8549995      -4.19371463E-05
   42.9700012      -4.38038842E-05
   43.0849991      -4.56937596E-05
   43.2000008      -4.76058231E-05
   43.3149986      -4.95391105E-05
   43.4300003      -5.14926360E-05
   43.5449982      -5.34653809E-05
   43.6599998      -5.54563085E-05
   43.7750015      -5.74643709E-05
   43.8899994      -5.94884878E-05
   44.0050011      -6.15275858E-05
   44.1199989      -6.35805409E-05
   44.2350006      -6.56462580E-05
   44.3499985      -6.77236021E-05
   44.4650002      -6.98114527E-05
   44.5800018      -7.19086529E-05
   44.6949997      -7.40140676E-05
   44.8100014      -7.61265401E-05
   44.9249992      -7.82449570E-05
   45.0400009      -8.03681178E-05
   45.1549988      -8.24948947E-05
   45.2700005      -8.46241601E-05
   45.3849983      -8.67547205E-05
   45.5000000      -8.88854483E-05
   45.6150017      -9.10151575E-05
   45.7299995      -9.31427130E-05
   45.8450012      -9.52669070E-05
   45.9599991      -9.73865899E-05
   46.0750008      -9.95005539E-05
   46.1899986      -1.01607606E-04
   46.3050003      -1.03706552E-04
   46.4199982      -1.05796185E-04
   46.5349998      -1.07875268E-04
   46.6500015      -1.09942615E-04
   46.7649994      -1.11996997E-04
   46.8800011      -1.14037197E-04
   46.9949989      -1.16062023E-04
   47.1100006      -1.18070253E-04
   47.2249985      -1.20060686E-04
   47.3400002      -1.22032136E-04
   47.4550018      -1.23983424E-04
   47.5699997      -1.25913386E-04
   47.6850014      -1.27820851E-04
   47.7999992      -1.29704684E-04
   47.9150009      -1.31563749E-04
   48.0299988      -1.33396883E-04
   48.1450005      -1.35202979E-04
   48.2599983      -1.36980932E-04
   48.3750000      -1.38729622E-04
   48.4900017      -1.40447912E-04
   48.6049995      -1.42134770E-04
   48.7200012      -1.43789075E-04
   48.8349991      -1.45409766E-04
   48.9500008      -1.46995735E-04
   49.0649986      -1.48545951E-04
   49.1800003      -1.50059408E-04
   49.2949982      -1.51535045E-04
   49.4099998      -1.52971872E-04
   49.5250015      -1.54368914E-04
   49.6399994      -1.55725240E-04
   49.7550011      -1.57039889E-04
   49.8699989      -1.58312017E-04
   49.9850006      -1.59540679E-04
   50.0999985      -1.60725103E-04
   50.2150002      -1.61864416E-04
   50.3300018      -1.62957891E-04
   50.4449997      -1.64004727E-04
   50.5600014      -1.65004240E-04
   50.6749992      -1.65955731E-04
   50.7900009      -1.66858532E-04
   50.9049988      -1.67712031E-04
   51.0200005      -1.68515602E-04
   51.1349983      -1.69268736E-04
   51.2500000      -1.69970896E-04
   51.3650017      -1.70621570E-04
   51.4799995      -1.71220323E-04
   51.5950012      -1.71766776E-04
   51.7099991      -1.72260567E-04
   51.8250008      -1.72701330E-04
   51.9399986      -1.73088833E-04
   52.0550003      -1.73422799E-04
   52.1699982      -1.73703040E-04
   52.2849998      -1.73929438E-04
   52.4000015      -1.74101864E-04
   52.5149994      -1.74220273E-04
   52.6300011      -1.74284651E-04
   52.7449989      -1.74295041E-04
   52.8600006      -1.74251545E-04
   52.9749985      -1.74154309E-04
   53.0900002      -1.74003522E-04
   53.2050018      -1.73799475E-04
   53.3199997      -1.73542488E-04
   53.4350014      -1.73232926E-04
   53.5499992      -1.72871252E-04
   53.6650009      -1.72457992E-04
   53.7799988      -1.71993743E-04
   53.8950005      -1.71479129E-04
   54.0099983      -1.70914864E-04
   54.1250000      -1.70301748E-04
   54.2400017      -1.69640567E-04
   54.3549995      -1.68932267E-04
   54.4700012      -1.68177721E-04
   54.5849991      -1.67377890E-04
   54.7000008      -1.66533777E-04
   54.8149986      -1.65646401E-04
   54.9300003      -1.64716796E-04
   55.0449982      -1.63745994E-04
   55.1599998      -1.62735043E-04
   55.2750015      -1.61685020E-04
   55.3899994      -1.60596974E-04
   55.5050011      -1.59471936E-04
   55.6199989      -1.58310955E-04
   55.7350006      -1.57115093E-04
   55.8499985      -1.55885355E-04
   55.9650002      -1.54622801E-04
   56.0800018      -1.53328438E-04
   56.1949997      -1.52003297E-04
   56.3100014      -1.50648426E-04
   56.4249992      -1.49264859E-04
   56.5400009      -1.47853600E-04
   56.6549988      -1.46415667E-04
   56.7700005      -1.44952079E-04
   56.8849983      -1.43463840E-04
   57.0000000      -1.41951910E-04
   57.1150017      -1.40417265E-04
   57.2299995      -1.38860836E-04
   57.3450012      -1.37283481E-04
   57.4599991      -1.35686074E-04
   57.5750008      -1.34069414E-04
   57.6899986      -1.32434187E-04
   57.8050003      -1.30781104E-04
   57.9199982      -1.29110733E-04
   58.0349998      -1.27423627E-04
   58.1500015      -1.25720253E-04
   58.2649994      -1.24000973E-04
   58.3800011      -1.22266065E-04
   58.4949989      -1.20515775E-04
   58.6100006      -1.18750220E-04
   58.7249985      -1.16969466E-04
   58.8400002      -1.15173461E-04
   58.9550018      -1.13362134E-04
   59.0699997      -1.11535323E-04
   59.1850014      -1.09692781E-04
   59.2999992      -1.07834196E-04
   59.4150009      -1.05959189E-04
   59.5299988      -1.04067323E-04
   59.6450005      -1.02158119E-04
   59.7599983      -1.00231024E-04
   59.8750000      -9.82853817E-05
   59.9900017      -9.63205603E-05
   60.1049995      -9.43358464E-05
   60.2200012      -9.23304251E-05
   60.3349991      -9.03035179E-05
   60.4500008      -8.82542226E-05
   60.5649986      -8.61816225E-05
   60.6800003      -8.40847206E-05
   60.7949982      -8.19624984E-05
   60.9099998      -7.98138717E-05
   61.0250015      -7.76376837E-05
   61.1399994      -7.54327193E-05
   61.2550011      -7.31977416E-05
   61.3699989      -7.09314190E-05
   61.4850006      -6.86324056E-05
   61.5999985      -6.62992388E-05
   61.7150002      -6.39304999E-05
   61.8300018      -6.15246681E-05
   61.9449997      -5.90802119E-05
   62.0600014      -5.65955961E-05
   62.1749992      -5.40692636E-05
   62.2900009      -5.14996536E-05
   62.4049988      -4.88852274E-05
   62.5200005      -4.62244825E-05
   62.6349983      -4.35159745E-05
   62.7500000      -4.07582702E-05
   62.8650017      -3.79500416E-05
   62.9799995      -3.50900191E-05
   63.0950012      -3.21770276E-05
   63.2099991      -2.92099830E-05
   63.3250008      -2.61879213E-05
   63.4399986      -2.31099457E-05
   63.5550003      -1.99752740E-05
   63.6699982      -1.67832477E-05
   63.7849998      -1.35333403E-05
   63.9000015      -1.02251415E-05
   64.0149994      -6.85834357E-06
   64.1299973      -3.43284432E-06
   64.2450027       5.13761371E-08
   64.3600006       3.59416140E-06
   64.4749985       7.19516765E-06
   64.5899963       1.08538534E-05
   64.7050018       1.45694839E-05
   64.8199997       1.83410957E-05
   64.9349976       2.21674836E-05
   65.0500031       2.60471843E-05
   65.1650009       2.99784188E-05
   65.2799988       3.39591570E-05
   65.3949966       3.79869925E-05
   65.5100021       4.20592551E-05
   65.6250000       4.61729032E-05
   65.7399979       5.03245101E-05
   65.8550034       5.45103976E-05
   65.9700012       5.87264403E-05
   66.0849991       6.29682181E-05
   66.1999969       6.72309616E-05
   66.3150024       7.15095593E-05
   66.4300003       7.57985472E-05
   66.5449982       8.00921553E-05
   66.6600037       8.43842936E-05
   66.7750015       8.86685448E-05
   66.8899994       9.29382295E-05
   67.0049973       9.71863701E-05
   67.1200027       1.01405691E-04
   67.2350006       1.05588682E-04
   67.3499985       1.09727560E-04
   67.4649963       1.13814312E-04
   67.5800018       1.17840711E-04
   67.6949997       1.21798301E-04
   67.8099976       1.25678431E-04
   67.9250031       1.29472246E-04
   68.0400009       1.33170804E-04
   68.1549988       1.36764953E-04
   68.2699966       1.40245451E-04
   68.3850021       1.43603000E-04
   68.5000000       1.46828199E-04
   68.6149979       1.49911692E-04
   68.7300034       1.52844063E-04
   68.8450012       1.55615970E-04
   68.9599991       1.58218114E-04
   69.0749969       1.60641343E-04
   69.1900024       1.62876648E-04
   69.3050003       1.64915225E-04
   69.4199982       1.66748519E-04
   69.5350037       1.68368293E-04
   69.6500015       1.69766528E-04
   69.7649994       1.70935702E-04
   69.8799973       1.71868625E-04
   69.9950027       1.72558604E-04
   70.1100006       1.72999469E-04
   70.2249985       1.73185603E-04
   70.3399963       1.73111970E-04
   70.4550018       1.72774147E-04
   70.5699997       1.72168380E-04
   70.6849976       1.71291656E-04
   70.8000031       1.70141575E-04
   70.9150009       1.68716535E-04
   71.0299988       1.67015736E-04
   71.1449966       1.65039048E-04
   71.2600021       1.62787168E-04
   71.3750000       1.60261596E-04
   71.4899979       1.57464572E-04
   71.6050034       1.54399095E-04
   71.7200012       1.51069034E-04
   71.8349991       1.47478975E-04
   71.9499969       1.43634286E-04
   72.0650024       1.39541022E-04
   72.1800003       1.35206108E-04
   72.2949982       1.30637141E-04
   72.4100037       1.25842475E-04
   72.5250015       1.20831130E-04
   72.6399994       1.15612878E-04
   72.7549973       1.10198176E-04
   72.8700027       1.04598112E-04
   72.9850006       9.88244574E-05
   73.0999985       9.28895679E-05
   73.2149963       8.68064162E-05
   73.3300018       8.05885429E-05
   73.4449997       7.42499469E-05
   73.5599976       6.78051510E-05
   73.6750031       6.12690710E-05
   73.7900009       5.46569863E-05
   73.9049988       4.79844930E-05
   74.0199966       4.12674308E-05
   74.1350021       3.45218323E-05
   74.2500000       2.77638974E-05
   74.3649979       2.10098115E-05
   74.4800034       1.42758272E-05
   74.5950012       7.57812813E-06
   74.7099991       9.32772878E-07
   74.8249969      -5.64432048E-06
   74.9400024      -1.21374715E-05
   75.0550003      -1.85312711E-05
   75.1699982      -2.48106280E-05
   75.2850037      -3.09607567E-05
   75.4000015      -3.69673107E-05
   75.5149994      -4.28163730E-05
   75.6299973      -4.84945122E-05
   75.7450027      -5.39887260E-05
   75.8600006      -5.92866309E-05
   75.9749985      -6.43763633E-05
   76.0899963      -6.92465983E-05
   76.2050018      -7.38866875E-05
   76.3199997      -7.82865463E-05
   76.4349976      -8.24368180E-05
   76.5500031      -8.63287423E-05
   76.6650009      -8.99542938E-05
   76.7799988      -9.33061092E-05
   76.8949966      -9.63775310E-05
   77.0100021      -9.91626657E-05
   77.1250000      -1.01656318E-04
   77.2399979      -1.03854021E-04
   77.3550034      -1.05752064E-04
   77.4700012      -1.07347434E-04
   77.5849991      -1.08637862E-04
   77.6999969      -1.09621848E-04
   77.8150024      -1.10298541E-04
   77.9300003      -1.10667854E-04
   78.0449982      -1.10730412E-04
   78.1600037      -1.10487512E-04
   78.2750015      -1.09941015E-04
   78.3899994      -1.09093642E-04
   78.5049973      -1.07948581E-04
   78.6200027      -1.06509680E-04
   78.7350006      -1.04781437E-04
   78.8499985      -1.02768790E-04
   78.9649963      -1.00477278E-04
   79.0800018      -9.79129618E-05
   79.1949997      -9.50823305E-05
   79.3099976      -9.19923041E-05
   79.4250031      -8.86502312E-05
   79.5400009      -8.50638171E-05