  -18.8999996       0.00000000    
  -18.7849998       0.00000000    
  -18.6700001      -1.74841704E-18
  -18.5550003      -8.60338644E-18
  -18.4400005      -2.43047369E-17
  -18.3250008      -4.97086579E-17
  -18.2099991      -7.74065956E-17
  -18.0949993      -8.58097580E-17
  -17.9799995      -3.59709250E-17
  -17.8649998       1.24859578E-16
  -17.7500000       4.49963277E-16
  -17.6350002       9.70082165E-16
  -17.5200005       1.66452626E-15
  -17.4050007       2.43435406E-15
  -17.2900009       3.08765786E-15
  -17.1749992       3.34622759E-15
  -17.0599995       2.87887165E-15
  -16.9449997       1.36031649E-15
  -16.8299999      -1.45245377E-15
  -16.7150002      -5.64028440E-15
  -16.6000004      -1.10549023E-14
  -16.4850006      -1.72805919E-14
  -16.3700008      -2.36359529E-14
  -16.2549992      -2.92212713E-14
  -16.1399994      -3.30110119E-14
  -16.0249996      -3.39860721E-14
  -15.9099998      -3.12970949E-14
  -15.7950001      -2.44475613E-14
  -15.6800003      -1.34826190E-14
  -15.5649996       8.34616185E-16
  -15.4499998       1.68828879E-14
  -15.3350000       3.21069939E-14
  -15.2200003       4.30366666E-14
  -15.1049995       4.54256146E-14
  -14.9899998       3.45234163E-14
  -14.8750000       5.47188705E-15
  -14.7600002      -4.62076293E-14
  -14.6450005      -1.24096358E-13
  -14.5299997      -2.30407138E-13
  -14.4150000      -3.65642927E-13
  -14.3000002      -5.28457974E-13
  -14.1850004      -7.15765826E-13
  -14.0699997      -9.23101764E-13
  -13.9549999      -1.14520427E-12
  -13.8400002      -1.37674865E-12
  -13.7250004      -1.61313280E-12
  -13.6099997      -1.85121384E-12
  -13.4949999      -2.08989748E-12
  -13.3800001      -2.33050016E-12
  -13.2650003      -2.57683111E-12
  -13.1499996      -2.83497076E-12
  -13.0349998      -3.11274682E-12
  -12.9200001      -3.41894503E-12
  -12.8050003      -3.76230470E-12
  -12.6899996      -4.15038707E-12
  -12.5749998      -4.58843944E-12
  -12.4600000      -5.07838476E-12
  -12.3450003      -5.61809453E-12
  -12.2299995      -6.20109302E-12
  -12.1149998      -6.81679886E-12
  -12.0000000      -7.45138239E-12
  -11.8850002      -8.08919511E-12
  -11.7700005      -8.71465747E-12
  -11.6549997      -9.31440775E-12
  -11.5400000      -9.87941846E-12
  -11.4250002      -1.04067926E-11
  -11.3100004      -1.09009208E-11
  -11.1949997      -1.13738316E-11
  -11.0799999      -1.18445817E-11
  -10.9650002      -1.23377237E-11
  -10.8500004      -1.28809593E-11
  -10.7349997      -1.35022488E-11
  -10.6199999      -1.42267170E-11
  -10.5050001      -1.50736420E-11
  -10.3900003      -1.60539863E-11
  -10.2749996      -1.71686467E-11
  -10.1599998      -1.84078169E-11
  -10.0450001      -1.97514748E-11
  -9.93000031      -2.11710597E-11
  -9.81499958      -2.26323144E-11
  -9.69999981      -2.40989780E-11
  -9.58500004      -2.55370256E-11
  -9.47000027      -2.69189514E-11
  -9.35499954      -2.82277032E-11
  -9.23999977      -2.94596639E-11
  -9.12500000      -3.06262168E-11
  -9.01000023      -3.17537177E-11
  -8.89500046      -3.28816106E-11
  -8.77999973      -3.40589223E-11
  -8.66499996      -3.53394813E-11
  -8.55000019      -3.67763875E-11
  -8.43500042      -3.84164263E-11
  -8.31999969      -4.02950798E-11
  -8.20499992      -4.24328211E-11
  -8.09000015      -4.48331684E-11
  -7.97499990      -4.74825630E-11
  -7.86000013      -5.03523473E-11
  -7.74499989      -5.34022895E-11
  -7.63000011      -5.65854898E-11
  -7.51499987      -5.98538372E-11
  -7.40000010      -6.31635508E-11
  -7.28499985      -6.64801408E-11
  -7.17000008      -6.97819302E-11
  -7.05499983      -7.30622021E-11
  -6.94000006      -7.63296717E-11
  -6.82499981      -7.96070987E-11
  -6.71000004      -8.29284350E-11
  -6.59499979      -8.63351821E-11
  -6.48000002      -8.98723318E-11
  -6.36499977      -9.35850911E-11
  -6.25000000      -9.75164741E-11
  -6.13500023      -1.01706914E-10
  -6.01999998      -1.06195795E-10
  -5.90500021      -1.11024204E-10
  -5.78999996      -1.16239768E-10
  -5.67500019      -1.21900878E-10
  -5.55999994      -1.28080532E-10
  -5.44500017      -1.34867090E-10
  -5.32999992      -1.42362011E-10
  -5.21500015      -1.50672960E-10
  -5.09999990      -1.59901925E-10
  -4.98500013      -1.70129411E-10
  -4.86999989      -1.81395260E-10
  -4.75500011      -1.93677810E-10
  -4.63999987      -2.06874073E-10
  -4.52500010      -2.20783961E-10
  -4.40999985      -2.35101688E-10
  -4.29500008      -2.49415238E-10
  -4.17999983      -2.63219641E-10
  -4.06500006      -2.75941908E-10
  -3.95000005      -2.86979662E-10
  -3.83500004      -2.95751368E-10
  -3.72000003      -3.01755926E-10
  -3.60500002      -3.04637621E-10
  -3.49000001      -3.04249209E-10
  -3.37500000      -3.00708874E-10
  -3.25999999      -2.94442831E-10
  -3.14499998      -2.86208418E-10
  -3.02999997      -2.77089185E-10
  -2.91499996      -2.68462669E-10
  -2.79999995      -2.61935362E-10
  -2.68499994      -2.59246569E-10
  -2.56999993      -2.62147165E-10
  -2.45499992      -2.72256884E-10
  -2.33999991      -2.90910712E-10
  -2.22499990      -3.19005850E-10
  -2.10999990      -3.56861068E-10
  -1.99500000      -4.04100503E-10
  -1.88000000      -4.59576571E-10
  -1.76499999      -5.21339416E-10
  -1.64999998      -5.86664661E-10
  -1.53499997      -6.52139176E-10
  -1.41999996      -7.13812620E-10
  -1.30499995      -7.67403141E-10
  -1.19000006      -8.08553113E-10
  -1.07500005      -8.33123293E-10
 -0.959999979      -8.37505287E-10
 -0.845000029      -8.18935475E-10
 -0.730000019      -7.75789211E-10
 -0.615000010      -7.07831627E-10
 -0.500000000      -6.16408480E-10
 -0.384999990      -5.04558451E-10
 -0.270000011      -3.77028020E-10
 -0.155000001      -2.40187259E-10
  -3.99999991E-02  -1.01835609E-10
   7.50000030E-02   2.90943328E-11
  0.189999998       1.42932277E-10
  0.305000007       2.29741670E-10
  0.419999987       2.79855972E-10
  0.535000026       2.84448409E-10
  0.649999976       2.36109660E-10
  0.764999986       1.29396494E-10
  0.879999995      -3.86718990E-11
  0.995000005      -2.68209704E-10
   1.11000001      -5.56175161E-10
   1.22500002      -8.96218433E-10
   1.34000003      -1.27869526E-09
   1.45500004      -1.69084569E-09
   1.57000005      -2.11714402E-09
   1.68499994      -2.53981902E-09
   1.79999995      -2.93952662E-09
   1.91499996      -3.29615601E-09
   2.02999997      -3.58972807E-09
   2.14499998      -3.80136100E-09
   2.25999999      -3.91425248E-09
   2.37500000      -3.91463084E-09
   2.49000001      -3.79263110E-09
   2.60500002      -3.54304319E-09
   2.72000003      -3.16588644E-09
   2.83500004      -2.66677391E-09
   2.95000005      -2.05704120E-09
   3.06500006      -1.35360045E-09
   3.18000007      -5.78529558E-10
   3.29500008       2.41609482E-10
   3.41000009       1.07670173E-09
   3.52500010       1.89422789E-09
   3.64000010       2.66059175E-09
   3.75500011       3.34256200E-09
   3.86999989       3.90876842E-09
   3.98499990       4.33118741E-09
   4.09999990       4.58652982E-09
   4.21500015       4.65747574E-09
   4.32999992       4.53366900E-09
   4.44500017       4.21243840E-09
   4.55999994       3.69917452E-09
   4.67500019       3.00734682E-09
   4.78999996       2.15814278E-09
   4.90500021       1.17974019E-09
   5.01999998       1.06231857E-10
   5.13500023      -1.02375575E-09
   5.25000000      -2.16866036E-09
   5.36499977      -3.28576144E-09
   5.48000002      -4.33303615E-09
   5.59499979      -5.27097210E-09
   5.71000004      -6.06429973E-09
   5.82499981      -6.68351285E-09
   5.94000006      -7.10611925E-09
   6.05499983      -7.31753369E-09
   6.17000008      -7.31158822E-09
   6.28499985      -7.09062409E-09
   6.40000010      -6.66517019E-09
   6.51499987      -6.05318862E-09
   6.63000011      -5.27898925E-09
   6.74499989      -4.37182068E-09
   6.86000013      -3.36424333E-09
   6.97499990      -2.29036301E-09
   7.09000015      -1.18403465E-09
   7.20499992      -7.71271380E-11
   7.32000017       1.00205610E-09
   7.43499994       2.03010631E-09
   7.55000019       2.98951863E-09
   7.66499996       3.86932308E-09
   7.78000021       4.66532235E-09
   7.89499998       5.37991030E-09
   8.01000023       6.02147221E-09
   8.12500000       6.60344313E-09
   8.23999977       7.14306481E-09
   8.35499954       7.65988961E-09
   8.47000027       8.17420176E-09
   8.58500004       8.70537065E-09
   8.69999981       9.27028765E-09
   8.81499958       9.88197524E-09
   8.93000031       1.05484537E-08
   9.04500008       1.12719425E-08
   9.15999985       1.20484467E-08
   9.27499962       1.28677735E-08
   9.39000034       1.37139988E-08
   9.50500011       1.45663019E-08
   9.61999989       1.54002091E-08
   9.73499966       1.61891442E-08
   9.85000038       1.69061813E-08
   9.96500015       1.75259469E-08
   10.0799999       1.80265154E-08
   10.1949997       1.83912405E-08
   10.3100004       1.86103541E-08
   10.4250002       1.86822806E-08
   10.5400000       1.86145570E-08
   10.6549997       1.84242914E-08
   10.7700005       1.81381434E-08
   10.8850002       1.77917698E-08
   11.0000000       1.74288015E-08
   11.1149998       1.70993282E-08
   11.2299995       1.68580065E-08
   11.3450003       1.67618701E-08
   11.4600000       1.68679044E-08
   11.5749998       1.72305903E-08
   11.6899996       1.78994277E-08
   11.8050003       1.89166904E-08
   11.9200001       2.03153796E-08
   12.0349998       2.21176268E-08
   12.1499996       2.43335947E-08
   12.2650003       2.69608211E-08
   12.3800001       2.99842853E-08
   12.4949999       3.33769314E-08
   12.6099997       3.71008291E-08
   12.7250004       4.11088728E-08
   12.8400002       4.53468516E-08
   12.9549999       4.97558901E-08
   13.0699997       5.42751586E-08
   13.1850004       5.88445843E-08
   13.3000002       6.34076187E-08
   13.4150000       6.79137528E-08
   13.5299997       7.23207592E-08
   13.6450005       7.65965353E-08
   13.7600002       8.07204401E-08
   13.8750000       8.46840891E-08
   13.9899998       8.84914613E-08
   14.1049995       9.21585155E-08
   14.2200003       9.57121173E-08
   14.3350000       9.91885614E-08
   14.4499998       1.02631589E-07
   14.5649996       1.06090077E-07
   14.6800003       1.09615534E-07
   14.7950001       1.13259510E-07
   14.9099998       1.17071089E-07
   15.0249996       1.21094516E-07
   15.1400003       1.25367194E-07
   15.2550001       1.29918035E-07
   15.3699999       1.34766253E-07
   15.4849997       1.39920658E-07
   15.6000004       1.45379744E-07
   15.7150002       1.51131886E-07
   15.8299999       1.57156421E-07
   15.9449997       1.63424843E-07
   16.0599995       1.69902549E-07
   16.1749992       1.76550728E-07
   16.2900009       1.83328339E-07
   16.4050007       1.90194271E-07
   16.5200005       1.97109230E-07
   16.6350002       2.04037647E-07
   16.7500000       2.10949096E-07
   16.8649998       2.17819661E-07
   16.9799995       2.24632799E-07
   17.0949993       2.31379914E-07
   17.2099991       2.38060508E-07
   17.3250008       2.44682013E-07
   17.4400005       2.51259422E-07
   17.5550003       2.57814605E-07
   17.6700001       2.64375416E-07
   17.7849998       2.70974823E-07
   17.8999996       2.77649804E-07
   18.0149994       2.84440318E-07
   18.1299992       2.91388318E-07
   18.2450008       2.98536605E-07
   18.3600006       3.05928069E-07
   18.4750004       3.13604772E-07
   18.5900002       3.21606990E-07
   18.7049999       3.29972607E-07
   18.8199997       3.38736356E-07
   18.9349995       3.47928932E-07
   19.0499992       3.57576056E-07
   19.1650009       3.67698050E-07
   19.2800007       3.78308414E-07
   19.3950005       3.89413287E-07
   19.5100002       4.01010112E-07
   19.6250000       4.13086809E-07
   19.7399998       4.25621039E-07
   19.8549995       4.38578752E-07
   19.9699993       4.51914303E-07
   20.0849991       4.65569286E-07
   20.2000008       4.79472476E-07
   20.3150005       4.93539858E-07
   20.4300003       5.07675395E-07
   20.5450001       5.21771256E-07
   20.6599998       5.35709773E-07
   20.7749996       5.49364813E-07
   20.8899994       5.62604328E-07
   21.0049992       5.75292574E-07
   21.1200008       5.87293528E-07
   21.2350006       5.98473662E-07
   21.3500004       6.08705534E-07
   21.4650002       6.17871365E-07
   21.5799999       6.25866562E-07
   21.6949997       6.32602621E-07
   21.8099995       6.38010704E-07
   21.9249992       6.42043801E-07
   22.0400009       6.44678664E-07
   22.1550007       6.45917453E-07
   22.2700005       6.45787964E-07
   22.3850002       6.44343402E-07
   22.5000000       6.41662382E-07
   22.6149998       6.37845517E-07
   22.7299995       6.33013315E-07
   22.8449993       6.27302768E-07
   22.9599991       6.20863091E-07
   23.0750008       6.13850887E-07
   23.1900005       6.06424862E-07
   23.3050003       5.98741167E-07
   23.4200001       5.90946740E-07
   23.5349998       5.83175790E-07
   23.6499996       5.75543595E-07
   23.7649994       5.68143264E-07
   23.8799992       5.61041816E-07
   23.9950008       5.54277165E-07
   24.1100006       5.47857042E-07
   24.2250004       5.41757686E-07
   24.3400002       5.35924357E-07
   24.4549999       5.30273212E-07
   24.5699997       5.24692496E-07
   24.6849995       5.19046978E-07
   24.7999992       5.13180737E-07
   24.9150009       5.06922220E-07
   25.0300007       5.00088674E-07
   25.1450005       4.92491722E-07
   25.2600002       4.83941847E-07
   25.3750000       4.74252033E-07
   25.4899998       4.63244106E-07
   25.6049995       4.50751060E-07
   25.7199993       4.36620724E-07
   25.8349991       4.20718351E-07
   25.9500008       4.02927725E-07
   26.0650005       3.83153917E-07
   26.1800003       3.61321355E-07
   26.2950001       3.37375354E-07
   26.4099998       3.11280644E-07
   26.5249996       2.83019233E-07
   26.6399994       2.52589956E-07
   26.7549992       2.20004907E-07
   26.8700008       1.85288158E-07
   26.9850006       1.48473617E-07
   27.1000004       1.09602901E-07
   27.2150002       6.87230326E-08
   27.3299999       2.58861306E-08
   27.4449997      -1.88536475E-08
   27.5599995      -6.54400196E-08
   27.6749992      -1.13815574E-07
   27.7900009      -1.63922635E-07
   27.9050007      -2.15701846E-07
   28.0200005      -2.69093789E-07
   28.1350002      -3.24038410E-07
   28.2500000      -3.80473324E-07
   28.3649998      -4.38334041E-07
   28.4799995      -4.97553913E-07
   28.5949993      -5.58063789E-07
   28.7099991      -6.19791024E-07
   28.8250008      -6.82659731E-07
   28.9400005      -7.46591866E-07
   29.0550003      -8.11506595E-07
   29.1700001      -8.77321895E-07
   29.2849998      -9.43954319E-07
   29.3999996      -1.01132025E-06
   29.5149994      -1.07933772E-06
   29.6299992      -1.14792692E-06
   29.7450008      -1.21701214E-06
   29.8600006      -1.28652255E-06
   29.9750004      -1.35639380E-06
   30.0900002      -1.42656768E-06
   30.2049999      -1.49699349E-06
   30.3199997      -1.56762724E-06
   30.4349995      -1.63843345E-06
   30.5499992      -1.70938267E-06
   30.6650009      -1.78045127E-06
   30.7800007      -1.85161946E-06
   30.8950005      -1.92287212E-06
   31.0100002      -1.99419537E-06
   31.1250000      -2.06557684E-06
   31.2399998      -2.13700150E-06
   31.3549995      -2.20845322E-06
   31.4699993      -2.27991200E-06
   31.5849991      -2.35135190E-06
   31.7000008      -2.42274018E-06
   31.8150005      -2.49404115E-06
   31.9300003      -2.56521298E-06
   32.0449982      -2.63621132E-06
   32.1599998      -2.70698661E-06
   32.2750015      -2.77749405E-06
   32.3899994      -2.84768748E-06
   32.5050011      -2.91752986E-06
   32.6199989      -2.98699501E-06
   32.7350006      -3.05606636E-06
   32.8499985      -3.12474640E-06
   32.9650002      -3.19305741E-06
   33.0800018      -3.26104328E-06
   33.1949997      -3.32877084E-06
   33.3100014      -3.39633516E-06
   33.4249992      -3.46385423E-06
   33.5400009      -3.53147493E-06
   33.6549988      -3.59936575E-06
   33.7700005      -3.66771997E-06
   33.8849983      -3.73674607E-06
   34.0000000      -3.80666847E-06
   34.1150017      -3.87772070E-06
   34.2299995      -3.95013785E-06
   34.3450012      -4.02415117E-06
   34.4599991      -4.09998302E-06
   34.5750008      -4.17783895E-06
   34.6899986      -4.25790176E-06
   34.8050003      -4.34032563E-06
   34.9199982      -4.42523105E-06
   35.0349998      -4.51270307E-06
   35.1500015      -4.60278716E-06
   35.2649994      -4.69548922E-06
   35.3800011      -4.79078017E-06
   35.4949989      -4.88858814E-06
   35.6100006      -4.98881309E-06
   35.7249985      -5.09132542E-06
   35.8400002      -5.19597279E-06
   35.9550018      -5.30259285E-06
   36.0699997      -5.41101917E-06
   36.1850014      -5.52108395E-06
   36.2999992      -5.63263393E-06
   36.4150009      -5.74554224E-06
   36.5299988      -5.85971338E-06
   36.6450005      -5.97508961E-06
   36.7599983      -6.09166045E-06
   36.8750000      -6.20946730E-06
   36.9900017      -6.32859974E-06
   37.1049995      -6.44921647E-06
   37.2200012      -6.57152896E-06
   37.3349991      -6.69580413E-06
   37.4500008      -6.82235532E-06
   37.5649986      -6.95155313E-06
   37.6800003      -7.08381231E-06
   37.7949982      -7.21958440E-06
   37.9099998      -7.35934873E-06
   38.0250015      -7.50359550E-06
   38.1399994      -7.65283130E-06
   38.2550011      -7.80756636E-06
   38.3699989      -7.96829590E-06
   38.4850006      -8.13549923E-06
   38.5999985      -8.30963654E-06
   38.7150002      -8.49112985E-06
   38.8300018      -8.68036659E-06
   38.9449997      -8.87770238E-06
   39.0600014      -9.08343554E-06
   39.1749992      -9.29783619E-06
   39.2900009      -9.52112077E-06
   39.4049988      -9.75346848E-06
   39.5200005      -9.99501481E-06
   39.6349983      -1.02458598E-05
   39.7500000      -1.05060726E-05
   39.8650017      -1.07756914E-05
   39.9799995      -1.10547135E-05
   40.0950012      -1.13431315E-05
   40.2099991      -1.16409119E-05
   40.3250008      -1.19480155E-05
   40.4399986      -1.22643860E-05
   40.5550003      -1.25899714E-05
   40.6699982      -1.29247010E-05
   40.7849998      -1.32685127E-05
   40.9000015      -1.36213466E-05
   41.0149994      -1.39831409E-05
   41.1300011      -1.43538346E-05
   41.2449989      -1.47333585E-05
   41.3600006      -1.51216718E-05
   41.4749985      -1.55187172E-05
   41.5900002      -1.59244682E-05
   41.7050018      -1.63388722E-05
   41.8199997      -1.67619073E-05
   41.9350014      -1.71935571E-05
   42.0499992      -1.76338017E-05
   42.1650009      -1.80826319E-05
   42.2799988      -1.85400422E-05
   42.3950005      -1.90060400E-05
   42.5099983      -1.94806380E-05
   42.6250000      -1.99638416E-05
   42.7400017      -2.04556636E-05
   42.8549995      -2.09561076E-05
   42.9700012      -2.14651573E-05
   43.0849991      -2.19827925E-05
   43.2000008      -2.25089661E-05
   43.3149986      -2.30436235E-05
   43.4300003      -2.35866628E-05
   43.5449982      -2.41379421E-05
   43.6599998      -2.46972795E-05
   43.7750015      -2.52644459E-05
   43.8899994      -2.58391428E-05
   44.0050011      -2.64210266E-05
   44.1199989      -2.70096789E-05
   44.2350006      -2.76046158E-05
   44.3499985      -2.82053097E-05
   44.4650002      -2.88111733E-05
   44.5800018      -2.94215606E-05
   44.6949997      -3.00357897E-05
   44.8100014      -3.06531292E-05
   44.9249992      -3.12728152E-05
   45.0400009      -3.18940620E-05
   45.1549988      -3.25160690E-05
   45.2700005      -3.31380288E-05
   45.3849983      -3.37591373E-05
   45.5000000      -3.43786160E-05
   45.6150017      -3.49957154E-05
   45.7299995      -3.56097189E-05
   45.8450012      -3.62199607E-05
   45.9599991      -3.68258297E-05
   46.0750008      -3.74267875E-05
   46.1899986      -3.80223464E-05
   46.3050003      -3.86121064E-05
   46.4199982      -3.91957074E-05
   46.5349998      -3.97728618E-05
   46.6500015      -4.03433442E-05
   46.7649994      -4.09069980E-05
   46.8800011      -4.14636961E-05
   46.9949989      -4.20133510E-05
   47.1100006      -4.25559483E-05
   47.2249985      -4.30914806E-05
   47.3400002      -4.36199989E-05
   47.4550018      -4.41415577E-05
   47.5699997      -4.46562481E-05
   47.6850014      -4.51641390E-05
   47.7999992      -4.56653215E-05
   47.9150009      -4.61598829E-05
   48.0299988      -4.66479069E-05
   48.1450005      -4.71294843E-05
   48.2599983      -4.76046916E-05
   48.3750000      -4.80736344E-05
   48.4900017      -4.85363962E-05
   48.6049995      -4.89930790E-05
   48.7200012      -4.94437518E-05
   48.8349991      -4.98885420E-05
   48.9500008      -5.03275151E-05
   49.0649986      -5.07607801E-05
   49.1800003      -5.11884064E-05
   49.2949982      -5.16104847E-05
   49.4099998      -5.20270842E-05
   49.5250015      -5.24382740E-05
   49.6399994      -5.28441306E-05
   49.7550011      -5.32447084E-05
   49.8699989      -5.36400730E-05
   49.9850006      -5.40302608E-05
   50.0999985      -5.44153081E-05
   50.2150002      -5.47952041E-05
   50.3300018      -5.51699231E-05
   50.4449997      -5.55394545E-05
   50.5600014      -5.59037726E-05
   50.6749992      -5.62628229E-05
   50.7900009      -5.66165654E-05
   50.9049988      -5.69649310E-05
   51.0200005      -5.73079014E-05
   51.1349983      -5.76454513E-05
   51.2500000      -5.79775442E-05
   51.3650017      -5.83042092E-05
   51.4799995      -5.86254428E-05
   51.5950012      -5.89412775E-05
   51.7099991      -5.92517608E-05
   51.8250008      -5.95569545E-05
   51.9399986      -5.98569168E-05
   52.0550003      -6.01517240E-05
   52.1699982      -6.04414308E-05
   52.2849998      -6.07260918E-05
   52.4000015      -6.10057359E-05
   52.5149994      -6.12803778E-05
   52.6300011      -6.15499666E-05
   52.7449989      -6.18144040E-05
   52.8600006      -6.20735154E-05
   52.9749985      -6.23270680E-05
   53.0900002      -6.25747343E-05
   53.2050018      -6.28160997E-05
   53.3199997      -6.30506838E-05
   53.4350014      -6.32779193E-05
   53.5499992      -6.34971293E-05
   53.6650009      -6.37075645E-05
   53.7799988      -6.39084028E-05
   53.8950005      -6.40987346E-05
   54.0099983      -6.42775849E-05
   54.1250000      -6.44439060E-05
   54.2400017      -6.45965847E-05
   54.3549995      -6.47344787E-05
   54.4700012      -6.48564019E-05
   54.5849991      -6.49611175E-05
   54.7000008      -6.50473885E-05
   54.8149986      -6.51139708E-05
   54.9300003      -6.51595474E-05
   55.0449982      -6.51828595E-05
   55.1599998      -6.51825540E-05
   55.2750015      -6.51572918E-05
   55.3899994      -6.51056835E-05
   55.5050011      -6.50262955E-05
   55.6199989      -6.49176291E-05
   55.7350006      -6.47781417E-05
   55.8499985      -6.46062181E-05
   55.9650002      -6.44002066E-05
   56.0800018      -6.41583465E-05
   56.1949997      -6.38788551E-05
   56.3100014      -6.35598335E-05
   56.4249992      -6.31993535E-05
   56.5400009      -6.27953850E-05
   56.6549988      -6.23458691E-05
   56.7700005      -6.18486956E-05
   56.8849983      -6.13017401E-05
   57.0000000      -6.07028560E-05
   57.1150017      -6.00499006E-05
   57.2299995      -5.93407458E-05
   57.3450012      -5.85733396E-05
   57.4599991      -5.77456740E-05
   57.5750008      -5.68558316E-05
   57.6899986      -5.59019791E-05
   57.8050003      -5.48823846E-05
   57.9199982      -5.37954402E-05
   58.0349998      -5.26396398E-05
   58.1500015      -5.14136409E-05
   58.2649994      -5.01161994E-05
   58.3800011      -4.87462494E-05
   58.4949989      -4.73028340E-05
   58.6100006      -4.57851202E-05
   58.7249985      -4.41924058E-05
   58.8400002      -4.25241087E-05
   58.9550018      -4.07797161E-05
   59.0699997      -3.89588677E-05
   59.1850014      -3.70612470E-05
   59.2999992      -3.50866285E-05
   59.4150009      -3.30348885E-05
   59.5299988      -3.09059615E-05
   59.6450005      -2.86998820E-05
   59.7599983      -2.64167757E-05
   59.8750000      -2.40568716E-05
   59.9900017      -2.16205099E-05
   60.1049995      -1.91081144E-05
   60.2200012      -1.65202546E-05
   60.3349991      -1.38576052E-05
   60.4500008      -1.11209520E-05
   60.5649986      -8.31123634E-06
   60.6800003      -5.42950102E-06
   60.7949982      -2.47693788E-06
   60.9099998       5.45127705E-07
   61.0250015       3.63523623E-06
   61.1399994       6.79174400E-06
   61.2550011       1.00128982E-05
   61.3699989       1.32967771E-05
   61.4850006       1.66413229E-05
   61.5999985       2.00443919E-05
   61.7150002       2.35036805E-05
   61.8300018       2.70168111E-05
   61.9449997       3.05813082E-05
   62.0600014       3.41945961E-05
   62.1749992       3.78539880E-05
   62.2900009       4.15567483E-05
   62.4049988       4.53000357E-05
   62.5200005       4.90809034E-05
   62.6349983       5.28962810E-05
   62.7500000       5.67430652E-05
   62.8650017       6.06180365E-05
   62.9799995       6.45178807E-05
   63.0950012       6.84392216E-05
   63.2099991       7.23786070E-05
   63.3250008       7.63324788E-05
   63.4399986       8.02972500E-05
   63.5550003       8.42692170E-05
   63.6699982       8.82446257E-05
   63.7849998       9.22196414E-05
   63.9000015       9.61903788E-05
   64.0149994       1.00152945E-04
   64.1299973       1.04103470E-04
   64.2450027       1.08038112E-04
   64.3600006       1.11953115E-04
   64.4749985       1.15844814E-04
   64.5899963       1.19709672E-04
   64.7050018       1.23544305E-04
   64.8199997       1.27345498E-04
   64.9349976       1.31110224E-04
   65.0500031       1.34835645E-04
   65.1650009       1.38519186E-04
   65.2799988       1.42158489E-04
   65.3949966       1.45751474E-04
   65.5100021       1.49296364E-04
   65.6250000       1.52791690E-04
   65.7399979       1.56236201E-04
   65.8550034       1.59628995E-04
   65.9700012       1.62969402E-04
   66.0849991       1.66257043E-04
   66.1999969       1.69491745E-04
   66.3150024       1.72673565E-04
   66.4300003       1.75802823E-04
   66.5449982       1.78879971E-04
   66.6600037       1.81905692E-04
   66.7750015       1.84880861E-04
   66.8899994       1.87806480E-04
   67.0049973       1.90683684E-04
   67.1200027       1.93513813E-04
   67.2350006       1.96298250E-04
   67.3499985       1.99038492E-04
   67.4649963       2.01736126E-04
   67.5800018       2.04392811E-04
   67.6949997       2.07010264E-04
   67.8099976       2.09590202E-04
   67.9250031       2.12134430E-04
   68.0400009       2.14644766E-04
   68.1549988       2.17123015E-04
   68.2699966       2.19570924E-04
   68.3850021       2.21990267E-04
   68.5000000       2.24382733E-04
   68.6149979       2.26749864E-04
   68.7300034       2.29093159E-04
   68.8450012       2.31413927E-04
   68.9599991       2.33713334E-04
   69.0749969       2.35992367E-04
   69.1900024       2.38251829E-04
   69.3050003       2.40492300E-04
   69.4199982       2.42714203E-04
   69.5350037       2.44917697E-04
   69.6500015       2.47102726E-04
   69.7649994       2.49269069E-04
   69.8799973       2.51416292E-04
   69.9950027       2.53543723E-04
   70.1100006       2.55650521E-04
   70.2249985       2.57735781E-04
   70.3399963       2.59798340E-04
   70.4550018       2.61836976E-04
   70.5699997       2.63850379E-04
   70.6849976       2.65837181E-04
   70.8000031       2.67795986E-04
   70.9150009       2.69725337E-04
   71.0299988       2.71623925E-04
   71.1449966       2.73490412E-04
   71.2600021       2.75323488E-04
   71.3750000       2.77122046E-04
   71.4899979       2.78884952E-04
   71.6050034       2.80611217E-04
   71.7200012       2.82299879E-04
   71.8349991       2.83950183E-04
   71.9499969       2.85561342E-04
   72.0650024       2.87132716E-04
   72.1800003       2.88663752E-04
   72.2949982       2.90153985E-04
   72.4100037       2.91602948E-04
   72.5250015       2.93010351E-04
   72.6399994       2.94375903E-04
   72.7549973       2.95699312E-04
   72.8700027       2.96980405E-04
   72.9850006       2.98218947E-04
   73.0999985       2.99414794E-04
   73.2149963       3.00567859E-04
   73.3300018       3.01677966E-04
   73.4449997       3.02745029E-04
   73.5599976       3.03768931E-04
   73.6750031       3.04749585E-04
   73.7900009       3.05686874E-04
   73.9049988       3.06580652E-04
   74.0199966       3.07430746E-04
   74.1350021       3.08236922E-04
   74.2500000       3.08998890E-04
   74.3649979       3.09716153E-04
   74.4800034       3.10388248E-04
   74.5950012       3.11014475E-04
   74.7099991       3.11594049E-04
   74.8249969       3.12125892E-04
   74.9400024       3.12608754E-04
   75.0550003       3.13041266E-04
   75.1699982       3.13421682E-04
   75.2850037       3.13747994E-04
   75.4000015       3.14017991E-04
   75.5149994       3.14229168E-04
   75.6299973       3.14378703E-04
   75.7450027       3.14463599E-04
   75.8600006       3.14480654E-04
   75.9749985       3.14426405E-04
   76.0899963       3.14297242E-04
   76.2050018       3.14089382E-04
   76.3199997       3.13798955E-04
   76.4349976       3.13422002E-04
   76.5500031       3.12954537E-04
   76.6650009       3.12392571E-04
   76.7799988       3.11732176E-04
   76.8949966       3.10969423E-04
   77.0100021       3.10100557E-04
   77.1250000       3.09121882E-04
   77.2399979       3.08030023E-04
   77.3550034       3.06821661E-04
   77.4700012       3.05493741E-04
   77.5849991       3.04043351E-04
   77.6999969       3.02467844E-04
   77.8150024       3.00764863E-04
   77.9300003       2.98932049E-04
   78.0449982       2.96967453E-04
   78.1600037       2.94869213E-04
   78.2750015       2.92635727E-04
   78.3899994       2.90265598E-04
   78.5049973       2.87757546E-04
   78.6200027       2.85110611E-04
   78.7350006       2.82323890E-04
   78.8499985       2.79396860E-04
   78.9649963       2.76329054E-04
   79.0800018       2.73120269E-04
   79.1949997       2.69770622E-04
   79.3099976       2.66280345E-04
   79.4250031       2.62649963E-04
   79.5400009       2.58880231E-04