  -18.8999996         0.00000000    
  -18.7849998         0.00000000    
  -18.6700001        -6.75901782E-24
  -18.5550003        -8.93584501E-19
  -18.4400005        -5.64228953E-18
  -18.3250008        -1.97676579E-17
  -18.2099991        -5.03975769E-17
  -18.0949993        -1.03800963E-16
  -17.9799995        -1.82220901E-16
  -17.8649998        -2.81423732E-16
  -17.7500000        -3.90349866E-16
  -17.6350002        -4.93484942E-16
  -17.5200005        -5.75303401E-16
  -17.4050007        -6.24893792E-16
  -17.2900009        -6.38270719E-16
  -17.1749992        -6.16300590E-16
  -17.0599995        -5.57674687E-16
  -16.9449997        -4.48511728E-16
  -16.8299999        -2.52203134E-16
  -16.7150002         9.57535741E-17
  -16.6000004         6.83564059E-16
  -16.4850006         1.60709160E-15
  -16.3700008         2.94237795E-15
  -16.2549992         4.71015286E-15
  -16.1399994         6.83791233E-15
  -16.0249996         9.12569496E-15
  -15.9099998         1.12206073E-14
  -15.7950001         1.26028440E-14
  -15.6800003         1.25835274E-14
  -15.5649996         1.03127490E-14
  -15.4499998         4.79587260E-15
  -15.3350000        -5.08304980E-15
  -15.2200003        -2.05305726E-14
  -15.1049995        -4.28045999E-14
  -14.9899998        -7.31658454E-14
  -14.8750000        -1.12821590E-13
  -14.7600002        -1.62867021E-13
  -14.6450005        -2.24233216E-13
  -14.5299997        -2.97653259E-13
  -14.4150000        -3.83657028E-13
  -14.3000002        -4.82601047E-13
  -14.1850004        -5.94732597E-13
  -14.0699997        -7.20278383E-13
  -13.9549999        -8.59541659E-13
  -13.8400002        -1.01298592E-12
  -13.7250004        -1.18128651E-12
  -13.6099997        -1.36533688E-12
  -13.4949999        -1.56620431E-12
  -13.3800001        -1.78504455E-12
  -13.2650003        -2.02298833E-12
  -13.1499996        -2.28102042E-12
  -13.0349998        -2.55987050E-12
  -12.9200001        -2.85992931E-12
  -12.8050003        -3.18119511E-12
  -12.6899996        -3.52325439E-12
  -12.5749998        -3.88528923E-12
  -12.4600000        -4.26611437E-12
  -12.3450003        -4.66423254E-12
  -12.2299995        -5.07792463E-12
  -12.1149998        -5.50536916E-12
  -12.0000000        -5.94480238E-12
  -11.8850002        -6.39471158E-12
  -11.7700005        -6.85405161E-12
  -11.6549997        -7.32245774E-12
  -11.5400000        -7.80043131E-12
  -11.4250002        -8.28945159E-12
  -11.3100004        -8.79200619E-12
  -11.1949997        -9.31150556E-12
  -11.0799999        -9.85210091E-12
  -10.9650002        -1.04183953E-11
  -10.8500004        -1.10151402E-11
  -10.7349997        -1.16468692E-11
  -10.6199999        -1.23176087E-11
  -10.5050001        -1.30306018E-11
  -10.3900003        -1.37881399E-11
  -10.2749996        -1.45914877E-11
  -10.1599998        -1.54408864E-11
  -10.0450001        -1.63356897E-11
  -9.93000031        -1.72745828E-11
  -9.81499958        -1.82559055E-11
  -9.69999981        -1.92780548E-11
  -9.58500004        -2.03399710E-11
  -9.47000027        -2.14416072E-11
  -9.35499954        -2.25844309E-11
  -9.23999977        -2.37717918E-11
  -9.12500000        -2.50091458E-11
  -9.01000023        -2.63040822E-11
  -8.89500046        -2.76660656E-11
  -8.77999973        -2.91060127E-11
  -8.66499996        -3.06355739E-11
  -8.55000019        -3.22663458E-11
  -8.43500042        -3.40090109E-11
  -8.31999969        -3.58725376E-11
  -8.20499992        -3.78635456E-11
  -8.09000015        -3.99858827E-11
  -7.97499990        -4.22404611E-11
  -7.86000013        -4.46254145E-11
  -7.74499989        -4.71365239E-11
  -7.63000011        -4.97678496E-11
  -7.51499987        -5.25126609E-11
  -7.40000010        -5.53643936E-11
  -7.28499985        -5.83177812E-11
  -7.17000008        -6.13699438E-11
  -7.05499983        -6.45213397E-11
  -6.94000006        -6.77766662E-11
  -6.82499981        -7.11453119E-11
  -6.71000004        -7.46418205E-11
  -6.59499979        -7.82856835E-11
  -6.48000002        -8.21010274E-11
  -6.36499977        -8.61160587E-11
  -6.25000000        -9.03620928E-11
  -6.13500023        -9.48725612E-11
  -6.01999998        -9.96819641E-11
  -5.90500021        -1.04824857E-10
  -5.78999996        -1.10334554E-10
  -5.67500019        -1.16241829E-10
  -5.55999994        -1.22573646E-10
  -5.44500017        -1.29351307E-10
  -5.32999992        -1.36588851E-10
  -5.21500015        -1.44290621E-10
  -5.09999990        -1.52448817E-10
  -4.98500013        -1.61040972E-10
  -4.86999989        -1.70027159E-10
  -4.75500011        -1.79347995E-10
  -4.63999987        -1.88923044E-10
  -4.52500010        -1.98650207E-10
  -4.40999985        -2.08406986E-10
  -4.29500008        -2.18053603E-10
  -4.17999983        -2.27438041E-10
  -4.06500006        -2.36403980E-10
  -3.95000005        -2.44800874E-10
  -3.83500004        -2.52496662E-10
  -3.72000003        -2.59392174E-10
  -3.60500002        -2.65436145E-10
  -3.49000001        -2.70640982E-10
  -3.37500000        -2.75095835E-10
  -3.25999999        -2.78977869E-10
  -3.14499998        -2.82558144E-10
  -3.02999997        -2.86201812E-10
  -2.91499996        -2.90360486E-10
  -2.79999995        -2.95557190E-10
  -2.68499994        -3.02362108E-10
  -2.56999993        -3.11361603E-10
  -2.45499992        -3.23118754E-10
  -2.33999991        -3.38130940E-10
  -2.22499990        -3.56783936E-10
  -2.10999990        -3.79307669E-10
  -1.99500000        -4.05736139E-10
  -1.88000000        -4.35875863E-10
  -1.76499999        -4.69287331E-10
  -1.64999998        -5.05279596E-10
  -1.53499997        -5.42925094E-10
  -1.41999996        -5.81091730E-10
  -1.30499995        -6.18495977E-10
  -1.19000006        -6.53772314E-10
  -1.07500005        -6.85559443E-10
 -0.959999979        -7.12595094E-10
 -0.845000029        -7.33818395E-10
 -0.730000019        -7.48468121E-10
 -0.615000010        -7.56173180E-10
 -0.500000000        -7.57026719E-10
 -0.384999990        -7.51635032E-10
 -0.270000011        -7.41138761E-10
 -0.155000001        -7.27197691E-10
  -3.99999991E-02    -7.11939341E-10
   7.50000030E-02    -6.97868707E-10
  0.189999998        -6.87743695E-10
  0.305000007        -6.84417523E-10
  0.419999987        -6.90659141E-10
  0.535000026        -7.08958614E-10
  0.649999976        -7.41329165E-10
  0.764999986        -7.89120935E-10
  0.879999995        -8.52855120E-10
  0.995000005        -9.32095068E-10
   1.11000001        -1.02536468E-09
   1.22500002        -1.13012166E-09
   1.34000003        -1.24279598E-09
   1.45500004        -1.35889244E-09
   1.57000005        -1.47316259E-09
   1.68499994        -1.57983349E-09
   1.79999995        -1.67289260E-09
   1.91499996        -1.74641446E-09
   2.02999997        -1.79491078E-09
   2.14499998        -1.81369009E-09
   2.25999999        -1.79920523E-09
   2.37500000        -1.74937109E-09
   2.49000001        -1.66382985E-09
   2.60500002        -1.54414670E-09
   2.72000003        -1.39392375E-09
   2.83500004        -1.21881283E-09
   2.95000005        -1.02642861E-09
   3.06500006        -8.26154090E-10
   3.18000007        -6.28841479E-10
   3.29500008        -4.46417181E-10
   3.41000009        -2.91406843E-10
   3.52500010        -1.76395995E-10
   3.64000010        -1.13446461E-10
   3.75500011        -1.13501722E-10
   3.86999989        -1.85804899E-10
   3.98499990        -3.37351924E-10
   4.09999990        -5.72425163E-10
   4.21500015        -8.92215246E-10
   4.32999992        -1.29456512E-09
   4.44500017        -1.77385651E-09
   4.55999994        -2.32104247E-09
   4.67500019        -2.92384206E-09
   4.78999996        -3.56709262E-09
   4.90500021        -4.23325019E-09
   5.01999998        -4.90302243E-09
   5.13500023        -5.55610713E-09
   5.25000000        -6.17201579E-09
   5.36499977        -6.73093492E-09
   5.48000002        -7.21459337E-09
   5.59499979        -7.60709273E-09
   5.71000004        -7.89565568E-09
   5.82499981        -8.07126721E-09
   5.94000006        -8.12914980E-09
   6.05499983        -8.06907430E-09
   6.17000008        -7.89545762E-09
   6.28499985        -7.61726060E-09
   6.40000010        -7.24767357E-09
   6.51499987        -6.80359946E-09
   6.63000011        -6.30496899E-09
   6.74499989        -5.77390269E-09
   6.86000013        -5.23377164E-09
   6.97499990        -4.70820316E-09
   7.09000015        -4.22006607E-09
   7.20499992        -3.79050391E-09
   7.32000017        -3.43806805E-09
   7.43499994        -3.17797610E-09
   7.55000019        -3.02154368E-09
   7.66499996        -2.97583513E-09
   7.78000021        -3.04352121E-09
   7.89499998        -3.22296989E-09
   8.01000023        -3.50855411E-09
   8.12500000        -3.89116028E-09
   8.23999977        -4.35887060E-09
   8.35499954        -4.89777463E-09
   8.47000027        -5.49285950E-09
   8.58500004        -6.12894491E-09
   8.69999981        -6.79158640E-09
   8.81499958        -7.46790896E-09
   8.93000031        -8.14733347E-09
   9.04500008        -8.82214124E-09
   9.15999985        -9.48784606E-09
   9.27499962        -1.01433741E-08
   9.39000034        -1.07910285E-08
   9.50500011        -1.14362413E-08
   9.61999989        -1.20871428E-08
   9.73499966        -1.27539739E-08
   9.85000038        -1.34483606E-08
   9.96500015        -1.41825316E-08
   10.0799999        -1.49684745E-08
   10.1949997        -1.58171289E-08
   10.3100004        -1.67376282E-08
   10.4250002        -1.77366530E-08
   10.5400000        -1.88179214E-08
   10.6549997        -1.99818402E-08
   10.7700005        -2.12253628E-08
   10.8850002        -2.25420393E-08
   11.0000000        -2.39222349E-08
   11.1149998        -2.53535983E-08
   11.2299995        -2.68216045E-08
   11.3450003        -2.83102821E-08
   11.4600000        -2.98030116E-08
   11.5749998        -3.12833883E-08
   11.6899996        -3.27360681E-08
   11.8050003        -3.41475754E-08
   11.9200001        -3.55070533E-08
   12.0349998        -3.68068669E-08
   12.1499996        -3.80430620E-08
   12.2650003        -3.92156458E-08
   12.3800001        -4.03286826E-08
   12.4949999        -4.13901873E-08
   12.6099997        -4.24118056E-08
   12.7250004        -4.34083312E-08
   12.8400002        -4.43970976E-08
   12.9549999        -4.53972007E-08
   13.0699997        -4.64286778E-08
   13.1850004        -4.75116053E-08
   13.3000002        -4.86652034E-08
   13.4150000        -4.99070403E-08
   13.5299997        -5.12522575E-08
   13.6450005        -5.27129664E-08
   13.7600002        -5.42977645E-08
   13.8750000        -5.60115012E-08
   13.9899998        -5.78551713E-08
   14.1049995        -5.98260144E-08
   14.2200003        -6.19178451E-08
   14.3350000        -6.41215792E-08
   14.4499998        -6.64257556E-08
   14.5649996        -6.88174424E-08
   14.6800003        -7.12829262E-08
   14.7950001        -7.38086996E-08
   14.9099998        -7.63821788E-08
   15.0249996        -7.89926844E-08
   15.1400003        -8.16319812E-08
   15.2550001        -8.42950527E-08
   15.3699999        -8.69804282E-08
   15.4849997        -8.96904737E-08
   15.6000004        -9.24315486E-08
   15.7150002        -9.52138777E-08
   15.8299999        -9.80512382E-08
   15.9449997        -1.00960804E-07
   16.0599995        -1.03962378E-07
   16.1749992        -1.07077916E-07
   16.2900009        -1.10330724E-07
   16.4050007        -1.13744747E-07
   16.5200005        -1.17343795E-07
   16.6350002        -1.21150663E-07
   16.7500000        -1.25186688E-07
   16.8649998        -1.29470720E-07
   16.9799995        -1.34018677E-07
   17.0949993        -1.38843006E-07
   17.2099991        -1.43952178E-07
   17.3250008        -1.49350385E-07
   17.4400005        -1.55037142E-07
   17.5550003        -1.61007193E-07
   17.6700001        -1.67250292E-07
   17.7849998        -1.73751445E-07
   17.8999996        -1.80490616E-07
   18.0149994        -1.87443419E-07
   18.1299992        -1.94580949E-07
   18.2450008        -2.01870790E-07
   18.3600006        -2.09276891E-07
   18.4750004        -2.16761293E-07
   18.5900002        -2.24283710E-07
   18.7049999        -2.31803511E-07
   18.8199997        -2.39280354E-07
   18.9349995        -2.46675199E-07
   19.0499992        -2.53951896E-07
   19.1650009        -2.61078185E-07
   19.2800007        -2.68026810E-07
   19.3950005        -2.74777136E-07
   19.5100002        -2.81316204E-07
   19.6250000        -2.87639352E-07
   19.7399998        -2.93751242E-07
   19.8549995        -2.99666283E-07
   19.9699993        -3.05409515E-07
   20.0849991        -3.11015583E-07
   20.2000008        -3.16529025E-07
   20.3150005        -3.22003672E-07
   20.4300003        -3.27501340E-07
   20.5450001        -3.33090242E-07
   20.6599998        -3.38843620E-07
   20.7749996        -3.44838469E-07
   20.8899994        -3.51152096E-07
   21.0049992        -3.57861580E-07
   21.1200008        -3.65039796E-07
   21.2350006        -3.72754556E-07
   21.3500004        -3.81065632E-07
   21.4650002        -3.90023132E-07
   21.5799999        -3.99665993E-07
   21.6949997        -4.10020135E-07
   21.8099995        -4.21097724E-07
   21.9249992        -4.32896286E-07
   22.0400009        -4.45398911E-07
   22.1550007        -4.58573624E-07
   22.2700005        -4.72374722E-07
   22.3850002        -4.86743318E-07
   22.5000000        -5.01609009E-07
   22.6149998        -5.16892555E-07
   22.7299995        -5.32506135E-07
   22.8449993        -5.48356581E-07
   22.9599991        -5.64348227E-07
   23.0750008        -5.80383869E-07
   23.1900005        -5.96367556E-07
   23.3050003        -6.12208282E-07
   23.4200001        -6.27820498E-07
   23.5349998        -6.43126839E-07
   23.6499996        -6.58059491E-07
   23.7649994        -6.72562123E-07
   23.8799992        -6.86588919E-07
   23.9950008        -7.00107876E-07
   24.1100006        -7.13099382E-07
   24.2250004        -7.25555708E-07
   24.3400002        -7.37481116E-07
   24.4549999        -7.48891466E-07
   24.5699997        -7.59813020E-07
   24.6849995        -7.70280622E-07
   24.7999992        -7.80337189E-07
   24.9150009        -7.90032004E-07
   25.0300007        -7.99417705E-07
   25.1450005        -8.08552556E-07
   25.2600002        -8.17495675E-07
   25.3750000        -8.26305723E-07
   25.4899998        -8.35039828E-07
   25.6049995        -8.43755117E-07
   25.7199993        -8.52502239E-07
   25.8349991        -8.61330705E-07
   25.9500008        -8.70284737E-07
   26.0650005        -8.79403558E-07
   26.1800003        -8.88721672E-07
   26.2950001        -8.98269377E-07
   26.4099998        -9.08073332E-07
   26.5249996        -9.18152637E-07
   26.6399994        -9.28521217E-07
   26.7549992        -9.39192148E-07
   26.8700008        -9.50170886E-07
   26.9850006        -9.61461069E-07
   27.1000004        -9.73061560E-07
   27.2150002        -9.84970370E-07
   27.3299999        -9.97183861E-07
   27.4449997        -1.00969851E-06
   27.5599995        -1.02250908E-06
   27.6749992        -1.03561160E-06
   27.7900009        -1.04900289E-06
   27.9050007        -1.06268135E-06
   28.0200005        -1.07664516E-06
   28.1350002        -1.09090013E-06
   28.2500000        -1.10544931E-06
   28.3649998        -1.12030386E-06
   28.4799995        -1.13547640E-06
   28.5949993        -1.15098487E-06
   28.7099991        -1.16685146E-06
   28.8250008        -1.18310356E-06
   28.9400005        -1.19977005E-06
   29.0550003        -1.21688549E-06
   29.1700001        -1.23448444E-06
   29.2849998        -1.25260635E-06
   29.3999996        -1.27128965E-06
   29.5149994        -1.29057628E-06
   29.6299992        -1.31050558E-06
   29.7450008        -1.33111917E-06
   29.8600006        -1.35245375E-06
   29.9750004        -1.37455027E-06
   30.0900002        -1.39744304E-06
   30.2049999        -1.42116573E-06
   30.3199997        -1.44574994E-06
   30.4349995        -1.47122671E-06
   30.5499992        -1.49762377E-06
   30.6650009        -1.52496682E-06
   30.7800007        -1.55328382E-06
   30.8950005        -1.58260127E-06
   31.0100002        -1.61294838E-06
   31.1250000        -1.64435608E-06
   31.2399998        -1.67686358E-06
   31.3549995        -1.71051215E-06
   31.4699993        -1.74535160E-06
   31.5849991        -1.78143898E-06
   31.7000008        -1.81883661E-06
   31.8150005        -1.85761826E-06
   31.9300003        -1.89786329E-06
   32.0449982        -1.93966116E-06
   32.1599998        -1.98311250E-06
   32.2750015        -2.02832075E-06
   32.3899994        -2.07540052E-06
   32.5050011        -2.12447640E-06
   32.6199989        -2.17567754E-06
   32.7350006        -2.22913900E-06
   32.8499985        -2.28499903E-06
   32.9650002        -2.34340109E-06
   33.0800018        -2.40448753E-06
   33.1949997        -2.46840614E-06
   33.3100014        -2.53529674E-06
   33.4249992        -2.60530260E-06
   33.5400009        -2.67855762E-06
   33.6549988        -2.75519506E-06
   33.7700005        -2.83533836E-06
   33.8849983        -2.91910987E-06
   34.0000000        -3.00661577E-06
   34.1150017        -3.09795132E-06
   34.2299995        -3.19320179E-06
   34.3450012        -3.29243585E-06
   34.4599991        -3.39570624E-06
   34.5750008        -3.50304435E-06
   34.6899986        -3.61445950E-06
   34.8050003        -3.72994555E-06
   34.9199982        -3.84946770E-06
   35.0349998        -3.97297208E-06
   35.1500015        -4.10037865E-06
   35.2649994        -4.23158463E-06
   35.3800011        -4.36646451E-06
   35.4949989        -4.50486777E-06
   35.6100006        -4.64661935E-06
   35.7249985        -4.79152732E-06
   35.8400002        -4.93937796E-06
   35.9550018        -5.08994071E-06
   36.0699997        -5.24298093E-06
   36.1850014        -5.39824850E-06
   36.2999992        -5.55549514E-06
   36.4150009        -5.71448027E-06
   36.5299988        -5.87496424E-06
   36.6450005        -6.03672379E-06
   36.7599983        -6.19954881E-06
   36.8750000        -6.36325558E-06
   36.9900017        -6.52768176E-06
   37.1049995        -6.69269775E-06
   37.2200012        -6.85820442E-06
   37.3349991        -7.02413445E-06
   37.4500008        -7.19046147E-06
   37.5649986        -7.35718959E-06
   37.6800003        -7.52435835E-06
   37.7949982        -7.69204325E-06
   37.9099998        -7.86034252E-06
   38.0250015        -8.02938303E-06
   38.1399994        -8.19930392E-06
   38.2550011        -8.37025800E-06
   38.3699989        -8.54240079E-06
   38.4850006        -8.71588509E-06
   38.5999985        -8.89085641E-06
   38.7150002        -9.06744208E-06
   38.8300018        -9.24574579E-06
   38.9449997        -9.42584302E-06
   39.0600014        -9.60777925E-06
   39.1749992        -9.79155539E-06
   39.2900009        -9.97712959E-06
   39.4049988        -1.01644200E-05
   39.5200005        -1.03532921E-05
   39.6349983        -1.05435702E-05
   39.7500000        -1.07350361E-05
   39.8650017        -1.09274297E-05
   39.9799995        -1.11204581E-05
   40.0950012        -1.13137921E-05
   40.2099991        -1.15070852E-05
   40.3250008        -1.16999699E-05
   40.4399986        -1.18920680E-05
   40.5550003        -1.20829973E-05
   40.6699982        -1.22723804E-05
   40.7849998        -1.24598446E-05
   40.9000015        -1.26450332E-05
   41.0149994        -1.28276124E-05
   41.1300011        -1.30072740E-05
   41.2449989        -1.31837378E-05
   41.3600006        -1.33567592E-05
   41.4749985        -1.35261253E-05
   41.5900002        -1.36916615E-05
   41.7050018        -1.38532268E-05
   41.8199997        -1.40107113E-05
   41.9350014        -1.41640403E-05
   42.0499992        -1.43131647E-05
   42.1650009        -1.44580681E-05
   42.2799988        -1.45987551E-05
   42.3950005        -1.47352503E-05
   42.5099983        -1.48675963E-05
   42.6250000        -1.49958478E-05
   42.7400017        -1.51200702E-05
   42.8549995        -1.52403309E-05
   42.9700012        -1.53566962E-05
   43.0849991        -1.54692243E-05
   43.2000008        -1.55779617E-05
   43.3149986        -1.56829483E-05
   43.4300003        -1.57841969E-05
   43.5449982        -1.58817038E-05
   43.6599998        -1.59754400E-05
   43.7750015        -1.60653672E-05
   43.8899994        -1.61514054E-05
   44.0050011        -1.62334563E-05
   44.1199989        -1.63113873E-05
   44.2350006        -1.63850327E-05
   44.3499985        -1.64541998E-05
   44.4650002        -1.65186466E-05
   44.5800018        -1.65781148E-05
   44.6949997        -1.66322934E-05
   44.8100014        -1.66808495E-05
   44.9249992        -1.67234157E-05
   45.0400009        -1.67595990E-05
   45.1549988        -1.67889757E-05
   45.2700005        -1.68111055E-05
   45.3849983        -1.68255046E-05
   45.5000000        -1.68316819E-05
   45.6150017        -1.68291353E-05
   45.7299995        -1.68173356E-05
   45.8450012        -1.67957387E-05
   45.9599991        -1.67638027E-05
   46.0750008        -1.67209837E-05
   46.1899986        -1.66667396E-05
   46.3050003        -1.66005429E-05
   46.4199982        -1.65218607E-05
   46.5349998        -1.64301891E-05
   46.6500015        -1.63250425E-05
   46.7649994        -1.62059550E-05
   46.8800011        -1.60724976E-05
   46.9949989        -1.59242572E-05
   47.1100006        -1.57608447E-05
   47.2249985        -1.55819180E-05
   47.3400002        -1.53871606E-05
   47.4550018        -1.51762843E-05
   47.5699997        -1.49490443E-05
   47.6850014        -1.47052297E-05
   47.7999992        -1.44446603E-05
   47.9150009        -1.41671944E-05
   48.0299988        -1.38727364E-05
   48.1450005        -1.35612227E-05
   48.2599983        -1.32326395E-05
   48.3750000        -1.28870042E-05
   48.4900017        -1.25243723E-05
   48.6049995        -1.21448356E-05
   48.7200012        -1.17485579E-05
   48.8349991        -1.13357328E-05
   48.9500008        -1.09066141E-05
   49.0649986        -1.04615256E-05
   49.1800003        -1.00008274E-05
   49.2949982        -9.52498340E-06
   49.4099998        -9.03447017E-06
   49.5250015        -8.52987250E-06
   49.6399994        -8.01182341E-06
   49.7550011        -7.48104503E-06
   49.8699989        -6.93832953E-06
   49.9850006        -6.38456640E-06
   50.0999985        -5.82070788E-06
   50.2150002        -5.24780262E-06
   50.3300018        -4.66695292E-06
   50.4449997        -4.07935249E-06
   50.5600014        -3.48624712E-06
   50.6749992        -2.88899219E-06
   50.7900009        -2.28897738E-06
   50.9049988        -1.68768520E-06
   51.0200005        -1.08662687E-06
   51.1349983        -4.87371835E-07
   51.2500000         1.08479270E-07
   51.3650017         6.99260909E-07
   51.4799995         1.28331101E-06
   51.5950012         1.85893123E-06
   51.7099991         2.42442525E-06
   51.8250008         2.97810425E-06
   51.9399986         3.51826907E-06
   52.0550003         4.04327511E-06
   52.1699982         4.55148802E-06
   52.2849998         5.04136051E-06
   52.4000015         5.51138282E-06
   52.5149994         5.96011614E-06
   52.6300011         6.38623487E-06
   52.7449989         6.78844617E-06
   52.8600006         7.16558770E-06
   52.9749985         7.51661128E-06
   53.0900002         7.84052554E-06
   53.2050018         8.13651241E-06
   53.3199997         8.40386292E-06
   53.4350014         8.64195135E-06
   53.5499992         8.85032114E-06
   53.6650009         9.02864213E-06
   53.7799988         9.17670241E-06
   53.8950005         9.29443104E-06
   54.0099983         9.38187804E-06
   54.1250000         9.43921896E-06
   54.2400017         9.46676391E-06
   54.3549995         9.46494129E-06
   54.4700012         9.43432042E-06
   54.5849991         9.37558707E-06
   54.7000008         9.28957161E-06
   54.8149986         9.17718990E-06
   54.9300003         9.03951150E-06
   55.0449982         8.87770329E-06
   55.1599998         8.69305677E-06
   55.2750015         8.48699892E-06
   55.3899994         8.26109317E-06
   55.5050011         8.01694659E-06
   55.6199989         7.75637909E-06
   55.7350006         7.48128286E-06
   55.8499985         7.19366926E-06
   55.9650002         6.89565195E-06
   56.0800018         6.58948147E-06
   56.1949997         6.27756117E-06
   56.3100014         5.96233122E-06
   56.4249992         5.64640686E-06
   56.5400009         5.33240700E-06
   56.6549988         5.02311650E-06
   56.7700005         4.72132479E-06
   56.8849983         4.42991086E-06
   57.0000000         4.15183376E-06
   57.1150017         3.89000206E-06
   57.2299995         3.64742186E-06
   57.3450012         3.42708950E-06
   57.4599991         3.23195650E-06
   57.5750008         3.06499646E-06
   57.6899986         2.92911295E-06
   57.8050003         2.82712926E-06
   57.9199982         2.76184710E-06
   58.0349998         2.73588125E-06
   58.1500015         2.75179127E-06
   58.2649994         2.81201369E-06
   58.3800011         2.91885613E-06
   58.4949989         3.07445407E-06
   58.6100006         3.28087253E-06
   58.7249985         3.53996325E-06
   58.8400002         3.85339627E-06
   58.9550018         4.22271887E-06
   59.0699997         4.64923914E-06
   59.1850014         5.13412260E-06
   59.2999992         5.67830421E-06
   59.4150009         6.28254793E-06
   59.5299988         6.94744631E-06
   59.6450005         7.67335587E-06
   59.7599983         8.46046805E-06
   59.8750000         9.30882015E-06
   59.9900017         1.02182648E-05
   60.1049995         1.11884610E-05
   60.2200012         1.22189049E-05
   60.3349991         1.33088970E-05
   60.4500008         1.44576097E-05
   60.5649986         1.56640544E-05
   60.6800003         1.69270916E-05
   60.7949982         1.82454496E-05
   60.9099998         1.96176770E-05
   61.0250015         2.10422913E-05
   61.1399994         2.25176573E-05
   61.2550011         2.40420286E-05
   61.3699989         2.56136173E-05
   61.4850006         2.72305278E-05
   61.5999985         2.88907522E-05
   61.7150002         3.05922295E-05
   61.8300018         3.23328713E-05
   61.9449997         3.41104678E-05
   62.0600014         3.59227633E-05
   62.1749992         3.77675060E-05
   62.2900009         3.96422802E-05
   62.4049988         4.15447212E-05
   62.5200005         4.34723843E-05
   62.6349983         4.54227666E-05
   62.7500000         4.73933396E-05
   62.8650017         4.93815460E-05
   62.9799995         5.13848172E-05
   63.0950012         5.34005048E-05
   63.2099991         5.54259532E-05
   63.3250008         5.74584810E-05
   63.4399986         5.94954327E-05
   63.5550003         6.15341123E-05
   63.6699982         6.35718534E-05
   63.7849998         6.56060074E-05
   63.9000015         6.76340060E-05
   64.0149994         6.96532807E-05
   64.1299973         7.16614159E-05
   64.2450027         7.36559814E-05
   64.3600006         7.56347508E-05
   64.4749985         7.75955559E-05
   64.5899963         7.95363740E-05
   64.7050018         8.14553205E-05
   64.8199997         8.33507002E-05
   64.9349976         8.52210142E-05
   65.0500031         8.70649383E-05
   65.1650009         8.88813665E-05
   65.2799988         9.06694186E-05
   65.3949966         9.24284614E-05
   65.5100021         9.41581020E-05
   65.6250000         9.58581440E-05
   65.7399979         9.75286675E-05
   65.8550034         9.91699198E-05
   65.9700012         1.00782388E-04
   66.0849991         1.02366823E-04
   66.1999969         1.03924132E-04
   66.3150024         1.05455481E-04
   66.4300003         1.06962230E-04
   66.5449982         1.08445995E-04
   66.6600037         1.09908586E-04
   66.7750015         1.11352034E-04
   66.8899994         1.12778522E-04
   67.0049973         1.14190465E-04
   67.1200027         1.15590410E-04
   67.2350006         1.16981086E-04
   67.3499985         1.18365395E-04
   67.4649963         1.19746321E-04
   67.5800018         1.21127028E-04
   67.6949997         1.22510770E-04
   67.8099976         1.23900842E-04
   67.9250031         1.25300634E-04
   68.0400009         1.26713581E-04
   68.1549988         1.28143161E-04
   68.2699966         1.29592838E-04
   68.3850021         1.31066015E-04
   68.5000000         1.32566056E-04
   68.6149979         1.34096204E-04
   68.7300034         1.35659633E-04
   68.8450012         1.37259267E-04
   68.9599991         1.38897958E-04
   69.0749969         1.40578268E-04
   69.1900024         1.42302539E-04
   69.3050003         1.44072925E-04
   69.4199982         1.45891259E-04
   69.5350037         1.47759114E-04
   69.6500015         1.49677726E-04
   69.7649994         1.51648026E-04
   69.8799973         1.53670699E-04
   69.9950027         1.55746005E-04
   70.1100006         1.57873932E-04
   70.2249985         1.60054231E-04
   70.3399963         1.62286262E-04
   70.4550018         1.64569152E-04
   70.5699997         1.66901693E-04
   70.6849976         1.69282415E-04
   70.8000031         1.71709558E-04
   70.9150009         1.74181172E-04
   71.0299988         1.76694972E-04
   71.1449966         1.79248455E-04
   71.2600021         1.81838855E-04
   71.3750000         1.84463206E-04
   71.4899979         1.87118334E-04
   71.6050034         1.89800834E-04
   71.7200012         1.92507156E-04
   71.8349991         1.95233544E-04
   71.9499969         1.97976013E-04
   72.0650024         2.00730370E-04
   72.1800003         2.03492280E-04
   72.2949982         2.06257144E-04
   72.4100037         2.09020276E-04
   72.5250015         2.11776802E-04
   72.6399994         2.14521700E-04
   72.7549973         2.17249850E-04
   72.8700027         2.19956026E-04
   72.9850006         2.22634932E-04
   73.0999985         2.25281212E-04
   73.2149963         2.27889439E-04
   73.3300018         2.30454185E-04
   73.4449997         2.32970007E-04
   73.5599976         2.35431478E-04
   73.6750031         2.37833214E-04
   73.7900009         2.40169873E-04
   73.9049988         2.42436174E-04
   74.0199966         2.44626921E-04
   74.1350021         2.46737065E-04