  -18.8999996       0.00000000    
  -18.7849998       0.00000000    
  -18.6700001       0.00000000    
  -18.5550003       1.13255548E-22
  -18.4400005       6.92672129E-22
  -18.3250008       2.32186205E-21
  -18.2099991       5.57359022E-21
  -18.0949993       1.05777546E-20
  -17.9799995       1.66075604E-20
  -17.8649998       2.19985243E-20
  -17.7500000       2.46824685E-20
  -17.6350002       2.34151260E-20
  -17.5200005       1.94348137E-20
  -17.4050007       1.79109046E-20
  -17.2900009       2.82684677E-20
  -17.1749992       6.24590897E-20
  -17.0599995       1.30595404E-19
  -16.9449997       2.34098162E-19
  -16.8299999       3.57521885E-19
  -16.7150002       4.61297121E-19
  -16.6000004       4.78423844E-19
  -16.4850006       3.18315075E-19
  -16.3700008      -1.19792451E-19
  -16.2549992      -9.23261053E-19
  -16.1399994      -2.13438261E-18
  -16.0249996      -3.71578175E-18
  -15.9099998      -5.52074692E-18
  -15.7950001      -7.27786756E-18
  -15.6800003      -8.59896598E-18
  -15.5649996      -9.01663843E-18
  -15.4499998      -8.05299535E-18
  -15.3350000      -5.31510362E-18
  -15.2200003      -6.06363094E-19
  -15.1049995       5.96191998E-18
  -14.9899998       1.38770260E-17
  -14.8750000       2.21667381E-17
  -14.7600002       2.93897073E-17
  -14.6450005       3.36798796E-17
  -14.5299997       3.28416875E-17
  -14.4150000       2.44835800E-17
  -14.3000002       6.17043939E-18
  -14.1850004      -2.44284716E-17
  -14.0699997      -6.94184330E-17
  -13.9549999      -1.30602568E-16
  -13.8400002      -2.09457748E-16
  -13.7250004      -3.07160802E-16
  -13.6099997      -4.24651498E-16
  -13.4949999      -5.62711304E-16
  -13.3800001      -7.22033807E-16
  -13.2650003      -9.03264182E-16
  -13.1499996      -1.10699466E-15
  -13.0349998      -1.33371351E-15
  -12.9200001      -1.58371783E-15
  -12.8050003      -1.85701470E-15
  -12.6899996      -2.15323801E-15
  -12.5749998      -2.47161165E-15
  -12.4600000      -2.81098450E-15
  -12.3450003      -3.16994478E-15
  -12.2299995      -3.54701230E-15
  -12.1149998      -3.94088686E-15
  -12.0000000      -4.35071739E-15
  -11.8850002      -4.77634764E-15
  -11.7700005      -5.21849799E-15
  -11.6549997      -5.67883710E-15
  -11.5400000      -6.15993149E-15
  -11.4250002      -6.66505535E-15
  -11.3100004      -7.19788524E-15
  -11.1949997      -7.76211845E-15
  -11.0799999      -8.36105121E-15
  -10.9650002      -8.99720429E-15
  -10.8500004      -9.67202104E-15
  -10.7349997      -1.03857090E-14
  -10.6199999      -1.11372390E-14
  -10.5050001      -1.19245103E-14
  -10.3900003      -1.27446517E-14
  -10.2749996      -1.35944392E-14
  -10.1599998      -1.44707600E-14
  -10.0450001      -1.53710849E-14
  -9.93000031      -1.62938917E-14
  -9.81499958      -1.72390195E-14
  -9.69999981      -1.82079541E-14
  -9.58500004      -1.92040021E-14
  -9.47000027      -2.02324204E-14
  -9.35499954      -2.13005052E-14
  -9.23999977      -2.24176672E-14
  -9.12500000      -2.35955071E-14
  -9.01000023      -2.48479165E-14
  -8.89500046      -2.61911718E-14
  -8.77999973      -2.76440502E-14
  -8.66499996      -2.92278917E-14
  -8.55000019      -3.09666572E-14
  -8.43500042      -3.28869385E-14
  -8.31999969      -3.50179209E-14
  -8.20499992      -3.73913343E-14
  -8.09000015      -4.00414090E-14
  -7.97499990      -4.30048487E-14
  -7.86000013      -4.63207557E-14
  -7.74499989      -5.00306007E-14
  -7.63000011      -5.41779857E-14
  -7.51499987      -5.88082236E-14
  -7.40000010      -6.39675623E-14
  -7.28499985      -6.97019618E-14
  -7.17000008      -7.60554881E-14
  -7.05499983      -8.30681959E-14
  -6.94000006      -9.07739934E-14
  -6.82499981      -9.91985492E-14
  -6.71000004      -1.08357794E-13
  -6.59499979      -1.18257509E-13
  -6.48000002      -1.28894237E-13
  -6.36499977      -1.40258072E-13
  -6.25000000      -1.52337127E-13
  -6.13500023      -1.65123666E-13
  -6.01999998      -1.78621129E-13
  -5.90500021      -1.92851350E-13
  -5.78999996      -2.07860828E-13
  -5.67500019      -2.23724901E-13
  -5.55999994      -2.40548602E-13
  -5.44500017      -2.58463661E-13
  -5.32999992      -2.77621405E-13
  -5.21500015      -2.98181401E-13
  -5.09999990      -3.20297554E-13
  -4.98500013      -3.44102812E-13
  -4.86999989      -3.69694672E-13
  -4.75500011      -3.97123659E-13
  -4.63999987      -4.26386953E-13
  -4.52500010      -4.57428745E-13
  -4.40999985      -4.90147419E-13
  -4.29500008      -5.24410376E-13
  -4.17999983      -5.60073743E-13
  -4.06500006      -5.97005138E-13
  -3.95000005      -6.35106496E-13
  -3.83500004      -6.74332497E-13
  -3.72000003      -7.14702657E-13
  -3.60500002      -7.56303386E-13
  -3.49000001      -7.99279534E-13
  -3.37500000      -8.43815848E-13
  -3.25999999      -8.90111064E-13
  -3.14499998      -9.38347165E-13
  -3.02999997      -9.88660434E-13
  -2.91499996      -1.04111901E-12
  -2.79999995      -1.09571174E-12
  -2.68499994      -1.15235187E-12
  -2.56999993      -1.21089792E-12
  -2.45499992      -1.27118964E-12
  -2.33999991      -1.33309433E-12
  -2.22499990      -1.39655887E-12
  -2.10999990      -1.46165621E-12
  -1.99500000      -1.52861903E-12
  -1.88000000      -1.59785065E-12
  -1.76499999      -1.66990792E-12
  -1.64999998      -1.74545242E-12
  -1.53499997      -1.82517348E-12
  -1.41999996      -1.90969094E-12
  -1.30499995      -1.99944727E-12
  -1.19000006      -2.09460943E-12
  -1.07500005      -2.19499831E-12
 -0.959999979      -2.30006227E-12
 -0.845000029      -2.40891140E-12
 -0.730000019      -2.52042397E-12
 -0.615000010      -2.63342017E-12
 -0.500000000      -2.74689993E-12
 -0.384999990      -2.86031854E-12
 -0.270000011      -2.97387202E-12
 -0.155000001      -3.08875191E-12
  -3.99999991E-02  -3.20732785E-12
   7.50000030E-02  -3.33320958E-12
  0.189999998      -3.47115631E-12
  0.305000007      -3.62680112E-12
  0.419999987      -3.80618584E-12
  0.535000026      -4.01511029E-12
  0.649999976      -4.25833804E-12
  0.764999986      -4.53870188E-12
  0.879999995      -4.85620094E-12
  0.995000005      -5.20717323E-12
   1.11000001      -5.58364466E-12
   1.22500002      -5.97296301E-12
   1.34000003      -6.35779753E-12
   1.45500004      -6.71658128E-12
   1.57000005      -7.02442748E-12
   1.68499994      -7.25452597E-12
   1.79999995      -7.37996730E-12
   1.91499996      -7.37590718E-12
   2.02999997      -7.22194136E-12
   2.14499998      -6.90451472E-12
   2.25999999      -6.41916945E-12
   2.37500000      -5.77243635E-12
   2.49000001      -4.98315668E-12
   2.60500002      -4.08307155E-12
   2.72000003      -3.11653828E-12
   2.83500004      -2.13931303E-12
   2.95000005      -1.21639287E-12
   3.06500006      -4.19000202E-13
   3.18000007       1.79131436E-13
   3.29500008       5.05920609E-13
   3.41000009       4.95278894E-13
   3.52500010       9.12556434E-14
   3.64000010      -7.48338023E-13
   3.75500011      -2.04918938E-12
   3.86999989      -3.81889312E-12
   3.98499990      -6.04675511E-12
   4.09999990      -8.70505230E-12
   4.21500015      -1.17517697E-11
   4.32999992      -1.51346036E-11
   4.44500017      -1.87959613E-11
   4.55999994      -2.26785118E-11
   4.67500019      -2.67307253E-11
   4.78999996      -3.09118391E-11
   4.90500021      -3.51955756E-11
   5.01999998      -3.95720644E-11
   5.13500023      -4.40474358E-11
   5.25000000      -4.86407269E-11
   5.36499977      -5.33779236E-11
   5.48000002      -5.82832393E-11
   5.59499979      -6.33678734E-11
   5.71000004      -6.86168136E-11
   5.82499981      -7.39745210E-11
   5.94000006      -7.93303756E-11
   6.05499983      -8.45051459E-11
   6.17000008      -8.92394977E-11
   6.28499985      -9.31858549E-11
   6.40000010      -9.59046384E-11
   6.51499987      -9.68657377E-11
   6.63000011      -9.54558724E-11
   6.74499989      -9.09921444E-11
   6.86000013      -8.27416469E-11
   6.97499990      -6.99467151E-11
   7.09000015      -5.18548884E-11
   7.20499992      -2.77523039E-11
   7.32000017       3.00091484E-12
   7.43499994       4.09351962E-11
   7.55000019       8.64378083E-11
   7.66499996       1.39723025E-10
   7.78000021       2.00807815E-10
   7.89499998       2.69495010E-10
   8.01000023       3.45365292E-10
   8.12500000       4.27778701E-10
   8.23999977       5.15887111E-10
   8.35499954       6.08656514E-10
   8.47000027       7.04899861E-10
   8.58500004       8.03318911E-10
   8.69999981       9.02553587E-10
   8.81499958       1.00123732E-09
   8.93000031       1.09805620E-09
   9.04500008       1.19180876E-09
   9.15999985       1.28146549E-09
   9.27499962       1.36622291E-09
   9.39000034       1.44555201E-09
   9.50500011       1.51923807E-09
   9.61999989       1.58740820E-09
   9.73499966       1.65054792E-09
   9.85000038       1.70950254E-09
   9.96500015       1.76546500E-09
   10.0799999       1.81994897E-09
   10.1949997       1.87474813E-09
   10.3100004       1.93188243E-09
   10.4250002       1.99353378E-09
   10.5400000       2.06197326E-09
   10.6549997       2.13948081E-09
   10.7700005       2.22826424E-09
   10.8850002       2.33037678E-09
   11.0000000       2.44763965E-09
   11.1149998       2.58157207E-09
   11.2299995       2.73333089E-09
   11.3450003       2.90366620E-09
   11.4600000       3.09289083E-09
   11.5749998       3.30087047E-09
   11.6899996       3.52703200E-09
   11.8050003       3.77039244E-09
   11.9200001       4.02960731E-09
   12.0349998       4.30303926E-09
   12.1499996       4.58884042E-09
   12.2650003       4.88505147E-09
   12.3800001       5.18970511E-09
   12.4949999       5.50094192E-09
   12.6099997       5.81711790E-09
   12.7250004       6.13691808E-09
   12.8400002       6.45944764E-09
   12.9549999       6.78431933E-09
   13.0699997       7.11171610E-09
   13.1850004       7.44242934E-09
   13.3000002       7.77787612E-09
   13.4150000       8.12008683E-09
   13.5299997       8.47165982E-09
   13.6450005       8.83570017E-09
   13.7600002       9.21572330E-09
   13.8750000       9.61554036E-09
   13.9899998       1.00391295E-08
   14.1049995       1.04904920E-08
   14.2200003       1.09735039E-08
   14.3350000       1.14917720E-08
   14.4499998       1.20484982E-08
   14.5649996       1.26463542E-08
   14.6800003       1.32873810E-08
   14.7950001       1.39729135E-08
   14.9099998       1.47035379E-08
   15.0249996       1.54790758E-08
   15.1400003       1.62986034E-08
   15.2550001       1.71605077E-08
   15.3699999       1.80625630E-08
   15.4849997       1.90020462E-08
   15.6000004       1.99758627E-08
   15.7150002       2.09806910E-08
   15.8299999       2.20131327E-08
   15.9449997       2.30698713E-08
   16.0599995       2.41478144E-08
   16.1749992       2.52442263E-08
   16.2900009       2.63568438E-08
   16.4050007       2.74839635E-08
   16.5200005       2.86245054E-08
   16.6350002       2.97780343E-08
   16.7500000       3.09447650E-08
   16.8649998       3.21255271E-08
   16.9799995       3.33217010E-08
   17.0949993       3.45351339E-08
   17.2099991       3.57680392E-08
   17.3250008       3.70228719E-08
   17.4400005       3.83021863E-08
   17.5550003       3.96085404E-08
   17.6700001       4.09443324E-08
   17.7849998       4.23116973E-08
   17.8999996       4.37124044E-08
   18.0149994       4.51477575E-08
   18.1299992       4.66185348E-08
   18.2450008       4.81249245E-08
   18.3600006       4.96665287E-08
   18.4750004       5.12423206E-08
   18.5900002       5.28506803E-08
   18.7049999       5.44894156E-08
   18.8199997       5.61558018E-08
   18.9349995       5.78466377E-08
   19.0499992       5.95582961E-08
   19.1650009       6.12867908E-08
   19.2800007       6.30278123E-08
   19.3950005       6.47768204E-08
   19.5100002       6.65290756E-08
   19.6250000       6.82796824E-08
   19.7399998       7.00236313E-08
   19.8549995       7.17558279E-08
   19.9699993       7.34711421E-08
   20.0849991       7.51644080E-08
   20.2000008       7.68304531E-08
   20.3150005       7.84641188E-08
   20.4300003       8.00602962E-08
   20.5450001       8.16139405E-08
   20.6599998       8.31201206E-08
   20.7749996       8.45740402E-08
   20.8899994       8.59710880E-08
   21.0049992       8.73069155E-08
   21.1200008       8.85774298E-08
   21.2350006       8.97789008E-08
   21.3500004       9.09079887E-08
   21.4650002       9.19617946E-08
   21.5799999       9.29378814E-08
   21.6949997       9.38343092E-08
   21.8099995       9.46496712E-08
   21.9249992       9.53830082E-08
   22.0400009       9.60338653E-08
   22.1550007       9.66021858E-08
   22.2700005       9.70882184E-08
   22.3850002       9.74924390E-08
   22.5000000       9.78154659E-08
   22.6149998       9.80578250E-08
   22.7299995       9.82199211E-08
   22.8449993       9.83017969E-08
   22.9599991       9.83030333E-08
   23.0750008       9.82225998E-08
   23.1900005       9.80587131E-08
   23.3050003       9.78087584E-08
   23.4200001       9.74691901E-08
   23.5349998       9.70355103E-08
   23.6499996       9.65022551E-08
   23.7649994       9.58630153E-08
   23.8799992       9.51105932E-08
   23.9950008       9.42370022E-08
   24.1100006       9.32337443E-08
   24.2250004       9.20918879E-08
   24.3400002       9.08023878E-08
   24.4549999       8.93562131E-08
   24.5699997       8.77446240E-08
   24.6849995       8.59594067E-08
   24.7999992       8.39931360E-08
   24.9150009       8.18392820E-08
   25.0300007       7.94924304E-08
   25.1450005       7.69484032E-08
   25.2600002       7.42042872E-08
   25.3750000       7.12585475E-08
   25.4899998       6.81109640E-08
   25.6049995       6.47625100E-08
   25.7199993       6.12152959E-08
   25.8349991       5.74723522E-08
   25.9500008       5.35374376E-08
   26.0650005       4.94147656E-08
   26.1800003       4.51087807E-08
   26.2950001       4.06238811E-08
   26.4099998       3.59641312E-08
   26.5249996       3.11329948E-08
   26.6399994       2.61331987E-08
   26.7549992       2.09664197E-08
   26.8700008       1.56331765E-08
   26.9850006       1.01327391E-08
   27.1000004       4.46320314E-09
   27.2150002      -1.37886969E-09
   27.3299999      -7.39803774E-09
   27.4449997      -1.36000393E-08
   27.5599995      -1.99917061E-08
   27.6749992      -2.65807394E-08
   27.7900009      -3.33754464E-08
   27.9050007      -4.03846201E-08
   28.0200005      -4.76172630E-08
   28.1350002      -5.50823636E-08
   28.2500000      -6.27886934E-08
   28.3649998      -7.07446617E-08
   28.4799995      -7.89580028E-08
   28.5949993      -8.74359642E-08
   28.7099991      -9.61847562E-08
   28.8250008      -1.05209843E-07
   28.9400005      -1.14515700E-07
   29.0550003      -1.24105853E-07
   29.1700001      -1.33982837E-07
   29.2849998      -1.44148288E-07
   29.3999996      -1.54602944E-07
   29.5149994      -1.65346563E-07
   29.6299992      -1.76378208E-07
   29.7450008      -1.87696074E-07
   29.8600006      -1.99297730E-07
   29.9750004      -2.11180037E-07
   30.0900002      -2.23339299E-07
   30.2049999      -2.35771182E-07
   30.3199997      -2.48470883E-07
   30.4349995      -2.61433314E-07
   30.5499992      -2.74652905E-07
   30.6650009      -2.88124056E-07
   30.7800007      -3.01841141E-07
   30.8950005      -3.15798729E-07
   31.0100002      -3.29991764E-07
   31.1250000      -3.44416009E-07
   31.2399998      -3.59067997E-07
   31.3549995      -3.73945568E-07
   31.4699993      -3.89048182E-07
   31.5849991      -4.04377147E-07
   31.7000008      -4.19935731E-07
   31.8150005      -4.35729362E-07
   31.9300003      -4.51765857E-07
   32.0449982      -4.68055333E-07
   32.1599998      -4.84610268E-07
   32.2750015      -5.01445356E-07
   32.3899994      -5.18576996E-07
   32.5050011      -5.36023265E-07
   32.6199989      -5.53803147E-07
   32.7350006      -5.71936027E-07
   32.8499985      -5.90441175E-07
   32.9650002      -6.09336723E-07
   33.0800018      -6.28639384E-07
   33.1949997      -6.48363311E-07
   33.3100014      -6.68519760E-07
   33.4249992      -6.89116291E-07
   33.5400009      -7.10156201E-07
   33.6549988      -7.31638579E-07
   33.7700005      -7.53557629E-07
   33.8849983      -7.75902890E-07
   34.0000000      -7.98659300E-07
   34.1150017      -8.21807419E-07
   34.2299995      -8.45323768E-07
   34.3450012      -8.69181633E-07
   34.4599991      -8.93351512E-07
   34.5750008      -9.17802140E-07
   34.6899986      -9.42500890E-07
   34.8050003      -9.67415076E-07
   34.9199982      -9.92512355E-07
   35.0349998      -1.01776186E-06
   35.1500015      -1.04313426E-06
   35.2649994      -1.06860284E-06
   35.3800011      -1.09414384E-06
   35.4949989      -1.11973577E-06
   35.6100006      -1.14536067E-06
   35.7249985      -1.17100285E-06
   35.8400002      -1.19664924E-06
   35.9550018      -1.22228892E-06
   36.0699997      -1.24791211E-06
   36.1850014      -1.27351029E-06
   36.2999992      -1.29907471E-06
   36.4150009      -1.32459581E-06
   36.5299988      -1.35006326E-06
   36.6450005      -1.37546408E-06
   36.7599983      -1.40078259E-06
   36.8750000      -1.42600061E-06
   36.9900017      -1.45109550E-06
   37.1049995      -1.47604055E-06
   37.2200012      -1.50080530E-06
   37.3349991      -1.52535472E-06
   37.4500008      -1.54964937E-06
   37.5649986      -1.57364605E-06
   37.6800003      -1.59729757E-06
   37.7949982      -1.62055323E-06
   37.9099998      -1.64335984E-06
   38.0250015      -1.66566110E-06
   38.1399994      -1.68739916E-06
   38.2550011      -1.70851399E-06
   38.3699989      -1.72894499E-06
   38.4850006      -1.74863044E-06
   38.5999985      -1.76750893E-06
   38.7150002      -1.78551863E-06
   38.8300018      -1.80259894E-06
   38.9449997      -1.81868961E-06
   39.0600014      -1.83373118E-06
   39.1749992      -1.84766554E-06
   39.2900009      -1.86043565E-06
   39.4049988      -1.87198577E-06
   39.5200005      -1.88226102E-06
   39.6349983      -1.89120794E-06
   39.7500000      -1.89877392E-06
   39.8650017      -1.90490732E-06
   39.9799995      -1.90955757E-06
   40.0950012      -1.91267486E-06
   40.2099991      -1.91421100E-06
   40.3250008      -1.91411823E-06
   40.4399986      -1.91235017E-06
   40.5550003      -1.90886135E-06
   40.6699982      -1.90360788E-06
   40.7849998      -1.89654679E-06
   40.9000015      -1.88763738E-06
   41.0149994      -1.87683975E-06
   41.1300011      -1.86411535E-06
   41.2449989      -1.84942758E-06
   41.3600006      -1.83274176E-06
   41.4749985      -1.81402424E-06
   41.5900002      -1.79324263E-06
   41.7050018      -1.77036657E-06
   41.8199997      -1.74536581E-06
   41.9350014      -1.71821102E-06
   42.0499992      -1.68887345E-06
   42.1650009      -1.65732376E-06
   42.2799988      -1.62353285E-06
   42.3950005      -1.58747048E-06
   42.5099983      -1.54910583E-06
   42.6250000      -1.50840731E-06
   42.7400017      -1.46534273E-06
   42.8549995      -1.41987880E-06
   42.9700012      -1.37198185E-06
   43.0849991      -1.32161813E-06
   43.2000008      -1.26875466E-06
   43.3149986      -1.21335881E-06
   43.4300003      -1.15539990E-06
   43.5449982      -1.09484961E-06
   43.6599998      -1.03168247E-06
   43.7750015      -9.65878144E-07
   43.8899994      -8.97420364E-07
   44.0050011      -8.26298390E-07
   44.1199989      -7.52508186E-07
   44.2350006      -6.76051286E-07
   44.3499985      -5.96936218E-07
   44.4650002      -5.15177305E-07
   44.5800018      -4.30795637E-07
   44.6949997      -3.43817902E-07
   44.8100014      -2.54275307E-07
   44.9249992      -1.62203989E-07
   45.0400009      -6.76430645E-08
   45.1549988       2.93653653E-08
   45.2700005       1.28777828E-07
   45.3849983       2.30550498E-07
   45.5000000       3.34638685E-07
   45.6150017       4.40999571E-07
   45.7299995       5.49591334E-07
   45.8450012       6.60374326E-07
   45.9599991       7.73311058E-07
   46.0750008       8.88366230E-07
   46.1899986       1.00550585E-06
   46.3050003       1.12469820E-06
   46.4199982       1.24591099E-06
   46.5349998       1.36911194E-06
   46.6500015       1.49426739E-06
   46.7649994       1.62134177E-06
   46.8800011       1.75029629E-06
   46.9949989       1.88108891E-06
   47.1100006       2.01367152E-06
   47.2249985       2.14799070E-06
   47.3400002       2.28398767E-06
   47.4550018       2.42159581E-06
   47.5699997       2.56074213E-06
   47.6850014       2.70134638E-06
   47.7999992       2.84332077E-06
   47.9150009       2.98657164E-06
   48.0299988       3.13099895E-06
   48.1450005       3.27649764E-06
   48.2599983       3.42295721E-06
   48.3750000       3.57026306E-06
   48.4900017       3.71829742E-06
   48.6049995       3.86694001E-06
   48.7200012       4.01606712E-06
   48.8349991       4.16555395E-06
   48.9500008       4.31527451E-06
   49.0649986       4.46510194E-06
   49.1800003       4.61490708E-06
   49.2949982       4.76456216E-06
   49.4099998       4.91393803E-06
   49.5250015       5.06290507E-06
   49.6399994       5.21133416E-06
   49.7550011       5.35909521E-06
   49.8699989       5.50605819E-06
   49.9850006       5.65209348E-06
   50.0999985       5.79706966E-06
   50.2150002       5.94085850E-06
   50.3300018       6.08332812E-06
   50.4449997       6.22434891E-06
   50.5600014       6.36379127E-06
   50.6749992       6.50152742E-06
   50.7900009       6.63742912E-06
   50.9049988       6.77136950E-06
   51.0200005       6.90322440E-06
   51.1349983       7.03286923E-06
   51.2500000       7.16018303E-06
   51.3650017       7.28504301E-06
   51.4799995       7.40732958E-06
   51.5950012       7.52692085E-06
   51.7099991       7.64369634E-06
   51.8250008       7.75753324E-06
   51.9399986       7.86830969E-06
   52.0550003       7.97590019E-06
   52.1699982       8.08017921E-06
   52.2849998       8.18101762E-06
   52.4000015       8.27828171E-06
   52.5149994       8.37183688E-06
   52.6300011       8.46154217E-06
   52.7449989       8.54725749E-06
   52.8600006       8.62883371E-06
   52.9749985       8.70612166E-06
   53.0900002       8.77896946E-06
   53.2050018       8.84722613E-06
   53.3199997       8.91073796E-06
   53.4350014       8.96935308E-06
   53.5499992       9.02292322E-06
   53.6650009       9.07130197E-06
   53.7799988       9.11434836E-06
   53.8950005       9.15192686E-06
   54.0099983       9.18390742E-06
   54.1250000       9.21017090E-06
   54.2400017       9.23060452E-06
   54.3549995       9.24510459E-06
   54.4700012       9.25357745E-06
   54.5849991       9.25593758E-06
   54.7000008       9.25211043E-06
   54.8149986       9.24202868E-06
   54.9300003       9.22563413E-06
   55.0449982       9.20287675E-06
   55.1599998       9.17371290E-06
   55.2750015       9.13810618E-06
   55.3899994       9.09602477E-06
   55.5050011       9.04743865E-06
   55.6199989       8.99232236E-06
   55.7350006       8.93064953E-06
   55.8499985       8.86239923E-06
   55.9650002       8.78754872E-06
   56.0800018       8.70607710E-06
   56.1949997       8.61796434E-06
   56.3100014       8.52319135E-06
   56.4249992       8.42173995E-06
   56.5400009       8.31359375E-06
   56.6549988       8.19873912E-06
   56.7700005       8.07716697E-06
   56.8849983       7.94887092E-06
   57.0000000       7.81385461E-06
   57.1150017       7.67212623E-06
   57.2299995       7.52370215E-06
   57.3450012       7.36861421E-06
   57.4599991       7.20690150E-06
   57.5750008       7.03861770E-06
   57.6899986       6.86382964E-06
   57.8050003       6.68261828E-06
   57.9199982       6.49507820E-06
   58.0349998       6.30131899E-06
   58.1500015       6.10146344E-06
   58.2649994       5.89564661E-06
   58.3800011       5.68401856E-06
   58.4949989       5.46674073E-06
   58.6100006       5.24398820E-06
   58.7249985       5.01594559E-06
   58.8400002       4.78280845E-06
   58.9550018       4.54477959E-06
   59.0699997       4.30206865E-06
   59.1850014       4.05489391E-06
   59.2999992       3.80347728E-06
   59.4150009       3.54804479E-06
   59.5299988       3.28882697E-06
   59.6450005       3.02605940E-06
   59.7599983       2.75998104E-06
   59.8750000       2.49083541E-06
   59.9900017       2.21886989E-06
   60.1049995       1.94433346E-06
   60.2200012       1.66748225E-06
   60.3349991       1.38857365E-06
   60.4500008       1.10786959E-06
   60.5649986       8.25634913E-07
   60.6800003       5.42137400E-07
   60.7949982       2.57648651E-07
   60.9099998      -2.75571050E-08
   61.0250015      -3.13200587E-07
   61.1399994      -5.99000941E-07
   61.2550011      -8.84675785E-07
   61.3699989      -1.16993886E-06
   61.4850006      -1.45450304E-06
   61.5999985      -1.73807928E-06
   61.7150002      -2.02038109E-06
   61.8300018      -2.30111959E-06
   61.9449997      -2.58000796E-06
   62.0600014      -2.85675651E-06
   62.1749992      -3.13107762E-06
   62.2900009      -3.40268298E-06
   62.4049988      -3.67128359E-06
   62.5200005      -3.93658729E-06
   62.6349983      -4.19830121E-06
   62.7500000      -4.45613523E-06
   62.8650017      -4.70979512E-06
   62.9799995      -4.95898939E-06
   63.0950012      -5.20342837E-06
   63.2099991      -5.44282511E-06
   63.3250008      -5.67689585E-06
   63.4399986      -5.90536138E-06
   63.5550003      -6.12795020E-06
   63.6699982      -6.34439630E-06
   63.7849998      -6.55444546E-06
   63.9000015      -6.75785441E-06
   64.0149994      -6.95439439E-06
   64.1299973      -7.14385487E-06
   64.2450027      -7.32604076E-06
   64.3600006      -7.50078152E-06
   64.4749985      -7.66792709E-06
   64.5899963      -7.82734696E-06
   64.7050018      -7.97894154E-06
   64.8199997      -8.12262533E-06
   64.9349976      -8.25834650E-06
   65.0500031      -8.38606866E-06
   65.1650009      -8.50578363E-06
   65.2799988      -8.61750141E-06
   65.3949966      -8.72125565E-06
   65.5100021      -8.81709457E-06
   65.6250000      -8.90508727E-06
   65.7399979      -8.98531925E-06
   65.8550034      -9.05788966E-06
   65.9700012      -9.12291125E-06
   66.0849991      -9.18050773E-06
   66.1999969      -9.23081643E-06
   66.3150024      -9.27398287E-06
   66.4300003      -9.31016621E-06
   66.5449982      -9.33953379E-06
   66.6600037      -9.36226024E-06
   66.7750015      -9.37853474E-06
   66.8899994      -9.38855192E-06
   67.0049973      -9.39252095E-06
   67.1200027      -9.39066376E-06
   67.2350006      -9.38321500E-06
   67.3499985      -9.37042114E-06
   67.4649963      -9.35253684E-06
   67.5800018      -9.32983676E-06
   67.6949997      -9.30260558E-06
   67.8099976      -9.27114979E-06
   67.9250031      -9.23577954E-06
   68.0400009      -9.19683043E-06
   68.1549988      -9.15464625E-06
   68.2699966      -9.10958897E-06
   68.3850021      -9.06202786E-06
   68.5000000      -9.01235580E-06
   68.6149979      -8.96096299E-06
   68.7300034      -8.90826050E-06
   68.8450012      -8.85466579E-06
   68.9599991      -8.80060725E-06
   69.0749969      -8.74652414E-06
   69.1900024      -8.69286032E-06
   69.3050003      -8.64006415E-06
   69.4199982      -8.58859403E-06
   69.5350037      -8.53891015E-06
   69.6500015      -8.49146727E-06
   69.7649994      -8.44672286E-06
   69.8799973      -8.40514076E-06
   69.9950027      -8.36717118E-06
   70.1100006      -8.33326794E-06
   70.2249985      -8.30387035E-06
   70.3399963      -8.27941312E-06
   70.4550018      -8.26032101E-06
   70.5699997      -8.24700328E-06
   70.6849976      -8.23986284E-06
   70.8000031      -8.23928167E-06
   70.9150009      -8.24563904E-06
   71.0299988      -8.25929601E-06
   71.1449966      -8.28058637E-06
   71.2600021      -8.30983845E-06
   71.3750000      -8.34736329E-06
   71.4899979      -8.39345194E-06
   71.6050034      -8.44838087E-06
   71.7200012      -8.51241202E-06
   71.8349991      -8.58578733E-06
   71.9499969      -8.66873961E-06
   72.0650024      -8.76148897E-06
   72.1800003      -8.86424459E-06
   72.2949982      -8.97719838E-06
   72.4100037      -9.10053859E-06
   72.5250015      -9.23443895E-06
   72.6399994      -9.37906589E-06
   72.7549973      -9.53457493E-06
   72.8700027      -9.70111250E-06
   72.9850006      -9.87881140E-06
   73.0999985      -1.00677998E-05
   73.2149963      -1.02681915E-05
   73.3300018      -1.04800911E-05
   73.4449997      -1.07035958E-05
   73.5599976      -1.09387911E-05
   73.6750031      -1.11857462E-05
   73.7900009      -1.14445183E-05
   73.9049988      -1.17151567E-05
   74.0199966      -1.19976830E-05
   74.1350021      -1.22921047E-05
   74.2500000      -1.25984052E-05
   74.3649979      -1.29165537E-05
   74.4800034      -1.32464875E-05
   74.5950012      -1.35881364E-05
   74.7099991      -1.39413987E-05
   74.8249969      -1.43061552E-05
   74.9400024      -1.46822631E-05
   75.0550003      -1.50695532E-05
   75.1699982      -1.54678455E-05
   75.2850037      -1.58769253E-05
   75.4000015      -1.62965607E-05
   75.5149994      -1.67264989E-05
   75.6299973      -1.71664651E-05
   75.7450027      -1.76161739E-05
   75.8600006      -1.80753123E-05
   75.9749985      -1.85435674E-05
   76.0899963      -1.90206101E-05
   76.2050018      -1.95061020E-05
   76.3199997      -1.99996957E-05
   76.4349976      -2.05010292E-05
   76.5500031      -2.10097478E-05
   76.6650009      -2.15254768E-05
   76.7799988      -2.20478360E-05
   76.8949966      -2.25764434E-05
   77.0100021      -2.31109079E-05
   77.1250000      -2.36508331E-05
   77.2399979      -2.41958187E-05
   77.3550034      -2.47454500E-05
   77.4700012      -2.52993032E-05
   77.5849991      -2.58569489E-05
   77.6999969      -2.64179434E-05
   77.8150024      -2.69818320E-05
   77.9300003      -2.75481325E-05
   78.0449982      -2.81163575E-05
   78.1600037      -2.86859940E-05
   78.2750015      -2.92565092E-05
   78.3899994      -2.98273571E-05
   78.5049973      -3.03979668E-05
   78.6200027      -3.09677525E-05
   78.7350006      -3.15361067E-05
   78.8499985      -3.21024017E-05
   78.9649963      -3.26659901E-05
   79.0800018      -3.32262025E-05
   79.1949997      -3.37823585E-05
   79.3099976      -3.43337451E-05
   79.4250031      -3.48796420E-05
   79.5400009      -3.54193035E-05