  -18.8999996         0.00000000    
  -18.7849998         0.00000000    
  -18.6700001         0.00000000    
  -18.5550003         3.32263871E-22
  -18.4400005         2.33098931E-21
  -18.3250008         9.35753561E-21
  -18.2099991         2.81926223E-20
  -18.0949993         7.06371466E-20
  -17.9799995         1.54708740E-19
  -17.8649998         3.04145031E-19
  -17.7500000         5.44366269E-19
  -17.6350002         8.93148266E-19
  -17.5200005         1.34546489E-18
  -17.4050007         1.85434868E-18
  -17.2900009         2.31259165E-18
  -17.1749992         2.54257619E-18
  -17.0599995         2.30214415E-18
  -16.9449997         1.31235037E-18
  -16.8299999        -6.91860120E-19
  -16.7150002        -3.89341176E-18
  -16.6000004        -8.31882390E-18
  -16.4850006        -1.37733265E-17
  -16.3700008        -1.98011008E-17
  -16.2549992        -2.56826825E-17
  -16.1399994        -3.04752297E-17
  -16.0249996        -3.30935971E-17
  -15.9099998        -3.24235345E-17
  -15.7950001        -2.74535455E-17
  -15.6800003        -1.74100244E-17
  -15.5649996        -1.88037344E-18
  -15.4499998         1.90892407E-17
  -15.3350000         4.49320307E-17
  -15.2200003         7.45414537E-17
  -15.1049995         1.06297175E-16
  -14.9899998         1.38133233E-16
  -14.8750000         1.67640420E-16
  -14.7600002         1.92190042E-16
  -14.6450005         2.09064884E-16
  -14.5299997         2.15583093E-16
  -14.4150000         2.09205690E-16
  -14.3000002         1.87622576E-16
  -14.1850004         1.48819361E-16
  -14.0699997         9.11285426E-17
  -13.9549999         1.32699887E-17
  -13.8400002        -8.56162639E-17
  -13.7250004        -2.05947617E-16
  -13.6099997        -3.47688125E-16
  -13.4949999        -5.10354821E-16
  -13.3800001        -6.93039710E-16
  -13.2650003        -8.94444769E-16
  -13.1499996        -1.11292220E-15
  -13.0349998        -1.34651409E-15
  -12.9200001        -1.59298448E-15
  -12.8050003        -1.84985071E-15
  -12.6899996        -2.11441552E-15
  -12.5749998        -2.38381711E-15
  -12.4600000        -2.65509952E-15
  -12.3450003        -2.92531256E-15
  -12.2299995        -3.19163285E-15
  -12.1149998        -3.45149218E-15
  -12.0000000        -3.70270543E-15
  -11.8850002        -3.94356983E-15
  -11.7700005        -4.17294085E-15
  -11.6549997        -4.39026452E-15
  -11.5400000        -4.59557006E-15
  -11.4250002        -4.78942667E-15
  -11.3100004        -4.97286098E-15
  -11.1949997        -5.14723541E-15
  -11.0799999        -5.31409243E-15
  -10.9650002        -5.47497660E-15
  -10.8500004        -5.63124613E-15
  -10.7349997        -5.78390561E-15
  -10.6199999        -5.93348316E-15
  -10.5050001        -6.07998937E-15
  -10.3900003        -6.22296218E-15
  -10.2749996        -6.36162316E-15
  -10.1599998        -6.49511132E-15
  -10.0450001        -6.62280281E-15
  -9.93000031        -6.74464384E-15
  -9.81499958        -6.86149288E-15
  -9.69999981        -6.97538789E-15
  -9.58500004        -7.08972167E-15
  -9.47000027        -7.20924480E-15
  -9.35499954        -7.33985982E-15
  -9.23999977        -7.48819816E-15
  -9.12500000        -7.66092512E-15
  -9.01000023        -7.86383948E-15
  -8.89500046        -8.10084100E-15
  -8.77999973        -8.37282920E-15
  -8.66499996        -8.67673616E-15
  -8.55000019        -9.00479540E-15
  -8.43500042        -9.34418118E-15
  -8.31999969        -9.67711679E-15
  -8.20499992        -9.98146505E-15
  -8.09000015        -1.02317760E-14
  -7.97499990        -1.04006727E-14
  -7.86000013        -1.04604469E-14
  -7.74499989        -1.03845968E-14
  -7.63000011        -1.01491937E-14
  -7.51499987        -9.73377737E-15
  -7.40000010        -9.12167833E-15
  -7.28499985        -8.29965826E-15
  -7.17000008        -7.25684212E-15
  -7.05499983        -5.98304602E-15
  -6.94000006        -4.46676726E-15
  -6.82499981        -2.69300234E-15
  -6.71000004        -6.41412311E-16
  -6.59499979         1.71498253E-15
  -6.48000002         4.41015327E-15
  -6.36499977         7.48442209E-15
  -6.25000000         1.09827503E-14
  -6.13500023         1.49520865E-14
  -6.01999998         1.94381779E-14
  -5.90500021         2.44822270E-14
  -5.78999996         3.01179370E-14
  -5.67500019         3.63694806E-14
  -5.55999994         4.32506068E-14
  -5.44500017         5.07653883E-14
  -5.32999992         5.89105248E-14
  -5.21500015         6.76787321E-14
  -5.09999990         7.70631321E-14
  -4.98500013         8.70614887E-14
  -4.86999989         9.76798666E-14
  -4.75500011         1.08934312E-13
  -4.63999987         1.20850527E-13
  -4.52500010         1.33460652E-13
  -4.40999985         1.46797383E-13
  -4.29500008         1.60885912E-13
  -4.17999983         1.75735159E-13
  -4.06500006         1.91329076E-13
  -3.95000005         2.07620677E-13
  -3.83500004         2.24530057E-13
  -3.72000003         2.41948253E-13
  -3.60500002         2.59748250E-13
  -3.49000001         2.77803171E-13
  -3.37500000         2.96011073E-13
  -3.25999999         3.14325172E-13
  -3.14499998         3.32785665E-13
  -3.02999997         3.51550549E-13
  -2.91499996         3.70920092E-13
  -2.79999995         3.91351123E-13
  -2.68499994         4.13457517E-13
  -2.56999993         4.37991874E-13
  -2.45499992         4.65810116E-13
  -2.33999991         4.97816198E-13
  -2.22499990         5.34893256E-13
  -2.10999990         5.77824138E-13
  -1.99500000         6.27209764E-13
  -1.88000000         6.83394313E-13
  -1.76499999         7.46408306E-13
  -1.64999998         8.15936728E-13
  -1.53499997         8.91322823E-13
  -1.41999996         9.71612656E-13
  -1.30499995         1.05564201E-12
  -1.19000006         1.14216373E-12
  -1.07500005         1.23000893E-12
 -0.959999979         1.31826830E-12
 -0.845000029         1.40648083E-12
 -0.730000019         1.49480439E-12
 -0.615000010         1.58415360E-12
 -0.500000000         1.67627967E-12
 -0.384999990         1.77377351E-12
 -0.270000011         1.87998163E-12
 -0.155000001         1.99882385E-12
  -3.99999991E-02     2.13451652E-12
   7.50000030E-02     2.29120932E-12
  0.189999998         2.47256035E-12
  0.305000007         2.68127361E-12
  0.419999987         2.91863929E-12
  0.535000026         3.18412050E-12
  0.649999976         3.47502712E-12
  0.764999986         3.78632542E-12
  0.879999995         4.11061679E-12
  0.995000005         4.43831603E-12
   1.11000001         4.75804379E-12
   1.22500002         5.05723545E-12
   1.34000003         5.32293784E-12
   1.45500004         5.54277240E-12
   1.57000005         5.70599167E-12
   1.68499994         5.80457123E-12
   1.79999995         5.83425062E-12
   1.91499996         5.79543271E-12
   2.02999997         5.69385728E-12
   2.14499998         5.54096309E-12
   2.25999999         5.35387490E-12
   2.37500000         5.15496326E-12
   2.49000001         4.97096461E-12
   2.60500002         4.83166632E-12
   2.72000003         4.76819582E-12
   2.83500004         4.81100663E-12
   2.95000005         4.98764918E-12
   3.06500006         5.32047236E-12
   3.18000007         5.82440910E-12
   3.29500008         6.50499706E-12
   3.41000009         7.35680874E-12
   3.52500010         8.36242360E-12
   3.64000010         9.49208247E-12
   3.75500011         1.07040973E-11
   3.86999989         1.19460743E-11
   3.98499990         1.31569347E-11
   4.09999990         1.42696853E-11
   4.21500015         1.52148068E-11
   4.32999992         1.59241266E-11
   4.44500017         1.63349455E-11
   4.55999994         1.63941864E-11
   4.67500019         1.60623286E-11
   4.78999996         1.53168554E-11
   4.90500021         1.41549775E-11
   5.01999998         1.25954325E-11
   5.13500023         1.06791815E-11
   5.25000000         8.46892782E-12
   5.36499977         6.04739089E-12
   5.48000002         3.51441185E-12
   5.59499979         9.82966096E-13
   5.71000004        -1.42569550E-12
   5.82499981        -3.58755126E-12
   5.94000006        -5.38166864E-12
   6.05499983        -6.69608466E-12
   6.17000008        -7.43337857E-12
   6.28499985        -7.51564349E-12
   6.40000010        -6.88850626E-12
   6.51499987        -5.52401441E-12
   6.63000011        -3.42216620E-12
   6.74499989        -6.11033739E-13
   6.86000013         2.85461802E-12
   6.97499990         6.89604407E-12
   7.09000015         1.14145256E-11
   7.20499992         1.62963636E-11
   7.32000017         2.14186429E-11
   7.43499994         2.66554452E-11
   7.55000019         3.18841481E-11
   7.66499996         3.69914828E-11
   7.78000021         4.18791564E-11
   7.89499998         4.64685269E-11
   8.01000023         5.07044164E-11
   8.12500000         5.45576362E-11
   8.23999977         5.80263546E-11
   8.35499954         6.11362003E-11
   8.47000027         6.39391803E-11
   8.58500004         6.65115601E-11
   8.69999981         6.89507687E-11
   8.81499958         7.13717488E-11
   8.93000031         7.39027797E-11
   9.04500008         7.66809116E-11
   9.15999985         7.98475522E-11
   9.27499962         8.35439773E-11
   9.39000034         8.79072648E-11
   9.50500011         9.30664226E-11
   9.61999989         9.91390650E-11
   9.73499966         1.06228588E-10
   9.85000038         1.14421625E-10
   9.96500015         1.23786273E-10
   10.0799999         1.34370556E-10
   10.1949997         1.46201384E-10
   10.3100004         1.59283947E-10
   10.4250002         1.73601702E-10
   10.5400000         1.89116611E-10
   10.6549997         2.05770040E-10
   10.7700005         2.23484231E-10
   10.8850002         2.42164178E-10
   11.0000000         2.61700467E-10
   11.1149998         2.81972390E-10
   11.2299995         3.02851966E-10
   11.3450003         3.24208438E-10
   11.4600000         3.45913215E-10
   11.5749998         3.67844949E-10
   11.6899996         3.89895061E-10
   11.8050003         4.11972789E-10
   11.9200001         4.34009939E-10
   12.0349998         4.55964988E-10
   12.1499996         4.77825779E-10
   12.2650003         4.99612018E-10
   12.3800001         5.21375054E-10
   12.4949999         5.43197265E-10
   12.6099997         5.65188896E-10
   12.7250004         5.87484283E-10
   12.8400002         6.10236084E-10
   12.9549999         6.33608610E-10
   13.0699997         6.57770005E-10
   13.1850004         6.82884027E-10
   13.3000002         7.09102221E-10
   13.4150000         7.36556038E-10
   13.5299997         7.65349339E-10
   13.6450005         7.95552846E-10
   13.7600002         8.27198920E-10
   13.8750000         8.60279625E-10
   13.9899998         8.94744834E-10
   14.1049995         9.30502897E-10
   14.2200003         9.67423586E-10
   14.3350000         1.00534159E-09
   14.4499998         1.04406139E-09
   14.5649996         1.08336362E-09
   14.6800003         1.12301035E-09
   14.7950001         1.16275278E-09
   14.9099998         1.20233568E-09
   15.0249996         1.24150379E-09
   15.1400003         1.28000488E-09
   15.2550001         1.31759259E-09
   15.3699999         1.35402867E-09
   15.4849997         1.38908196E-09
   15.6000004         1.42252721E-09
   15.7150002         1.45414358E-09
   15.8299999         1.48371138E-09
   15.9449997         1.51100843E-09
   16.0599995         1.53580781E-09
   16.1749992         1.55787305E-09
   16.2900009         1.57695923E-09
   16.4050007         1.59280744E-09
   16.5200005         1.60514790E-09
   16.6350002         1.61369873E-09
   16.7500000         1.61816915E-09
   16.8649998         1.61825930E-09
   16.9799995         1.61366265E-09
   17.0949993         1.60406821E-09
   17.2099991         1.58916025E-09
   17.3250008         1.56861846E-09
   17.4400005         1.54211355E-09
   17.5550003         1.50930091E-09
   17.6700001         1.46981582E-09
   17.7849998         1.42325729E-09
   17.8999996         1.36918032E-09
   18.0149994         1.30707711E-09
   18.1299992         1.23635879E-09
   18.2450008         1.15634302E-09
   18.3600006         1.06622644E-09
   18.4750004         9.65077351E-10
   18.5900002         8.51815063E-10
   18.7049999         7.25198124E-10
   18.8199997         5.83816551E-10
   18.9349995         4.26095159E-10
   19.0499992         2.50282461E-10
   19.1650009         5.44670975E-11
   19.2800007        -1.63414171E-10
   19.3950005        -4.05564915E-10
   19.5100002        -6.74301504E-10
   19.6250000        -9.72042891E-10
   19.7399998        -1.30127908E-09
   19.8549995        -1.66454495E-09
   19.9699993        -2.06441175E-09
   20.0849991        -2.50344989E-09
   20.2000008        -2.98422798E-09
   20.3150005        -3.50929152E-09
   20.4300003        -4.08116740E-09
   20.5450001        -4.70234873E-09
   20.6599998        -5.37530997E-09
   20.7749996        -6.10250961E-09
   20.8899994        -6.88640878E-09
   21.0049992        -7.72949349E-09
   21.1200008        -8.63428351E-09
   21.2350006        -9.60336166E-09
   21.3500004        -1.06393969E-08
   21.4650002        -1.17451560E-08
   21.5799999        -1.29235271E-08
   21.6949997        -1.41775303E-08
   21.8099995        -1.55103308E-08
   21.9249992        -1.69252274E-08
   22.0400009        -1.84256823E-08
   22.1550007        -2.00152783E-08
   22.2700005        -2.16977298E-08
   22.3850002        -2.34768525E-08
   22.5000000        -2.53565666E-08
   22.6149998        -2.73408531E-08
   22.7299995        -2.94337301E-08
   22.8449993        -3.16392601E-08
   22.9599991        -3.39614914E-08
   23.0750008        -3.64044439E-08
   23.1900005        -3.89721251E-08
   23.3050003        -4.16684571E-08
   23.4200001        -4.44973409E-08
   23.5349998        -4.74625885E-08
   23.6499996        -5.05679481E-08
   23.7649994        -5.38171214E-08
   23.8799992        -5.72137395E-08
   23.9950008        -6.07614368E-08
   24.1100006        -6.44637481E-08
   24.2250004        -6.83242689E-08
   24.3400002        -7.23465803E-08
   24.4549999        -7.65343344E-08
   24.5699997        -8.08911835E-08
   24.6849995        -8.54209574E-08
   24.7999992        -9.01275001E-08
   24.9150009        -9.50148475E-08
   25.0300007        -1.00087142E-07
   25.1450005        -1.05348732E-07
   25.2600002        -1.10804109E-07
   25.3750000        -1.16457983E-07
   25.4899998        -1.22315157E-07
   25.6049995        -1.28380748E-07
   25.7199993        -1.34659899E-07
   25.8349991        -1.41157926E-07
   25.9500008        -1.47880300E-07
   26.0650005        -1.54832478E-07
   26.1800003        -1.62019973E-07
   26.2950001        -1.69448256E-07
   26.4099998        -1.77122672E-07
   26.5249996        -1.85048478E-07
   26.6399994        -1.93230591E-07
   26.7549992        -2.01673672E-07
   26.8700008        -2.10382041E-07
   26.9850006        -2.19359578E-07
   27.1000004        -2.28609636E-07
   27.2150002        -2.38135115E-07
   27.3299999        -2.47938374E-07
   27.4449997        -2.58021032E-07
   27.5599995        -2.68384184E-07
   27.6749992        -2.79028370E-07
   27.7900009        -2.89953448E-07
   27.9050007        -3.01158678E-07
   28.0200005        -3.12642726E-07
   28.1350002        -3.24403771E-07
   28.2500000        -3.36439427E-07
   28.3649998        -3.48746880E-07
   28.4799995        -3.61322776E-07
   28.5949993        -3.74163307E-07
   28.7099991        -3.87264379E-07
   28.8250008        -4.00621445E-07
   28.9400005        -4.14229419E-07
   29.0550003        -4.28083013E-07
   29.1700001        -4.42176400E-07
   29.2849998        -4.56503358E-07
   29.3999996        -4.71057149E-07
   29.5149994        -4.85830412E-07
   29.6299992        -5.00815588E-07
   29.7450008        -5.16004150E-07
   29.8600006        -5.31387116E-07
   29.9750004        -5.46954993E-07
   30.0900002        -5.62697551E-07
   30.2049999        -5.78603817E-07
   30.3199997        -5.94662197E-07
   30.4349995        -6.10860525E-07
   30.5499992        -6.27186125E-07
   30.6650009        -6.43625526E-07
   30.7800007        -6.60164972E-07
   30.8950005        -6.76789966E-07
   31.0100002        -6.93485902E-07
   31.1250000        -7.10237430E-07
   31.2399998        -7.27029260E-07
   31.3549995        -7.43845590E-07
   31.4699993        -7.60670446E-07
   31.5849991        -7.77487458E-07
   31.7000008        -7.94280368E-07
   31.8150005        -8.11032180E-07
   31.9300003        -8.27726240E-07
   32.0449982        -8.44345209E-07
   32.1599998        -8.60871410E-07
   32.2750015        -8.77287221E-07
   32.3899994        -8.93574168E-07
   32.5050011        -9.09713663E-07
   32.6199989        -9.25686322E-07
   32.7350006        -9.41472479E-07
   32.8499985        -9.57051839E-07
   32.9650002        -9.72403313E-07
   33.0800018        -9.87505473E-07
   33.1949997        -1.00233592E-06
   33.3100014        -1.01687158E-06
   33.4249992        -1.03108857E-06
   33.5400009        -1.04496291E-06
   33.6549988        -1.05846914E-06
   33.7700005        -1.07158132E-06
   33.8849983        -1.08427344E-06
   34.0000000        -1.09651762E-06
   34.1150017        -1.10828626E-06
   34.2299995        -1.11955069E-06
   34.3450012        -1.13028170E-06
   34.4599991        -1.14044940E-06
   34.5750008        -1.15002376E-06
   34.6899986        -1.15897365E-06
   34.8050003        -1.16726790E-06
   34.9199982        -1.17487491E-06
   35.0349998        -1.18176285E-06
   35.1500015        -1.18789944E-06
   35.2649994        -1.19325284E-06
   35.3800011        -1.19779054E-06
   35.4949989        -1.20148115E-06
   35.6100006        -1.20429240E-06
   35.7249985        -1.20619347E-06
   35.8400002        -1.20715322E-06
   35.9550018        -1.20714139E-06
   36.0699997        -1.20612867E-06
   36.1850014        -1.20408595E-06
   36.2999992        -1.20098525E-06
   36.4150009        -1.19679953E-06
   36.5299988        -1.19150263E-06
   36.6450005        -1.18506887E-06
   36.7599983        -1.17747402E-06
   36.8750000        -1.16869444E-06
   36.9900017        -1.15870739E-06
   37.1049995        -1.14749093E-06
   37.2200012        -1.13502415E-06
   37.3349991        -1.12128691E-06
   37.4500008        -1.10625967E-06
   37.5649986        -1.08992413E-06
   37.6800003        -1.07226265E-06
   37.7949982        -1.05325864E-06
   37.9099998        -1.03289676E-06
   38.0250015        -1.01116223E-06
   38.1399994        -9.88042075E-07
   38.2550011        -9.63524371E-07
   38.3699989        -9.37598600E-07
   38.4850006        -9.10256006E-07
   38.5999985        -8.81489541E-07
   38.7150002        -8.51293521E-07
   38.8300018        -8.19664649E-07
   38.9449997        -7.86601277E-07
   39.0600014        -7.52103574E-07
   39.1749992        -7.16174100E-07
   39.2900009        -6.78816946E-07
   39.4049988        -6.40038365E-07
   39.5200005        -5.99846658E-07
   39.6349983        -5.58251827E-07
   39.7500000        -5.15265810E-07
   39.8650017        -4.70902222E-07
   39.9799995        -4.25176410E-07
   40.0950012        -3.78105312E-07
   40.2099991        -3.29707348E-07
   40.3250008        -2.80002666E-07
   40.4399986        -2.29012741E-07
   40.5550003        -1.76760537E-07
   40.6699982        -1.23270524E-07
   40.7849998        -6.85685109E-08
   40.9000015        -1.26817667E-08
   41.0149994         4.43608883E-08
   41.1300011         1.02529214E-07
   41.2449989         1.61791434E-07
   41.3600006         2.22114039E-07
   41.4749985         2.83461958E-07
   41.5900002         3.45798753E-07
   41.7050018         4.09085942E-07
   41.8199997         4.73283592E-07
   41.9350014         5.38350207E-07
   42.0499992         6.04242359E-07
   42.1650009         6.70914915E-07
   42.2799988         7.38321091E-07
   42.3950005         8.06412118E-07
   42.5099983         8.75137744E-07
   42.6250000         9.44445731E-07
   42.7400017         1.01428259E-06
   42.8549995         1.08459233E-06
   42.9700012         1.15531748E-06
   43.0849991         1.22639926E-06
   43.2000008         1.29777698E-06
   43.3149986         1.36938775E-06
   43.4300003         1.44116757E-06
   43.5449982         1.51305085E-06
   43.6599998         1.58497107E-06
   43.7750015         1.65685879E-06
   43.8899994         1.72864497E-06
   44.0050011         1.80025825E-06
   44.1199989         1.87162698E-06
   44.2350006         1.94267795E-06
   44.3499985         2.01333796E-06
   44.4650002         2.08353345E-06
   44.5800018         2.15318914E-06
   44.6949997         2.22223025E-06
   44.8100014         2.29058264E-06
   44.9249992         2.35817060E-06
   45.0400009         2.42491956E-06
   45.1549988         2.49075447E-06
   45.2700005         2.55560053E-06
   45.3849983         2.61938362E-06
   45.5000000         2.68202871E-06
   45.6150017         2.74346235E-06
   45.7299995         2.80361041E-06
   45.8450012         2.86239901E-06
   45.9599991         2.91975448E-06
   46.0750008         2.97560405E-06
   46.1899986         3.02987451E-06
   46.3050003         3.08249309E-06
   46.4199982         3.13338796E-06
   46.5349998         3.18248772E-06
   46.6500015         3.22972119E-06
   46.7649994         3.27501903E-06
   46.8800011         3.31831097E-06
   46.9949989         3.35953109E-06
   47.1100006         3.39861163E-06
   47.2249985         3.43548732E-06
   47.3400002         3.47009495E-06
   47.4550018         3.50237360E-06
   47.5699997         3.53226301E-06
   47.6850014         3.55970496E-06
   47.7999992         3.58464308E-06
   47.9150009         3.60702302E-06
   48.0299988         3.62679339E-06
   48.1450005         3.64390235E-06
   48.2599983         3.65830192E-06
   48.3750000         3.66994573E-06
   48.4900017         3.67878738E-06
   48.6049995         3.68478436E-06
   48.7200012         3.68789483E-06
   48.8349991         3.68807878E-06
   48.9500008         3.68529800E-06
   49.0649986         3.67951634E-06
   49.1800003         3.67069924E-06
   49.2949982         3.65881510E-06
   49.4099998         3.64383300E-06
   49.5250015         3.62572609E-06
   49.6399994         3.60446938E-06
   49.7550011         3.58003990E-06
   49.8699989         3.55241900E-06
   49.9850006         3.52159032E-06
   50.0999985         3.48753974E-06
   50.2150002         3.45025796E-06
   50.3300018         3.40973793E-06
   50.4449997         3.36597668E-06
   50.5600014         3.31897445E-06
   50.6749992         3.26873487E-06
   50.7900009         3.21526591E-06
   50.9049988         3.15857687E-06
   51.0200005         3.09868346E-06
   51.1349983         3.03560273E-06
   51.2500000         2.96935627E-06
   51.3650017         2.89996842E-06
   51.4799995         2.82746805E-06
   51.5950012         2.75188563E-06
   51.7099991         2.67325777E-06
   51.8250008         2.59162221E-06
   51.9399986         2.50702169E-06
   52.0550003         2.41950056E-06
   52.1699982         2.32910861E-06
   52.2849998         2.23589814E-06
   52.4000015         2.13992348E-06
   52.5149994         2.04124376E-06
   52.6300011         1.93991991E-06
   52.7449989         1.83601514E-06
   52.8600006         1.72959631E-06
   52.9749985         1.62073127E-06
   53.0900002         1.50948983E-06
   53.2050018         1.39594397E-06
   53.3199997         1.28016734E-06
   53.4350014         1.16223362E-06
   53.5499992         1.04221954E-06
   53.6650009         9.20200819E-07
   53.7799988         7.96255677E-07
   53.8950005         6.70462668E-07
   54.0099983         5.42900580E-07
   54.1250000         4.13650923E-07
   54.2400017         2.82794531E-07
   54.3549995         1.50414394E-07
   54.4700012         1.65944130E-08
   54.5849991        -1.18579237E-07
   54.7000008        -2.55020950E-07
   54.8149986        -3.92640686E-07
   54.9300003        -5.31349087E-07
   55.0449982        -6.71054750E-07
   55.1599998        -8.11664677E-07
   55.2750015        -9.53084736E-07
   55.3899994        -1.09522034E-06
   55.5050011        -1.23797417E-06
   55.6199989        -1.38125051E-06
   55.7350006        -1.52495249E-06
   55.8499985        -1.66898212E-06
   55.9650002        -1.81324299E-06
   56.0800018        -1.95763891E-06
   56.1949997        -2.10207440E-06
   56.3100014        -2.24645396E-06
   56.4249992        -2.39068368E-06
   56.5400009        -2.53467101E-06
   56.6549988        -2.67832343E-06
   56.7700005        -2.82155133E-06
   56.8849983        -2.96426538E-06
   57.0000000        -3.10637552E-06
   57.1150017        -3.24779626E-06
   57.2299995        -3.38844052E-06
   57.3450012        -3.52822212E-06
   57.4599991        -3.66705763E-06
   57.5750008        -3.80486290E-06
   57.6899986        -3.94155768E-06
   57.8050003        -4.07706057E-06
   57.9199982        -4.21129243E-06
   58.0349998        -4.34417643E-06
   58.1500015        -4.47563662E-06
   58.2649994        -4.60560204E-06
   58.3800011        -4.73400132E-06
   58.4949989        -4.86076806E-06
   58.6100006        -4.98583904E-06
   58.7249985        -5.10915334E-06
   58.8400002        -5.23065546E-06
   58.9550018        -5.35029176E-06
   59.0699997        -5.46801584E-06
   59.1850014        -5.58378360E-06
   59.2999992        -5.69755503E-06
   59.4150009        -5.80929645E-06
   59.5299988        -5.91897515E-06
   59.6450005        -6.02656655E-06
   59.7599983        -6.13204929E-06
   59.8750000        -6.23540518E-06
   59.9900017        -6.33662239E-06
   60.1049995        -6.43569274E-06
   60.2200012        -6.53261077E-06
   60.3349991        -6.62737648E-06
   60.4500008        -6.71999578E-06
   60.5649986        -6.81047595E-06
   60.6800003        -6.89883063E-06
   60.7949982        -6.98507665E-06
   60.9099998        -7.06923583E-06
   61.0250015        -7.15133274E-06
   61.1399994        -7.23139510E-06
   61.2550011        -7.30945703E-06
   61.3699989        -7.38555218E-06
   61.4850006        -7.45972102E-06
   61.5999985        -7.53200356E-06
   61.7150002        -7.60244257E-06
   61.8300018        -7.67108395E-06
   61.9449997        -7.73797365E-06
   62.0600014        -7.80316077E-06
   62.1749992        -7.86669352E-06
   62.2900009        -7.92862011E-06
   62.4049988        -7.98899055E-06
   62.5200005        -8.04785122E-06
   62.6349983        -8.10525398E-06
   62.7500000        -8.16124611E-06
   62.8650017        -8.21587491E-06
   62.9799995        -8.26918767E-06
   63.0950012        -8.32122987E-06
   63.2099991        -8.37204789E-06
   63.3250008        -8.42168356E-06
   63.4399986        -8.47018055E-06
   63.5550003        -8.51757977E-06
   63.6699982        -8.56392035E-06
   63.7849998        -8.60923865E-06
   63.9000015        -8.65356924E-06
   64.0149994        -8.69694213E-06
   64.1299973        -8.73938370E-06
   64.2450027        -8.78091578E-06
   64.3600006        -8.82155655E-06
   64.4749985        -8.86131784E-06
   64.5899963        -8.90020419E-06
   64.7050018        -8.93821471E-06
   64.8199997        -8.97534119E-06
   64.9349976        -9.01156818E-06
   65.0500031        -9.04687386E-06
   65.1650009        -9.08122547E-06
   65.2799988        -9.11458301E-06
   65.3949966        -9.14690008E-06
   65.5100021        -9.17812122E-06
   65.6250000        -9.20818457E-06
   65.7399979        -9.23701919E-06
   65.8550034        -9.26454777E-06
   65.9700012        -9.29068301E-06
   66.0849991        -9.31533577E-06
   66.1999969        -9.33840420E-06
   66.3150024        -9.35978278E-06
   66.4300003        -9.37935965E-06
   66.5449982        -9.39701386E-06
   66.6600037        -9.41262078E-06
   66.7750015        -9.42604493E-06
   66.8899994        -9.43714622E-06
   67.0049973        -9.44577914E-06
   67.1200027        -9.45178817E-06
   67.2350006        -9.45501324E-06
   67.3499985        -9.45528245E-06
   67.4649963        -9.45242300E-06
   67.5800018        -9.44625208E-06
   67.6949997        -9.43657869E-06
   67.8099976        -9.42321185E-06
   67.9250031        -9.40594509E-06
   68.0400009        -9.38457561E-06
   68.1549988        -9.35889148E-06
   68.2699966        -9.32867624E-06
   68.3850021        -9.29370981E-06
   68.5000000        -9.25376935E-06
   68.6149979        -9.20863204E-06
   68.7300034        -9.15807141E-06
   68.8450012        -9.10185918E-06
   68.9599991        -9.03976888E-06
   69.0749969        -8.97157133E-06
   69.1900024        -8.89704097E-06
   69.3050003        -8.81595315E-06
   69.4199982        -8.72808687E-06
   69.5350037        -8.63322020E-06
   69.6500015        -8.53113852E-06
   69.7649994        -8.42163172E-06
   69.8799973        -8.30449517E-06
   69.9950027        -8.17952969E-06
   70.1100006        -8.04654519E-06
   70.2249985        -7.90535887E-06
   70.3399963        -7.75579974E-06
   70.4550018        -7.59770683E-06
   70.5699997        -7.43093051E-06
   70.6849976        -7.25533664E-06
   70.8000031        -7.07080562E-06
   70.9150009        -6.87723286E-06
   71.0299988        -6.67452696E-06
   71.1449966        -6.46261969E-06
   71.2600021        -6.24145423E-06
   71.3750000        -6.01099964E-06
   71.4899979        -5.77123819E-06
   71.6050034        -5.52217307E-06
   71.7200012        -5.26383155E-06
   71.8349991        -4.99625367E-06
   71.9499969        -4.71950761E-06
   72.0650024        -4.43367753E-06
   72.1800003        -4.13887119E-06
   72.2949982        -3.83521456E-06
   72.4100037        -3.52285588E-06
   72.5250015        -3.20196636E-06
   72.6399994        -2.87273565E-06
   72.7549973        -2.53538178E-06
   72.8700027        -2.19013805E-06
   72.9850006        -1.83726434E-06
   73.0999985        -1.47704509E-06
   73.2149963        -1.10978340E-06
   73.3300018        -7.35806907E-07
   73.4449997        -3.55466227E-07
   73.5599976         3.08643848E-08
   73.6750031         4.22790890E-07
   73.7900009         8.19894694E-07
   73.9049988         1.22173651E-06
   74.0199966         1.62785886E-06
   74.1350021         2.03778313E-06