  -18.8999996        -0.00000000    
  -18.7849998        -0.00000000    
  -18.6700001        -0.00000000    
  -18.5550003        -1.69571445E-22
  -18.4400005        -9.02977499E-22
  -18.3250008        -2.47049122E-21
  -18.2099991        -4.36834162E-21
  -18.0949993        -5.05269302E-21
  -17.9799995        -3.09543264E-21
  -17.8649998        -5.30739761E-22
  -17.7500000        -8.17134892E-21
  -17.6350002        -5.12700244E-20
  -17.5200005        -1.72696338E-19
  -17.4050007        -4.30429817E-19
  -17.2900009        -8.86990941E-19
  -17.1749992        -1.59033331E-18
  -17.0599995        -2.54818116E-18
  -16.9449997        -3.70013398E-18
  -16.8299999        -4.89350910E-18
  -16.7150002        -5.86962317E-18
  -16.6000004        -6.26703548E-18
  -16.4850006        -5.64739903E-18
  -16.3700008        -3.54788435E-18
  -16.2549992         4.38466522E-19
  -16.1399994         6.55698462E-18
  -16.0249996         1.47679698E-17
  -15.9099998         2.46192905E-17
  -15.7950001         3.51342120E-17
  -15.6800003         4.47368359E-17
  -15.5649996         5.12372513E-17
  -15.4499998         5.18934106E-17
  -15.3350000         4.35576204E-17
  -15.2200003         2.29038470E-17
  -15.1049995        -1.32800770E-17
  -14.9899998        -6.77611336E-17
  -14.8750000        -1.42523087E-16
  -14.7600002        -2.38456107E-16
  -14.6450005        -3.55106652E-16
  -14.5299997        -4.90516039E-16
  -14.4150000        -6.41167572E-16
  -14.3000002        -8.02053168E-16
  -14.1850004        -9.66860263E-16
  -14.0699997        -1.12826345E-15
  -13.9549999        -1.27829501E-15
  -13.8400002        -1.40875619E-15
  -13.7250004        -1.51162347E-15
  -13.6099997        -1.57940474E-15
  -13.4949999        -1.60541013E-15
  -13.3800001        -1.58391445E-15
  -13.2650003        -1.51020935E-15
  -13.1499996        -1.38056651E-15
  -13.0349998        -1.19213672E-15
  -12.9200001        -9.42833750E-16
  -12.8050003        -6.31236163E-16
  -12.6899996        -2.56540286E-16
  -12.5749998         1.81416326E-16
  -12.4600000         6.82066663E-16
  -12.3450003         1.24397037E-15
  -12.2299995         1.86465240E-15
  -12.1149998         2.54046547E-15
  -12.0000000         3.26652242E-15
  -11.8850002         4.03674812E-15
  -11.7700005         4.84407809E-15
  -11.6549997         5.68081027E-15
  -11.5400000         6.53908885E-15
  -11.4250002         7.41146629E-15
  -11.3100004         8.29144120E-15
  -11.1949997         9.17388012E-15
  -11.0799999         1.00552086E-14
  -10.9650002         1.09332794E-14
  -10.8500004         1.18068651E-14
  -10.7349997         1.26747859E-14
  -10.6199999         1.35347132E-14
  -10.5050001         1.43817572E-14
  -10.3900003         1.52069943E-14
  -10.2749996         1.59961139E-14
  -10.1599998         1.67283332E-14
  -10.0450001         1.73757967E-14
  -9.93000031         1.79035423E-14
  -9.81499958         1.82701348E-14
  -9.69999981         1.84289992E-14
  -9.58500004         1.83303266E-14
  -9.47000027         1.79234679E-14
  -9.35499954         1.71595983E-14
  -9.23999977         1.59943893E-14
  -9.12500000         1.43904426E-14
  -9.01000023         1.23192794E-14
  -8.89500046         9.76262901E-15
  -8.77999973         6.71300038E-15
  -8.66499996         3.17343943E-15
  -8.55000019        -8.43441422E-16
  -8.43500042        -5.31702275E-15
  -8.31999969        -1.02206214E-14
  -8.20499992        -1.55236169E-14
  -8.09000015        -2.11934911E-14
  -7.97499990        -2.71975944E-14
  -7.86000013        -3.35044187E-14
  -7.74499989        -4.00842892E-14
  -7.63000011        -4.69094029E-14
  -7.51499987        -5.39533424E-14
  -7.40000010        -6.11900870E-14
  -7.28499985        -6.85928162E-14
  -7.17000008        -7.61326766E-14
  -7.05499983        -8.37778875E-14
  -6.94000006        -9.14932735E-14
  -6.82499981        -9.92405485E-14
  -6.71000004        -1.06979394E-13
  -6.59499979        -1.14669301E-13
  -6.48000002        -1.22272296E-13
  -6.36499977        -1.29756123E-13
  -6.25000000        -1.37097947E-13
  -6.13500023        -1.44287807E-13
  -6.01999998        -1.51331936E-13
  -5.90500021        -1.58255353E-13
  -5.78999996        -1.65103256E-13
  -5.67500019        -1.71941075E-13
  -5.55999994        -1.78853121E-13
  -5.44500017        -1.85939656E-13
  -5.32999992        -1.93312543E-13
  -5.21500015        -2.01089891E-13
  -5.09999990        -2.09390299E-13
  -4.98500013        -2.18326971E-13
  -4.86999989        -2.28002567E-13
  -4.75500011        -2.38505315E-13
  -4.63999987        -2.49907056E-13
  -4.52500010        -2.62263139E-13
  -4.40999985        -2.75614546E-13
  -4.29500008        -2.89991907E-13
  -4.17999983        -3.05420484E-13
  -4.06500006        -3.21925646E-13
  -3.95000005        -3.39537182E-13
  -3.83500004        -3.58291603E-13
  -3.72000003        -3.78230785E-13
  -3.60500002        -3.99396607E-13
  -3.49000001        -4.21820158E-13
  -3.37500000        -4.45506831E-13
  -3.25999999        -4.70417975E-13
  -3.14499998        -4.96450700E-13
  -3.02999997        -5.23418873E-13
  -2.91499996        -5.51038924E-13
  -2.79999995        -5.78923519E-13
  -2.68499994        -6.06588022E-13
  -2.56999993        -6.33470490E-13
  -2.45499992        -6.58970003E-13
  -2.33999991        -6.82500660E-13
  -2.22499990        -7.03560582E-13
  -2.10999990        -7.21813126E-13
  -1.99500000        -7.37170145E-13
  -1.88000000        -7.49871953E-13
  -1.76499999        -7.60552374E-13
  -1.64999998        -7.70277451E-13
  -1.53499997        -7.80549399E-13
  -1.41999996        -7.93265139E-13
  -1.30499995        -8.10626035E-13
  -1.19000006        -8.34996785E-13
  -1.07500005        -8.68717641E-13
 -0.959999979        -9.13881167E-13
 -0.845000029        -9.72087103E-13
 -0.730000019        -1.04419869E-12
 -0.615000010        -1.13012269E-12
 -0.500000000        -1.22864024E-12
 -0.384999990        -1.33731481E-12
 -0.270000011        -1.45249849E-12
 -0.155000001        -1.56945355E-12
  -3.99999991E-02    -1.68259569E-12
   7.50000030E-02    -1.78585749E-12
  0.189999998        -1.87315528E-12
  0.305000007        -1.93893209E-12
  0.419999987        -1.97873770E-12
  0.535000026        -1.98979873E-12
  0.649999976        -1.97152147E-12
  0.764999986        -1.92587634E-12
  0.879999995        -1.85760630E-12
  0.995000005        -1.77422205E-12
   1.11000001        -1.68574616E-12
   1.22500002        -1.60420191E-12
   1.34000003        -1.54285482E-12
   1.45500004        -1.51523705E-12
   1.57000005        -1.53401836E-12
   1.68499994        -1.60979476E-12
   1.79999995        -1.74989493E-12
   1.91499996        -1.95730519E-12
   2.02999997        -2.22982396E-12
   2.14499998        -2.55954546E-12
   2.25999999        -2.93275538E-12
   2.37500000        -3.33030457E-12
   2.49000001        -3.72848497E-12
   2.60500002        -4.10039754E-12
   2.72000003        -4.41776520E-12
   2.83500004        -4.65309692E-12
   2.95000005        -4.78206667E-12
   3.06500006        -4.78595549E-12
   3.18000007        -4.65395647E-12
   3.29500008        -4.38516714E-12
   3.41000009        -3.99006132E-12
   3.52500010        -3.49127628E-12
   3.64000010        -2.92358368E-12
   3.75500011        -2.33294504E-12
   3.86999989        -1.77462537E-12
   3.98499990        -1.31039710E-12
   4.09999990        -1.00495025E-12
   4.21500015        -9.21661185E-13
   4.32999992        -1.11796770E-12
   4.44500017        -1.64062839E-12
   4.55999994        -2.52116969E-12
   4.67500019        -3.77186997E-12
   4.78999996        -5.38256809E-12
   4.90500021        -7.31861446E-12
   5.01999998        -9.52016417E-12
   5.13500023        -1.19029838E-11
   5.25000000        -1.43608493E-11
   5.36499977        -1.67694799E-11
   5.48000002        -1.89918949E-11
   5.59499979        -2.08849500E-11
   5.71000004        -2.23067086E-11
   5.82499981        -2.31243011E-11
   5.94000006        -2.32217995E-11
   6.05499983        -2.25075895E-11
   6.17000008        -2.09209247E-11
   6.28499985        -1.84370817E-11
   6.40000010        -1.50709046E-11
   6.51499987        -1.08783538E-11
   6.63000011        -5.95603775E-12
   6.74499989        -4.38626484E-13
   6.86000013         5.50574300E-12
   6.97499990         1.16818317E-11
   7.09000015         1.78751198E-11
   7.20499992         2.38606340E-11
   7.32000017         2.94123684E-11
   7.43499994         3.43127020E-11
   7.55000019         3.83614390E-11
   7.66499996         4.13838720E-11
   7.78000021         4.32374969E-11
   7.89499998         4.38171235E-11
   8.01000023         4.30580328E-11
   8.12500000         4.09371703E-11
   8.23999977         3.74722718E-11
   8.35499954         3.27190844E-11
   8.47000027         2.67668249E-11
   8.58500004         1.97321517E-11
   8.69999981         1.17519189E-11
   8.81499958         2.97516786E-12
   8.93000031        -6.44542839E-12
   9.04500008        -1.63622796E-11
   9.15999985        -2.66413419E-11
   9.27499962        -3.71701628E-11
   9.39000034        -4.78652430E-11
   9.50500011        -5.86783122E-11
   9.61999989        -6.96017480E-11
   9.73499966        -8.06725242E-11
   9.85000038        -9.19750040E-11
   9.96500015        -1.03642372E-10
   10.0799999        -1.15856311E-10
   10.1949997        -1.28845642E-10
   10.3100004        -1.42882900E-10
   10.4250002        -1.58279848E-10
   10.5400000        -1.75381556E-10
   10.6549997        -1.94558508E-10
   10.7700005        -2.16198365E-10
   10.8850002        -2.40695963E-10
   11.0000000        -2.68443018E-10
   11.1149998        -2.99816977E-10
   11.2299995        -3.35170475E-10
   11.3450003        -3.74820897E-10
   11.4600000        -4.19040941E-10
   11.5749998        -4.68050987E-10
   11.6899996        -5.22013655E-10
   11.8050003        -5.81030557E-10
   11.9200001        -6.45142550E-10
   12.0349998        -7.14333426E-10
   12.1499996        -7.88536514E-10
   12.2650003        -8.67645622E-10
   12.3800001        -9.51528745E-10
   12.4949999        -1.04004472E-09
   12.6099997        -1.13306220E-09
   12.7250004        -1.23048061E-09
   12.8400002        -1.33225075E-09
   12.9549999        -1.43839507E-09
   13.0699997        -1.54902746E-09
   13.1850004        -1.66436853E-09
   13.3000002        -1.78475956E-09
   13.4150000        -1.91066962E-09
   13.5299997        -2.04269912E-09
   13.6450005        -2.18157847E-09
   13.7600002        -2.32815922E-09
   13.8750000        -2.48340171E-09
   13.9899998        -2.64835887E-09
   14.1049995        -2.82415313E-09
   14.2200003        -3.01195469E-09
   14.3350000        -3.21295524E-09
   14.4499998        -3.42834361E-09
   14.5649996        -3.65928199E-09
   14.6800003        -3.90688548E-09
   14.7950001        -4.17220658E-09
   14.9099998        -4.45622073E-09
   15.0249996        -4.75982409E-09
   15.1400003        -5.08382936E-09
   15.2550001        -5.42897727E-09
   15.3699999        -5.79594372E-09
   15.4849997        -6.18535978E-09
   15.6000004        -6.59782895E-09
   15.7150002        -7.03395342E-09
   15.8299999        -7.49435802E-09
   15.9449997        -7.97971200E-09
   16.0599995        -8.49075565E-09
   16.1749992        -9.02831676E-09
   16.2900009        -9.59333057E-09
   16.4050007        -1.01868416E-08
   16.5200005        -1.08100231E-08
   16.6350002        -1.14641630E-08
   16.7500000        -1.21506680E-08
   16.8649998        -1.28710473E-08
   16.9799995        -1.36269032E-08
   17.0949993        -1.44199079E-08
   17.2099991        -1.52517874E-08
   17.3250008        -1.61243001E-08
   17.4400005        -1.70392145E-08
   17.5550003        -1.79982962E-08
   17.6700001        -1.90032878E-08
   17.7849998        -2.00559001E-08
   17.8999996        -2.11577955E-08
   18.0149994        -2.23105996E-08
   18.1299992        -2.35158861E-08
   18.2450008        -2.47751935E-08
   18.3600006        -2.60900208E-08
   18.4750004        -2.74618586E-08
   18.5900002        -2.88921775E-08
   18.7049999        -3.03824628E-08
   18.8199997        -3.19342242E-08
   18.9349995        -3.35490107E-08
   19.0499992        -3.52284317E-08
   19.1650009        -3.69741571E-08
   19.2800007        -3.87879453E-08
   19.3950005        -4.06716403E-08
   19.5100002        -4.26271924E-08
   19.6250000        -4.46566553E-08
   19.7399998        -4.67621959E-08
   19.8549995        -4.89461058E-08
   19.9699993        -5.12107761E-08
   20.0849991        -5.35587219E-08
   20.2000008        -5.59925653E-08
   20.3150005        -5.85150595E-08
   20.4300003        -6.11290361E-08
   20.5450001        -6.38374402E-08
   20.6599998        -6.66432953E-08
   20.7749996        -6.95496922E-08
   20.8899994        -7.25598142E-08
   21.0049992        -7.56768515E-08
   21.1200008        -7.89040016E-08
   21.2350006        -8.22445045E-08
   21.3500004        -8.57015081E-08
   21.4650002        -8.92781387E-08
   21.5799999        -9.29774089E-08
   21.6949997        -9.68022107E-08
   21.8099995        -1.00755273E-07
   21.9249992        -1.04839160E-07
   22.0400009        -1.09056238E-07
   22.1550007        -1.13408603E-07
   22.2700005        -1.17898196E-07
   22.3850002        -1.22526615E-07
   22.5000000        -1.27295294E-07
   22.6149998        -1.32205372E-07
   22.7299995        -1.37257757E-07
   22.8449993        -1.42453175E-07
   22.9599991        -1.47792122E-07
   23.0750008        -1.53274925E-07
   23.1900005        -1.58901756E-07
   23.3050003        -1.64672613E-07
   23.4200001        -1.70587413E-07
   23.5349998        -1.76645926E-07
   23.6499996        -1.82847828E-07
   23.7649994        -1.89192690E-07
   23.8799992        -1.95679959E-07
   23.9950008        -2.02308925E-07
   24.1100006        -2.09078749E-07
   24.2250004        -2.15988408E-07
   24.3400002        -2.23036636E-07
   24.4549999        -2.30221900E-07
   24.5699997        -2.37542409E-07
   24.6849995        -2.44996016E-07
   24.7999992        -2.52580207E-07
   24.9150009        -2.60292154E-07
   25.0300007        -2.68128616E-07
   25.1450005        -2.76085814E-07
   25.2600002        -2.84159711E-07
   25.3750000        -2.92345732E-07
   25.4899998        -3.00638987E-07
   25.6049995        -3.09034220E-07
   25.7199993        -3.17525775E-07
   25.8349991        -3.26107624E-07
   25.9500008        -3.34773489E-07
   26.0650005        -3.43516803E-07
   26.1800003        -3.52330829E-07
   26.2950001        -3.61208492E-07
   26.4099998        -3.70142459E-07
   26.5249996        -3.79125368E-07
   26.6399994        -3.88149459E-07
   26.7549992        -3.97206861E-07
   26.8700008        -4.06289473E-07
   26.9850006        -4.15388968E-07
   27.1000004        -4.24496648E-07
   27.2150002        -4.33603788E-07
   27.3299999        -4.42701207E-07
   27.4449997        -4.51779329E-07
   27.5599995        -4.60828431E-07
   27.6749992        -4.69838483E-07
   27.7900009        -4.78798938E-07
   27.9050007        -4.87699083E-07
   28.0200005        -4.96527832E-07
   28.1350002        -5.05273874E-07
   28.2500000        -5.13925272E-07
   28.3649998        -5.22470032E-07
   28.4799995        -5.30895818E-07
   28.5949993        -5.39189841E-07
   28.7099991        -5.47339141E-07
   28.8250008        -5.55330416E-07
   28.9400005        -5.63149797E-07
   29.0550003        -5.70783357E-07
   29.1700001        -5.78216543E-07
   29.2849998        -5.85434691E-07
   29.3999996        -5.92422339E-07
   29.5149994        -5.99163968E-07
   29.6299992        -6.05643379E-07
   29.7450008        -6.11844087E-07
   29.8600006        -6.17749151E-07
   29.9750004        -6.23341123E-07
   30.0900002        -6.28602436E-07
   30.2049999        -6.33514844E-07
   30.3199997        -6.38060101E-07
   30.4349995        -6.42219675E-07
   30.5499992        -6.45975035E-07
   30.6650009        -6.49307310E-07
   30.7800007        -6.52197684E-07
   30.8950005        -6.54627570E-07
   31.0100002        -6.56578322E-07
   31.1250000        -6.58031354E-07
   31.2399998        -6.58968361E-07
   31.3549995        -6.59371153E-07
   31.4699993        -6.59221541E-07
   31.5849991        -6.58501676E-07
   31.7000008        -6.57193539E-07
   31.8150005        -6.55279223E-07
   31.9300003        -6.52740994E-07
   32.0449982        -6.49560718E-07
   32.1599998        -6.45720320E-07
   32.2750015        -6.41201609E-07
   32.3899994        -6.35986225E-07
   32.5050011        -6.30055524E-07
   32.6199989        -6.23390747E-07
   32.7350006        -6.15973192E-07
   32.8499985        -6.07783932E-07
   32.9650002        -5.98804036E-07
   33.0800018        -5.89014803E-07
   33.1949997        -5.78397817E-07
   33.3100014        -5.66934773E-07
   33.4249992        -5.54607936E-07
   33.5400009        -5.41400141E-07
   33.6549988        -5.27294787E-07
   33.7700005        -5.12276074E-07
   33.8849983        -4.96328994E-07
   34.0000000        -4.79439336E-07
   34.1150017        -4.61593743E-07
   34.2299995        -4.42779822E-07
   34.3450012        -4.22985920E-07
   34.4599991        -4.02201181E-07
   34.5750008        -3.80415713E-07
   34.6899986        -3.57620166E-07
   34.8050003        -3.33805986E-07
   34.9199982        -3.08965241E-07
   35.0349998        -2.83090571E-07
   35.1500015        -2.56175213E-07
   35.2649994        -2.28212812E-07
   35.3800011        -1.99197629E-07
   35.4949989        -1.69124505E-07
   35.6100006        -1.37988678E-07
   35.7249985        -1.05786000E-07
   35.8400002        -7.25130462E-08
   35.9550018        -3.81668173E-08
   36.0699997        -2.74509659E-09
   36.1850014         3.37535226E-08
   36.2999992         7.13297510E-08
   36.4150009         1.09983404E-07
   36.5299988         1.49713557E-07
   36.6450005         1.90518250E-07
   36.7599983         2.32394783E-07
   36.8750000         2.75339346E-07
   36.9900017         3.19347237E-07
   37.1049995         3.64412642E-07
   37.2200012         4.10528685E-07
   37.3349991         4.57687520E-07
   37.4500008         5.05880109E-07
   37.5649986         5.55096165E-07
   37.6800003         6.05323976E-07
   37.7949982         6.56550696E-07
   37.9099998         7.08762173E-07
   38.0250015         7.61942488E-07
   38.1399994         8.16074021E-07
   38.2550011         8.71138013E-07
   38.3699989         9.27113319E-07
   38.4850006         9.83977543E-07
   38.5999985         1.04170635E-06
   38.7150002         1.10027304E-06
   38.8300018         1.15964963E-06
   38.9449997         1.21980611E-06
   39.0600014         1.28070974E-06
   39.1749992         1.34232675E-06
   39.2900009         1.40462112E-06
   39.4049988         1.46755428E-06
   39.5200005         1.53108624E-06
   39.6349983         1.59517458E-06
   39.7500000         1.65977474E-06
   39.8650017         1.72484010E-06
   39.9799995         1.79032156E-06
   40.0950012         1.85616739E-06
   40.2099991         1.92232346E-06
   40.3250008         1.98873317E-06
   40.4399986         2.05533706E-06
   40.5550003         2.12207169E-06
   40.6699982         2.18887249E-06
   40.7849998         2.25567032E-06
   40.9000015         2.32239336E-06
   41.0149994         2.38896632E-06
   41.1300011         2.45531055E-06
   41.2449989         2.52134555E-06
   41.3600006         2.58698583E-06
   41.4749985         2.65214385E-06
   41.5900002         2.71672911E-06
   41.7050018         2.78064908E-06
   41.8199997         2.84380758E-06
   41.9350014         2.90610683E-06
   42.0499992         2.96744702E-06
   42.1650009         3.02772582E-06
   42.2799988         3.08684002E-06
   42.3950005         3.14468411E-06
   42.5099983         3.20115146E-06
   42.6250000         3.25613337E-06
   42.7400017         3.30952116E-06
   42.8549995         3.36120388E-06
   42.9700012         3.41106966E-06
   43.0849991         3.45900594E-06
   43.2000008         3.50489768E-06
   43.3149986         3.54863005E-06
   43.4300003         3.59008641E-06
   43.5449982         3.62914852E-06
   43.6599998         3.66569839E-06
   43.7750015         3.69961526E-06
   43.8899994         3.73077864E-06
   44.0050011         3.75906689E-06
   44.1199989         3.78435789E-06
   44.2350006         3.80652818E-06
   44.3499985         3.82545477E-06
   44.4650002         3.84101440E-06
   44.5800018         3.85308385E-06
   44.6949997         3.86153988E-06
   44.8100014         3.86626061E-06
   44.9249992         3.86712372E-06
   45.0400009         3.86400870E-06
   45.1549988         3.85679687E-06
   45.2700005         3.84536952E-06
   45.3849983         3.82961025E-06
   45.5000000         3.80940469E-06
   45.6150017         3.78463983E-06
   45.7299995         3.75520540E-06
   45.8450012         3.72099316E-06
   45.9599991         3.68189831E-06
   46.0750008         3.63781828E-06
   46.1899986         3.58865418E-06
   46.3050003         3.53431005E-06
   46.4199982         3.47469449E-06
   46.5349998         3.40971997E-06
   46.6500015         3.33930439E-06
   46.7649994         3.26336885E-06
   46.8800011         3.18184129E-06
   46.9949989         3.09465577E-06
   47.1100006         3.00175088E-06
   47.2249985         2.90307275E-06
   47.3400002         2.79857454E-06
   47.4550018         2.68821577E-06
   47.5699997         2.57196416E-06
   47.6850014         2.44979492E-06
   47.7999992         2.32169100E-06
   47.9150009         2.18764376E-06
   48.0299988         2.04765365E-06
   48.1450005         1.90172830E-06
   48.2599983         1.74988577E-06
   48.3750000         1.59215222E-06
   48.4900017         1.42856334E-06
   48.6049995         1.25916426E-06
   48.7200012         1.08401025E-06
   48.8349991         9.03165869E-07
   48.9500008         7.16706154E-07
   49.0649986         5.24717109E-07
   49.1800003         3.27294572E-07
   49.2949982         1.24546204E-07
   49.4099998        -8.34101002E-08
   49.5250015        -2.96444057E-07
   49.6399994        -5.14414523E-07
   49.7550011        -7.37168307E-07
   49.8699989        -9.64541414E-07
   49.9850006        -1.19635706E-06
   50.0999985        -1.43242755E-06
   50.2150002        -1.67255394E-06
   50.3300018        -1.91652589E-06
   50.4449997        -2.16412104E-06
   50.5600014        -2.41510793E-06
   50.6749992        -2.66924349E-06
   50.7900009        -2.92627487E-06
   50.9049988        -3.18593948E-06
   51.0200005        -3.44796558E-06
   51.1349983        -3.71207079E-06
   51.2500000        -3.97796612E-06
   51.3650017        -4.24535301E-06
   51.4799995        -4.51392316E-06
   51.5950012        -4.78336187E-06
   51.7099991        -5.05334765E-06
   51.8250008        -5.32354943E-06
   51.9399986        -5.59362798E-06
   52.0550003        -5.86323949E-06
   52.1699982        -6.13203247E-06
   52.2849998        -6.39964856E-06
   52.4000015        -6.66572259E-06
   52.5149994        -6.92988397E-06
   52.6300011        -7.19175705E-06
   52.7449989        -7.45095986E-06
   52.8600006        -7.70710813E-06
   52.9749985        -7.95980850E-06
   53.0900002        -8.20866990E-06
   53.2050018        -8.45329487E-06
   53.3199997        -8.69328414E-06
   53.4350014        -8.92823482E-06
   53.5499992        -9.15774945E-06
   53.6650009        -9.38142057E-06
   53.7799988        -9.59884801E-06
   53.8950005        -9.80962977E-06
   54.0099983        -1.00133648E-05
   54.1250000        -1.02096565E-05
   54.2400017        -1.03981065E-05
   54.3549995        -1.05783247E-05
   54.4700012        -1.07499191E-05
   54.5849991        -1.09125076E-05
   54.7000008        -1.10657083E-05
   54.8149986        -1.12091484E-05
   54.9300003        -1.13424612E-05
   55.0449982        -1.14652821E-05
   55.1599998        -1.15772618E-05
   55.2750015        -1.16780548E-05
   55.3899994        -1.17673235E-05
   55.5050011        -1.18447442E-05
   55.6199989        -1.19099996E-05
   55.7350006        -1.19627866E-05
   55.8499985        -1.20028144E-05
   55.9650002        -1.20298009E-05
   56.0800018        -1.20434815E-05
   56.1949997        -1.20436025E-05
   56.3100014        -1.20299246E-05
   56.4249992        -1.20022278E-05
   56.5400009        -1.19603001E-05
   56.6549988        -1.19039523E-05
   56.7700005        -1.18330072E-05
   56.8849983        -1.17473046E-05
   57.0000000        -1.16467045E-05
   57.1150017        -1.15310804E-05
   57.2299995        -1.14003269E-05
   57.3450012        -1.12543557E-05
   57.4599991        -1.10930996E-05
   57.5750008        -1.09165057E-05
   57.6899986        -1.07245478E-05
   57.8050003        -1.05172157E-05
   57.9199982        -1.02945214E-05
   58.0349998        -1.00564994E-05
   58.1500015        -9.80320328E-06
   58.2649994        -9.53470953E-06
   58.3800011        -9.25111817E-06
   58.4949989        -8.95255016E-06
   58.6100006        -8.63915011E-06
   58.7249985        -8.31108355E-06
   58.8400002        -7.96854147E-06
   58.9550018        -7.61173169E-06
   59.0699997        -7.24088750E-06
   59.1850014        -6.85626492E-06
   59.2999992        -6.45813725E-06
   59.4150009        -6.04680099E-06
   59.5299988        -5.62257401E-06
   59.6450005        -5.18579145E-06
   59.7599983        -4.73680848E-06
   59.8750000        -4.27600207E-06
   59.9900017        -3.80376559E-06
   60.1049995        -3.32051195E-06
   60.2200012        -2.82667315E-06
   60.3349991        -2.32269758E-06
   60.4500008        -1.80905317E-06
   60.5649986        -1.28622560E-06
   60.6800003        -7.54716780E-07
   60.7949982        -2.15048431E-07
   60.9099998         3.32242621E-07
   61.0250015         8.86601356E-07
   61.1399994         1.44745707E-06
   61.2550011         2.01422199E-06
   61.3699989         2.58629188E-06
   61.4850006         3.16304750E-06
   61.5999985         3.74385672E-06
   61.7150002         4.32806928E-06
   61.8300018         4.91502442E-06
   61.9449997         5.50404638E-06
   62.0600014         6.09444987E-06
   62.1749992         6.68553503E-06
   62.2900009         7.27659108E-06
   62.4049988         7.86690089E-06
   62.5200005         8.45573140E-06
   62.6349983         9.04234821E-06
   62.7500000         9.62600370E-06
   62.8650017         1.02059439E-05
   62.9799995         1.07814076E-05
   63.0950012         1.13516298E-05
   63.2099991         1.19158376E-05
   63.3250008         1.24732533E-05
   63.4399986         1.30230983E-05
   63.5550003         1.35645887E-05
   63.6699982         1.40969396E-05
   63.7849998         1.46193634E-05
   63.9000015         1.51310724E-05
   64.0149994         1.56312872E-05
   64.1299973         1.61192147E-05
   64.2450027         1.65940837E-05
   64.3600006         1.70551157E-05
   64.4749985         1.75015412E-05
   64.5899963         1.79325925E-05
   64.7050018         1.83475186E-05
   64.8199997         1.87455644E-05
   64.9349976         1.91259987E-05
   65.0500031         1.94880886E-05
   65.1650009         1.98311191E-05
   65.2799988         2.01543862E-05
   65.3949966         2.04571970E-05
   65.5100021         2.07388748E-05
   65.6250000         2.09987538E-05
   65.7399979         2.12361920E-05
   65.8550034         2.14505544E-05
   65.9700012         2.16412336E-05
   66.0849991         2.18076329E-05
   66.1999969         2.19491776E-05
   66.3150024         2.20653201E-05
   66.4300003         2.21555347E-05
   66.5449982         2.22193103E-05
   66.6600037         2.22561721E-05
   66.7750015         2.22656672E-05
   66.8899994         2.22473736E-05
   67.0049973         2.22008985E-05
   67.1200027         2.21258761E-05
   67.2350006         2.20219790E-05
   67.3499985         2.18889072E-05
   67.4649963         2.17263932E-05
   67.5800018         2.15342061E-05
   67.6949997         2.13121548E-05
   67.8099976         2.10600829E-05
   67.9250031         2.07778630E-05
   68.0400009         2.04654152E-05
   68.1549988         2.01226867E-05
   68.2699966         1.97496702E-05
   68.3850021         1.93463984E-05
   68.5000000         1.89129369E-05
   68.6149979         1.84493983E-05
   68.7300034         1.79559283E-05
   68.8450012         1.74327270E-05
   68.9599991         1.68800216E-05
   69.0749969         1.62980923E-05
   69.1900024         1.56872593E-05
   69.3050003         1.50478927E-05
   69.4199982         1.43804000E-05
   69.5350037         1.36852423E-05
   69.6500015         1.29629216E-05
   69.7649994         1.22139927E-05
   69.8799973         1.14390523E-05
   69.9950027         1.06387470E-05
   70.1100006         9.81377070E-06
   70.2249985         8.96486381E-06
   70.3399963         8.09281391E-06
   70.4550018         7.19845457E-06
   70.5699997         6.28266480E-06
   70.6849976         5.34636820E-06
   70.8000031         4.39053474E-06
   70.9150009         3.41617488E-06
   71.0299988         2.42434385E-06
   71.1449966         1.41613623E-06
   71.2600021         3.92690140E-07
   71.3750000        -6.44820602E-07
   71.4899979        -1.69518137E-06
   71.6050034        -2.75714046E-06
   71.7200012        -3.82941016E-06
   71.8349991        -4.91066476E-06
   71.9499969        -5.99955047E-06
   72.0650024        -7.09467713E-06
   72.1800003        -8.19462639E-06
   72.2949982        -9.29795260E-06
   72.4100037        -1.04031797E-05
   72.5250015        -1.15088069E-05
   72.6399994        -1.26133164E-05
   72.7549973        -1.37151637E-05
   72.8700027        -1.48127901E-05
   72.9850006        -1.59046158E-05
   73.0999985        -1.69890573E-05
   73.2149963        -1.80645093E-05
   73.3300018        -1.91293657E-05
   73.4449997        -2.01820112E-05
   73.5599976        -2.12208306E-05
   73.6750031        -2.22442013E-05
   73.7900009        -2.32505008E-05
   73.9049988        -2.42381175E-05
   74.0199966        -2.52054433E-05
   74.1350021        -2.61508703E-05