  -18.8999996         0.00000000    
  -18.7849998         0.00000000    
  -18.6700001         0.00000000    
  -18.5550003         1.58436965E-21
  -18.4400005         9.62723446E-21
  -18.3250008         3.19470433E-20
  -18.2099991         7.54761079E-20
  -18.0949993         1.39532483E-19
  -17.9799995         2.09202869E-19
  -17.8649998         2.53401843E-19
  -17.7500000         2.31761170E-19
  -17.6350002         1.11703672E-19
  -17.5200005        -1.07569132E-19
  -17.4050007        -3.72413772E-19
  -17.2900009        -5.64955414E-19
  -17.1749992        -5.17515727E-19
  -17.0599995        -5.78443396E-20
  -16.9449997         9.17275884E-19
  -16.8299999         2.35392793E-18
  -16.7150002         3.96314598E-18
  -16.6000004         5.18440702E-18
  -16.4850006         5.22068592E-18
  -16.3700008         3.16487802E-18
  -16.2549992        -1.78175366E-18
  -16.1399994        -1.00231874E-17
  -16.0249996        -2.12630979E-17
  -15.9099998        -3.42469317E-17
  -15.7950001        -4.66233205E-17
  -15.6800003        -5.49847004E-17
  -15.5649996        -5.51183596E-17
  -15.4499998        -4.24579930E-17
  -15.3350000        -1.26811404E-17
  -15.2200003         3.76409994E-17
  -15.1049995         1.10456835E-16
  -14.9899998         2.05825618E-16
  -14.8750000         3.21775905E-16
  -14.7600002         4.54473834E-16
  -14.6450005         5.98685640E-16
  -14.5299997         7.48460547E-16
  -14.4150000         8.97914852E-16
  -14.3000002         1.04197377E-15
  -14.1850004         1.17693492E-15
  -14.0699997         1.30074795E-15
  -13.9549999         1.41296107E-15
  -13.8400002         1.51435176E-15
  -13.7250004         1.60632260E-15
  -13.6099997         1.69019315E-15
  -13.4949999         1.76654481E-15
  -13.3800001         1.83476146E-15
  -13.2650003         1.89287427E-15
  -13.1499996         1.93775494E-15
  -13.0349998         1.96562254E-15
  -12.9200001         1.97275964E-15
  -12.8050003         1.95628866E-15
  -12.6899996         1.91482534E-15
  -12.5749998         1.84885884E-15
  -12.4600000         1.76074189E-15
  -12.3450003         1.65426096E-15
  -12.2299995         1.53383542E-15
  -12.1149998         1.40347377E-15
  -12.0000000         1.26567591E-15
  -11.8850002         1.12049637E-15
  -11.7700005         9.64977521E-16
  -11.6549997         7.93109824E-16
  -11.5400000         5.96406539E-16
  -11.4250002         3.65079829E-16
  -11.3100004         8.96999024E-17
  -11.1949997        -2.36869270E-16
  -11.0799999        -6.17528470E-16
  -10.9650002        -1.04930336E-15
  -10.8500004        -1.52227057E-15
  -10.7349997        -2.01925857E-15
  -10.6199999        -2.51641948E-15
  -10.5050001        -2.98462393E-15
  -10.3900003        -3.39152161E-15
  -10.2749996        -3.70398826E-15
  -10.1599998        -3.89063239E-15
  -10.0450001        -3.92403514E-15
  -9.93000031        -3.78246586E-15
  -9.81499958        -3.45089905E-15
  -9.69999981        -2.92132516E-15
  -9.58500004        -2.19244589E-15
  -9.47000027        -1.26898273E-15
  -9.35499954        -1.60866711E-16
  -9.23999977         1.11745700E-15
  -9.12500000         2.54737811E-15
  -9.01000023         4.10608200E-15
  -8.89500046         5.76619585E-15
  -8.77999973         7.49530815E-15
  -8.66499996         9.25568063E-15
  -8.55000019         1.10044208E-14
  -8.43500042         1.26943921E-14
  -8.31999969         1.42758899E-14
  -8.20499992         1.56989764E-14
  -8.09000015         1.69161340E-14
  -7.97499990         1.78847314E-14
  -7.86000013         1.85687918E-14
  -7.74499989         1.89395500E-14
  -7.63000011         1.89746171E-14
  -7.51499987         1.86557482E-14
  -7.40000010         1.79657179E-14
  -7.28499985         1.68850394E-14
  -7.17000008         1.53894570E-14
  -7.05499983         1.34491425E-14
  -6.94000006         1.10305433E-14
  -6.82499981         8.10094687E-15
  -6.71000004         4.63576558E-15
  -6.59499979         6.27508001E-16
  -6.48000002        -3.90494132E-15
  -6.36499977        -8.90865124E-15
  -6.25000000        -1.42925002E-14
  -6.13500023        -1.99282238E-14
  -6.01999998        -2.56577291E-14
  -5.90500021        -3.13067985E-14
  -5.78999996        -3.67040755E-14
  -5.67500019        -4.17031996E-14
  -5.55999994        -4.62052136E-14
  -5.44500017        -5.01775000E-14
  -5.32999992        -5.36662051E-14
  -5.21500015        -5.67989496E-14
  -5.09999990        -5.97769244E-14
  -4.98500013        -6.28562008E-14
  -4.86999989        -6.63204843E-14
  -4.75500011        -7.04488009E-14
  -4.63999987        -7.54832327E-14
  -4.52500010        -8.16018192E-14
  -4.40999985        -8.89018541E-14
  -4.29500008        -9.73968830E-14
  -4.17999983        -1.07029423E-13
  -4.06500006        -1.17697966E-13
  -3.95000005        -1.29294931E-13
  -3.83500004        -1.41749243E-13
  -3.72000003        -1.55066173E-13
  -3.60500002        -1.69356323E-13
  -3.49000001        -1.84846401E-13
  -3.37500000        -2.01867684E-13
  -3.25999999        -2.20820405E-13
  -3.14499998        -2.42116846E-13
  -3.02999997        -2.66110837E-13
  -2.91499996        -2.93023472E-13
  -2.79999995        -3.22877982E-13
  -2.68499994        -3.55457634E-13
  -2.56999993        -3.90296790E-13
  -2.45499992        -4.26713867E-13
  -2.33999991        -4.63886362E-13
  -2.22499990        -5.00964667E-13
  -2.10999990        -5.37210792E-13
  -1.99500000        -5.72145087E-13
  -1.88000000        -6.05677888E-13
  -1.76499999        -6.38203141E-13
  -1.64999998        -6.70631899E-13
  -1.53499997        -7.04350098E-13
  -1.41999996        -7.41093168E-13
  -1.30499995        -7.82741818E-13
  -1.19000006        -8.31054192E-13
  -1.07500005        -8.87363100E-13
 -0.959999979        -9.52272766E-13
 -0.845000029        -1.02540101E-12
 -0.730000019        -1.10520577E-12
 -0.615000010        -1.18893719E-12
 -0.500000000        -1.27274038E-12
 -0.384999990        -1.35192367E-12
 -0.270000011        -1.42138309E-12
 -0.155000001        -1.47615806E-12
  -3.99999991E-02    -1.51207204E-12
   7.50000030E-02    -1.52639555E-12
  0.189999998        -1.51845919E-12
  0.305000007        -1.49014102E-12
  0.419999987        -1.44615613E-12
  0.535000026        -1.39409252E-12
  0.649999976        -1.34415417E-12
  0.764999986        -1.30860427E-12
  0.879999995        -1.30092692E-12
  0.995000005        -1.33475934E-12
   1.11000001        -1.42267285E-12
   1.22500002        -1.57490416E-12
   1.34000003        -1.79814670E-12
   1.45500004        -2.09452052E-12
   1.57000005        -2.46082430E-12
   1.68499994        -2.88815261E-12
   1.79999995        -3.36193790E-12
   1.91499996        -3.86242947E-12
   2.02999997        -4.36558168E-12
   2.14499998        -4.84429120E-12
   2.25999999        -5.26987091E-12
   2.37500000        -5.61363673E-12
   2.49000001        -5.84845106E-12
   2.60500002        -5.95007377E-12
   2.72000003        -5.89819079E-12
   2.83500004        -5.67701441E-12
   2.95000005        -5.27540208E-12
   3.06500006        -4.68649555E-12
   3.18000007        -3.90695289E-12
   3.29500008        -2.93590131E-12
   3.41000009        -1.77381037E-12
   3.52500010        -4.21519807E-13
   3.64000010         1.12031955E-12
   3.75500011         2.85113686E-12
   3.86999989         4.76942747E-12
   3.98499990         6.87070409E-12
   4.09999990         9.14431551E-12
   4.21500015         1.15692317E-11
   4.32999992         1.41089605E-11
   4.44500017         1.67059370E-11
   4.55999994         1.92758760E-11
   4.67500019         2.17026466E-11
   4.78999996         2.38343512E-11
   4.90500021         2.54812820E-11
   5.01999998         2.64164367E-11
   5.13500023         2.63791419E-11
   5.25000000         2.50822245E-11
   5.36499977         2.22229526E-11
   5.48000002         1.74976717E-11
   5.59499979         1.06198392E-11
   5.71000004         1.34083456E-12
   5.82499981        -1.05274010E-11
   5.94000006        -2.50890350E-11
   6.05499983        -4.23416788E-11
   6.17000008        -6.21559471E-11
   6.28499985        -8.42586834E-11
   6.40000010        -1.08221411E-10
   6.51499987        -1.33455247E-10
   6.63000011        -1.59213379E-10
   6.74499989        -1.84601751E-10
   6.86000013        -2.08598319E-10
   6.97499990        -2.30080607E-10
   7.09000015        -2.47861065E-10
   7.20499992        -2.60728744E-10
   7.32000017        -2.67496303E-10
   7.43499994        -2.67049688E-10
   7.55000019        -2.58398913E-10
   7.66499996        -2.40727105E-10
   7.78000021        -2.13435311E-10
   7.89499998        -1.76181125E-10
   8.01000023        -1.28908231E-10
   8.12500000        -7.18654858E-11
   8.23999977        -5.61381453E-12
   8.35499954         6.89802521E-11
   8.47000027         1.50764456E-10
   8.58500004         2.38334380E-10
   8.69999981         3.30079603E-10
   8.81499958         4.24241225E-10
   8.93000031         5.18978860E-10
   9.04500008         6.12444429E-10
   9.15999985         7.02859992E-10
   9.27499962         7.88596743E-10
   9.39000034         8.68251193E-10
   9.50500011         9.40715839E-10
   9.61999989         1.00524022E-09
   9.73499966         1.06148079E-09
   9.85000038         1.10953446E-09
   9.96500015         1.14995657E-09
   10.0799999         1.18375965E-09
   10.1949997         1.21239263E-09
   10.3100004         1.23770183E-09
   10.4250002         1.26187205E-09
   10.5400000         1.28735222E-09
   10.6549997         1.31676547E-09
   10.7700005         1.35280964E-09
   10.8850002         1.39814860E-09
   11.0000000         1.45530255E-09
   11.1149998         1.52653901E-09
   11.2299995         1.61377156E-09
   11.3450003         1.71846903E-09
   11.4600000         1.84158244E-09
   11.5749998         1.98349071E-09
   11.6899996         2.14397167E-09
   11.8050003         2.32219866E-09
   11.9200001         2.51676435E-09
   12.0349998         2.72573475E-09
   12.1499996         2.94672708E-09
   12.2650003         3.17701598E-09
   12.3800001         3.41365780E-09
   12.4949999         3.65363340E-09
   12.6099997         3.89400068E-09
   12.7250004         4.13205203E-09
   12.8400002         4.36546665E-09
   12.9549999         4.59245841E-09
   13.0699997         4.81189799E-09
   13.1850004         5.02341990E-09
   13.3000002         5.22749621E-09
   13.4150000         5.42547562E-09
   13.5299997         5.61958924E-09
   13.6450005         5.81291415E-09
   13.7600002         6.00930461E-09
   13.8750000         6.21328233E-09
   13.9899998         6.42989972E-09
   14.1049995         6.66457334E-09
   14.2200003         6.92290092E-09
   14.3350000         7.21046733E-09
   14.4499998         7.53264473E-09
   14.5649996         7.89440158E-09
   14.6800003         8.30012947E-09
   14.7950001         8.75348594E-09
   14.9099998         9.25727139E-09
   15.0249996         9.81334569E-09
   15.1400003         1.04225766E-08
   15.2550001         1.10848379E-08
   15.3699999         1.17990426E-08
   15.4849997         1.25632242E-08
   15.6000004         1.33746481E-08
   15.7150002         1.42299594E-08
   15.8299999         1.51253552E-08
   15.9449997         1.60567648E-08
   16.0599995         1.70200565E-08
   16.1749992         1.80112192E-08
   16.2900009         1.90265563E-08
   16.4050007         2.00628456E-08
   16.5200005         2.11174829E-08
   16.6350002         2.21885870E-08
   16.7500000         2.32750725E-08
   16.8649998         2.43766820E-08
   16.9799995         2.54939874E-08
   17.0949993         2.66283315E-08
   17.2099991         2.77817591E-08
   17.3250008         2.89568991E-08
   17.4400005         3.01568264E-08
   17.5550003         3.13849107E-08
   17.6700001         3.26446461E-08
   17.7849998         3.39394788E-08
   17.8999996         3.52726559E-08
   18.0149994         3.66470552E-08
   18.1299992         3.80650746E-08
   18.2450008         3.95285085E-08
   18.3600006         4.10384828E-08
   18.4750004         4.25953957E-08
   18.5900002         4.41989236E-08
   18.7049999         4.58480329E-08
   18.8199997         4.75410431E-08
   18.9349995         4.92756911E-08
   19.0499992         5.10492448E-08
   19.1650009         5.28586348E-08
   19.2800007         5.47005641E-08
   19.3950005         5.65716611E-08
   19.5100002         5.84685900E-08
   19.6250000         6.03881958E-08
   19.7399998         6.23275795E-08
   19.8549995         6.42842082E-08
   19.9699993         6.62559643E-08
   20.0849991         6.82411496E-08
   20.2000008         7.02385066E-08
   20.3150005         7.22472109E-08
   20.4300003         7.42667652E-08
   20.5450001         7.62969776E-08
   20.6599998         7.83378056E-08
   20.7749996         8.03893130E-08
   20.8899994         8.24515283E-08
   21.0049992         8.45243306E-08
   21.1200008         8.66073506E-08
   21.2350006         8.86999132E-08
   21.3500004         9.08009241E-08
   21.4650002         9.29088628E-08
   21.5799999         9.50217469E-08
   21.6949997         9.71371179E-08
   21.8099995         9.92521052E-08
   21.9249992         1.01363455E-07
   22.0400009         1.03467592E-07
   22.1550007         1.05560730E-07
   22.2700005         1.07638961E-07
   22.3850002         1.09698327E-07
   22.5000000         1.11734927E-07
   22.6149998         1.13744996E-07
   22.7299995         1.15724959E-07
   22.8449993         1.17671476E-07
   22.9599991         1.19581443E-07
   23.0750008         1.21452018E-07
   23.1900005         1.23280500E-07
   23.3050003         1.25064375E-07
   23.4200001         1.26801098E-07
   23.5349998         1.28488111E-07
   23.6499996         1.30122643E-07
   23.7649994         1.31701640E-07
   23.8799992         1.33221619E-07
   23.9950008         1.34678558E-07
   24.1100006         1.36067868E-07
   24.2250004         1.37384220E-07
   24.3400002         1.38621644E-07
   24.4549999         1.39773476E-07
   24.5699997         1.40832398E-07
   24.6849995         1.41790522E-07
   24.7999992         1.42639593E-07
   24.9150009         1.43371096E-07
   25.0300007         1.43976422E-07
   25.1450005         1.44447114E-07
   25.2600002         1.44775143E-07
   25.3750000         1.44953091E-07
   25.4899998         1.44974308E-07
   25.6049995         1.44833152E-07
   25.7199993         1.44525217E-07
   25.8349991         1.44047277E-07
   25.9500008         1.43397543E-07
   26.0650005         1.42575502E-07
   26.1800003         1.41582035E-07
   26.2950001         1.40419189E-07
   26.4099998         1.39090119E-07
   26.5249996         1.37598789E-07
   26.6399994         1.35949804E-07
   26.7549992         1.34148067E-07
   26.8700008         1.32198508E-07
   26.9850006         1.30105803E-07
   27.1000004         1.27874060E-07
   27.2150002         1.25506574E-07
   27.3299999         1.23005577E-07
   27.4449997         1.20372079E-07
   27.5599995         1.17605687E-07
   27.6749992         1.14704562E-07
   27.7900009         1.11665507E-07
   27.9050007         1.08483839E-07
   28.0200005         1.05153688E-07
   28.1350002         1.01668100E-07
   28.2500000         9.80192638E-08
   28.3649998         9.41987608E-08
   28.4799995         9.01978154E-08
   28.5949993         8.60076526E-08
   28.7099991         8.16196604E-08
   28.8250008         7.70257458E-08
   28.9400005         7.22185121E-08
   29.0550003         6.71915146E-08
   29.1700001         6.19393532E-08
   29.2849998         5.64576652E-08
   29.3999996         5.07434166E-08
   29.5149994         4.47947031E-08
   29.6299992         3.86108567E-08
   29.7450008         3.21922364E-08
   29.8600006         2.55402863E-08
   29.9750004         1.86572908E-08
   30.0900002         1.15463052E-08
   30.2049999         4.21106705E-09
   30.3199997        -3.34427352E-09
   30.4349995        -1.11150591E-08
   30.5499992        -1.90963334E-08
   30.6650009        -2.72828746E-08
   30.7800007        -3.56692311E-08
   30.8950005        -4.42498624E-08
   31.0100002        -5.30190860E-08
   31.1250000        -6.19711145E-08
   31.2399998        -7.11001391E-08
   31.3549995        -8.04003477E-08
   31.4699993        -8.98660133E-08
   31.5849991        -9.94914515E-08
   31.7000008        -1.09271213E-07
   31.8150005        -1.19199946E-07
   31.9300003        -1.29272664E-07
   32.0449982        -1.39484641E-07
   32.1599998        -1.49831621E-07
   32.2750015        -1.60309781E-07
   32.3899994        -1.70915897E-07
   32.5050011        -1.81647124E-07
   32.6199989        -1.92501346E-07
   32.7350006        -2.03476802E-07
   32.8499985        -2.14572268E-07
   32.9650002        -2.25786849E-07
   33.0800018        -2.37119750E-07
   33.1949997        -2.48570188E-07
   33.3100014        -2.60137057E-07
   33.4249992        -2.71818834E-07
   33.5400009        -2.83613218E-07
   33.6549988        -2.95516998E-07
   33.7700005        -3.07525738E-07
   33.8849983        -3.19633870E-07
   34.0000000        -3.31834315E-07
   34.1150017        -3.44118405E-07
   34.2299995        -3.56476164E-07
   34.3450012        -3.68895911E-07
   34.4599991        -3.81364771E-07
   34.5750008        -3.93868447E-07
   34.6899986        -4.06391621E-07
   34.8050003        -4.18918148E-07
   34.9199982        -4.31431374E-07
   35.0349998        -4.43914331E-07
   35.1500015        -4.56350278E-07
   35.2649994        -4.68722959E-07
   35.3800011        -4.81016798E-07
   35.4949989        -4.93217158E-07
   35.6100006        -5.05310766E-07
   35.7249985        -5.17285571E-07
   35.8400002        -5.29130944E-07
   35.9550018        -5.40837789E-07
   36.0699997        -5.52398376E-07
   36.1850014        -5.63805997E-07
   36.2999992        -5.75055310E-07
   36.4150009        -5.86141596E-07
   36.5299988        -5.97060989E-07
   36.6450005        -6.07809625E-07
   36.7599983        -6.18383581E-07
   36.8750000        -6.28778423E-07
   36.9900017        -6.38988695E-07
   37.1049995        -6.49008030E-07
   37.2200012        -6.58827844E-07
   37.3349991        -6.68438076E-07
   37.4500008        -6.77826392E-07
   37.5649986        -6.86978296E-07
   37.6800003        -6.95876736E-07
   37.7949982        -7.04502440E-07
   37.9099998        -7.12834037E-07
   38.0250015        -7.20848050E-07
   38.1399994        -7.28519410E-07
   38.2550011        -7.35821345E-07
   38.3699989        -7.42726627E-07
   38.4850006        -7.49206947E-07
   38.5999985        -7.55234225E-07
   38.7150002        -7.60780893E-07
   38.8300018        -7.65820346E-07
   38.9449997        -7.70327347E-07
   39.0600014        -7.74278590E-07
   39.1749992        -7.77652929E-07
   39.2900009        -7.80431947E-07
   39.4049988        -7.82599727E-07
   39.5200005        -7.84143197E-07
   39.6349983        -7.85052009E-07
   39.7500000        -7.85318662E-07
   39.8650017        -7.84937981E-07
   39.9799995        -7.83907240E-07
   40.0950012        -7.82225982E-07
   40.2099991        -7.79895117E-07
   40.3250008        -7.76917375E-07
   40.4399986        -7.73296335E-07
   40.5550003        -7.69036774E-07
   40.6699982        -7.64144204E-07
   40.7849998        -7.58624424E-07
   40.9000015        -7.52483970E-07
   41.0149994        -7.45729778E-07
   41.1300011        -7.38369181E-07
   41.2449989        -7.30409909E-07
   41.3600006        -7.21860602E-07
   41.4749985        -7.12730468E-07
   41.5900002        -7.03029741E-07
   41.7050018        -6.92769788E-07
   41.8199997        -6.81963058E-07
   41.9350014        -6.70623251E-07
   42.0499992        -6.58765146E-07
   42.1650009        -6.46404601E-07
   42.2799988        -6.33558273E-07
   42.3950005        -6.20243100E-07
   42.5099983        -6.06476419E-07
   42.6250000        -5.92275114E-07
   42.7400017        -5.77655442E-07
   42.8549995        -5.62632977E-07
   42.9700012        -5.47221475E-07
   43.0849991        -5.31433272E-07
   43.2000008        -5.15278884E-07
   43.3149986        -4.98766781E-07
   43.4300003        -4.81902873E-07
   43.5449982        -4.64691738E-07
   43.6599998        -4.47135932E-07
   43.7750015        -4.29236735E-07
   43.8899994        -4.10994772E-07
   44.0050011        -3.92410783E-07
   44.1199989        -3.73485562E-07
   44.2350006        -3.54221527E-07
   44.3499985        -3.34622996E-07
   44.4650002        -3.14696535E-07
   44.5800018        -2.94452235E-07
   44.6949997        -2.73903510E-07
   44.8100014        -2.53067554E-07
   44.9249992        -2.31965799E-07
   45.0400009        -2.10623909E-07
   45.1549988        -1.89071372E-07
   45.2700005        -1.67341696E-07
   45.3849983        -1.45471873E-07
   45.5000000        -1.23501650E-07
   45.6150017        -1.01473091E-07
   45.7299995        -7.94298245E-08
   45.8450012        -5.74162939E-08
   45.9599991        -3.54773810E-08
   46.0750008        -1.36571767E-08
   46.1899986         8.00135158E-09
   46.3050003         2.94565545E-08
   46.4199982         5.06690512E-08
   46.5349998         7.16011996E-08
   46.6500015         9.22181940E-08
   46.7649994         1.12487008E-07
   46.8800011         1.32377295E-07
   46.9949989         1.51860249E-07
   47.1100006         1.70909047E-07
   47.2249985         1.89498252E-07
   47.3400002         2.07603065E-07
   47.4550018         2.25199727E-07
   47.5699997         2.42264122E-07
   47.6850014         2.58771877E-07
   47.7999992         2.74697783E-07
   47.9150009         2.90014952E-07
   48.0299988         3.04695561E-07
   48.1450005         3.18710107E-07
   48.2599983         3.32026872E-07
   48.3750000         3.44612630E-07
   48.4900017         3.56432338E-07
   48.6049995         3.67449303E-07
   48.7200012         3.77624872E-07
   48.8349991         3.86919169E-07
   48.9500008         3.95290982E-07
   49.0649986         4.02697907E-07
   49.1800003         4.09096998E-07
   49.2949982         4.14445083E-07
   49.4099998         4.18698818E-07
   49.5250015         4.21815514E-07
   49.6399994         4.23752880E-07
   49.7550011         4.24470187E-07
   49.8699989         4.23928583E-07
   49.9850006         4.22091148E-07
   50.0999985         4.18922866E-07
   50.2150002         4.14391934E-07
   50.3300018         4.08469134E-07
   50.4449997         4.01128233E-07
   50.5600014         3.92347346E-07
   50.6749992         3.82106691E-07
   50.7900009         3.70391177E-07
   50.9049988         3.57189265E-07
   51.0200005         3.42493479E-07
   51.1349983         3.26300523E-07
   51.2500000         3.08610709E-07
   51.3650017         2.89428016E-07
   51.4799995         2.68759635E-07
   51.5950012         2.46615571E-07
   51.7099991         2.23008684E-07
   51.8250008         1.97954051E-07
   51.9399986         1.71468955E-07
   52.0550003         1.43572265E-07
   52.1699982         1.14284830E-07
   52.2849998         8.36291605E-08
   52.4000015         5.16287706E-08
   52.5149994         1.83084055E-08
   52.6300011        -1.63049254E-08
   52.7449989        -5.21841308E-08
   52.8600006        -8.93005989E-08
   52.9749985        -1.27623053E-07
   53.0900002        -1.67119438E-07
   53.2050018        -2.07755804E-07
   53.3199997        -2.49494605E-07
   53.4350014        -2.92295567E-07
   53.5499992        -3.36113800E-07
   53.6650009        -3.80901241E-07
   53.7799988        -4.26605311E-07
   53.8950005        -4.73167347E-07
   54.0099983        -5.20523884E-07
   54.1250000        -5.68605401E-07
   54.2400017        -6.17337037E-07
   54.3549995        -6.66637447E-07
   54.4700012        -7.16419265E-07
   54.5849991        -7.66588414E-07
   54.7000008        -8.17044224E-07
   54.8149986        -8.67680569E-07
   54.9300003        -9.18384956E-07
   55.0449982        -9.69038297E-07
   55.1599998        -1.01951741E-06
   55.2750015        -1.06969287E-06
   55.3899994        -1.11943029E-06
   55.5050011        -1.16859155E-06
   55.6199989        -1.21703488E-06
   55.7350006        -1.26461396E-06
   55.8499985        -1.31117986E-06
   55.9650002        -1.35658229E-06
   56.0800018        -1.40066857E-06
   56.1949997        -1.44328476E-06
   56.3100014        -1.48427580E-06
   56.4249992        -1.52348525E-06
   56.5400009        -1.56075521E-06
   56.6549988        -1.59592912E-06
   56.7700005        -1.62884760E-06
   56.8849983        -1.65935205E-06
   57.0000000        -1.68728332E-06
   57.1150017        -1.71248166E-06
   57.2299995        -1.73478668E-06
   57.3450012        -1.75403761E-06
   57.4599991        -1.77007234E-06
   57.5750008        -1.78272660E-06
   57.6899986        -1.79183519E-06
   57.8050003        -1.79723099E-06
   57.9199982        -1.79874519E-06
   58.0349998        -1.79620747E-06
   58.1500015        -1.78944561E-06
   58.2649994        -1.77828622E-06
   58.3800011        -1.76255548E-06
   58.4949989        -1.74207912E-06
   58.6100006        -1.71668307E-06
   58.7249985        -1.68619351E-06
   58.8400002        -1.65043923E-06
   58.9550018        -1.60924992E-06
   59.0699997        -1.56245744E-06
   59.1850014        -1.50989706E-06
   59.2999992        -1.45140734E-06
   59.4150009        -1.38683197E-06
   59.5299988        -1.31601928E-06
   59.6450005        -1.23882353E-06
   59.7599983        -1.15510511E-06
   59.8750000        -1.06473135E-06
   59.9900017        -9.67574692E-07
   60.1049995        -8.63515083E-07
   60.2200012        -7.52438382E-07
   60.3349991        -6.34238177E-07
   60.4500008        -5.08813457E-07
   60.5649986        -3.76070318E-07
   60.6800003        -2.35921817E-07
   60.7949982        -8.82872797E-08
   60.9099998         6.69047964E-08
   61.0250015         2.29719703E-07
   61.1399994         4.00213708E-07
   61.2550011         5.78435049E-07
   61.3699989         7.64425181E-07
   61.4850006         9.58216219E-07
   61.5999985         1.15983096E-06
   61.7150002         1.36928520E-06
   61.8300018         1.58658497E-06
   61.9449997         1.81172891E-06
   62.0600014         2.04470621E-06
   62.1749992         2.28549766E-06
   62.2900009         2.53407438E-06
   62.4049988         2.79040205E-06
   62.5200005         3.05443541E-06
   62.6349983         3.32612376E-06
   62.7500000         3.60540753E-06
   62.8650017         3.89222032E-06
   62.9799995         4.18648870E-06
   63.0950012         4.48813171E-06
   63.2099991         4.79706114E-06
   63.3250008         5.11318149E-06
   63.4399986         5.43638862E-06
   63.5550003         5.76656521E-06
   63.6699982         6.10358575E-06
   63.7849998         6.44731017E-06
   63.9000015         6.79758614E-06
   64.0149994         7.15424494E-06
   64.1299973         7.51710377E-06
   64.2450027         7.88596208E-06
   64.3600006         8.26060204E-06
   64.4749985         8.64078538E-06
   64.5899963         9.02625652E-06
   64.7050018         9.41674080E-06
   64.8199997         9.81193807E-06
   64.9349976         1.02115309E-05
   65.0500031         1.06151783E-05
   65.1650009         1.10225192E-05
   65.2799988         1.14331724E-05
   65.3949966         1.18467424E-05
   65.5100021         1.22628144E-05
   65.6250000         1.26809591E-05
   65.7399979         1.31007355E-05
   65.8550034         1.35216878E-05
   65.9700012         1.39433487E-05
   66.0849991         1.43652414E-05
   66.1999969         1.47868786E-05
   66.3150024         1.52077628E-05
   66.4300003         1.56273927E-05
   66.5449982         1.60452546E-05
   66.6600037         1.64608300E-05
   66.7750015         1.68735951E-05
   66.8899994         1.72830223E-05
   67.0049973         1.76885751E-05
   67.1200027         1.80897132E-05
   67.2350006         1.84858964E-05
   67.3499985         1.88765716E-05
   67.4649963         1.92611878E-05
   67.5800018         1.96391829E-05
   67.6949997         2.00099948E-05
   67.8099976         2.03730560E-05
   67.9250031         2.07277953E-05
   68.0400009         2.10736343E-05
   68.1549988         2.14099982E-05
   68.2699966         2.17363049E-05
   68.3850021         2.20519760E-05
   68.5000000         2.23564275E-05
   68.6149979         2.26490793E-05
   68.7300034         2.29293473E-05
   68.8450012         2.31966515E-05
   68.9599991         2.34504059E-05
   69.0749969         2.36900323E-05
   69.1900024         2.39149504E-05
   69.3050003         2.41245871E-05
   69.4199982         2.43183713E-05
   69.5350037         2.44957391E-05
   69.6500015         2.46561376E-05
   69.7649994         2.47990138E-05
   69.8799973         2.49238310E-05
   69.9950027         2.50300600E-05
   70.1100006         2.51171823E-05
   70.2249985         2.51846886E-05
   70.3399963         2.52320897E-05
   70.4550018         2.52589107E-05
   70.5699997         2.52646896E-05
   70.6849976         2.52489881E-05
   70.8000031         2.52113878E-05
   70.9150009         2.51514903E-05
   71.0299988         2.50689172E-05
   71.1449966         2.49633104E-05
   71.2600021         2.48343385E-05
   71.3750000         2.46816908E-05
   71.4899979         2.45050778E-05
   71.6050034         2.43042359E-05
   71.7200012         2.40789268E-05
   71.8349991         2.38289304E-05
   71.9499969         2.35540519E-05
   72.0650024         2.32541224E-05
   72.1800003         2.29289926E-05
   72.2949982         2.25785370E-05
   72.4100037         2.22026520E-05
   72.5250015         2.18012574E-05
   72.6399994         2.13742951E-05
   72.7549973         2.09217251E-05
   72.8700027         2.04435310E-05
   72.9850006         1.99397145E-05
   73.0999985         1.94103031E-05
   73.2149963         1.88553386E-05
   73.3300018         1.82748918E-05
   73.4449997         1.76690501E-05
   73.5599976         1.70379280E-05
   73.6750031         1.63816549E-05
   73.7900009         1.57003815E-05
   73.9049988         1.49942798E-05
   74.0199966         1.42635390E-05
   74.1350021         1.35083710E-05