  -18.8999996      -0.00000000    
  -18.7849998      -0.00000000    
  -18.6700001      -0.00000000    
  -18.5550003      -1.34128426E-23
  -18.4400005       4.26545516E-23
  -18.3250008       7.27526503E-22
  -18.2099991       3.69890694E-21
  -18.0949993       1.22493792E-20
  -17.9799995       3.11742013E-20
  -17.8649998       6.53608522E-20
  -17.7500000       1.16803887E-19
  -17.6350002       1.80365556E-19
  -17.5200005       2.39341143E-19
  -17.4050007       2.62480900E-19
  -17.2900009       2.04318639E-19
  -17.1749992       1.03168955E-20
  -17.0599995      -3.72533248E-19
  -16.9449997      -9.80276441E-19
  -16.8299999      -1.81374797E-18
  -16.7150002      -2.82084450E-18
  -16.6000004      -3.88356252E-18
  -16.4850006      -4.81440375E-18
  -16.3700008      -5.36630982E-18
  -16.2549992      -5.25893764E-18
  -16.1399994      -4.22185457E-18
  -16.0249996      -2.05223510E-18
  -15.9099998       1.31865825E-18
  -15.7950001       5.75897618E-18
  -15.6800003       1.08806163E-17
  -15.5649996       1.60057678E-17
  -15.4499998       2.01656856E-17
  -15.3350000       2.21385544E-17
  -15.2200003       2.05287368E-17
  -15.1049995       1.38845376E-17
  -14.9899998       8.46633781E-19
  -14.8750000      -1.96847975E-17
  -14.7600002      -4.83789518E-17
  -14.6450005      -8.53150709E-17
  -14.5299997      -1.29850482E-16
  -14.4150000      -1.80529403E-16
  -14.3000002      -2.35042934E-16
  -14.1850004      -2.90245845E-16
  -14.0699997      -3.42230877E-16
  -13.9549999      -3.86455182E-16
  -13.8400002      -4.17908639E-16
  -13.7250004      -4.31309018E-16
  -13.6099997      -4.21307571E-16
  -13.4949999      -3.82688056E-16
  -13.3800001      -3.10544460E-16
  -13.2650003      -2.00428073E-16
  -13.1499996      -4.84579244E-17
  -13.0349998       1.48605326E-16
  -12.9200001       3.93318637E-16
  -12.8050003       6.87543049E-16
  -12.6899996       1.03245132E-15
  -12.5749998       1.42855156E-15
  -12.4600000       1.87572587E-15
  -12.3450003       2.37328446E-15
  -12.2299995       2.92003745E-15
  -12.1149998       3.51439624E-15
  -12.0000000       4.15450475E-15
  -11.8850002       4.83840847E-15
  -11.7700005       5.56426192E-15
  -11.6549997       6.33055992E-15
  -11.5400000       7.13638218E-15
  -11.4250002       7.98161772E-15
  -11.3100004       8.86713730E-15
  -11.1949997       9.79487470E-15
  -11.0799999       1.07677869E-14
  -10.9650002       1.17896610E-14
  -10.8500004       1.28647754E-14
  -10.7349997       1.39974151E-14
  -10.6199999       1.51912835E-14
  -10.5050001       1.64488682E-14
  -10.3900003       1.77708224E-14
  -10.2749996       1.91554604E-14
  -10.1599998       2.05984217E-14
  -10.0450001       2.20925844E-14
  -9.93000031       2.36282619E-14
  -9.81499958       2.51937075E-14
  -9.69999981       2.67759007E-14
  -9.58500004       2.83615532E-14
  -9.47000027       2.99382372E-14
  -9.35499954       3.14955751E-14
  -9.23999977       3.30262923E-14
  -9.12500000       3.45270552E-14
  -9.01000023       3.59990290E-14
  -8.89500046       3.74480110E-14
  -8.77999973       3.88841757E-14
  -8.66499996       4.03214788E-14
  -8.55000019       4.17767085E-14
  -8.43500042       4.32683945E-14
  -8.31999969       4.48156493E-14
  -8.20499992       4.64371109E-14
  -8.09000015       4.81501469E-14
  -7.97499990       4.99703869E-14
  -7.86000013       5.19116983E-14
  -7.74499989       5.39866275E-14
  -7.63000011       5.62071955E-14
  -7.51499987       5.85860977E-14
  -7.40000010       6.11379504E-14
  -7.28499985       6.38806092E-14
  -7.17000008       6.68362799E-14
  -7.05499983       7.00321420E-14
  -6.94000006       7.35005115E-14
  -6.82499981       7.72782513E-14
  -6.71000004       8.14054973E-14
  -6.59499979       8.59236185E-14
  -6.48000002       9.08726016E-14
  -6.36499977       9.62878594E-14
  -6.25000000       1.02196904E-13
  -6.13500023       1.08615956E-13
  -6.01999998       1.15546909E-13
  -5.90500021       1.22974886E-13
  -5.78999996       1.30866753E-13
  -5.67500019       1.39170834E-13
  -5.55999994       1.47817942E-13
  -5.44500017       1.56723836E-13
  -5.32999992       1.65793188E-13
  -5.21500015       1.74924596E-13
  -5.09999990       1.84016607E-13
  -4.98500013       1.92974258E-13
  -4.86999989       2.01715299E-13
  -4.75500011       2.10175857E-13
  -4.63999987       2.18314678E-13
  -4.52500010       2.26115323E-13
  -4.40999985       2.33585910E-13
  -4.29500008       2.40756362E-13
  -4.17999983       2.47672488E-13
  -4.06500006       2.54387792E-13
  -3.95000005       2.60953395E-13
  -3.83500004       2.67406485E-13
  -3.72000003       2.73758853E-13
  -3.60500002       2.79986429E-13
  -3.49000001       2.86020665E-13
  -3.37500000       2.91743084E-13
  -3.25999999       2.96983412E-13
  -3.14499998       3.01521584E-13
  -3.02999997       3.05093326E-13
  -2.91499996       3.07398611E-13
  -2.79999995       3.08111853E-13
  -2.68499994       3.06892451E-13
  -2.56999993       3.03393459E-13
  -2.45499992       2.97267907E-13
  -2.33999991       2.88170150E-13
  -2.22499990       2.75753270E-13
  -2.10999990       2.59660782E-13
  -1.99500000       2.39515032E-13
  -1.88000000       2.14903019E-13
  -1.76499999       1.85362766E-13
  -1.64999998       1.50372295E-13
  -1.53499997       1.09344384E-13
  -1.41999996       6.16303476E-14
  -1.30499995       6.53332394E-15
  -1.19000006      -5.66677036E-14
  -1.07500005      -1.28683061E-13
 -0.959999979      -2.10171005E-13
 -0.845000029      -3.01691831E-13
 -0.730000019      -4.03663919E-13
 -0.615000010      -5.16326240E-13
 -0.500000000      -6.39714410E-13
 -0.384999990      -7.73654686E-13
 -0.270000011      -9.17778440E-13
 -0.155000001      -1.07156211E-12
  -3.99999991E-02  -1.23438542E-12
   7.50000030E-02  -1.40560957E-12
  0.189999998      -1.58466545E-12
  0.305000007      -1.77114031E-12
  0.419999987      -1.96485840E-12
  0.535000026      -2.16593648E-12
  0.649999976      -2.37481063E-12
  0.764999986      -2.59222548E-12
  0.879999995      -2.81918044E-12
  0.995000005      -3.05683712E-12
   1.11000001      -3.30639617E-12
   1.22500002      -3.56895416E-12
   1.34000003      -3.84536673E-12
   1.45500004      -4.13612937E-12
   1.57000005      -4.44131450E-12
   1.68499994      -4.76057518E-12
   1.79999995      -5.09325091E-12
   1.91499996      -5.43857797E-12
   2.02999997      -5.79601298E-12
   2.14499998      -6.16566997E-12
   2.25999999      -6.54883743E-12
   2.37500000      -6.94855718E-12
   2.49000001      -7.37020688E-12
   2.60500002      -7.82203902E-12
   2.72000003      -8.31560168E-12
   2.83500004      -8.86598000E-12
   2.95000005      -9.49180144E-12
   3.06500006      -1.02149235E-11
   3.18000007      -1.10597954E-11
   3.29500008      -1.20524441E-11
   3.41000009      -1.32190977E-11
   3.52500010      -1.45844847E-11
   3.64000010      -1.61698693E-11
   3.75500011      -1.79908814E-11
   3.86999989      -2.00553307E-11
   3.98499990      -2.23610592E-11
   4.09999990      -2.48940365E-11
   4.21500015      -2.76268713E-11
   4.32999992      -3.05178313E-11
   4.44500017      -3.35105589E-11
   4.55999994      -3.65346052E-11
   4.67500019      -3.95068041E-11
   4.78999996      -4.23335290E-11
   4.90500021      -4.49138816E-11
   5.01999998      -4.71436015E-11
   5.13500023      -4.89196877E-11
   5.25000000      -5.01454572E-11
   5.36499977      -5.07358530E-11
   5.48000002      -5.06227525E-11
   5.59499979      -4.97599427E-11
   5.71000004      -4.81275228E-11
   5.82499981      -4.57354536E-11
   5.94000006      -4.26260104E-11
   6.05499983      -3.88749415E-11
   6.17000008      -3.45912639E-11
   6.28499985      -2.99155145E-11
   6.40000010      -2.50167023E-11
   6.51499987      -2.00877839E-11
   6.63000011      -1.53401389E-11
   6.74499989      -1.09970713E-11
   6.86000013      -7.28682826E-12
   6.97499990      -4.43533014E-12
   7.09000015      -2.65910709E-12
   7.20499992      -2.15871960E-12
   7.32000017      -3.11306102E-12
   7.43499994      -5.67481739E-12
   7.55000019      -9.96725619E-12
   7.66499996      -1.60826786E-11
   7.78000021      -2.40823715E-11
   7.89499998      -3.39982278E-11
   8.01000023      -4.58358282E-11
   8.12500000      -5.95790084E-11
   8.23999977      -7.51951973E-11
   8.35499954      -9.26421093E-11
   8.47000027      -1.11874482E-10
   8.58500004      -1.32851202E-10
   8.69999981      -1.55542523E-10
   8.81499958      -1.79936538E-10
   8.93000031      -2.06045486E-10
   9.04500008      -2.33910835E-10
   9.15999985      -2.63607719E-10
   9.27499962      -2.95248131E-10
   9.39000034      -3.28983257E-10
   9.50500011      -3.65004527E-10
   9.61999989      -4.03543754E-10
   9.73499966      -4.44872056E-10
   9.85000038      -4.89298213E-10
   9.96500015      -5.37166145E-10
   10.0799999      -5.88850912E-10
   10.1949997      -6.44755416E-10
   10.3100004      -7.05304926E-10
   10.4250002      -7.70942754E-10
   10.5400000      -8.42124259E-10
   10.6549997      -9.19311405E-10
   10.7700005      -1.00296693E-09
   10.8850002      -1.09354870E-09
   11.0000000      -1.19150456E-09
   11.1149998      -1.29726763E-09
   11.2299995      -1.41125256E-09
   11.3450003      -1.53385282E-09
   11.4600000      -1.66543912E-09
   11.5749998      -1.80636028E-09
   11.6899996      -1.95694616E-09
   11.8050003      -2.11751039E-09
   11.9200001      -2.28835817E-09
   12.0349998      -2.46979504E-09
   12.1499996      -2.66213540E-09
   12.2650003      -2.86571677E-09
   12.3800001      -3.08091175E-09
   12.4949999      -3.30814198E-09
   12.6099997      -3.54789131E-09
   12.7250004      -3.80072107E-09
   12.8400002      -4.06728073E-09
   12.9549999      -4.34831771E-09
   13.0699997      -4.64468730E-09
   13.1850004      -4.95735675E-09
   13.3000002      -5.28740474E-09
   13.4150000      -5.63602320E-09
   13.5299997      -6.00451022E-09
   13.6450005      -6.39426201E-09
   13.7600002      -6.80676315E-09
   13.8750000      -7.24357330E-09
   13.9899998      -7.70631026E-09
   14.1049995      -8.19663892E-09
   14.2200003      -8.71625261E-09
   14.3350000      -9.26686461E-09
   14.4499998      -9.85018911E-09
   14.5649996      -1.04679421E-08
   14.6800003      -1.11218279E-08
   14.7950001      -1.18135368E-08
   14.9099998      -1.25447528E-08
   15.0249996      -1.33171518E-08
   15.1400003      -1.41324143E-08
   15.2550001      -1.49922315E-08
   15.3699999      -1.58983209E-08
   15.4849997      -1.68524394E-08
   15.6000004      -1.78564008E-08
   15.7150002      -1.89120772E-08
   15.8299999      -2.00214227E-08
   15.9449997      -2.11864819E-08
   16.0599995      -2.24093952E-08
   16.1749992      -2.36923974E-08
   16.2900009      -2.50378367E-08
   16.4050007      -2.64481557E-08
   16.5200005      -2.79259034E-08
   16.6350002      -2.94737195E-08
   16.7500000      -3.10943342E-08
   16.8649998      -3.27905632E-08
   16.9799995      -3.45653035E-08
   17.0949993      -3.64215147E-08
   17.2099991      -3.83622236E-08
   17.3250008      -4.03905425E-08
   17.4400005      -4.25096118E-08
   17.5550003      -4.47226682E-08
   17.6700001      -4.70329908E-08
   17.7849998      -4.94439334E-08
   17.8999996      -5.19589136E-08
   18.0149994      -5.45814274E-08
   18.1299992      -5.73150345E-08
   18.2450008      -6.01633516E-08
   18.3600006      -6.31300878E-08
   18.4750004      -6.62189805E-08
   18.5900002      -6.94338311E-08
   18.7049999      -7.27784908E-08
   18.8199997      -7.62567964E-08
   18.9349995      -7.98726347E-08
   19.0499992      -8.36298213E-08
   19.1650009      -8.75322144E-08
   19.2800007      -9.15835585E-08
   19.3950005      -9.57875628E-08
   19.5100002      -1.00147837E-07
   19.6250000      -1.04667919E-07
   19.7399998      -1.09351198E-07
   19.8549995      -1.14201015E-07
   19.9699993      -1.19220530E-07
   20.0849991      -1.24412864E-07
   20.2000008      -1.29780943E-07
   20.3150005      -1.35327625E-07
   20.4300003      -1.41055722E-07
   20.5450001      -1.46967849E-07
   20.6599998      -1.53066551E-07
   20.7749996      -1.59354300E-07
   20.8899994      -1.65833498E-07
   21.0049992      -1.72506347E-07
   21.1200008      -1.79374965E-07
   21.2350006      -1.86441326E-07
   21.3500004      -1.93707280E-07
   21.4650002      -2.01174416E-07
   21.5799999      -2.08844142E-07
   21.6949997      -2.16717623E-07
   21.8099995      -2.24795770E-07
   21.9249992      -2.33079163E-07
   22.0400009      -2.41568017E-07
   22.1550007      -2.50262360E-07
   22.2700005      -2.59161652E-07
   22.3850002      -2.68265126E-07
   22.5000000      -2.77571644E-07
   22.6149998      -2.87079615E-07
   22.7299995      -2.96787107E-07
   22.8449993      -3.06691845E-07
   22.9599991      -3.16791215E-07
   23.0750008      -3.27082290E-07
   23.1900005      -3.37561715E-07
   23.3050003      -3.48225910E-07
   23.4200001      -3.59070896E-07
   23.5349998      -3.70092437E-07
   23.6499996      -3.81285986E-07
   23.7649994      -3.92646655E-07
   23.8799992      -4.04169214E-07
   23.9950008      -4.15847978E-07
   24.1100006      -4.27676923E-07
   24.2250004      -4.39649597E-07
   24.3400002      -4.51759036E-07
   24.4549999      -4.63997878E-07
   24.5699997      -4.76358110E-07
   24.6849995      -4.88831176E-07
   24.7999992      -5.01407953E-07
   24.9150009      -5.14078749E-07
   25.0300007      -5.26833048E-07
   25.1450005      -5.39659936E-07
   25.2600002      -5.52547704E-07
   25.3750000      -5.65484072E-07
   25.4899998      -5.78456024E-07
   25.6049995      -5.91449918E-07
   25.7199993      -6.04451543E-07
   25.8349991      -6.17446062E-07
   25.9500008      -6.30418015E-07
   26.0650005      -6.43351314E-07
   26.1800003      -6.56229304E-07
   26.2950001      -6.69034819E-07
   26.4099998      -6.81750123E-07
   26.5249996      -6.94356743E-07
   26.6399994      -7.06835749E-07
   26.7549992      -7.19167758E-07
   26.8700008      -7.31332477E-07
   26.9850006      -7.43309499E-07
   27.1000004      -7.55077394E-07
   27.2150002      -7.66614505E-07
   27.3299999      -7.77898379E-07
   27.4449997      -7.88906050E-07
   27.5599995      -7.99614213E-07
   27.6749992      -8.09998710E-07
   27.7900009      -8.20035325E-07
   27.9050007      -8.29698706E-07
   28.0200005      -8.38963672E-07
   28.1350002      -8.47804074E-07
   28.2500000      -8.56193651E-07
   28.3649998      -8.64105687E-07
   28.4799995      -8.71512725E-07
   28.5949993      -8.78387425E-07
   28.7099991      -8.84701649E-07
   28.8250008      -8.90426918E-07
   28.9400005      -8.95534754E-07
   29.0550003      -8.99995769E-07
   29.1700001      -9.03780631E-07
   29.2849998      -9.06859668E-07
   29.3999996      -9.09202868E-07
   29.5149994      -9.10779818E-07
   29.6299992      -9.11560164E-07
   29.7450008      -9.11513325E-07
   29.8600006      -9.10608776E-07
   29.9750004      -9.08815650E-07
   30.0900002      -9.06103708E-07
   30.2049999      -9.02442366E-07
   30.3199997      -8.97801840E-07
   30.4349995      -8.92152286E-07
   30.5499992      -8.85464544E-07
   30.6650009      -8.77709795E-07
   30.7800007      -8.68859900E-07
   30.8950005      -8.58887176E-07
   31.0100002      -8.47764795E-07
   31.1250000      -8.35466381E-07
   31.2399998      -8.21966182E-07
   31.3549995      -8.07239303E-07
   31.4699993      -7.91261186E-07
   31.5849991      -7.74008072E-07
   31.7000008      -7.55456597E-07
   31.8150005      -7.35583853E-07
   31.9300003      -7.14367559E-07
   32.0449982      -6.91785715E-07
   32.1599998      -6.67816778E-07
   32.2750015      -6.42439772E-07
   32.3899994      -6.15634065E-07
   32.5050011      -5.87379418E-07
   32.6199989      -5.57656222E-07
   32.7350006      -5.26445604E-07
   32.8499985      -4.93729146E-07
   32.9650002      -4.59489314E-07
   33.0800018      -4.23709281E-07
   33.1949997      -3.86373358E-07
   33.3100014      -3.47466795E-07
   33.4249992      -3.06975835E-07
   33.5400009      -2.64888001E-07
   33.6549988      -2.21191954E-07
   33.7700005      -1.75877531E-07
   33.8849983      -1.28935952E-07
   34.0000000      -8.03595697E-08
   34.1150017      -3.01420293E-08
   34.2299995       2.17217906E-08
   34.3450012       7.52357181E-08
   34.4599991       1.30402441E-07
   34.5750008       1.87223321E-07
   34.6899986       2.45698573E-07
   34.8050003       3.05827172E-07
   34.9199982       3.67606816E-07
   35.0349998       4.31033840E-07
   35.1500015       4.96103155E-07
   35.2649994       5.62808282E-07
   35.3800011       6.31141120E-07
   35.4949989       7.01092006E-07
   35.6100006       7.72649400E-07
   35.7249985       8.45799889E-07
   35.8400002       9.20528123E-07
   35.9550018       9.96816539E-07
   36.0699997       1.07464575E-06
   36.1850014       1.15399382E-06
   36.2999992       1.23483687E-06
   36.4150009       1.31714819E-06
   36.5299988       1.40089924E-06
   36.6450005       1.48605909E-06
   36.7599983       1.57259399E-06
   36.8750000       1.66046834E-06
   36.9900017       1.74964407E-06
   37.1049995       1.84008070E-06
   37.2200012       1.93173514E-06
   37.3349991       2.02456295E-06
   37.4500008       2.11851579E-06
   37.5649986       2.21354389E-06
   37.6800003       2.30959449E-06
   37.7949982       2.40661325E-06
   37.9099998       2.50454241E-06
   38.0250015       2.60332149E-06
   38.1399994       2.70288797E-06
   38.2550011       2.80317613E-06
   38.3699989       2.90411776E-06
   38.4850006       3.00564125E-06
   38.5999985       3.10767314E-06
   38.7150002       3.21013613E-06
   38.8300018       3.31295041E-06
   38.9449997       3.41603391E-06
   39.0600014       3.51930157E-06
   39.1749992       3.62266474E-06
   39.2900009       3.72603290E-06
   39.4049988       3.82931239E-06
   39.5200005       3.93240725E-06
   39.6349983       4.03521835E-06
   39.7500000       4.13764428E-06
   39.8650017       4.23958090E-06
   39.9799995       4.34092090E-06
   40.0950012       4.44155376E-06
   40.2099991       4.54136898E-06
   40.3250008       4.64024924E-06
   40.4399986       4.73807677E-06
   40.5550003       4.83473013E-06
   40.6699982       4.93008474E-06
   40.7849998       5.02401417E-06
   40.9000015       5.11638609E-06
   41.0149994       5.20706726E-06
   41.1300011       5.29592216E-06
   41.2449989       5.38280892E-06
   41.3600006       5.46758656E-06
   41.4749985       5.55010683E-06
   41.5900002       5.63022286E-06
   41.7050018       5.70778184E-06
   41.8199997       5.78263052E-06
   41.9350014       5.85461248E-06
   42.0499992       5.92356901E-06
   42.1650009       5.98933775E-06
   42.2799988       6.05175592E-06
   42.3950005       6.11065798E-06
   42.5099983       6.16587749E-06
   42.6250000       6.21724439E-06
   42.7400017       6.26458859E-06
   42.8549995       6.30773820E-06
   42.9700012       6.34651815E-06
   43.0849991       6.38075380E-06
   43.2000008       6.41026872E-06
   43.3149986       6.43488602E-06
   43.4300003       6.45442606E-06
   43.5449982       6.46871058E-06
   43.6599998       6.47755905E-06
   43.7750015       6.48079140E-06
   43.8899994       6.47822799E-06
   44.0050011       6.46968783E-06
   44.1199989       6.45499176E-06
   44.2350006       6.43396106E-06
   44.3499985       6.40641792E-06
   44.4650002       6.37218591E-06
   44.5800018       6.33109084E-06
   44.6949997       6.28295811E-06
   44.8100014       6.22761945E-06
   44.9249992       6.16490479E-06
   45.0400009       6.09465042E-06
   45.1549988       6.01669262E-06
   45.2700005       5.93087407E-06
   45.3849983       5.83703968E-06
   45.5000000       5.73503712E-06
   45.6150017       5.62472087E-06
   45.7299995       5.50594905E-06
   45.8450012       5.37858477E-06
   45.9599991       5.24249663E-06
   46.0750008       5.09756001E-06
   46.1899986       4.94365622E-06
   46.3050003       4.78067341E-06
   46.4199982       4.60850742E-06
   46.5349998       4.42706232E-06
   46.6500015       4.23624851E-06
   46.7649994       4.03598824E-06
   46.8800011       3.82621056E-06
   46.9949989       3.60685590E-06
   47.1100006       3.37787401E-06
   47.2249985       3.13922556E-06
   47.3400002       2.89088166E-06
   47.4550018       2.63282459E-06
   47.5699997       2.36504911E-06
   47.6850014       2.08756001E-06
   47.7999992       1.80037614E-06
   47.9150009       1.50352673E-06
   48.0299988       1.19705533E-06
   48.1450005       8.81016774E-07
   48.2599983       5.55480028E-07
   48.3750000       2.20527653E-07
   48.4900017      -1.23744243E-07
   48.6049995      -4.77225228E-07
   48.7200012      -8.39790403E-07
   48.8349991      -1.21129949E-06
   48.9500008      -1.59159686E-06
   49.0649986      -1.98051089E-06
   49.1800003      -2.37785321E-06
   49.2949982      -2.78341986E-06
   49.4099998      -3.19698756E-06
   49.5250015      -3.61831894E-06
   49.6399994      -4.04715502E-06
   49.7550011      -4.48322135E-06
   49.8699989      -4.92622576E-06
   49.9850006      -5.37585629E-06
   50.0999985      -5.83178326E-06
   50.2150002      -6.29366014E-06
   50.3300018      -6.76112086E-06
   50.4449997      -7.23378344E-06
   50.5600014      -7.71124542E-06
   50.6749992      -8.19309207E-06
   50.7900009      -8.67888502E-06
   50.9049988      -9.16817589E-06
   51.0200005      -9.66049447E-06
   51.1349983      -1.01553569E-05
   51.2500000      -1.06522639E-05
   51.3650017      -1.11506988E-05
   51.4799995      -1.16501333E-05
   51.5950012      -1.21500207E-05
   51.7099991      -1.26497989E-05
   51.8250008      -1.31488978E-05
   51.9399986      -1.36467270E-05
   52.0550003      -1.41426872E-05
   52.1699982      -1.46361617E-05
   52.2849998      -1.51265267E-05
   52.4000015      -1.56131446E-05
   52.5149994      -1.60953659E-05
   52.6300011      -1.65725342E-05
   52.7449989      -1.70439780E-05
   52.8600006      -1.75090245E-05
   52.9749985      -1.79669878E-05
   53.0900002      -1.84171749E-05
   53.2050018      -1.88588929E-05
   53.3199997      -1.92914413E-05
   53.4350014      -1.97141162E-05
   53.5499992      -2.01262046E-05
   53.6650009      -2.05270007E-05
   53.7799988      -2.09157988E-05
   53.8950005      -2.12918840E-05
   54.0099983      -2.16545468E-05
   54.1250000      -2.20030906E-05
   54.2400017      -2.23368006E-05
   54.3549995      -2.26549855E-05
   54.4700012      -2.29569469E-05
   54.5849991      -2.32419989E-05
   54.7000008      -2.35094612E-05
   54.8149986      -2.37586573E-05
   54.9300003      -2.39889268E-05
   55.0449982      -2.41996167E-05
   55.1599998      -2.43900759E-05
   55.2750015      -2.45596821E-05
   55.3899994      -2.47078115E-05
   55.5050011      -2.48338656E-05
   55.6199989      -2.49372551E-05
   55.7350006      -2.50174089E-05
   55.8499985      -2.50737721E-05
   55.9650002      -2.51058100E-05
   56.0800018      -2.51130095E-05
   56.1949997      -2.50948760E-05
   56.3100014      -2.50509365E-05
   56.4249992      -2.49807381E-05
   56.5400009      -2.48838569E-05
   56.6549988      -2.47598946E-05
   56.7700005      -2.46084674E-05
   56.8849983      -2.44292314E-05
   57.0000000      -2.42218666E-05
   57.1150017      -2.39860710E-05
   57.2299995      -2.37215881E-05
   57.3450012      -2.34281797E-05
   57.4599991      -2.31056438E-05
   57.5750008      -2.27538094E-05
   57.6899986      -2.23725365E-05
   57.8050003      -2.19617250E-05
   57.9199982      -2.15213022E-05
   58.0349998      -2.10512353E-05
   58.1500015      -2.05515316E-05
   58.2649994      -2.00222239E-05
   58.3800011      -1.94633885E-05
   58.4949989      -1.88751455E-05
   58.6100006      -1.82576496E-05
   58.7249985      -1.76110862E-05
   58.8400002      -1.69356899E-05
   58.9550018      -1.62317338E-05
   59.0699997      -1.54995196E-05
   59.1850014      -1.47394021E-05
   59.2999992      -1.39517633E-05
   59.4150009      -1.31370316E-05
   59.5299988      -1.22956699E-05
   59.6450005      -1.14281820E-05
   59.7599983      -1.05351064E-05
   59.8750000      -9.61702335E-06
   59.9900017      -8.67454582E-06
   60.1049995      -7.70832867E-06
   60.2200012      -6.71905809E-06
   60.3349991      -5.70746124E-06
   60.4500008      -4.67429845E-06
   60.5649986      -3.62036644E-06
   60.6800003      -2.54649581E-06
   60.7949982      -1.45355079E-06
   60.9099998      -3.42429018E-07
   61.0250015       7.85939676E-07
   61.1399994       1.93059395E-06
   61.2550011       3.09054303E-06
   61.3699989       4.26476618E-06
   61.4850006       5.45221565E-06
   61.5999985       6.65181688E-06
   61.7150002       7.86246892E-06
   61.8300018       9.08304901E-06
   61.9449997       1.03124103E-05
   62.0600014       1.15493822E-05
   62.1749992       1.27927779E-05
   62.2900009       1.40413858E-05
   62.4049988       1.52939865E-05
   62.5200005       1.65493329E-05
   62.6349983       1.78061655E-05
   62.7500000       1.90632145E-05
   62.8650017       2.03191939E-05
   62.9799995       2.15728032E-05
   63.0950012       2.28227400E-05
   63.2099991       2.40676818E-05
   63.3250008       2.53063063E-05
   63.4399986       2.65372801E-05
   63.5550003       2.77592662E-05
   63.6699982       2.89709224E-05
   63.7849998       3.01709133E-05
   63.9000015       3.13578857E-05
   64.0149994       3.25305082E-05
   64.1299973       3.36874327E-05
   64.2450027       3.48273352E-05
   64.3600006       3.59488877E-05
   64.4749985       3.70507660E-05
   64.5899963       3.81316640E-05
   64.7050018       3.91902831E-05
   64.8199997       4.02253390E-05
   64.9349976       4.12355621E-05
   65.0500031       4.22196936E-05
   65.1650009       4.31765038E-05
   65.2799988       4.41047559E-05
   65.3949966       4.50032639E-05
   65.5100021       4.58708346E-05
   65.6250000       4.67063219E-05
   65.7399979       4.75085762E-05
   65.8550034       4.82764990E-05
   65.9700012       4.90089988E-05
   66.0849991       4.97050132E-05
   66.1999969       5.03635274E-05
   66.3150024       5.09835336E-05
   66.4300003       5.15640641E-05
   66.5449982       5.21041948E-05
   66.6600037       5.26030235E-05
   66.7750015       5.30596953E-05
   66.8899994       5.34733772E-05
   67.0049973       5.38432978E-05
   67.1200027       5.41687150E-05
   67.2350006       5.44489194E-05
   67.3499985       5.46832562E-05
   67.4649963       5.48711178E-05
   67.5800018       5.50119221E-05
   67.6949997       5.51051562E-05
   67.8099976       5.51503326E-05
   67.9250031       5.51470221E-05
   68.0400009       5.50948280E-05
   68.1549988       5.49934157E-05
   68.2699966       5.48424905E-05
   68.3850021       5.46418123E-05
   68.5000000       5.43911738E-05
   68.6149979       5.40904293E-05
   68.7300034       5.37394844E-05
   68.8450012       5.33382808E-05
   68.9599991       5.28868222E-05
   69.0749969       5.23851631E-05
   69.1900024       5.18333945E-05
   69.3050003       5.12316765E-05
   69.4199982       5.05802163E-05
   69.5350037       4.98792688E-05
   69.6500015       4.91291539E-05
   69.7649994       4.83302356E-05
   69.8799973       4.74829358E-05
   69.9950027       4.65877274E-05
   70.1100006       4.56451417E-05
   70.2249985       4.46557606E-05
   70.3399963       4.36202208E-05
   70.4550018       4.25392136E-05
   70.5699997       4.14134847E-05
   70.6849976       4.02438236E-05
   70.8000031       3.90310779E-05
   70.9150009       3.77761608E-05
   71.0299988       3.64799998E-05
   71.1449966       3.51436174E-05
   71.2600021       3.37680540E-05
   71.3750000       3.23544082E-05
   71.4899979       3.09038260E-05
   71.6050034       2.94175006E-05
   71.7200012       2.78966691E-05
   71.8349991       2.63426173E-05
   71.9499969       2.47566732E-05
   72.0650024       2.31402009E-05
   72.1800003       2.14946122E-05
   72.2949982       1.98213584E-05
   72.4100037       1.81219202E-05
   72.5250015       1.63978293E-05
   72.6399994       1.46506318E-05
   72.7549973       1.28819238E-05
   72.8700027       1.10933197E-05
   72.9850006       9.28647023E-06
   73.0999985       7.46304886E-06
   73.2149963       5.62475770E-06
   73.3300018       3.77332162E-06
   73.4449997       1.91047889E-06
   73.5599976       3.79932743E-08
   73.6750031      -1.84235034E-06
   73.7900009      -3.72875888E-06
   73.9049988      -5.61942352E-06
   74.0199966      -7.51252173E-06
   74.1350021      -9.40622704E-06
   74.2500000      -1.12986927E-05
   74.3649979      -1.31880797E-05
   74.4800034      -1.50725364E-05
   74.5950012      -1.69502109E-05
   74.7099991      -1.88192480E-05
   74.8249969      -2.06777986E-05
   74.9400024      -2.25240165E-05
   75.0550003      -2.43560607E-05
   75.1699982      -2.61721070E-05
   75.2850037      -2.79703308E-05
   75.4000015      -2.97489223E-05
   75.5149994      -3.15060970E-05
   75.6299973      -3.32400850E-05
   75.7450027      -3.49491347E-05
   75.8600006      -3.66315144E-05
   75.9749985      -3.82855214E-05
   76.0899963      -3.99094824E-05
   76.2050018      -4.15017494E-05
   76.3199997      -4.30607033E-05
   76.4349976      -4.45847691E-05
   76.5500031      -4.60723895E-05
   76.6650009      -4.75220550E-05
   76.7799988      -4.89322883E-05
   76.8949966      -5.03016745E-05
   77.0100021      -5.16288055E-05
   77.1250000      -5.29123427E-05
   77.2399979      -5.41509835E-05
   77.3550034      -5.53434838E-05
   77.4700012      -5.64886323E-05
   77.5849991      -5.75852901E-05
   77.6999969      -5.86323586E-05
   77.8150024      -5.96288082E-05
   77.9300003      -6.05736459E-05
   78.0449982      -6.14659511E-05
   78.1600037      -6.23048836E-05
   78.2750015      -6.30896247E-05
   78.3899994      -6.38194615E-05
   78.5049973      -6.44937245E-05
   78.6200027      -6.51118171E-05
   78.7350006      -6.56732154E-05
   78.8499985      -6.61774393E-05
   78.9649963      -6.66241322E-05
   79.0800018      -6.70129521E-05
   79.1949997      -6.73436662E-05
   79.3099976      -6.76160926E-05
   79.4250031      -6.78301149E-05
   79.5400009      -6.79857403E-05