  -1.50000000       0.00000000    
  -1.35000002       0.00000000    
  -1.20000005       0.00000000    
  -1.04999995       3.49233992E-26
 -0.899999976       3.22811004E-25
 -0.750000000       1.73356207E-24
 -0.600000024       7.05553328E-24
 -0.449999988       2.40233579E-23
 -0.300000012       7.18076795E-23
 -0.150000006       1.93578514E-22
  -5.55111512E-17   4.78602896E-22
  0.150000006       1.09778782E-21
  0.300000012       2.35639422E-21
  0.449999988       4.76691949E-21
  0.600000024       9.14444209E-21
  0.750000000       1.67268877E-20
  0.899999976       2.93245415E-20
   1.04999995       4.95067629E-20
   1.20000005       8.08386035E-20
   1.35000002       1.28183966E-19
   1.50000000       1.98092295E-19
   1.64999998       2.99279607E-19
   1.79999995       4.43199288E-19
   1.95000005       6.44673188E-19
   2.09999990       9.22517831E-19
   2.25000000       1.30006116E-18
   2.40000010       1.80540378E-18
   2.54999995       2.47123992E-18
   2.70000005       3.33403521E-18
   2.84999990       4.43234598E-18
   3.00000000       5.80408069E-18
   3.15000010       7.48255092E-18
   3.29999995       9.49120931E-18
   3.45000005       1.18370563E-17
   3.59999990       1.45027972E-17
   3.75000000       1.74379219E-17
   3.90000010       2.05490094E-17
   4.05000019       2.36895991E-17
   4.19999981       2.66501745E-17
   4.34999990       2.91487827E-17
   4.50000000       3.08230260E-17
   4.65000010       3.12242086E-17
   4.80000019       2.98145539E-17
   4.94999981       2.59685082E-17
   5.09999990       1.89794027E-17
   5.25000000       8.07237867E-18
   5.40000010      -7.57501813E-18
   5.55000019      -2.88039311E-17
   5.69999981      -5.64361906E-17
   5.84999990      -9.12274403E-17
   6.00000000      -1.33812094E-16
   6.15000010      -1.84641748E-16
   6.30000019      -2.43919945E-16
   6.44999981      -3.11536230E-16
   6.59999990      -3.87005039E-16
   6.75000000      -4.69413483E-16
   6.90000010      -5.57383043E-16
   7.05000019      -6.49050007E-16
   7.19999981      -7.42067724E-16
   7.34999990      -8.33631086E-16
   7.50000000      -9.20522585E-16
   7.65000010      -9.99173088E-16
   7.80000019      -1.06573167E-15
   7.94999981      -1.11612833E-15
   8.10000038      -1.14612028E-15
   8.25000000      -1.15130433E-15
   8.39999962      -1.12708554E-15
   8.55000019      -1.06859411E-15
   8.69999981      -9.70556715E-16
   8.85000038      -8.27132438E-16
   9.00000000      -6.31745865E-16
   9.14999962      -3.76955787E-16
   9.30000019      -5.44125462E-17
   9.44999981       3.45041095E-16
   9.60000038       8.31075799E-16
   9.75000000       1.41335272E-15
   9.89999962       2.10076898E-15
   10.0500002       2.90050085E-15
   10.1999998       3.81692867E-15
   10.3500004       4.85055958E-15
   10.5000000       5.99711185E-15
   10.6499996       7.24694031E-15
   10.8000002       8.58495590E-15
   10.9499998       9.99117882E-15
   11.1000004       1.14419574E-14
   11.2500000       1.29117823E-14
   11.3999996       1.43755213E-14
   11.5500002       1.58107373E-14
   11.6999998       1.71996732E-14
   11.8500004       1.85304178E-14
   12.0000000       1.97967897E-14
   12.1499996       2.09965593E-14
   12.3000002       2.21278396E-14
   12.4499998       2.31836526E-14
   12.6000004       2.41450926E-14
   12.7500000       2.49736822E-14
   12.8999996       2.56038155E-14
   13.0500002       2.59363606E-14
   13.1999998       2.58344016E-14
   13.3500004       2.51220655E-14
   13.5000000       2.35869589E-14
   13.6499996       2.09864491E-14
   13.8000002       1.70574275E-14
   13.9499998       1.15288994E-14
   14.1000004       4.13632234E-15
   14.2500000      -5.36347403E-15
   14.3999996      -1.71778248E-14
   14.5500002      -3.14650886E-14
   14.6999998      -4.83230264E-14
   14.8500004      -6.77787701E-14
   15.0000000      -8.97798003E-14
   15.1499996      -1.14185273E-13
   15.3000002      -1.40757523E-13
   15.4499998      -1.69153767E-13
   15.6000004      -1.98918884E-13
   15.7500000      -2.29481581E-13
   15.8999996      -2.60155938E-13
   16.0499992      -2.90151502E-13
   16.2000008      -3.18593838E-13
   16.3500004      -3.44555845E-13
   16.5000000      -3.67098143E-13
   16.6499996      -3.85312279E-13
   16.7999992      -3.98358538E-13
   16.9500008      -4.05485541E-13
   17.1000004      -4.06018968E-13
   17.2500000      -3.99306212E-13
   17.3999996      -3.84609093E-13
   17.5499992      -3.60943670E-13
   17.7000008      -3.26876736E-13
   17.8500004      -2.80302555E-13
   18.0000000      -2.18235762E-13
   18.1499996      -1.36669457E-13
   18.2999992      -3.05543283E-14
   18.4500008       1.06043870E-13
   18.6000004       2.79558820E-13
   18.7500000       4.96280805E-13
   18.8999996       7.61452912E-13
   19.0499992       1.07814170E-12
   19.2000008       1.44595837E-12
   19.3500004       1.85974933E-12
   19.5000000       2.30841171E-12
   19.6499996       2.77401257E-12
   19.7999992       3.23139822E-12
   19.9500008       3.64846217E-12
   20.1000004       3.98720466E-12
   20.2500000       4.20564321E-12
   20.3999996       4.26055632E-12
   20.5499992       4.11094769E-12
   20.7000008       3.72200101E-12
   20.8500004       3.06923237E-12
   21.0000000       2.14244659E-12
   21.1499996       9.49087814E-13
   21.2999992      -4.83428293E-13
   21.4500008      -2.10676723E-12
   21.6000004      -3.85238412E-12
   21.7500000      -5.63401539E-12
   21.8999996      -7.35193503E-12
   22.0499992      -8.89876280E-12
   22.2000008      -1.01664519E-11
   22.3500004      -1.10539416E-11
   22.5000000      -1.14748471E-11
   22.6499996      -1.13645282E-11
   22.7999992      -1.06858957E-11
   22.9500008      -9.43341152E-12
   23.1000004      -7.63488404E-12
   23.2500000      -5.35087426E-12
   23.3999996      -2.67175626E-12
   23.5499992       2.87312600E-13
   23.7000008       3.39301525E-12
   23.8500004       6.50147948E-12
   24.0000000       9.46613881E-12
   24.1499996       1.21451443E-11
   24.2999992       1.44077007E-11
   24.4500008       1.61388836E-11
   24.6000004       1.72427021E-11
   24.7500000       1.76434752E-11
   24.8999996       1.72858151E-11
   25.0499992       1.61337558E-11
   25.2000008       1.41697288E-11
   25.3500004       1.13941322E-11
   25.5000000       7.82614425E-12
   25.6499996       3.50630831E-12
   25.7999992      -1.49897130E-12
   25.9500008      -7.09119742E-12
   26.1000004      -1.31324751E-11
   26.2500000      -1.94381646E-11
   26.3999996      -2.57709097E-11
   26.5499992      -3.18376575E-11
   26.7000008      -3.72913263E-11
   26.8500004      -4.17386230E-11
   27.0000000      -4.47550642E-11
   27.1499996      -4.59077047E-11
   27.2999992      -4.47852172E-11
   27.4500008      -4.10340859E-11
   27.6000004      -3.43986784E-11
   27.7500000      -2.47622530E-11
   27.8999996      -1.21849223E-11
   28.0499992       3.06539798E-12
   28.2000008       2.04934802E-11
   28.3500004       3.93725018E-11
   28.5000000       5.87581303E-11
   28.6499996       7.75228076E-11
   28.7999992       9.44105211E-11
   28.9500008       1.08110444E-10
   29.1000004       1.17346063E-10
   29.2500000       1.20974231E-10
   29.3999996       1.18087415E-10
   29.5499992       1.08110791E-10
   29.7000008       9.08856115E-11
   29.8500004       6.67302880E-11
   30.0000000       3.64715445E-11
   30.1499996       1.43975153E-12
   30.2999992      -3.65749583E-11
   30.4500008      -7.54063964E-11
   30.6000004      -1.12632979E-10
   30.7500000      -1.45729234E-10
   30.8999996      -1.72238779E-10
   31.0499992      -1.89956911E-10
   31.2000008      -1.97109051E-10
   31.3500004      -1.92510438E-10
   31.5000000      -1.75693113E-10
   31.6499996      -1.46987755E-10
   31.7999992      -1.07550600E-10
   31.9500008      -5.93301172E-11
   32.0999985      -4.97200588E-12
   32.2500000       5.23331378E-11
   32.4000015       1.09050637E-10
   32.5499992       1.61537408E-10
   32.7000008       2.06295300E-10
   32.8499985       2.40222564E-10
   33.0000000       2.60843125E-10
   33.1500015       2.66494521E-10
   33.2999992       2.56457883E-10
   33.4500008       2.31017983E-10
   33.5999985       1.91446678E-10
   33.7500000       1.39909875E-10
   33.9000015       7.93047919E-11
   34.0499992       1.30405287E-11
   34.2000008      -5.52194297E-11
   34.3499985      -1.21830324E-10
   34.5000000      -1.83430549E-10
   34.6500015      -2.37173559E-10
   34.7999992      -2.80905493E-10
   34.9500008      -3.13272963E-10
   35.0999985      -3.33749972E-10
   35.2500000      -3.42583295E-10
   35.4000015      -3.40661638E-10
   35.5499992      -3.29323541E-10
   35.7000008      -3.10124953E-10
   35.8499985      -2.84592655E-10
   36.0000000      -2.53991883E-10
   36.1500015      -2.19136445E-10
   36.2999992      -1.80265927E-10
   36.4500008      -1.37008072E-10
   36.5999985      -8.84369036E-11
   36.7500000      -3.32261059E-11
   36.9000015       3.01124438E-11
   37.0499992       1.02925911E-10
   37.2000008       1.86082358E-10
   37.3499985       2.79632401E-10
   37.5000000       3.82508969E-10
   37.6500015       4.92301977E-10
   37.7999992       6.05140271E-10
   37.9500008       7.15706328E-10
   38.0999985       8.17395429E-10
   38.2500000       9.02621200E-10
   38.4000015       9.63253477E-10
   38.5499992       9.91161264E-10
   38.7000008       9.78823800E-10
   38.8499985       9.19960941E-10
   39.0000000       8.10132350E-10
   39.1500015       6.47252696E-10
   39.2999992       4.31973707E-10
   39.4500008       1.67895156E-10
   39.5999985      -1.38424536E-10
   39.7500000      -4.77669571E-10
   39.9000015      -8.38175584E-10
   40.0499992      -1.20652577E-09
   40.2000008      -1.56829649E-09
   40.3499985      -1.90890415E-09
   40.5000000      -2.21449259E-09
   40.6500015      -2.47279885E-09
   40.7999992      -2.67393374E-09
   40.9500008      -2.81101720E-09
   41.0999985      -2.88062263E-09
   41.2500000      -2.88299384E-09
   41.4000015      -2.82201795E-09
   41.5499992      -2.70495448E-09
   41.7000008      -2.54194132E-09
   41.8499985      -2.34530928E-09
   42.0000000      -2.12876361E-09
   42.1500015      -1.90648586E-09
   42.2999992      -1.69222769E-09
   42.4500008      -1.49846247E-09
   42.5999985      -1.33565747E-09
   42.7500000      -1.21171784E-09
   42.9000015      -1.13164245E-09
   43.0499992      -1.09740805E-09
   43.2000008      -1.10808784E-09
   43.3499985      -1.16018195E-09
   43.5000000      -1.24812616E-09
   43.6500015      -1.36492584E-09
   43.7999992      -1.50285784E-09
   43.9500008      -1.65417080E-09
   44.0999985      -1.81172022E-09
   44.2500000      -1.96948458E-09
   44.4000015      -2.12291340E-09
   44.5499992      -2.26908248E-09
   44.7000008      -2.40664733E-09
   44.8499985      -2.53560750E-09
   45.0000000      -2.65691269E-09
   45.1500015      -2.77195777E-09
   45.2999992      -2.88202884E-09
   45.4500008      -2.98776204E-09
   45.5999985      -3.08867820E-09
   45.7500000      -3.18285309E-09
   45.9000015      -3.26676042E-09
   46.0499992      -3.33531824E-09
   46.2000008      -3.38213724E-09
   46.3499985      -3.39995743E-09
   46.5000000      -3.38123285E-09
   46.6500015      -3.31881300E-09
   46.7999992      -3.20665694E-09
   46.9500008      -3.04050740E-09
   47.0999985      -2.81846457E-09
   47.2500000      -2.54139354E-09
   47.4000015      -2.21313101E-09
   47.5499992      -1.84045668E-09
   47.7000008      -1.43283430E-09
   47.8499985      -1.00193465E-09
   48.0000000      -5.60979374E-10
   48.1500015      -1.23956220E-10
   48.2999992       2.95228730E-10
   48.4500008       6.83594514E-10
   48.5999985       1.02986120E-09
   48.7500000       1.32509415E-09
   48.9000015       1.56317448E-09
   49.0499992       1.74106296E-09
   49.2000008       1.85884352E-09
   49.3499985       1.91955341E-09
   49.5000000       1.92882110E-09
   49.6500015       1.89434735E-09
   49.7999992       1.82527771E-09
   49.9500008       1.73151848E-09
   50.0999985       1.62304903E-09
   50.2500000       1.50928403E-09
   50.4000015       1.39852729E-09
   50.5499992       1.29755273E-09
   50.7000008       1.21133392E-09
   50.8499985       1.14293275E-09
   51.0000000       1.09353915E-09
   51.1500015       1.06265208E-09
   51.2999992       1.04837028E-09
   51.4500008       1.04776410E-09
   51.5999985       1.05728748E-09
   51.7500000       1.07319620E-09
   51.9000015       1.09193243E-09
   52.0499992       1.11044718E-09
   52.2000008       1.12643617E-09
   52.3499985       1.13847609E-09
   52.5000000       1.14605492E-09
   52.6500015       1.14950427E-09
   52.7999992       1.14984644E-09
   52.9500008       1.14857956E-09
   53.0999985       1.14742726E-09
   53.2500000       1.14808130E-09
   53.4000015       1.15196708E-09
   53.5499992       1.16005605E-09
   53.7000008       1.17274224E-09
   53.8499985       1.18979782E-09
   54.0000000       1.21040589E-09
   54.1500015       1.23326638E-09
   54.2999992       1.25676103E-09
   54.4500008       1.27915523E-09
   54.5999985       1.29881561E-09
   54.7500000       1.31441635E-09
   54.9000015       1.32511224E-09
   55.0499992       1.33065992E-09
   55.2000008       1.33147404E-09
   55.3499985       1.32861611E-09
   55.5000000       1.32371536E-09
   55.6500015       1.31883604E-09
   55.7999992       1.31630273E-09
   55.9500008       1.31850986E-09
   56.0999985       1.32772926E-09
   56.2500000       1.34594269E-09
   56.4000015       1.37471279E-09
   56.5499992       1.41510503E-09
   56.7000008       1.46766765E-09
   56.8499985       1.53246571E-09
   57.0000000       1.60916536E-09
   57.1500015       1.69715109E-09
   57.2999992       1.79566395E-09
   57.4500008       1.90393812E-09
   57.5999985       2.02132155E-09
   57.7500000       2.14735962E-09
   57.9000015       2.28183761E-09
   58.0499992       2.42476661E-09
   58.2000008       2.57631805E-09
   58.3499985       2.73671219E-09
   58.5000000       2.90606961E-09
   58.6500015       3.08424286E-09
   58.7999992       3.27065131E-09
   58.9500008       3.46413120E-09
   59.0999985       3.66283381E-09
   59.2500000       3.86417964E-09
   59.4000015       4.06488398E-09
   59.5499992       4.26106750E-09
   59.7000008       4.44843895E-09
   59.8499985       4.62255523E-09
   60.0000000       4.77912954E-09
   60.1500015       4.91437735E-09
   60.2999992       5.02535080E-09
   60.4500008       5.11025577E-09
   60.5999985       5.16869170E-09
   60.7500000       5.20180610E-09
   60.9000015       5.21232169E-09
   61.0499992       5.20443821E-09
   61.2000008       5.18359133E-09
   61.3499985       5.15608578E-09
   61.5000000       5.12862552E-09
   61.6500015       5.10776843E-09
   61.7999992       5.09935738E-09
   61.9500008       5.10797360E-09
   62.0999985       5.13646103E-09
   62.2500000       5.18557464E-09
   62.4000015       5.25379074E-09
   62.5499992       5.33730171E-09
   62.7000008       5.43021983E-09
   62.8499985       5.52496671E-09
   63.0000000       5.61284397E-09
   63.1500015       5.68472869E-09
   63.2999992       5.73185144E-09
   63.4500008       5.74659298E-09
   63.5999985       5.72322678E-09
   63.7500000       5.65855496E-09
   63.9000015       5.55237145E-09
   64.0500031       5.40771428E-09
   64.1999969       5.23087351E-09
   64.3499985       5.03115372E-09
   64.5000000       4.82038987E-09
   64.6500015       4.61225236E-09
   64.8000031       4.42138681E-09
   64.9499969       4.26243796E-09
   65.0999985       4.14903401E-09
   65.2500000       4.09279410E-09
   65.4000015       4.10243395E-09
   65.5500031       4.18303170E-09
   65.6999969       4.33550884E-09
   65.8499985       4.55636595E-09
   66.0000000       4.83770757E-09
   66.1500015       5.16754550E-09
   66.3000031       5.53039303E-09
   66.4499969       5.90809934E-09
   66.5999985       6.28088648E-09
   66.7500000       6.62852884E-09
   66.9000015       6.93159663E-09
   67.0500031       7.17267712E-09
   67.1999969       7.33750172E-09
   67.3499985       7.41589012E-09
   67.5000000       7.40243333E-09
   67.6500015       7.29687510E-09
   67.8000031       7.10414128E-09
   67.9499969       6.83401424E-09
   68.0999985       6.50045617E-09
   68.2500000       6.12063511E-09
   68.4000015       5.71370462E-09
   68.5500031       5.29944488E-09
   68.6999969       4.89684071E-09
   68.8499985       4.52273285E-09
   69.0000000       4.19062696E-09
   69.1500015       3.90976540E-09
   69.3000031       3.68454089E-09
   69.4499969       3.51428886E-09
   69.5999985       3.39348660E-09
   69.7500000       3.31233574E-09
   69.9000015       3.25767924E-09
   70.0500031       3.21417626E-09
   70.1999969       3.16563464E-09
   70.3499985       3.09638470E-09
   70.5000000       2.99258573E-09
   70.6500015       2.84335222E-09
   70.8000031       2.64161071E-09
   70.9499969       2.38462472E-09
   71.0999985       2.07414907E-09
   71.2500000       1.71621506E-09
   71.4000015       1.32057154E-09
   71.5500031       8.99843200E-10
   71.6999969       4.68481309E-10
   71.8499985       4.16016700E-11
   72.0000000      -3.66195296E-10
   72.1500015      -7.41927630E-10
   72.3000031      -1.07517750E-09
   72.4499969      -1.35881661E-09
   72.5999985      -1.58946767E-09
   72.7500000      -1.76768611E-09
   72.9000015      -1.89786653E-09
   73.0500031      -1.98789407E-09
   73.1999969      -2.04858974E-09
   73.3499985      -2.09299134E-09
   73.5000000      -2.13553375E-09
   73.6500015      -2.19118301E-09
   73.8000031      -2.27457742E-09
   73.9499969      -2.39922304E-09
   74.0999985      -2.57677923E-09
   74.2500000      -2.81646728E-09
   74.4000015      -3.12461257E-09
   74.5500031      -3.50433971E-09
   74.6999969      -3.95541733E-09
   74.8499985      -4.47425563E-09
   75.0000000      -5.05404385E-09
   75.1500015      -5.68502090E-09
   75.3000031      -6.35486419E-09
   75.4499969      -7.04917813E-09
   75.5999985      -7.75206122E-09
   75.7500000      -8.44672776E-09
   75.9000015      -9.11615494E-09
   76.0500031      -9.74372849E-09
   76.1999969      -1.03138564E-08
   76.3499985      -1.08125162E-08
   76.5000000      -1.12277148E-08
   76.6500015      -1.15498384E-08
   76.8000031      -1.17718812E-08
   76.9499969      -1.18895365E-08
   77.0999985      -1.19011760E-08
   77.2500000      -1.18077113E-08
   77.4000015      -1.16123688E-08
   77.5500031      -1.13204059E-08
   77.6999969      -1.09387956E-08
   77.8499985      -1.04759224E-08
   78.0000000      -9.94128602E-09
   78.1500015      -9.34527034E-09
   78.3000031      -8.69895178E-09
   78.4499969      -8.01396993E-09
   78.5999985      -7.30243599E-09
   78.7500000      -6.57686616E-09
   78.9000015      -5.85010795E-09
   79.0500031      -5.13523757E-09
   79.1999969      -4.44539783E-09
   79.3499985      -3.79355791E-09
   79.5000000      -3.19218407E-09
   79.6500015      -2.65281930E-09
   79.8000031      -2.18559304E-09
   79.9499969      -1.79867665E-09
   80.0999985      -1.49773349E-09
   80.2500000      -1.28540156E-09
   80.4000015      -1.16085874E-09
   80.5500031      -1.11952370E-09
   80.6999969      -1.15292931E-09
   80.8499985      -1.24880506E-09
   81.0000000      -1.39138556E-09
   81.1500015      -1.56194946E-09
   81.3000031      -1.73957404E-09
   81.4499969      -1.90207605E-09
   81.5999985      -2.02709183E-09
   81.7500000      -2.09324513E-09
   81.9000015      -2.08133155E-09
   82.0500031      -1.97545758E-09
   82.1999969      -1.76406445E-09
   82.3499985      -1.44077716E-09
   82.5000000      -1.00502806E-09
   82.6500015      -4.62410832E-10
   82.8000031       1.75253242E-10
   82.9499969       8.90153284E-10
   83.0999985       1.65901914E-09
   83.2500000       2.45392773E-09
   83.4000015       3.24334515E-09
   83.5500031       3.99336253E-09
   83.6999969       4.66906869E-09
   83.8499985       5.23599519E-09
   84.0000000       5.66157343E-09
   84.1500015       5.91653881E-09
   84.3000031       5.97621730E-09
   84.4499969       5.82164095E-09
   84.5999985       5.44044720E-09
   84.7500000       4.82751705E-09
   84.9000015       3.98533384E-09
   85.0500031       2.92404345E-09
   85.1999969       1.66121361E-09
   85.3499985       2.21305266E-10
   85.5000000      -1.36512490E-09
   85.6500015      -3.06246117E-09
   85.8000031      -4.83126206E-09
   85.9499969      -6.62964306E-09
   86.0999985      -8.41476222E-09
   86.2500000      -1.01443449E-08
   86.4000015      -1.17781935E-08
   86.5500031      -1.32796307E-08
   86.6999969      -1.46168126E-08
   86.8499985      -1.57638542E-08
   87.0000000      -1.67017333E-08
   87.1500015      -1.74189232E-08
   87.3000031      -1.79117094E-08
   87.4499969      -1.81841848E-08
   87.5999985      -1.82479152E-08
   87.7500000      -1.81212414E-08
   87.9000015      -1.78282846E-08
   88.0500031      -1.73976531E-08
   88.1999969      -1.68609287E-08
   88.3499985      -1.62509579E-08
   88.5000000      -1.56000830E-08
   88.6500015      -1.49383546E-08
   88.8000031      -1.42918468E-08
   88.9499969      -1.36811664E-08
   89.0999985      -1.31202489E-08
   89.2500000      -1.26155264E-08
   89.4000015      -1.21655184E-08
   89.5500031      -1.17609043E-08
   89.6999969      -1.13850769E-08
   89.8499985      -1.10151683E-08
   90.0000000      -1.06234994E-08
   90.1500015      -1.01793569E-08
   90.3000031      -9.65103730E-09
   90.4499969      -9.00797392E-09
   90.5999985      -8.22285973E-09
   90.7500000      -7.27359684E-09
   90.9000015      -6.14495299E-09
   91.0500031      -4.82979567E-09
   91.1999969      -3.32982264E-09
   91.3499985      -1.65572500E-09
   91.5000000       1.73226683E-10
   91.6500015       2.13015761E-09
   91.8000031       4.18205870E-09
   91.9499969       6.29163788E-09
   92.0999985       8.41943670E-09
   92.2500000       1.05260423E-08
   92.4000015       1.25742394E-08
   92.5500031       1.45309498E-08
   92.6999969       1.63688032E-08
   92.8499985       1.80672384E-08
   93.0000000       1.96130578E-08
   93.1500015       2.10004050E-08
   93.3000031       2.22301750E-08
   93.4499969       2.33089246E-08
   93.5999985       2.42473970E-08
   93.7500000       2.50587640E-08
   93.9000015       2.57567727E-08
   94.0500031       2.63539377E-08
   94.1999969       2.68599472E-08
   94.3499985       2.72803931E-08
   94.5000000       2.76159522E-08
   94.6500015       2.78620806E-08
   94.8000031       2.80092127E-08
   94.9499969       2.80434715E-08
   95.0999985       2.79478076E-08
   95.2500000       2.77034538E-08
   95.4000015       2.72915894E-08
   95.5500031       2.66950515E-08
   95.6999969       2.58999560E-08
   95.8499985       2.48971030E-08
   96.0000000       2.36830378E-08
   96.1500015       2.22606946E-08
   96.3000031       2.06395807E-08
   96.4499969       1.88354683E-08
   96.5999985       1.68696666E-08
   96.7500000       1.47678820E-08
   96.9000015       1.25588109E-08
   97.0500031       1.02725455E-08
   97.1999969       7.93892418E-09
   97.3499985       5.58596325E-09
   97.5000000       3.23848459E-09
   97.6500015       9.17034282E-10
   97.8000031      -1.36281730E-09
   97.9499969      -3.59074570E-09
   98.0999985      -5.76150105E-09
   98.2500000      -7.87430299E-09
   98.4000015      -9.93186333E-09
   98.5500031      -1.19391057E-08
   98.6999969      -1.39016976E-08
   98.8499985      -1.58245097E-08
   99.0000000      -1.77101338E-08
   99.1500015      -1.95575911E-08
   99.3000031      -2.13613536E-08
   99.4499969      -2.31107489E-08
   99.5999985      -2.47898377E-08
   99.7500000      -2.63777924E-08
   99.9000015      -2.78497296E-08
   100.050003      -2.91779916E-08
   100.199997      -3.03337515E-08
   100.349998      -3.12888275E-08
   100.500000      -3.20175815E-08
   100.650002      -3.24987219E-08
   100.800003      -3.27168728E-08
   100.949997      -3.26637952E-08
   101.099998      -3.23391269E-08
   101.250000      -3.17506057E-08
   101.400002      -3.09137178E-08
   101.550003      -2.98508489E-08
   101.699997      -2.85899588E-08
   101.849998      -2.71629155E-08
   102.000000      -2.56036152E-08
   102.150002      -2.39460594E-08
   102.300003      -2.22225136E-08
   102.449997      -2.04618953E-08
   102.599998      -1.86885476E-08
   102.750000      -1.69214154E-08
   102.900002      -1.51737343E-08
   103.050003      -1.34531666E-08
   103.199997      -1.17624142E-08
   103.349998      -1.01001554E-08
   103.500000      -8.46225578E-09
   103.650002      -6.84310919E-09
   103.800003      -5.23697574E-09
   103.949997      -3.63919783E-09
   104.099998      -2.04719663E-09
   104.250000      -4.61142707E-10
   104.400002       1.11572496E-09
   104.550003       2.67717848E-09
   104.699997       4.21443902E-09
   104.849998       5.71695624E-09
   105.000000       7.17343562E-09
   105.150002       8.57303473E-09
   105.300003       9.90661064E-09
   105.449997       1.11679137E-08
   105.599998       1.23546213E-08
   105.750000       1.34690836E-08
   105.900002       1.45187373E-08
   106.050003       1.55160862E-08
   106.199997       1.64782410E-08
   106.349998       1.74260038E-08
   106.500000       1.83825328E-08
   106.650002       1.93716527E-08
   106.800003       2.04159125E-08
   106.949997       2.15345040E-08
   107.099998       2.27411956E-08
   107.250000       2.40424285E-08
   107.400002       2.54357264E-08
   107.550003       2.69085696E-08
   107.699997       2.84378423E-08
   107.849998       2.99899447E-08
   108.000000       3.15215907E-08
   108.150002       3.29813190E-08
   108.300003       3.43116220E-08
   108.449997       3.54516132E-08
   108.599998       3.63400581E-08
   108.750000       3.69186282E-08
   108.900002       3.71351163E-08
   109.050003       3.69464850E-08
   109.199997       3.63214774E-08
   109.349998       3.52426852E-08
   109.500000       3.37079129E-08
   109.650002       3.17307531E-08
   109.800003       2.93403577E-08
   109.949997       2.65804321E-08
   110.099998       2.35075053E-08
   110.250000       2.01885975E-08
   110.400002       1.66984613E-08
   110.550003       1.31165168E-08
   110.699997       9.52370183E-09
   110.849998       5.99937344E-09
   111.000000       2.61843702E-09
   111.150002      -5.51168167E-10
   111.300003      -3.45054652E-09
   111.449997      -6.03139672E-09
   111.599998      -8.25701818E-09
   111.750000      -1.01027764E-08
   111.900002      -1.15560557E-08
   112.050003      -1.26157627E-08
   112.199997      -1.32914399E-08
   112.349998      -1.36021088E-08
   112.500000      -1.35748968E-08
   112.650002      -1.32435689E-08
   112.800003      -1.26470390E-08
   112.949997      -1.18279253E-08
   113.099998      -1.08312213E-08
   113.250000      -9.70310232E-09
   113.400002      -8.48990123E-09
   113.550003      -7.23722282E-09
   113.699997      -5.98921135E-09
   113.849998      -4.78789852E-09
   114.000000      -3.67261754E-09
   114.150002      -2.67942624E-09
   114.300003      -1.84050908E-09
   114.449997      -1.18353571E-09
   114.599998      -7.30973782E-10
   114.750000      -4.99379205E-10
   114.900002      -4.98706021E-10
   115.050003      -7.31703198E-10
   115.199997      -1.19347521E-09
   115.349998      -1.87128957E-09
   115.500000      -2.74470802E-09
   115.650002      -3.78609766E-09
   115.800003      -4.96155561E-09
   115.949997      -6.23222673E-09
   116.099998      -7.55597984E-09
   116.250000      -8.88934260E-09
   116.400002      -1.01895630E-08
   116.550003      -1.14166721E-08
   116.699997      -1.25353674E-08
   116.849998      -1.35165790E-08
   117.000000      -1.43385952E-08
   117.150002      -1.49876573E-08
   117.300003      -1.54579993E-08
   117.449997      -1.57513416E-08
   117.599998      -1.58759352E-08
   117.750000      -1.58452416E-08
   117.900002      -1.56764433E-08
   118.050003      -1.53888955E-08
   118.199997      -1.50027404E-08
   118.349998      -1.45377319E-08
