  -1.50000000       0.00000000    
  -1.35000002       0.00000000    
  -1.20000005       0.00000000    
  -1.04999995      -4.67494688E-27
 -0.899999976      -4.19817599E-26
 -0.750000000      -2.18772009E-25
 -0.600000024      -8.64285671E-25
 -0.449999988      -2.86104329E-24
 -0.300000012      -8.33912673E-24
 -0.150000006      -2.20290181E-23
  -5.55111512E-17  -5.37866380E-23
  0.150000006      -1.23295438E-22
  0.300000012      -2.69139449E-22
  0.449999988      -5.67140403E-22
  0.600000024      -1.16836465E-21
  0.750000000      -2.37716441E-21
  0.899999976      -4.80578930E-21
   1.04999995      -9.66500042E-21
   1.20000005      -1.92789951E-20
   1.35000002      -3.79426099E-20
   1.50000000      -7.32610152E-20
   1.64999998      -1.38113701E-19
   1.79999995      -2.53351153E-19
   1.95000005      -4.51248738E-19
   2.09999990      -7.79606612E-19
   2.25000000      -1.30619222E-18
   2.40000010      -2.12299792E-18
   2.54999995      -3.34956346E-18
   2.70000005      -5.13442090E-18
   2.84999990      -7.65362510E-18
   3.00000000      -1.11053257E-17
   3.15000010      -1.56995026E-17
   3.29999995      -2.16422427E-17
   3.45000005      -2.91143554E-17
   3.59999990      -3.82445964E-17
   3.75000000      -4.90782636E-17
   3.90000010      -6.15425486E-17
   4.05000019      -7.54104102E-17
   4.19999981      -9.02653498E-17
   4.34999990      -1.05469783E-16
   4.50000000      -1.20140268E-16
   4.65000010      -1.33132827E-16
   4.80000019      -1.43042067E-16
   4.94999981      -1.48217637E-16
   5.09999990      -1.46801040E-16
   5.25000000      -1.36785220E-16
   5.40000010      -1.16097856E-16
   5.55000019      -8.27071954E-17
   5.69999981      -3.47471576E-17
   5.84999990       2.93450826E-17
   6.00000000       1.10688075E-16
   6.15000010       2.09823349E-16
   6.30000019       3.26603834E-16
   6.44999981       4.60116026E-16
   6.59999990       6.08646165E-16
   6.75000000       7.69695875E-16
   6.90000010       9.40047541E-16
   7.05000019       1.11587189E-15
   7.19999981       1.29286440E-15
   7.34999990       1.46639138E-15
   7.50000000       1.63162474E-15
   7.65000010       1.78364577E-15
   7.80000019       1.91750260E-15
   7.94999981       2.02821531E-15
   8.10000038       2.11072754E-15
   8.25000000       2.15982136E-15
   8.39999962       2.17001117E-15
   8.55000019       2.13544269E-15
   8.69999981       2.04982079E-15
   8.85000038       1.90639058E-15
   9.00000000       1.69798427E-15
   9.14999962       1.41714933E-15
   9.30000019       1.05636327E-15
   9.44999981       6.08341974E-16
   9.60000038       6.64545257E-17
   9.75000000      -5.74740971E-16
   9.89999962      -1.31881579E-15
   10.0500002      -2.16661605E-15
   10.1999998      -3.11522413E-15
   10.3500004      -4.15673287E-15
   10.5000000      -5.27689795E-15
   10.6499996      -6.45375409E-15
   10.8000002      -7.65638671E-15
   10.9499998      -8.84410732E-15
   11.1000004      -9.96632518E-15
   11.2500000      -1.09634718E-14
   11.3999996      -1.17692899E-14
   11.5500002      -1.23147198E-14
   11.6999998      -1.25334796E-14
   11.8500004      -1.23692425E-14
   12.0000000      -1.17840121E-14
   12.1499996      -1.07670796E-14
   12.3000002      -9.34364162E-15
   12.4499998      -7.58201383E-15
   12.6000004      -5.59826267E-15
   12.7500000      -3.55711994E-15
   12.8999996      -1.66831885E-15
   13.0500002      -1.77780635E-16
   13.1999998       6.46354854E-16
   13.3500004       5.32311397E-16
   13.5000000      -7.73215561E-16
   13.6499996      -3.48111504E-15
   13.8000002      -7.73602391E-15
   13.9499998      -1.35947018E-14
   14.1000004      -2.10086499E-14
   14.2500000      -2.98124901E-14
   14.3999996      -3.97191909E-14
   14.5500002      -5.03222647E-14
   14.6999998      -6.11044215E-14
   14.8500004      -7.14515185E-14
   15.0000000      -8.06699136E-14
   15.1499996      -8.80055035E-14
   15.3000002      -9.26627346E-14
   15.4499998      -9.38224108E-14
   15.6000004      -9.06581193E-14
   15.7500000      -8.23517686E-14
   15.8999996      -6.81100480E-14
   16.0499992      -4.71837535E-14
   16.2000008      -1.88926752E-14
   16.3500004       1.73417849E-14
   16.5000000       6.19548358E-14
   16.6499996       1.15187157E-13
   16.7999992       1.77025712E-13
   16.9500008       2.47139521E-13
   17.1000004       3.24814367E-13
   17.2500000       4.08891806E-13
   17.3999996       4.97716560E-13
   17.5499992       5.89097456E-13
   17.7000008       6.80283792E-13
   17.8500004       7.67957963E-13
   18.0000000       8.48244543E-13
   18.1499996       9.16732510E-13
   18.2999992       9.68509994E-13
   18.4500008       9.98212472E-13
   18.6000004       1.00008652E-12
   18.7500000       9.68079891E-13
   18.8999996       8.95972261E-13
   19.0499992       7.77566650E-13
   19.2000008       6.06965270E-13
   19.3500004       3.78954599E-13
   19.5000000       8.95162105E-14
   19.6499996      -2.63526939E-13
   19.7999992      -6.79741474E-13
   19.9500008      -1.15522555E-12
   20.1000004      -1.68172388E-12
   20.2500000      -2.24580727E-12
   20.3999996      -2.82823309E-12
   20.5499992      -3.40362482E-12
   20.7000008      -3.94060305E-12
   20.8500004      -4.40250961E-12
   21.0000000      -4.74881072E-12
   21.1499996      -4.93723248E-12
   21.2999992      -4.92660643E-12
   21.4500008      -4.68031343E-12
   21.6000004      -4.17013386E-12
   21.7500000      -3.38021256E-12
   21.8999996      -2.31078394E-12
   22.0499992      -9.81246009E-13
   22.2000008       5.67827198E-13
   22.3500004       2.27413856E-12
   22.5000000       4.05488056E-12
   22.6499996       5.80990160E-12
   22.7999992       7.42684473E-12
   22.9500008       8.78808918E-12
   23.1000004       9.77912282E-12
   23.2500000       1.02977895E-11
   23.3999996       1.02636745E-11
   23.5499992       9.62681237E-12
   23.7000008       8.37485983E-12
   23.8500004       6.53788612E-12
   24.0000000       4.19011787E-12
   24.1499996       1.44816223E-12
   24.2999992      -1.53448098E-12
   24.4500008      -4.57646074E-12
   24.6000004      -7.48068534E-12
   24.7500000      -1.00486425E-11
   24.8999996      -1.20958235E-11
   25.0499992      -1.34669021E-11
   25.2000008      -1.40492782E-11
   25.3500004      -1.37835923E-11
   25.5000000      -1.26700352E-11
   25.6499996      -1.07695736E-11
   25.7999992      -8.19968832E-12
   25.9500008      -5.12468713E-12
   26.1000004      -1.74125493E-12
   26.2500000       1.73955902E-12
   26.3999996       5.11228082E-12
   26.5499992       8.19687113E-12
   26.7000008       1.08563531E-11
   26.8500004       1.30101164E-11
   27.0000000       1.46410817E-11
   27.1499996       1.57954275E-11
   27.2999992       1.65742906E-11
   27.4500008       1.71176927E-11
   27.6000004       1.75818318E-11
   27.7500000       1.81118419E-11
   27.8999996       1.88127552E-11
   28.0499992       1.97220539E-11
   28.2000008       2.07873597E-11
   28.3500004       2.18527054E-11
   28.5000000       2.26562345E-11
   28.6499996       2.28413694E-11
   28.7999992       2.19820880E-11
   28.9500008       1.96216394E-11
   29.1000004       1.53222973E-11
   29.2500000       8.72235530E-12
   29.3999996      -4.04726301E-13
   29.5499992      -1.20951565E-11
   29.7000008      -2.61498358E-11
   29.8500004      -4.21057876E-11
   30.0000000      -5.92290730E-11
   30.1499996      -7.65328634E-11
   30.2999992      -9.28220764E-11
   30.4500008      -1.06763702E-10
   30.6000004      -1.16979162E-10
   30.7500000      -1.22152621E-10
   30.8999996      -1.21147051E-10
   31.0499992      -1.13118251E-10
   31.2000008      -9.76164358E-11
   31.3500004      -7.46651699E-11
   31.5000000      -4.48086915E-11
   31.6499996      -9.12109971E-12
   31.7999992       3.08264698E-11
   31.9500008       7.30406152E-11
   32.0999985       1.15218807E-10
   32.2500000       1.54893445E-10
   32.4000015       1.89596283E-10
   32.5499992       2.17030421E-10
   32.7000008       2.35235664E-10
   32.8499985       2.42733111E-10
   33.0000000       2.38636638E-10
   33.1500015       2.22720856E-10
   33.2999992       1.95439512E-10
   33.4500008       1.57892352E-10
   33.5999985       1.11743441E-10
   33.7500000       5.90978586E-11
   33.9000015       2.34886329E-12
   34.0499992      -5.59909272E-11
   34.2000008      -1.13458250E-10
   34.3499985      -1.67792169E-10
   34.5000000      -2.17057317E-10
   34.6500015      -2.59726185E-10
   34.7999992      -2.94714197E-10
   34.9500008      -3.21365656E-10
   35.0999985      -3.39394624E-10
   35.2500000      -3.48788942E-10
   35.4000015      -3.49691248E-10
   35.5499992      -3.42272044E-10
   35.7000008      -3.26612709E-10
   35.8499985      -3.02614184E-10
   36.0000000      -2.69946315E-10
   36.1500015      -2.28047997E-10
   36.2999992      -1.76182624E-10
   36.4500008      -1.13548414E-10
   36.5999985      -3.94366033E-11
   36.7500000       4.65756808E-11
   36.9000015       1.44414661E-10
   37.0499992       2.53302407E-10
   37.2000008       3.71572967E-10
   37.3499985       4.96535812E-10
   37.5000000       6.24402141E-10
   37.6500015       7.50290663E-10
   37.7999992       8.68319916E-10
   37.9500008       9.71789982E-10
   38.0999985       1.05344800E-09
   38.2500000       1.10582621E-09
   38.4000015       1.12163645E-09
   38.5499992       1.09419573E-09
   38.7000008       1.01786113E-09
   38.8499985       8.88445151E-10
   39.0000000       7.03584857E-10
   39.1500015       4.63040106E-10
   39.2999992       1.68900505E-10
   39.4500008      -1.74318310E-10
   39.5999985      -5.59697899E-10
   39.7500000      -9.78066628E-10
   39.9000015      -1.41827350E-09
   40.0499992      -1.86757720E-09
   40.2000008      -2.31213870E-09
   40.3499985      -2.73759326E-09
   40.5000000      -3.12967985E-09
   40.6500015      -3.47489770E-09
   40.7999992      -3.76115805E-09
   40.9500008      -3.97839806E-09
   41.0999985      -4.11912549E-09
   41.2500000      -4.17886437E-09
   41.4000015      -4.15647294E-09
   41.5499992      -4.05431955E-09
   41.7000008      -3.87829235E-09
   41.8499985      -3.63764996E-09
   42.0000000      -3.34470296E-09
   42.1500015      -3.01434810E-09
   42.2999992      -2.66346523E-09
   42.4500008      -2.31021091E-09
   42.5999985      -1.97323491E-09
   42.7500000      -1.67085878E-09
   42.9000015      -1.42025425E-09
   43.0499992      -1.23665911E-09
   43.2000008      -1.13266541E-09
   43.3499985      -1.11761689E-09
   43.5000000      -1.19713750E-09
   43.6500015      -1.37281586E-09
   43.7999992      -1.64205893E-09
   43.9500008      -1.99812034E-09
   44.0999985      -2.43030440E-09
   44.2500000      -2.92433699E-09
   44.4000015      -3.46288886E-09
   44.5499992      -4.02623357E-09
   44.7000008      -4.59301130E-09
   44.8499985      -5.14106935E-09
   45.0000000      -5.64834846E-09
   45.1500015      -6.09378059E-09
   45.2999992      -6.45815312E-09
   45.4500008      -6.72491440E-09
   45.5999985      -6.88088031E-09
   45.7500000      -6.91680668E-09
   45.9000015      -6.82780943E-09
   46.0499992      -6.61360122E-09
   46.2000008      -6.27854391E-09
   46.3499985      -5.83149662E-09
   46.5000000      -5.28548316E-09
   46.6500015      -4.65717154E-09
   46.7999992      -3.96620337E-09
   46.9500008      -3.23439941E-09
   47.0999985      -2.48487031E-09
   47.2500000      -1.74107995E-09
   47.4000015      -1.02590092E-09
   47.5499992      -3.60699443E-10
   47.7000008       2.35507586E-10
   47.8499985       7.46790185E-10
   48.0000000       1.16091148E-09
   48.1500015       1.46977841E-09
   48.2999992       1.66972269E-09
   48.4500008       1.76160542E-09
   48.5999985       1.75074366E-09
   48.7500000       1.64666358E-09
   48.9000015       1.46269186E-09
   49.0499992       1.21540222E-09
   49.2000008       9.23934707E-10
   49.3499985       6.09210293E-10
   49.5000000       2.93076841E-10
   49.6500015      -2.59478203E-12
   49.7999992      -2.56823784E-10
   49.9500008      -4.50407961E-10
   50.0999985      -5.66755587E-10
   50.2500000      -5.92620730E-10
   50.4000015      -5.18715682E-10
   50.5499992      -3.40165507E-10
   50.7000008      -5.67843862E-11
   50.8499985       3.26837529E-10
   51.0000000       8.01450406E-10
   51.1500015       1.35345701E-09
   51.2999992       1.96540761E-09
   51.4500008       2.61665911E-09
   51.5999985       3.28416738E-09
   51.7500000       3.94337585E-09
   51.9000015       4.56916416E-09
   52.0499992       5.13681764E-09
   52.2000008       5.62297542E-09
   52.3499985       6.00652417E-09
   52.5000000       6.26940810E-09
   52.6500015       6.39733200E-09
   52.7999992       6.38033093E-09
   52.9500008       6.21320684E-09
   53.0999985       5.89581006E-09
   53.2500000       5.43317391E-09
   53.4000015       4.83548845E-09
   53.5499992       4.11792334E-09
   53.7000008       3.30029537E-09
   53.8499985       2.40658249E-09
   54.0000000       1.46428936E-09
   54.1500015       5.03671438E-10
   54.2999992      -4.43172582E-10
   54.4500008      -1.34332145E-09
   54.5999985      -2.16414398E-09
   54.7500000      -2.87447088E-09
   54.9000015      -3.44578632E-09
   55.0499992      -3.85339316E-09
   55.2000008      -4.07750100E-09
   55.3499985      -4.10418322E-09
   55.5000000      -3.92614830E-09
   55.6500015      -3.54326901E-09
   55.7999992      -2.96283842E-09
   55.9500008      -2.19950969E-09
   56.0999985      -1.27491062E-09
   56.2500000      -2.16925172E-10
   56.4000015       9.41332567E-10
   56.5499992       2.16282348E-09
   56.7000008       3.40810691E-09
   56.8499985       4.63702010E-09
   57.0000000       5.81042459E-09
   57.1500015       6.89193991E-09
   57.2999992       7.84956367E-09
   57.4500008       8.65709016E-09
   57.5999985       9.29525257E-09
   57.7500000       9.75250991E-09
   57.9000015       1.00254294E-08
   58.0499992       1.01186526E-08
   58.2000008       1.00444115E-08
   58.3499985       9.82165016E-09
   58.5000000       9.47477918E-09
   58.6500015       9.03214303E-09
   58.7999992       8.52430393E-09
   58.9500008       7.98222821E-09
   59.0999985       7.43551887E-09
   59.2500000       6.91078395E-09
   59.4000015       6.43025944E-09
   59.5499992       6.01078165E-09
   59.7000008       5.66316105E-09
   59.8499985       5.39200595E-09
   60.0000000       5.19599919E-09
   60.1500015       5.06858466E-09
   60.2999992       4.99902786E-09
   60.4500008       4.97373875E-09
   60.5999985       4.97776576E-09
   60.7500000       4.99633224E-09
   60.9000015       5.01629893E-09
   61.0499992       5.02743447E-09
   61.2000008       5.02340480E-09
   61.3499985       5.00239405E-09
   61.5000000       4.96732877E-09
   61.6500015       4.92568475E-09
   61.7999992       4.88889729E-09
   61.9500008       4.87143259E-09
   62.0999985       4.88958785E-09
   62.2500000       4.96012165E-09
   62.4000015       5.09881248E-09
   62.5499992       5.31906474E-09
   62.7000008       5.63064750E-09
   62.8499985       6.03866823E-09
   63.0000000       6.54285470E-09
   63.1500015       7.13717530E-09
   63.2999992       7.80984877E-09
   63.4500008       8.54371862E-09
   63.5999985       9.31698274E-09
   63.7500000       1.01042241E-08
   63.9000015       1.08776801E-08
   64.0500031       1.16086758E-08
   64.1999969       1.22691324E-08
   64.3499985       1.28330608E-08
   64.5000000       1.32779512E-08
   64.6500015       1.35859901E-08
   64.8000031       1.37450167E-08
   64.9499969       1.37491876E-08
   65.0999985       1.35992941E-08
   65.2500000       1.33027349E-08
   65.4000015       1.28731417E-08
   65.5500031       1.23296946E-08
   65.6999969       1.16961640E-08
   65.8499985       1.09997460E-08
   66.0000000       1.02697673E-08
   66.1500015       9.53632551E-09
   66.3000031       8.82894913E-09
   66.4499969       8.17534840E-09
   66.5999985       7.60030350E-09
   66.7500000       7.12474524E-09
   66.9000015       6.76504941E-09
   67.0500031       6.53255139E-09
   67.1999969       6.43327880E-09
   67.3499985       6.46788179E-09
   67.5000000       6.63173028E-09
   67.6500015       6.91515467E-09
   67.8000031       7.30379401E-09
   67.9499969       7.77903342E-09
   68.0999985       8.31850944E-09
   68.2500000       8.89668339E-09
   68.4000015       9.48547818E-09
   68.5500031       1.00549808E-08
   68.6999969       1.05742384E-08
   68.8499985       1.10121228E-08
   69.0000000       1.13382947E-08
   69.1500015       1.15242358E-08
   69.3000031       1.15443264E-08
   69.4499969       1.13769447E-08
   69.5999985       1.10055156E-08
   69.7500000       1.04194715E-08
   69.9000015       9.61505275E-09
   70.0500031       8.59588756E-09
   70.1999969       7.37329575E-09
   70.3499985       5.96628080E-09
   70.5000000       4.40118431E-09
   70.6500015       2.71100209E-09
   70.8000031       9.34375577E-10
   70.9499969      -8.85699514E-10
   71.0999985      -2.70339262E-09
   71.2500000      -4.47171589E-09
   71.4000015      -6.14428641E-09
   71.5500031      -7.67709185E-09
   71.6999969      -9.03018460E-09
   71.8499985      -1.01692246E-08
   72.0000000      -1.10668212E-08
   72.1500015      -1.17036096E-08
   72.3000031      -1.20690267E-08
   72.4499969      -1.21617694E-08
   72.5999985      -1.19898909E-08
   72.7500000      -1.15705596E-08
   72.9000015      -1.09294636E-08
   73.0500031      -1.00998880E-08
   73.1999969      -9.12148401E-09
   73.3499985      -8.03876610E-09
   73.5000000      -6.89939972E-09
   73.6500015      -5.75231640E-09
   73.8000031      -4.64575001E-09
   73.9499969      -3.62526253E-09
   74.0999985      -2.73184786E-09
   74.2500000      -2.00021244E-09
   74.4000015      -1.45730572E-09
   74.5500031      -1.12119314E-09
   74.6999969      -1.00032804E-09
   74.8499985      -1.09327358E-09
   75.0000000      -1.38889422E-09
   75.1500015      -1.86701499E-09
   75.3000031      -2.49951704E-09
   75.4499969      -3.25181326E-09
   75.5999985      -4.08462286E-09
   75.7500000      -4.95595032E-09
   75.9000015      -5.82316018E-09
   76.0500031      -6.64503430E-09
   76.1999969      -7.38370387E-09
   76.3499985      -8.00635913E-09
   76.5000000      -8.48665049E-09
   76.6500015      -8.80572770E-09
   76.8000031      -8.95287045E-09
   76.9499969      -8.92570817E-09
   77.0999985      -8.73002648E-09
   77.2500000      -8.37920400E-09
   77.4000015      -7.89332599E-09
   77.5500031      -7.29803018E-09
   77.6999969      -6.62317401E-09
   77.8499985      -5.90137939E-09
   78.0000000      -5.16654719E-09
   78.1500015      -4.45239801E-09
   78.3000031      -3.79111409E-09
   78.4499969      -3.21212457E-09
   78.5999985      -2.74108247E-09
   78.7500000      -2.39905695E-09
   78.9000015      -2.20195528E-09
   79.0500031      -2.16018625E-09
   79.1999969      -2.27854335E-09
   79.3499985      -2.55630739E-09
   79.5000000      -2.98753489E-09
   79.6500015      -3.56150442E-09
   79.8000031      -4.26329416E-09
   79.9499969      -5.07445241E-09
   80.0999985      -5.97373084E-09
   80.2500000      -6.93785207E-09
   80.4000015      -7.94227883E-09
   80.5500031      -8.96197250E-09
   80.6999969      -9.97211203E-09
   80.8499985      -1.09487654E-08
   81.0000000      -1.18695089E-08
   81.1500015      -1.27139765E-08
   81.3000031      -1.34643514E-08
   81.4499969      -1.41057770E-08
   81.5999985      -1.46267123E-08
   81.7500000      -1.50192019E-08
   81.9000015      -1.52790722E-08
   82.0500031      -1.54060462E-08
   82.1999969      -1.54037529E-08
   82.3499985      -1.52796424E-08
   82.5000000      -1.50447867E-08
   82.6500015      -1.47135397E-08
   82.8000031      -1.43030778E-08
   82.9499969      -1.38327998E-08
   83.0999985      -1.33235885E-08
   83.2500000      -1.27969670E-08
   83.4000015      -1.22741453E-08
   83.5500031      -1.17750174E-08
   83.6999969      -1.13171401E-08
   83.8499985      -1.09147527E-08
   84.0000000      -1.05778977E-08
   84.1500015      -1.03117124E-08
   84.3000031      -1.01159499E-08
   84.4499969      -9.98477745E-09
   84.5999985      -9.90692062E-09
   84.7500000      -9.86614435E-09
   84.9000015      -9.84210047E-09
   85.0500031      -9.81150272E-09
   85.1999969      -9.74957626E-09
   85.3499985      -9.63172475E-09
   85.5000000      -9.43527834E-09
   85.6500015      -9.14124865E-09
   85.8000031      -8.73593553E-09
   85.9499969      -8.21227619E-09
   86.0999985      -7.57081686E-09
   86.2500000      -6.82022305E-09
   86.4000015      -5.97726135E-09
   86.5500031      -5.06622522E-09
   86.6999969      -4.11781809E-09
   86.8499985      -3.16755466E-09
   87.0000000      -2.25375918E-09
   87.1500015      -1.41529333E-09
   87.3000031      -6.89157009E-10
   87.4499969      -1.08112783E-10
   87.5999985       3.01498770E-10
   87.7500000       5.21608645E-10
   87.9000015       5.43813494E-10
   88.0500031       3.70216524E-10
   88.1999969       1.36520994E-11
   88.3499985      -5.02714093E-10
   88.5000000      -1.14639476E-09
   88.6500015      -1.87713778E-09
   88.8000031      -2.64894040E-09
   88.9499969      -3.41240214E-09
   89.0999985      -4.11728562E-09
   89.2500000      -4.71513362E-09
   89.4000015      -5.16181009E-09
   89.5500031      -5.41982237E-09
   89.6999969      -5.46030199E-09
   89.8499985      -5.26454702E-09
   90.0000000      -4.82503859E-09
   90.1500015      -4.14589385E-09
   90.3000031      -3.24271632E-09
   90.4499969      -2.14186402E-09
   90.5999985      -8.79166184E-10
   90.7500000       5.01849895E-10
   90.9000015       1.95212935E-09
   91.0500031       3.41954953E-09
   91.1999969       4.85154183E-09
   91.3499985       6.19773921E-09
   91.5000000       7.41250972E-09
   91.6500015       8.45724291E-09
   91.8000031       9.30225763E-09
   91.9499969       9.92824045E-09
   92.0999985       1.03271267E-08
   92.2500000       1.05023812E-08
   92.4000015       1.04686748E-08
   92.5500031       1.02509743E-08
   92.6999969       9.88310500E-09
   92.8499985       9.40588318E-09
   93.0000000       8.86492213E-09
   93.1500015       8.30825098E-09
   93.3000031       7.78386866E-09
   93.4499969       7.33738581E-09
   93.5999985       7.00985225E-09
   93.7500000       6.83590473E-09
   93.9000015       6.84228985E-09
   94.0500031       7.04683023E-09
   94.1999969       7.45785833E-09
   94.3499985       8.07410672E-09
   94.5000000       8.88504470E-09
   94.6500015       9.87159599E-09
   94.8000031       1.10071792E-08
   94.9499969       1.22589974E-08
   95.0999985       1.35895064E-08
   95.2500000       1.49579567E-08
   95.4000015       1.63219571E-08
   95.5500031       1.76389747E-08
   95.6999969       1.88677216E-08
   95.8499985       1.99693577E-08
   96.0000000       2.09085087E-08
   96.1500015       2.16540386E-08
   96.3000031       2.21795933E-08
   96.4499969       2.24639063E-08
   96.5999985       2.24908820E-08
   96.7500000       2.22495071E-08
   96.9000015       2.17335892E-08
   97.0500031       2.09413962E-08
   97.1999969       1.98752410E-08
   97.3499985       1.85410443E-08
   97.5000000       1.69479364E-08
   97.6500015       1.51079256E-08
   97.8000031       1.30356712E-08
   97.9499969       1.07483364E-08
   98.0999985       8.26557578E-09
   98.2500000       5.60959457E-09
   98.4000015       2.80525470E-09
   98.5500031      -1.19795771E-10
   98.6999969      -3.13503290E-09
   98.8499985      -6.20705887E-09
   99.0000000      -9.29972988E-09
   99.1500015      -1.23744623E-08
   99.3000031      -1.53907234E-08
   99.4499969      -1.83067250E-08
   99.5999985      -2.10803055E-08
   99.7500000      -2.36699691E-08
   99.9000015      -2.60360320E-08
   100.050003      -2.81418213E-08
   100.199997      -2.99548688E-08
   100.349998      -3.14480069E-08
   100.500000      -3.26003224E-08
   100.650002      -3.33979138E-08
   100.800003      -3.38343789E-08
   100.949997      -3.39110464E-08
   101.099998      -3.36369190E-08
   101.250000      -3.30283250E-08
   101.400002      -3.21083107E-08
   101.550003      -3.09058308E-08
   101.699997      -2.94547355E-08
   101.849998      -2.77926269E-08
   102.000000      -2.59596611E-08
   102.150002      -2.39972771E-08
   102.300003      -2.19469758E-08
   102.449997      -1.98491286E-08
   102.599998      -1.77418844E-08
   102.750000      -1.56601878E-08
   102.900002      -1.36349341E-08
   103.050003      -1.16922934E-08
   103.199997      -9.85319737E-09
   103.349998      -8.13301515E-09
   103.500000      -6.54142118E-09
   103.650002      -5.08245357E-09
   103.800003      -3.75476672E-09
   103.949997      -2.55205101E-09
   104.099998      -1.46362500E-09
   104.250000      -4.75147643E-10
   104.400002       4.30574715E-10
   104.550003       1.27271838E-09
   104.699997       2.07157269E-09
   104.849998       2.84769075E-09
   105.000000       3.62112140E-09
   105.150002       4.41073356E-09
   105.300003       5.23366683E-09
   105.449997       6.10490414E-09
   105.599998       7.03695413E-09
   105.750000       8.03963296E-09
   105.900002       9.11990838E-09
   106.050003       1.02817648E-08
   106.199997       1.15260690E-08
   106.349998       1.28503919E-08
   106.500000       1.42487986E-08
   106.650002       1.57115796E-08
   106.800003       1.72249877E-08
   106.949997       1.87709812E-08
   107.099998       2.03270734E-08
   107.250000       2.18663381E-08
   107.400002       2.33576305E-08
   107.550003       2.47661340E-08
   107.699997       2.60542006E-08
   107.849998       2.71825833E-08
   108.000000       2.81120034E-08
   108.150002       2.88049780E-08
   108.300003       2.92278806E-08
   108.449997       2.93530480E-08
   108.599998       2.91608462E-08
   108.750000       2.86414821E-08
   108.900002       2.77964727E-08
   109.050003       2.66395634E-08
   109.199997       2.51970445E-08
   109.349998       2.35073507E-08
   109.500000       2.16199538E-08
   109.650002       1.95935677E-08
   109.800003       1.74937345E-08
   109.949997       1.53899222E-08
   110.099998       1.33523343E-08
   110.250000       1.14485443E-08
   110.400002       9.74022729E-09
   110.550003       8.28015345E-09
   110.699997       7.10961823E-09
   110.849998       6.25649532E-09
   111.000000       5.73398573E-09
   111.150002       5.54017987E-09
   111.300003       5.65841285E-09
   111.449997       6.05842176E-09
   111.599998       6.69822064E-09
   111.750000       7.52655627E-09
   111.900002       8.48583515E-09
   112.050003       9.51530321E-09
   112.199997       1.05543219E-08
   112.349998       1.15455032E-08
   112.500000       1.24375577E-08
   112.650002       1.31876456E-08
   112.800003       1.37631329E-08
   112.949997       1.41426151E-08
   113.099998       1.43162149E-08
   113.250000       1.42851082E-08
   113.400002       1.40603875E-08
   113.550003       1.36613529E-08
   113.699997       1.31133948E-08
   113.849998       1.24456516E-08
   114.000000       1.16886474E-08
   114.150002       1.08720970E-08
   114.300003       1.00230562E-08
   114.449997       9.16453313E-09
   114.599998       8.31466629E-09
   114.750000       7.48645768E-09
   114.900002       6.68803235E-09
   115.050003       5.92332716E-09
   115.199997       5.19305043E-09
   115.349998       4.49575888E-09
   115.500000       3.82886300E-09
   115.650002       3.18941384E-09
   115.800003       2.57453903E-09
   115.949997       1.98145966E-09
   116.099998       1.40710277E-09
   116.250000       8.47336368E-10
   116.400002       2.95960645E-10
   116.550003      -2.56381444E-10
   116.699997      -8.23199620E-10
   116.849998      -1.42286727E-09
   117.000000      -2.07888595E-09
   117.150002      -2.81958124E-09
   117.300003      -3.67718345E-09
   117.449997      -4.68628869E-09
   117.599998      -5.88179727E-09
   117.750000      -7.29646521E-09
   117.900002      -8.95825991E-09
   118.050003      -1.08877529E-08
   118.199997      -1.30957680E-08
   118.349998      -1.55814792E-08
