  -1.50000000         0.00000000    
  -1.35000002         0.00000000    
  -1.20000005         0.00000000    
  -1.04999995         0.00000000    
 -0.899999976         0.00000000    
 -0.750000000         0.00000000    
 -0.600000024         0.00000000    
 -0.449999988         0.00000000    
 -0.300000012         0.00000000    
 -0.150000006         0.00000000    
   0.00000000         0.00000000    
  0.150000006         0.00000000    
  0.300000012         0.00000000    
  0.449999988         0.00000000    
  0.600000024         0.00000000    
  0.750000000         0.00000000    
  0.899999976         0.00000000    
   1.04999995         0.00000000    
   1.20000005         0.00000000    
   1.35000002         0.00000000    
   1.50000000         0.00000000    
   1.64999998         0.00000000    
   1.79999995         0.00000000    
   1.95000005         0.00000000    
   2.09999990         0.00000000    
   2.25000000         0.00000000    
   2.40000010         0.00000000    
   2.54999995         0.00000000    
   2.70000005         0.00000000    
   2.84999990         0.00000000    
   3.00000000         0.00000000    
   3.15000010         0.00000000    
   3.29999995         0.00000000    
   3.45000005         0.00000000    
   3.59999990         0.00000000    
   3.75000000         0.00000000    
   3.90000010         0.00000000    
   4.05000019         0.00000000    
   4.19999981         0.00000000    
   4.34999990         0.00000000    
   4.50000000         0.00000000    
   4.65000010         0.00000000    
   4.80000019         0.00000000    
   4.94999981         0.00000000    
   5.09999990         0.00000000    
   5.25000000         0.00000000    
   5.40000010         0.00000000    
   5.55000019         0.00000000    
   5.69999981         0.00000000    
   5.84999990         0.00000000    
   6.00000000         0.00000000    
   6.15000010         0.00000000    
   6.30000019         0.00000000    
   6.44999981         0.00000000    
   6.59999990         0.00000000    
   6.75000000         0.00000000    
   6.90000010         0.00000000    
   7.05000019         0.00000000    
   7.19999981         0.00000000    
   7.34999990         0.00000000    
   7.50000000         0.00000000    
   7.65000010         0.00000000    
   7.80000019         0.00000000    
   7.94999981         0.00000000    
   8.10000038         0.00000000    
   8.25000000         0.00000000    
   8.39999962         0.00000000    
   8.55000019         0.00000000    
   8.69999981         0.00000000    
   8.85000038         0.00000000    
   9.00000000         0.00000000    
   9.14999962         0.00000000    
   9.30000019         0.00000000    
   9.44999981         0.00000000    
   9.60000038         0.00000000    
   9.75000000         0.00000000    
   9.89999962         0.00000000    
   10.0500002         0.00000000    
   10.1999998         0.00000000    
   10.3500004         8.73985413E-37
   10.5000000         1.74797083E-36
   10.6499996        -2.23688123E-35
   10.8000002        -8.67589160E-35
   10.9499998        -1.82341983E-34
   11.1000004        -2.79936174E-34
   11.2500000        -3.56768941E-34
   11.3999996        -2.52071998E-34
   11.5500002         3.11596662E-35
   11.6999998         7.21746093E-34
   11.8500004         1.62558232E-33
   12.0000000         2.69260573E-33
   12.1499996         3.93237170E-33
   12.3000002         5.04075341E-33
   12.4499998         5.60094736E-33
   12.6000004         6.01763954E-33
   12.7500000         5.43742802E-33
   12.8999996         3.40217379E-33
   13.0500002         1.95968167E-35
   13.1999998        -5.43234033E-33
   13.3500004        -1.20700399E-32
   13.5000000        -1.77051842E-32
   13.6499996        -2.09212413E-32
   13.8000002        -1.98337812E-32
   13.9499998        -1.12637889E-32
   14.1000004         1.14260137E-32
   14.2500000         5.03894403E-32
   14.3999996         1.04288530E-31
   14.5500002         1.59872333E-31
   14.6999998         2.00266457E-31
   14.8500004         2.02048318E-31
   15.0000000         1.42077477E-31
   15.1499996        -2.26611257E-32
   15.3000002        -3.17746561E-31
   15.4499998        -7.02735867E-31
   15.6000004        -1.16479867E-30
   15.7500000        -1.65195418E-30
   15.8999996        -2.03943624E-30
   16.0499992        -2.17903720E-30
   16.2000008        -1.89839310E-30
   16.3500004        -1.04967122E-30
   16.5000000         4.64469980E-31
   16.6499996         2.61621521E-30
   16.7999992         5.27249954E-30
   16.9500008         8.10530702E-30
   17.1000004         1.06202006E-29
   17.2500000         1.21910749E-29
   17.3999996         1.21189450E-29
   17.5499992         9.76258327E-30
   17.7000008         4.69395282E-30
   17.8500004        -3.09935994E-30
   18.0000000        -1.31580783E-29
   18.1499996        -2.43463635E-29
   18.2999992        -3.49385780E-29
   18.4500008        -4.27212790E-29
   18.6000004        -4.52202904E-29
   18.7500000        -4.01613690E-29
   18.8999996        -2.59166494E-29
   19.0499992        -2.06101098E-30
   19.2000008         3.01938600E-29
   19.3500004         6.76962269E-29
   19.5000000         1.05384262E-28
   19.6499996         1.36639469E-28
   19.7999992         1.54104657E-28
   19.9500008         1.50799665E-28
   20.1000004         1.21490044E-28
   20.2500000         6.40959236E-29
   20.3999996        -1.91370887E-29
   20.5499992        -1.20972619E-28
   20.7000008        -2.29343373E-28
   20.8500004        -3.28414148E-28
   21.0000000        -4.00599206E-28
   21.1499996        -4.29278566E-28
   21.2999992        -4.01921550E-28
   21.4500008        -3.12984922E-28
   21.6000004        -1.65935151E-28
   21.7500000         2.61526391E-29
   21.8999996         2.41850145E-28
   22.0499992         4.54579026E-28
   22.2000008         6.37340967E-28
   22.3500004         7.68124177E-28
   22.5000000         8.34768431E-28
   22.6499996         8.37889978E-28
   22.7999992         7.90480949E-28
   22.9500008         7.13566722E-28
   23.1000004         6.27961158E-28
   23.2500000         5.43426701E-28
   23.3999996         4.47725364E-28
   23.5499992         2.98968413E-28
   23.7000008         2.50195543E-29
   23.8500004        -4.66789615E-28
   24.0000000        -1.26801571E-27
   24.1499996        -2.43650861E-27
   24.2999992        -3.95715279E-27
   24.4500008        -5.70367273E-27
   24.6000004        -7.41194601E-27
   24.7500000        -8.67635677E-27
   24.8999996        -8.97937951E-27
   25.0499992        -7.76036600E-27
   25.2000008        -4.52229921E-27
   25.3500004         1.03375821E-27
   25.5000000         8.86661323E-27
   25.6499996         1.84734307E-26
   25.7999992         2.88212366E-26
   25.9500008         3.83621702E-26
   26.1000004         4.51541486E-26
   26.2500000         4.70926541E-26
   26.3999996         4.22377792E-26
   26.5499992         2.91973784E-26
   26.7000008         7.50681501E-27
   26.8500004        -2.20664286E-26
   27.0000000        -5.73642764E-26
   27.1499996        -9.48807138E-26
   27.2999992        -1.30029755E-25
   27.4500008        -1.57621435E-25
   27.6000004        -1.72484129E-25
   27.7500000        -1.70135271E-25
   27.8999996        -1.47383413E-25
   28.0499992        -1.02752874E-25
   28.2000008        -3.66590997E-26
   28.3500004         4.86735683E-26
   28.5000000         1.49484963E-25
   28.6499996         2.60805329E-25
   28.7999992         3.76657293E-25
   28.9500008         4.89965009E-25
   29.1000004         5.92076496E-25
   29.2500000         6.71942499E-25
   29.3999996         7.15176613E-25
   29.5499992         7.03410111E-25
   29.7000008         6.14497648E-25
   29.8500004         4.24164247E-25
   30.0000000         1.09563326E-25
   30.1499996        -3.45091542E-25
   30.2999992        -9.41143995E-25
   30.4500008        -1.65728514E-24
   30.6000004        -2.44206172E-24
   30.7500000        -3.20913132E-24
   30.8999996        -3.83749276E-24
   31.0499992        -4.17868338E-24
   31.2000008        -4.07217691E-24
   31.3500004        -3.36892713E-24
   31.5000000        -1.96131963E-24
   31.6499996         1.84070437E-25
   31.7999992         2.99620554E-24
   31.9500008         6.27819803E-24
   32.0999985         9.70138696E-24
   32.2500000         1.28203584E-23
   32.4000015         1.51119654E-23
   32.5499992         1.60377615E-23
   32.7000008         1.51248002E-23
   32.8499985         1.20552098E-23
   33.0000000         6.75110081E-24
   33.1500015        -5.60855797E-25
   33.2999992        -9.32060143E-24
   33.4500008        -1.86539998E-23
   33.5999985        -2.74466450E-23
   33.7500000        -3.44701450E-23
   33.9000015        -3.85492375E-23
   34.0499992        -3.87486331E-23
   34.2000008        -3.45511799E-23
   34.3499985        -2.59954375E-23
   34.5000000        -1.37423198E-23
   34.6500015         9.52055618E-25
   34.7999992         1.63672971E-23
   34.9500008         3.05464834E-23
   35.0999985         4.15952503E-23
   35.2500000         4.80097055E-23
   35.4000015         4.89784583E-23
   35.5499992         4.46000120E-23
   35.7000008         3.59624963E-23
   35.8499985         2.50493898E-23
   36.0000000         1.44605730E-23
   36.1500015         6.97038758E-24
   36.2999992         4.97764092E-24
   36.4500008         9.93163416E-24
   36.5999985         2.18367790E-23
   36.7500000         3.89415695E-23
   36.9000015         5.77025057E-23
   37.0499992         7.30792917E-23
   37.2000008         7.91685027E-23
   37.3499985         7.01242629E-23
   37.5000000         4.12551187E-23
   37.6500015        -9.86196117E-24
   37.7999992        -8.24387477E-23
   37.9500008        -1.71892930E-22
   38.0999985        -2.69782427E-22
   38.2500000        -3.64350820E-22
   38.4000015        -4.41689607E-22
   38.5499992        -4.87420922E-22
   38.7000008        -4.88705314E-22
   38.8499985        -4.36299453E-22
   39.0000000        -3.26344385E-22
   39.1500015        -1.61571903E-22
   39.2999992         4.83260703E-23
   39.4500008         2.87308847E-22
   39.5999985         5.34573700E-22
   39.7500000         7.66949151E-22
   39.9000015         9.61768512E-22
   40.0499992         1.09978358E-21
   40.2000008         1.16762642E-21
   40.3499985         1.15936421E-21
   40.5000000         1.07680942E-21
   40.6500015         9.28455712E-22
   40.7999992         7.27158048E-22
   40.9500008         4.86945182E-22
   41.0999985         2.19580985E-22
   41.2500000        -6.83667629E-23
   41.4000015        -3.77176588E-22
   41.5499992        -7.13707427E-22
   41.7000008        -1.08887443E-21
   41.8499985        -1.51294182E-21
   42.0000000        -1.98919166E-21
   42.1500015        -2.50700026E-21
   42.2999992        -3.03572235E-21
   42.4500008        -3.52095405E-21
   42.5999985        -3.88466190E-21
   42.7500000        -4.03025861E-21
   42.9000015        -3.85304849E-21
   43.0499992        -3.25555227E-21
   43.2000008        -2.16622507E-21
   43.3499985        -5.59153192E-22
   43.5000000         1.52841126E-21
   43.6500015         3.98411380E-21
   43.7999992         6.61737987E-21
   43.9500008         9.16754256E-21
   44.0999985         1.13242746E-20
   44.2500000         1.27596438E-20
   44.4000015         1.31691039E-20
   44.5499992         1.23169083E-20
   44.7000008         1.00799341E-20
   44.8499985         6.48320657E-21
   45.0000000         1.72057687E-21
   45.1500015        -3.84472297E-21
   45.2999992        -9.70268076E-21
   45.4500008        -1.52422714E-20
   45.5999985        -1.98169711E-20
   45.7500000        -2.28232169E-20
   45.9000015        -2.37823037E-20
   46.0499992        -2.24145299E-20
   46.2000008        -1.86942463E-20
   46.3499985        -1.28760832E-20
   46.5000000        -5.48568895E-21
   46.6500015         2.72709997E-21
   46.7999992         1.08694998E-20
   46.9500008         1.80129936E-20
   47.0999985         2.33134587E-20
   47.2500000         2.61282219E-20
   47.4000015         2.61130370E-20
   47.5499992         2.32836188E-20
   47.7000008         1.80302384E-20
   47.8499985         1.10798912E-20
   48.0000000         3.40777571E-21
   48.1500015        -3.89264168E-21
   48.2999992        -9.76499072E-21
   48.4500008        -1.33499051E-20
   48.5999985        -1.41265388E-20
   48.7500000        -1.20137273E-20
   48.9000015        -7.41318053E-21
   49.0499992        -1.18428484E-21
   49.2000008         5.45099018E-21
   49.3499985         1.10646756E-20
   49.5000000         1.42233335E-20
   49.6500015         1.37078772E-20
   49.7999992         8.72374158E-21
   49.9500008        -9.27866628E-22
   50.0999985        -1.47434346E-20
   50.2500000        -3.14940585E-20
   50.4000015        -4.92948399E-20
   50.5499992        -6.57646327E-20
   50.7000008        -7.82628019E-20
   50.8499985        -8.41799802E-20
   51.0000000        -8.12527108E-20
   51.1500015        -6.78683210E-20
   51.2999992        -4.33264119E-20
   51.4500008        -8.02754874E-21
   51.5999985         3.64336580E-20
   51.7500000         8.72845894E-20
   51.9000015         1.40703435E-19
   52.0499992         1.92054407E-19
   52.2000008         2.36214194E-19
   52.3499985         2.67967589E-19
   52.5000000         2.82444413E-19
   52.6500015         2.75567647E-19
   52.7999992         2.44480571E-19
   52.9500008         1.87921334E-19
   53.0999985         1.06514529E-19
   53.2500000         2.95172899E-21
   53.4000015        -1.17963335E-19
   53.5499992        -2.49424009E-19
   53.7000008        -3.82896529E-19
   53.8499985        -5.08565271E-19
   54.0000000        -6.15937192E-19
   54.1500015        -6.94582061E-19
   54.2999992        -7.34967759E-19
   54.4500008        -7.29334297E-19
   54.5999985        -6.72535216E-19
   54.7500000        -5.62764782E-19
   54.9000015        -4.02085827E-19
   55.0499992        -1.96677804E-19
   55.2000008         4.32590451E-20
   55.3499985         3.03982697E-19
   55.5000000         5.69073016E-19
   55.6500015         8.20641853E-19
   55.7999992         1.04080373E-18
   55.9500008         1.21328071E-18
   56.0999985         1.32498070E-18
   56.2500000         1.36737133E-18
   56.4000015         1.33746947E-18
   56.5499992         1.23829331E-18
   56.7000008         1.07866761E-18
   56.8499985         8.72339918E-19
   57.0000000         6.36447601E-19
   57.1500015         3.89460543E-19
   57.2999992         1.48809249E-19
   57.4500008        -7.15281429E-20
   57.5999985        -2.63164255E-19
   57.7500000        -4.24849811E-19
   57.9000015        -5.63149628E-19
   58.0499992        -6.92044323E-19
   58.2000008        -8.31372867E-19
   58.3499985        -1.00416986E-18
   58.5000000        -1.23310389E-18
   58.6500015        -1.53636660E-18
   58.7999992        -1.92347906E-18
   58.9500008        -2.39154955E-18
   59.0999985        -2.92253354E-18
   59.2500000        -3.48197915E-18
   59.4000015        -4.01962173E-18
   59.5499992        -4.47200392E-18
   59.7000008        -4.76706710E-18
   59.8499985        -4.83042624E-18
   60.0000000        -4.59279172E-18
   60.1500015        -3.99783835E-18
   60.2999992        -3.00968591E-18
   60.4500008        -1.61914339E-18
   60.5999985         1.52054718E-19
   60.7500000         2.24961901E-18
   60.9000015         4.58800938E-18
   61.0499992         7.05469257E-18
   61.2000008         9.51702893E-18
   61.3499985         1.18311585E-17
   61.5000000         1.38520153E-17
   61.6500015         1.54434372E-17
   61.7999992         1.64873507E-17
   61.9500008         1.68911125E-17
   62.0999985         1.65923183E-17
   62.2500000         1.55607612E-17
   62.4000015         1.37975654E-17
   62.5499992         1.13319409E-17
   62.7000008         8.21632795E-18
   62.8499985         4.52089360E-18
   63.0000000         3.28450570E-19
   63.1500015        -4.26926153E-18
   63.2999992        -9.17323282E-18
   63.4500008        -1.42764674E-17
   63.5999985        -1.94610915E-17
   63.7500000        -2.45938994E-17
   63.9000015        -2.95214772E-17
   64.0500031        -3.40662655E-17
   64.1999969        -3.80249931E-17
   64.3499985        -4.11709331E-17
   64.5000000        -4.32608280E-17
   64.6500015        -4.40470401E-17
   64.8000031        -4.32944778E-17
   64.9499969        -4.08012991E-17
   65.0999985        -3.64215664E-17
   65.2500000        -3.00873911E-17
   65.4000015        -2.18279547E-17
   65.5500031        -1.17826229E-17
   65.6999969        -2.05830712E-19
   65.8499985         1.25378561E-17
   66.0000000         2.59891662E-17
   66.1500015         3.96194169E-17
   66.3000031         5.28638424E-17
   66.4499969         6.51600079E-17
   66.5999985         7.59873654E-17
   66.7500000         8.49037504E-17
   66.9000015         9.15742341E-17
   67.0500031         9.57888914E-17
   67.1999969         9.74665460E-17
   67.3499985         9.66435608E-17
   67.5000000         9.34482548E-17
   67.6500015         8.80636796E-17
   67.8000031         8.06831242E-17
   67.9499969         7.14642756E-17
   68.0999985         6.04885154E-17
   68.2500000         4.77323050E-17
   68.4000015         3.30564765E-17
   68.5500031         1.62177941E-17
   68.6999969        -3.09514049E-18
   68.8499985        -2.52025108E-17
   69.0000000        -5.03544577E-17
   69.1500015        -7.86398094E-17
   69.3000031        -1.09891970E-16
   69.4499969        -1.43603385E-16
   69.5999985        -1.78860721E-16
   69.7500000        -2.14312226E-16
   69.9000015        -2.48176736E-16
   70.0500031        -2.78300748E-16
   70.1999969        -3.02265348E-16
   70.3499985        -3.17539576E-16
   70.5000000        -3.21672170E-16
   70.6500015        -3.12507724E-16
   70.8000031        -2.88409478E-16
   70.9499969        -2.48468274E-16
   71.0999985        -1.92676265E-16
   71.2500000        -1.22044597E-16
   71.4000015        -3.86480984E-17
   71.5500031         5.44145678E-17
   71.6999969         1.53150505E-16
   71.8499985         2.52888330E-16
   72.0000000         3.48568193E-16
   72.1500015         4.35086308E-16
   72.3000031         5.07666973E-16
   72.4499969         5.62231354E-16
   72.5999985         5.95729230E-16
   72.7500000         6.06401104E-16
   72.9000015         5.93944320E-16
   73.0500031         5.59560765E-16
   73.1999969         5.05877140E-16
   73.3499985         4.36737149E-16
   73.5000000         3.56879968E-16
   73.6500015         2.71528534E-16
   73.8000031         1.85922475E-16
   73.9499969         1.04837109E-16
   74.0999985         3.21336044E-17
   74.2500000        -2.96156136E-17
   74.4000015        -7.93871108E-17
   74.5500031        -1.17822243E-16
   74.6999969        -1.47181530E-16
   74.8499985        -1.71134259E-16
   75.0000000        -1.94397145E-16
   75.1500015        -2.22249666E-16
   75.3000031        -2.59967541E-16
   75.4499969        -3.12224126E-16
   75.5999985        -3.82516056E-16
   75.7500000        -4.72667307E-16
   75.9000015        -5.82460618E-16
   76.0500031        -7.09435304E-16
   76.1999969        -8.48874238E-16
   76.3499985        -9.93987552E-16
   76.5000000        -1.13627945E-15
   76.6500015        -1.26607031E-15
   76.8000031        -1.37312956E-15
   76.9499969        -1.44736405E-15
   77.0999985        -1.47950557E-15
   77.2500000        -1.46173556E-15
   77.4000015        -1.38819796E-15
   77.5500031        -1.25536096E-15
   77.6999969        -1.06220240E-15
   77.8499985        -8.10216131E-16
   78.0000000        -5.03251338E-16
   78.1500015        -1.47214631E-16
   78.3000031         2.50320365E-16
   78.4499969         6.80546927E-16
   78.5999985         1.13384773E-15
   78.7500000         1.60015916E-15
   78.9000015         2.06923733E-15
   79.0500031         2.53080231E-15
   79.1999969         2.97455715E-15
   79.3499985         3.39009140E-15
   79.5000000         3.76670088E-15
   79.6500015         4.09317025E-15
   79.8000031         4.35757116E-15
   79.9499969         4.54713502E-15
   80.0999985         4.64825423E-15
   80.2500000         4.64665969E-15
   80.4000015         4.52779768E-15
   80.5500031         4.27742660E-15
   80.6999969         3.88241363E-15
   80.8499985         3.33170330E-15
   81.0000000         2.61740359E-15
   81.1500015         1.73592340E-15
   81.3000031         6.89079302E-16
   81.4499969        -5.14910217E-16
   81.5999985        -1.86062391E-15
   81.7500000        -3.32490586E-15
   81.9000015        -4.87666260E-15
   82.0500031        -6.47702928E-15
   82.1999969        -8.07993792E-15
   82.3499985        -9.63308125E-15
   82.5000000        -1.10792596E-14
   82.6500015        -1.23580769E-14
   82.8000031        -1.34079327E-14
   82.9499969        -1.41682447E-14
   83.0999985        -1.45818247E-14
   83.2500000        -1.45973304E-14
   83.4000015        -1.41716947E-14
   83.5500031        -1.32724532E-14
   83.6999969        -1.18798700E-14
   83.8499985        -9.98877240E-15
   84.0000000        -7.61000997E-15
   84.1500015        -4.77146111E-15
   84.3000031        -1.51851588E-15
   84.4499969         2.08602192E-15
   84.5999985         5.96265243E-15
   84.7500000         1.00165271E-14
   84.9000015         1.41394168E-14
   85.0500031         1.82122858E-14
   85.1999969         2.21083799E-14
   85.3499985         2.56967689E-14
   85.5000000         2.88462051E-14
   85.6500015         3.14292016E-14
   85.8000031         3.33261488E-14
   85.9499969         3.44293787E-14
   86.0999985         3.46469882E-14
   86.2500000         3.39063528E-14
   86.4000015         3.21572027E-14
   86.5500031         2.93741777E-14
   86.6999969         2.55588414E-14
   86.8499985         2.07411433E-14
   87.0000000         1.49802740E-14
   87.1500015         8.36496874E-15
   87.3000031         1.01324696E-15
   87.4499969        -6.92840171E-15
   87.5999985        -1.52864256E-14
   87.7500000        -2.38622412E-14
   87.9000015        -3.24349888E-14
   88.0500031        -4.07650395E-14
   88.1999969        -4.85984611E-14
   88.3499985        -5.56724466E-14
   88.5000000        -6.17218407E-14
   88.6500015        -6.64867399E-14
   88.8000031        -6.97211792E-14
   88.9499969        -7.12026805E-14
   89.0999985        -7.07424503E-14
   89.2500000        -6.81958355E-14
   89.4000015        -6.34725562E-14
   89.5500031        -5.65461442E-14
   89.6999969        -4.74619089E-14
   89.8499985        -3.63428160E-14
   90.0000000        -2.33926156E-14
   90.1500015        -8.89569417E-15
   90.3000031         6.78676128E-15
   90.4499969         2.32244948E-14
   90.5999985         3.99298006E-14
   90.7500000         5.63727260E-14
   90.9000015         7.19994133E-14
   91.0500031         8.62527348E-14
   91.1999969         9.85943572E-14
   91.3499985         1.08527025E-13
   91.5000000         1.15616067E-13
   91.6500015         1.19508854E-13
   91.8000031         1.19951155E-13
   91.9499969         1.16799677E-13
   92.0999985         1.10029885E-13
   92.2500000         9.97390579E-14
   92.4000015         8.61442197E-14
   92.5500031         6.95754150E-14
   92.6999969         5.04647221E-14
   92.8499985         2.93317684E-14
   93.0000000         6.76658369E-15
   93.1500015        -1.65892199E-14
   93.3000031        -4.00620699E-14
   93.4499969        -6.29660169E-14
   93.5999985        -8.46216136E-14
   93.7500000        -1.04373555E-13
   93.9000015        -1.21606989E-13
   94.0500031        -1.35762143E-13
   94.1999969        -1.46347737E-13
   94.3499985        -1.52952995E-13
   94.5000000        -1.55258971E-13
   94.6500015        -1.53048933E-13
   94.8000031        -1.46218188E-13
   94.9499969        -1.34783325E-13
   95.0999985        -1.18890290E-13
   95.2500000        -9.88211181E-14
   95.4000015        -7.49982894E-14
   95.5500031        -4.79859919E-14
   95.6999969        -1.84872124E-14
   95.8499985         1.26643479E-14
   96.0000000         4.45183610E-14
   96.1500015         7.60286135E-14
   96.3000031         1.06080692E-13
   96.4499969         1.33526409E-13
   96.5999985         1.57224385E-13
   96.7500000         1.76085383E-13
   96.9000015         1.89121098E-13
   97.0500031         1.95493591E-13
   97.1999969         1.94563604E-13
   97.3499985         1.85934452E-13
   97.5000000         1.69489057E-13
   97.6500015         1.45417383E-13
   97.8000031         1.14232069E-13
   97.9499969         7.67704110E-14
   98.0999985         3.41816283E-14
   98.2500000        -1.21010769E-14
   98.4000015        -6.04031527E-14
   98.5500031        -1.08864855E-13
   98.6999969        -1.55508825E-13
   98.8499985        -1.98316502E-13
   99.0000000        -2.35310008E-13
   99.1500015        -2.64636024E-13
   99.3000031        -2.84647658E-13
   99.4499969        -2.93980985E-13
   99.5999985        -2.91622168E-13
   99.7500000        -2.76962725E-13
   99.9000015        -2.49839700E-13
   100.050003        -2.10559773E-13
   100.199997        -1.59905441E-13
   100.349998        -9.91235495E-14
   100.500000        -2.98962413E-14
   100.650002         4.57041834E-14
   100.800003         1.25275089E-13
   100.949997         2.06155609E-13
   101.099998         2.85508623E-13
   101.250000         3.60409836E-13
   101.400002         4.27941347E-13
   101.550003         4.85286616E-13
   101.699997         5.29824665E-13
   101.849998         5.59220367E-13
   102.000000         5.71509420E-13
   102.150002         5.65175185E-13
   102.300003         5.39215536E-13
   102.449997         4.93198310E-13
   102.599998         4.27303538E-13
   102.750000         3.42350605E-13
   102.900002         2.39809393E-13
   103.050003         1.21793851E-13
   103.199997        -8.96289522E-15
   103.349998        -1.49153069E-13
   103.500000        -2.94958204E-13
   103.650002        -4.42133336E-13
   103.800003        -5.86109882E-13
   103.949997        -7.22116540E-13
   104.099998        -8.45316222E-13
   104.250000        -9.50955460E-13
   104.400002        -1.03452294E-12
   104.550003        -1.09191324E-12
   104.699997        -1.11958880E-12
   104.849998        -1.11473678E-12
   105.000000        -1.07541200E-12
   105.150002        -1.00066168E-12
   105.300003        -8.90624488E-13
   105.449997        -7.46599288E-13
   105.599998        -5.71077040E-13
   105.750000        -3.67733459E-13
   105.900002        -1.41378405E-13
   106.050003         1.02138248E-13
   106.199997         3.56064326E-13
   106.349998         6.12924045E-13
   106.500000         8.64733632E-13
   106.650002         1.10324759E-12
   106.800003         1.32022876E-12
   106.949997         1.50773263E-12
   107.099998         1.65839586E-12
   107.250000         1.76571897E-12
   107.400002         1.82433062E-12
   107.550003         1.83022564E-12
   107.699997         1.78096231E-12
   107.849998         1.67581411E-12
   108.000000         1.51586643E-12
   108.150002         1.30405159E-12
   108.300003         1.04512189E-12
   108.449997         7.45556286E-13
   108.599998         4.13404283E-13
   108.750000         5.80703901E-14
   108.900002        -3.09955295E-13
   109.050003        -6.79411388E-13
   109.199997        -1.03861483E-12
   109.349998        -1.37583478E-12
   109.500000        -1.67967691E-12
   109.650002        -1.93946812E-12
   109.800003        -2.14562634E-12
   109.949997        -2.29000347E-12
   110.099998        -2.36619079E-12
   110.250000        -2.36977625E-12
   110.400002        -2.29854308E-12
   110.550003        -2.15260448E-12
   110.699997        -1.93446778E-12
   110.849998        -1.64902510E-12
   111.000000        -1.30347014E-12
   111.150002        -9.07139544E-13
   111.300003        -4.71285283E-13
   111.449997        -8.77946262E-15
   111.599998         4.66237997E-13
   111.750000         9.38762739E-13
   111.900002         1.39336849E-12
   112.050003         1.81467764E-12
   112.199997         2.18784517E-12
   112.349998         2.49904437E-12
   112.500000         2.73593669E-12
   112.650002         2.88811488E-12
   112.800003         2.94749815E-12
   112.949997         2.90867330E-12
   113.099998         2.76916055E-12
   113.250000         2.52960066E-12
   113.400002         2.19384558E-12
   113.550003         1.76895434E-12
   113.699997         1.26508222E-12
   113.849998         6.95269146E-13
   114.000000         7.51257509E-14
   114.150002        -5.77572766E-13
   114.300003        -1.24337888E-12
   114.449997        -1.90173333E-12
   114.599998        -2.53158020E-12
   114.750000        -3.11201715E-12
   114.900002        -3.62295719E-12
   115.050003        -4.04578454E-12
   115.199997        -4.36397663E-12
   115.349998        -4.56367453E-12
   115.500000        -4.63418063E-12
   115.650002        -4.56836175E-12
   115.800003        -4.36294924E-12
   115.949997        -4.01871895E-12
   116.099998        -3.54054720E-12
   116.250000        -2.93733939E-12
   116.400002        -2.22183253E-12
   116.550003        -1.41027814E-12
   116.699997        -5.22016729E-13
   116.849998         4.21041945E-13
   117.000000         1.39501746E-12
   117.150002         2.37471588E-12
   117.300003         3.33432544E-12
   117.449997         4.24812832E-12
   117.599998         5.09120870E-12
   117.750000         5.84013784E-12
   117.900002         6.47361461E-12
   118.050003         6.97304757E-12
   118.199997         7.32305969E-12
   118.349998         7.51191383E-12
