  -1.50000000         0.00000000    
  -1.35000002         0.00000000    
  -1.20000005         0.00000000    
  -1.04999995         0.00000000    
 -0.899999976         0.00000000    
 -0.750000000         0.00000000    
 -0.600000024         0.00000000    
 -0.449999988         0.00000000    
 -0.300000012         0.00000000    
 -0.150000006         0.00000000    
   0.00000000         0.00000000    
  0.150000006         0.00000000    
  0.300000012         0.00000000    
  0.449999988         0.00000000    
  0.600000024         0.00000000    
  0.750000000         0.00000000    
  0.899999976         0.00000000    
   1.04999995         0.00000000    
   1.20000005         0.00000000    
   1.35000002         0.00000000    
   1.50000000         0.00000000    
   1.64999998         0.00000000    
   1.79999995         0.00000000    
   1.95000005         0.00000000    
   2.09999990         0.00000000    
   2.25000000         0.00000000    
   2.40000010         0.00000000    
   2.54999995         0.00000000    
   2.70000005         0.00000000    
   2.84999990         0.00000000    
   3.00000000         0.00000000    
   3.15000010         0.00000000    
   3.29999995         0.00000000    
   3.45000005         0.00000000    
   3.59999990         0.00000000    
   3.75000000         0.00000000    
   3.90000010         0.00000000    
   4.05000019         0.00000000    
   4.19999981         0.00000000    
   4.34999990         0.00000000    
   4.50000000         0.00000000    
   4.65000010         0.00000000    
   4.80000019         0.00000000    
   4.94999981         0.00000000    
   5.09999990         0.00000000    
   5.25000000         0.00000000    
   5.40000010         0.00000000    
   5.55000019         0.00000000    
   5.69999981         0.00000000    
   5.84999990         0.00000000    
   6.00000000         0.00000000    
   6.15000010         0.00000000    
   6.30000019         0.00000000    
   6.44999981         0.00000000    
   6.59999990         0.00000000    
   6.75000000         0.00000000    
   6.90000010         0.00000000    
   7.05000019         0.00000000    
   7.19999981         0.00000000    
   7.34999990         0.00000000    
   7.50000000         0.00000000    
   7.65000010         0.00000000    
   7.80000019         0.00000000    
   7.94999981         0.00000000    
   8.10000038         0.00000000    
   8.25000000         0.00000000    
   8.39999962         0.00000000    
   8.55000019         0.00000000    
   8.69999981         0.00000000    
   8.85000038         0.00000000    
   9.00000000         0.00000000    
   9.14999962         0.00000000    
   9.30000019         0.00000000    
   9.44999981         0.00000000    
   9.60000038         0.00000000    
   9.75000000         0.00000000    
   9.89999962         0.00000000    
   10.0500002         0.00000000    
   10.1999998         0.00000000    
   10.3500004        -4.90737592E-37
   10.5000000        -8.94859352E-36
   10.6499996         2.64559095E-35
   10.8000002         8.78189158E-35
   10.9499998         2.02198322E-34
   11.1000004         3.60703334E-34
   11.2500000         5.47254839E-34
   11.3999996         6.58084579E-34
   11.5500002         6.46616529E-34
   11.6999998         1.86529808E-34
   11.8500004        -9.52966658E-34
   12.0000000        -2.90440942E-33
   12.1499996        -5.56100112E-33
   12.3000002        -8.26571334E-33
   12.4499998        -1.03240510E-32
   12.6000004        -1.15763925E-32
   12.7500000        -1.07357407E-32
   12.8999996        -6.67393897E-33
   13.0500002         8.11562310E-34
   13.1999998         1.17929899E-32
   13.3500004         2.44992595E-32
   13.5000000         3.52455612E-32
   13.6499996         3.89706029E-32
   13.8000002         3.12307220E-32
   13.9499998         7.04329179E-33
   14.1000004        -3.90905180E-32
   14.2500000        -1.01301411E-31
   14.3999996        -1.68130075E-31
   14.5500002        -2.33533982E-31
   14.6999998        -2.77647252E-31
   14.8500004        -2.51275459E-31
   15.0000000        -1.12219944E-31
   15.1499996         1.49244230E-31
   15.3000002         5.21942955E-31
   15.4499998         9.66321432E-31
   15.6000004         1.44284277E-30
   15.7500000         1.83753597E-30
   15.8999996         2.02704522E-30
   16.0499992         1.86858820E-30
   16.2000008         1.22467130E-30
   16.3500004         1.71259388E-32
   16.5000000        -1.75994845E-30
   16.6499996        -4.00403920E-30
   16.7999992        -6.47971456E-30
   16.9500008        -8.81800341E-30
   17.1000004        -1.05405341E-29
   17.2500000        -1.11421374E-29
   17.3999996        -1.01301921E-29
   17.5499992        -7.13917103E-30
   17.7000008        -2.07415640E-30
   17.8500004         4.83851756E-30
   18.0000000         1.30176163E-29
   18.1499996         2.14446943E-29
   18.2999992         2.88448875E-29
   18.4500008         3.37670559E-29
   18.6000004         3.48088275E-29
   18.7500000         3.08360553E-29
   18.8999996         2.12299847E-29
   19.0499992         6.03389338E-30
   19.2000008        -1.39142751E-29
   19.3500004        -3.69890133E-29
   19.5000000        -6.09755379E-29
   19.6499996        -8.32499830E-29
   19.7999992        -1.01085190E-28
   19.9500008        -1.11969667E-28
   20.1000004        -1.13789322E-28
   20.2500000        -1.04956285E-28
   20.3999996        -8.43258074E-29
   20.5499992        -5.10582505E-29
   20.7000008        -4.41709851E-30
   20.8500004         5.63118925E-29
   21.0000000         1.31661229E-28
   21.1499996         2.21410780E-28
   21.2999992         3.23529027E-28
   21.4500008         4.32661558E-28
   21.6000004         5.38449183E-28
   21.7500000         6.24044058E-28
   21.8999996         6.65358673E-28
   22.0499992         6.31740603E-28
   22.2000008         4.88748923E-28
   22.3500004         2.03359400E-28
   22.5000000        -2.48334920E-28
   22.6499996        -8.71492641E-28
   22.7999992        -1.64214494E-27
   22.9500008        -2.49788434E-27
   23.1000004        -3.33207489E-27
   23.2500000        -3.99415106E-27
   23.3999996        -4.29832627E-27
   23.5499992        -4.04246956E-27
   23.7000008        -3.03727010E-27
   23.8500004        -1.14421019E-27
   24.0000000         1.68129620E-27
   24.1499996         5.34738571E-27
   24.2999992         9.59131986E-27
   24.4500008         1.39615361E-26
   24.6000004         1.78244092E-26
   24.7500000         2.04022572E-26
   24.8999996         2.08460793E-26
   25.0499992         1.83420391E-26
   25.2000008         1.22453284E-26
   25.3500004         2.22934307E-27
   25.5000000        -1.15672516E-26
   25.6499996        -2.84171641E-26
   25.7999992        -4.69283615E-26
   25.9500008        -6.50383029E-26
   26.1000004        -8.00979103E-26
   26.2500000        -8.90577493E-26
   26.3999996        -8.87591778E-26
   26.5499992        -7.63207518E-26
   26.7000008        -4.95963445E-26
   26.8500004        -7.66683283E-27
   27.0000000         4.86863688E-26
   27.1499996         1.16588859E-25
   27.2999992         1.90832072E-25
   27.4500008         2.63854375E-25
   27.6000004         3.26008701E-25
   27.7500000         3.66164334E-25
   27.8999996         3.72663364E-25
   28.0499992         3.34614236E-25
   28.2000008         2.43457094E-25
   28.3500004         9.46829685E-26
   28.5000000        -1.10466732E-25
   28.6499996        -3.63540385E-25
   28.7999992        -6.47907189E-25
   28.9500008        -9.38537007E-25
   29.1000004        -1.20275768E-24
   29.2500000        -1.40215145E-24
   29.3999996        -1.49564182E-24
   29.5499992        -1.44368143E-24
   29.7000008        -1.21328207E-24
   29.8500004        -7.83462977E-25
   30.0000000        -1.50542505E-25
   30.1499996         6.67399351E-25
   30.2999992         1.62758916E-24
   30.4500008         2.66180227E-24
   30.6000004         3.67826789E-24
   30.7500000         4.56648701E-24
   30.8999996         5.20491530E-24
   31.0499992         5.47113219E-24
   31.2000008         5.25380022E-24
   31.3500004         4.46547889E-24
   31.5000000         3.05517861E-24
   31.6499996         1.01951703E-24
   31.7999992        -1.58860040E-24
   31.9500008        -4.65467890E-24
   32.0999985        -8.00138066E-24
   32.2500000        -1.13917573E-23
   32.4000015        -1.45371729E-23
   32.5499992        -1.71100049E-23
   32.7000008        -1.87610939E-23
   32.8499985        -1.91418629E-23
   33.0000000        -1.79309504E-23
   33.1500015        -1.48650125E-23
   33.2999992        -9.77293191E-24
   33.4500008        -2.61208885E-24
   33.5999985         6.49559784E-24
   33.7500000         1.72311724E-23
   33.9000015         2.90541479E-23
   34.0499992         4.11914198E-23
   34.2000008         5.26454245E-23
   34.3499985         6.22271531E-23
   34.5000000         6.86183338E-23
   34.6500015         7.04647921E-23
   34.7999992         6.64994092E-23
   34.9500008         5.56890739E-23
   35.0999985         3.73949636E-23
   35.2500000         1.15313612E-23
   35.4000015        -2.12955857E-23
   35.5499992        -5.96895327E-23
   35.7000008        -1.01426055E-22
   35.8499985        -1.43492032E-22
   36.0000000        -1.82213465E-22
   36.1500015        -2.13474445E-22
   36.2999992        -2.33020045E-22
   36.4500008        -2.36825788E-22
   36.5999985        -2.21505478E-22
   36.7500000        -1.84722749E-22
   36.9000015        -1.25566057E-22
   37.0499992        -4.48469413E-23
   37.2000008         5.47144268E-23
   37.3499985         1.68443929E-22
   37.5000000         2.89824265E-22
   37.6500015         4.10763458E-22
   37.7999992         5.22008623E-22
   37.9500008         6.13679915E-22
   38.0999985         6.75890218E-22
   38.2500000         6.99411147E-22
   38.4000015         6.76345056E-22
   38.5499992         6.00768647E-22
   38.7000008         4.69319379E-22
   38.8499985         2.81705031E-22
   39.0000000         4.11244897E-23
   39.1500015        -2.45410059E-22
   39.2999992        -5.66859997E-22
   39.4500008        -9.08076493E-22
   39.5999985        -1.24987889E-21
   39.7500000        -1.56934610E-21
   39.9000015        -1.84038902E-21
   40.0499992        -2.03467912E-21
   40.2000008        -2.12301074E-21
   40.3499985        -2.07715371E-21
   40.5000000        -1.87221043E-21
   40.6500015        -1.48943553E-21
   40.7999992        -9.19384291E-22
   40.9500008        -1.65169387E-22
   41.0999985         7.54500194E-22
   41.2500000         1.80290578E-21
   41.4000015         2.92399824E-21
   41.5499992         4.04264531E-21
   41.7000008         5.06687344E-21
   41.8499985         5.89240534E-21
   42.0000000         6.40960325E-21
   42.1500015         6.51266034E-21
   42.2999992         6.11057948E-21
   42.4500008         5.13914996E-21
   42.5999985         3.57283217E-21
   42.7500000         1.43521097E-21
   42.9000015        -1.19343583E-21
   43.0499992        -4.17290122E-21
   43.2000008        -7.30537725E-21
   43.3499985        -1.03441949E-20
   43.5000000        -1.30092521E-20
   43.6500015        -1.50086768E-20
   43.7999992        -1.60654857E-20
   43.9500008        -1.59471827E-20
   44.0999985        -1.44955680E-20
   44.2500000        -1.16534901E-20
   44.4000015        -7.48514686E-21
   44.5499992        -2.18664811E-21
   44.7000008         3.91574620E-21
   44.8499985         1.03813413E-20
   45.0000000         1.66848727E-20
   45.1500015         2.22591249E-20
   45.2999992         2.65471792E-20
   45.4500008         2.90596013E-20
   45.5999985         2.94307081E-20
   45.7500000         2.74673433E-20
   45.9000015         2.31837141E-20
   46.0499992         1.68167127E-20
   46.2000008         8.81793274E-21
   46.3499985        -1.79066352E-22
   46.5000000        -9.41469670E-21
   46.6500015        -1.80779224E-20
   46.7999992        -2.53920650E-20
   46.9500008        -3.07022851E-20
   47.0999985        -3.35539935E-20
   47.2500000        -3.37516799E-20
   47.4000015        -3.13891810E-20
   47.5499992        -2.68453826E-20
   47.7000008        -2.07434780E-20
   47.8499985        -1.38765396E-20
   48.0000000        -7.10700738E-21
   48.1500015        -1.25181800E-21
   48.2999992         3.03222643E-21
   48.4500008         5.34714186E-21
   48.5999985         5.62179328E-21
   48.7500000         4.13782642E-21
   48.9000015         1.50700554E-21
   49.0499992        -1.40015293E-21
   49.2000008        -3.56777135E-21
   49.3499985        -3.97705167E-21
   49.5000000        -1.75991460E-21
   49.6500015         3.65665126E-21
   49.7999992         1.24358398E-20
   49.9500008         2.42632139E-20
   50.0999985         3.83374497E-20
   50.2500000         5.34237797E-20
   50.4000015         6.79658573E-20
   50.5499992         8.02437314E-20
   50.7000008         8.85590291E-20
   50.8499985         9.14247059E-20
   51.0000000         8.77357001E-20
   51.1500015         7.68995759E-20
   51.2999992         5.89118291E-20
   51.4500008         3.43681266E-20
   51.5999985         4.41437737E-21
   51.7500000        -2.93562263E-20
   51.9000015        -6.50436737E-20
   52.0499992        -1.00599884E-19
   52.2000008        -1.33985772E-19
   52.3499985        -1.63309583E-19
   52.5000000        -1.86934275E-19
   52.6500015        -2.03548521E-19
   52.7999992        -2.12202291E-19
   52.9500008        -2.12313340E-19
   53.0999985        -2.03654219E-19
   53.2500000        -1.86329063E-19
   53.4000015        -1.60747378E-19
   53.5499992        -1.27596991E-19
   53.7000008        -8.78135520E-20
   53.8499985        -4.25392235E-20
   54.0000000         6.93803070E-21
   54.1500015         5.92716720E-20
   54.2999992         1.13171375E-19
   54.4500008         1.67537097E-19
   54.5999985         2.21593414E-19
   54.7500000         2.74993791E-19
   54.9000015         3.27858025E-19
   55.0499992         3.80705043E-19
   55.2000008         4.34250538E-19
   55.3499985         4.89055389E-19
   55.5000000         5.45037060E-19
   55.6500015         6.00885659E-19
   55.7999992         6.53459656E-19
   55.9500008         6.97265590E-19
   56.0999985         7.24140895E-19
   56.2500000         7.23265841E-19
   56.4000015         6.81608715E-19
   56.5499992         5.84872631E-19
   56.7000008         4.18951677E-19
   56.8499985         1.71831896E-19
   57.0000000        -1.64205355E-19
   57.1500015        -5.90296041E-19
   57.2999992        -1.09889910E-18
   57.4500008        -1.67219927E-18
   57.5999985        -2.28130809E-18
   57.7500000        -2.88651789E-18
   57.9000015        -3.43877530E-18
   58.0499992        -3.88241646E-18
   58.2000008        -4.15907322E-18
   58.3499985        -4.21249585E-18
   58.5000000        -3.99391999E-18
   58.6500015        -3.46748095E-18
   58.7999992        -2.61514495E-18
   58.9500008        -1.44061393E-18
   59.0999985         2.82619924E-20
   59.2500000         1.73890901E-18
   59.4000015         3.61545508E-18
   59.5499992         5.56213077E-18
   59.7000008         7.46840199E-18
   59.8499985         9.21542730E-18
   60.0000000         1.06832899E-17
   60.1500015         1.17583914E-17
   60.2999992         1.23404081E-17
   60.4500008         1.23482854E-17
   60.5999985         1.17249138E-17
   60.7500000         1.04402841E-17
   60.9000015         8.49315718E-18
   61.0499992         5.91142598E-18
   61.2000008         2.75150774E-18
   61.3499985        -9.02870741E-19
   61.5000000        -4.94215394E-18
   61.6500015        -9.23246556E-18
   61.7999992        -1.36171415E-17
   61.9500008        -1.79184543E-17
   62.0999985        -2.19399450E-17
   62.2500000        -2.54699763E-17
   62.4000015        -2.82871219E-17
   62.5499992        -3.01680313E-17
   62.7000008        -3.08981770E-17
   62.8499985        -3.02855042E-17
   63.0000000        -2.81766271E-17
   63.1500015        -2.44745836E-17
   63.2999992        -1.91566857E-17
   63.4500008        -1.22905705E-17
   63.5999985        -4.04621228E-18
   63.7500000         5.29830151E-18
   63.9000015         1.53592484E-17
   64.0500031         2.56593974E-17
   64.1999969         3.56503661E-17
   64.3499985         4.47447272E-17
   64.5000000         5.23561686E-17
   64.6500015         5.79448820E-17
   64.8000031         6.10642926E-17
   64.9499969         6.14046080E-17
   65.0999985         5.88284565E-17
   65.2500000         5.33939593E-17
   65.4000015         4.53617477E-17
   65.5500031         3.51834822E-17
   65.6999969         2.34713773E-17
   65.8499985         1.09502930E-17
   66.0000000        -1.60415302E-18
   66.1500015        -1.34359418E-17
   66.3000031        -2.38806844E-17
   66.4499969        -3.24317335E-17
   66.5999985        -3.87927921E-17
   66.7500000        -4.29103979E-17
   66.9000015        -4.49813240E-17
   67.0500031        -4.54324716E-17
   67.1999969        -4.48735490E-17
   67.3499985        -4.40262017E-17
   67.5000000        -4.36357956E-17
   67.6500015        -4.43747326E-17
   67.8000031        -4.67476160E-17
   67.9499969        -5.10090719E-17
   68.0999985        -5.71043937E-17
   68.2500000        -6.46413194E-17
   68.4000015        -7.28983024E-17
   68.5500031        -8.08710397E-17
   68.6999969        -8.73548387E-17
   68.8499985        -9.10563330E-17
   69.0000000        -9.07245872E-17
   69.1500015        -8.52887136E-17
   69.3000031        -7.39877456E-17
   69.4499969        -5.64786084E-17
   69.5999985        -3.29091358E-17
   69.7500000        -3.94662635E-18
   69.9000015         2.92439316E-17
   70.0500031         6.50726180E-17
   70.1999969         1.01643676E-16
   70.3499985         1.36911256E-16
   70.5000000         1.68857725E-16
   70.6500015         1.95677475E-16
   70.8000031         2.15947410E-16
   70.9499969         2.28765838E-16
   71.0999985         2.33843774E-16
   71.2500000         2.31536112E-16
   71.4000015         2.22806617E-16
   71.5500031         2.09125658E-16
   71.6999969         1.92307753E-16
   71.8499985         1.74301394E-16
   72.0000000         1.56950123E-16
   72.1500015         1.41747496E-16
   72.3000031         1.29610705E-16
   72.4499969         1.20697986E-16
   72.5999985         1.14292061E-16
   72.7500000         1.08767249E-16
   72.9000015         1.01651491E-16
   73.0500031         8.97859093E-17
   73.1999969         6.95760936E-17
   73.3499985         3.73201294E-17
   73.5000000        -1.04098331E-17
   73.6500015        -7.63616216E-17
   73.8000031        -1.62207259E-16
   73.9499969        -2.68192495E-16
   74.0999985        -3.92865925E-16
   74.2500000        -5.32917873E-16
   74.4000015        -6.83151395E-16
   74.5500031        -8.36598401E-16
   74.6999969        -9.84783798E-16
   74.8499985        -1.11812711E-15
   75.0000000        -1.22646199E-15
   75.1500015        -1.29964024E-15
   75.3000031        -1.32818355E-15
   75.4499969        -1.30393628E-15
   75.5999985        -1.22067549E-15
   75.7500000        -1.07463186E-15
   75.9000015        -8.64885649E-16
   76.0500031        -5.93604978E-16
   76.1999969        -2.66110965E-16
   76.3499985         1.09238153E-16
   76.5000000         5.21335703E-16
   76.6500015         9.56767971E-16
   76.8000031         1.40037808E-15
   76.9499969         1.83591384E-15
   77.0999985         2.24671635E-15
   77.2500000         2.61640664E-15
   77.4000015         2.92952846E-15
   77.5500031         3.17211742E-15
   77.6999969         3.33216642E-15
   77.8499985         3.39997882E-15
   78.0000000         3.36840778E-15
   78.1500015         3.23298754E-15
   78.3000031         2.99197871E-15
   78.4499969         2.64634819E-15
   78.5999985         2.19971132E-15
   78.7500000         1.65826245E-15
   78.9000015         1.03070823E-15
   79.0500031         3.28217564E-16
   79.1999969        -4.35611416E-16
   79.3499985        -1.24478278E-15
   79.5000000        -2.08095052E-15
   79.6500015        -2.92351410E-15
   79.8000031        -3.74979919E-15
   79.9499969        -4.53535406E-15
   80.0999985        -5.25440033E-15
   80.2500000        -5.88044450E-15
   80.4000015        -6.38707693E-15
   80.5500031        -6.74892898E-15
   80.6999969        -6.94277162E-15
   80.8499985        -6.94870255E-15
   81.0000000        -6.75136039E-15
   81.1500015        -6.34108473E-15
   81.3000031        -5.71494951E-15
   81.4499969        -4.87756977E-15
   81.5999985        -3.84162476E-15
   81.7500000        -2.62801607E-15
   81.9000015        -1.26562742E-15
   82.0500031         2.09337734E-16
   82.1999969         1.75443446E-15
   82.3499985         3.32243782E-15
   82.5000000         4.86312786E-15
   82.6500015         6.32531171E-15
   82.8000031         7.65899049E-15
   82.9499969         8.81754945E-15
   83.0999985         9.75985751E-15
   83.2500000         1.04521621E-14
   83.4000015         1.08696596E-14
   83.5500031         1.09976564E-14
   83.6999969         1.08322470E-14
   83.8499985         1.03804404E-14
   84.0000000         9.65973653E-15
   84.1500015         8.69713779E-15
   84.3000031         7.52765041E-15
   84.4499969         6.19233177E-15
   84.5999985         4.73599922E-15
   84.7500000         3.20471231E-15
   84.9000015         1.64319775E-15
   85.0500031         9.23716362E-17
   85.1999969        -1.41286366E-15
   85.3499985        -2.84537065E-15
   85.5000000        -4.18692790E-15
   85.6500015        -5.42864983E-15
   85.8000031        -6.57060228E-15
   85.9499969        -7.62057162E-15
   86.0999985        -8.59204811E-15
   86.2500000        -9.50151331E-15
   86.4000015        -1.03652370E-14
   86.5500031        -1.11958071E-14
   86.6999969        -1.19987121E-14
   86.8499985        -1.27693054E-14
   87.0000000        -1.34904727E-14
   87.1500015        -1.41313327E-14
   87.3000031        -1.46472241E-14
   87.4499969        -1.49811245E-14
   87.5999985        -1.50665884E-14
   87.7500000        -1.48320839E-14
   87.9000015        -1.42065433E-14
   88.0500031        -1.31257479E-14
   88.1999969        -1.15390824E-14
   88.3499985        -9.41610952E-15
   88.5000000        -6.75236539E-15
   88.6500015        -3.57379336E-15
   88.8000031         6.07002339E-17
   88.9499969         4.05895986E-15
   89.0999985         8.29779648E-15
   89.2500000         1.26277315E-14
   89.4000015         1.68800791E-14
   89.5500031         2.08759706E-14
   89.6999969         2.44367227E-14
   89.8499985         2.73947989E-14
   90.0000000         2.96045469E-14
   90.1500015         3.09518714E-14
   90.3000031         3.13620047E-14
   90.4499969         3.08047858E-14
   90.5999985         2.92969181E-14
   90.7500000         2.69010261E-14
   90.9000015         2.37215405E-14
   91.0500031         1.98977187E-14
   91.1999969         1.55943644E-14
   91.3499985         1.09910174E-14
   91.5000000         6.27044430E-15
   91.6500015         1.60742724E-15
   91.8000031        -2.84131866E-15
   91.9499969        -6.94531103E-15
   92.0999985        -1.06059503E-14
   92.2500000        -1.37593557E-14
   92.4000015        -1.63762944E-14
   92.5500031        -1.84594110E-14
   92.6999969        -2.00382229E-14
   92.8499985        -2.11624677E-14
   93.0000000        -2.18946362E-14
   93.1500015        -2.23024097E-14
   93.3000031        -2.24518009E-14
   93.4499969        -2.24016193E-14
   93.5999985        -2.21997036E-14
   93.7500000        -2.18811175E-14
   93.9000015        -2.14683059E-14
   94.0500031        -2.09729288E-14
   94.1999969        -2.03989013E-14
   94.3499985        -1.97460558E-14
   94.5000000        -1.90137297E-14
   94.6500015        -1.82036494E-14
   94.8000031        -1.73215493E-14
   94.9499969        -1.63771703E-14
   95.0999985        -1.53824639E-14
   95.2500000        -1.43481435E-14
   95.4000015        -1.32789126E-14
   95.5500031        -1.21680145E-14
   95.6999969        -1.09918288E-14
   95.8499985        -9.70540769E-15
   96.0000000        -8.23981708E-15
   96.1500015        -6.50200066E-15
   96.3000031        -4.37780720E-15
   96.4499969        -1.73839801E-15
   96.5999985         1.54996738E-15
   96.7500000         5.61319671E-15
   96.9000015         1.05544930E-14
   97.0500031         1.64383481E-14
   97.1999969         2.32748476E-14
   97.3499985         3.10056885E-14
   97.5000000         3.94933618E-14
   97.6500015         4.85150013E-14
   97.8000031         5.77618126E-14
   97.9499969         6.68450213E-14
   98.0999985         7.53084186E-14
   98.2500000         8.26474441E-14
   98.4000015         8.83339016E-14
   98.5500031         9.18450767E-14
   98.6999969         9.26955791E-14
   98.8499985         9.04698747E-14
   99.0000000         8.48533076E-14
   99.1500015         7.56594901E-14
   99.3000031         6.28520470E-14
   99.4499969         4.65588634E-14
   99.5999985         2.70778849E-14
   99.7500000         4.87357516E-15
   99.9000015        -1.94359045E-14
   100.050003        -4.51002354E-14
   100.199997        -7.12661064E-14
   100.349998        -9.70121742E-14
   100.500000        -1.21387966E-13
   100.650002        -1.43454476E-13
   100.800003        -1.62323971E-13
   100.949997        -1.77197192E-13
   101.099998        -1.87395794E-13
   101.250000        -1.92388694E-13
   101.400002        -1.91811316E-13
   101.550003        -1.85477149E-13
   101.699997        -1.73381993E-13
   101.849998        -1.55700851E-13
   102.000000        -1.32779001E-13
   102.150002        -1.05117792E-13
   102.300003        -7.33569157E-14
   102.449997        -3.82540442E-14
   102.599998        -6.63363646E-16
   102.750000         3.84863616E-14
   102.900002         7.82132673E-14
   103.050003         1.17503202E-13
   103.199997         1.55329471E-13
   103.349998         1.90672185E-13
   103.500000         2.22536697E-13
   103.650002         2.49972460E-13
   103.800003         2.72092028E-13
   103.949997         2.88090569E-13
   104.099998         2.97266362E-13
   104.250000         2.99041797E-13
   104.400002         2.92984604E-13
   104.550003         2.78828582E-13
   104.699997         2.56493177E-13
   104.849998         2.26100592E-13
   105.000000         1.87989124E-13
   105.150002         1.42722057E-13
   105.300003         9.10903772E-14
   105.449997         3.41087903E-14
   105.599998        -2.69961022E-14
   105.750000        -9.08052388E-14
   105.900002        -1.55734800E-13
   106.050003        -2.20071520E-13
   106.199997        -2.82014782E-13
   106.349998        -3.39724532E-13
   106.500000        -3.91373566E-13
   106.650002        -4.35202520E-13
   106.800003        -4.69575605E-13
   106.949997        -4.93035029E-13
   107.099998        -5.04352636E-13
   107.250000        -5.02576225E-13
   107.400002        -4.87069532E-13
   107.550003        -4.57543725E-13
   107.699997        -4.14079930E-13
   107.849998        -3.57141481E-13
   108.000000        -2.87575953E-13
   108.150002        -2.06606420E-13
   108.300003        -1.15812728E-13
   108.449997        -1.71029555E-14
   108.599998         8.73237165E-14
   108.750000         1.95021828E-13
   108.900002         3.03350715E-13
   109.050003         4.09531214E-13
   109.199997         5.10705790E-13
   109.349998         6.04001983E-13
   109.500000         6.86597589E-13
   109.650002         7.55786601E-13
   109.800003         8.09045647E-13
   109.949997         8.44099638E-13
   110.099998         8.58987089E-13
   110.250000         8.52122518E-13
   110.400002         8.22357644E-13
   110.550003         7.69038370E-13
   110.699997         6.92056818E-13
   110.849998         5.91897625E-13
   111.000000         4.69675134E-13
   111.150002         3.27160418E-13
   111.300003         1.66794462E-13
   111.449997        -8.31445254E-15
   111.599998        -1.94412222E-13
   111.750000        -3.87141952E-13
   111.900002        -5.81610172E-13
   112.050003        -7.72477731E-13
   112.199997        -9.54076011E-13
   112.349998        -1.12054680E-12
   112.500000        -1.26600499E-12
   112.650002        -1.38471884E-12
   112.800003        -1.47130463E-12
   112.949997        -1.52092835E-12
   113.099998        -1.52950699E-12
   113.250000        -1.49390266E-12
   113.400002        -1.41209874E-12
   113.550003        -1.28335309E-12
   113.699997        -1.10831591E-12
   113.849998        -8.89109533E-13
   114.000000        -6.29361580E-13
   114.150002        -3.34188921E-13
   114.300003        -1.01295849E-14
   114.449997         3.34976675E-13
   114.599998         6.92157540E-13
   114.750000         1.05152313E-12
   114.900002         1.40252014E-12
   115.050003         1.73421976E-12
   115.199997         2.03562883E-12
   115.349998         2.29601646E-12
   115.500000         2.50524753E-12
   115.650002         2.65411109E-12
   115.800003         2.73463717E-12
   115.949997         2.74039081E-12
   116.099998         2.66673749E-12
   116.250000         2.51106948E-12
   116.400002         2.27298909E-12
   116.550003         1.95444073E-12
   116.699997         1.55978572E-12
   116.849998         1.09581756E-12
   117.000000         5.71710431E-13
   117.150002        -1.09940165E-15
   117.300003        -6.09104076E-13
   117.449997        -1.23698393E-12
   117.599998        -1.86793745E-12
   117.750000        -2.48407826E-12
   117.900002        -3.06689114E-12
   118.050003        -3.59774146E-12
   118.199997        -4.05842417E-12
   118.349998        -4.43174056E-12
