  -1.50000000         0.00000000    
  -1.30999994         0.00000000    
  -1.12000000         0.00000000    
 -0.930000007         0.00000000    
 -0.740000010         0.00000000    
 -0.550000012         0.00000000    
 -0.360000014         0.00000000    
 -0.170000002         0.00000000    
   1.99999996E-02     0.00000000    
  0.209999993         0.00000000    
  0.400000006         0.00000000    
  0.589999974         0.00000000    
  0.779999971         0.00000000    
  0.970000029         0.00000000    
   1.15999997         0.00000000    
   1.35000002         0.00000000    
   1.53999996         0.00000000    
   1.73000002         0.00000000    
   1.91999996         0.00000000    
   2.10999990         0.00000000    
   2.29999995         0.00000000    
   2.49000001         0.00000000    
   2.68000007         0.00000000    
   2.86999989         0.00000000    
   3.05999994         0.00000000    
   3.25000000         0.00000000    
   3.44000006         0.00000000    
   3.63000011         0.00000000    
   3.81999993         0.00000000    
   4.01000023         0.00000000    
   4.19999981         0.00000000    
   4.38999987         0.00000000    
   4.57999992         0.00000000    
   4.76999998         0.00000000    
   4.96000004         0.00000000    
   5.15000010         0.00000000    
   5.34000015         0.00000000    
   5.53000021         0.00000000    
   5.71999979         0.00000000    
   5.90999985         0.00000000    
   6.09999990         0.00000000    
   6.28999996         0.00000000    
   6.48000002         0.00000000    
   6.67000008         0.00000000    
   6.86000013         0.00000000    
   7.05000019         0.00000000    
   7.23999977         0.00000000    
   7.42999983         0.00000000    
   7.61999989         0.00000000    
   7.80999994         0.00000000    
   8.00000000         0.00000000    
   8.18999958         0.00000000    
   8.38000011         0.00000000    
   8.56999969         0.00000000    
   8.76000023         0.00000000    
   8.94999981         0.00000000    
   9.14000034         0.00000000    
   9.32999992         0.00000000    
   9.52000046         0.00000000    
   9.71000004         0.00000000    
   9.89999962         0.00000000    
   10.0900002         0.00000000    
   10.2799997         0.00000000    
   10.4700003         0.00000000    
   10.6599998         0.00000000    
   10.8500004         0.00000000    
   11.0400000         0.00000000    
   11.2299995         0.00000000    
   11.4200001         2.83974241E-36
   11.6099997         8.99446392E-36
   11.8000002        -2.46978279E-35
   11.9899998         6.74747016E-35
   12.1800003         5.20980520E-34
   12.3699999         1.20813094E-33
   12.5600004         1.58240531E-33
   12.7500000         5.58754434E-34
   12.9399996        -1.66979175E-33
   13.1300001        -4.43466411E-33
   13.3199997        -6.54286327E-33
   13.5100002        -6.21097346E-33
   13.6999998         7.62368845E-33
   13.8900003         2.59722597E-32
   14.0799999         4.91051510E-32
   14.2700005         4.67881223E-32
   14.4600000        -6.87554213E-33
   14.6499996        -9.45549083E-32
   14.8400002        -2.11904933E-31
   15.0299997        -3.10716188E-31
   15.2200003        -4.08862138E-31
   15.4099998        -4.66909130E-31
   15.6000004        -4.07541352E-31
   15.7900000        -2.16580391E-31
   15.9799995         2.38838259E-31
   16.1700001         9.62251306E-31
   16.3600006         1.79462440E-30
   16.5499992         2.49123515E-30
   16.7399998         2.71767579E-30
   16.9300003         2.20451439E-30
   17.1200008         8.85612930E-31
   17.3099995        -1.10085638E-30
   17.5000000        -3.30601561E-30
   17.6900005        -5.00764769E-30
   17.8799992        -5.36214782E-30
   18.0699997        -3.70430808E-30
   18.2600002         2.06823647E-31
   18.4500008         5.81254835E-30
   18.6399994         1.16026483E-29
   18.8299999         1.53716985E-29
   19.0200005         1.47421075E-29
   19.2099991         8.06483390E-30
   19.3999996        -4.53079232E-30
   19.5900002        -2.04651558E-29
   19.7800007        -3.46757307E-29
   19.9699993        -4.05564284E-29
   20.1599998        -3.19305463E-29
   20.3500004        -5.67609697E-30
   20.5400009         3.55403107E-29
   20.7299995         8.17903146E-29
   20.9200001         1.16508663E-28
   21.1100006         1.20014180E-28
   21.2999992         7.58549717E-29
   21.4899998        -2.15603915E-29
   21.6800003        -1.60318694E-28
   21.8700008        -3.07372689E-28
   22.0599995        -4.11758911E-28
   22.2500000        -4.15164196E-28
   22.4400005        -2.69385045E-28
   22.6299992         4.29026293E-29
   22.8199997         4.89751274E-28
   23.0100002         9.80867261E-28
   23.2000008         1.37402583E-27
   23.3899994         1.50057156E-27
   23.5799999         1.20834973E-27
   23.7700005         4.15038722E-28
   23.9599991        -8.41138155E-28
   24.1499996        -2.36875632E-27
   24.3400002        -3.82450629E-27
   24.5300007        -4.75862006E-27
   24.7199993        -4.70654176E-27
   24.9099998        -3.31607234E-27
   25.1000004        -4.86439396E-28
   25.2900009         3.51541842E-27
   25.4799995         8.00137764E-27
   25.6700001         1.19082606E-26
   25.8600006         1.39662030E-26
   26.0499992         1.29858122E-26
   26.2399998         8.22526084E-27
   26.4300003        -2.40105036E-28
   26.6200008        -1.12547702E-26
   26.8099995        -2.25472825E-26
   27.0000000        -3.10205469E-26
   27.1900005        -3.34033382E-26
   27.3799992        -2.71951231E-26
   27.5699997        -1.17112487E-26
   27.7600002         1.10767650E-26
   27.9500008         3.62650790E-26
   28.1399994         5.66145380E-26
   28.3299999         6.41490656E-26
   28.5200005         5.25827562E-26
   28.7099991         2.00437138E-26
   28.8999996        -2.87463564E-26
   29.0900002        -8.18012582E-26
   29.2800007        -1.21491950E-25
   29.4699993        -1.28711137E-25
   29.6599998        -8.90108491E-26
   29.8500004         7.63415663E-28
   30.0400009         1.27503896E-25
   30.2299995         2.60831928E-25
   30.4200001         3.57684769E-25
   30.6100006         3.72663069E-25
   30.7999992         2.72306896E-25
   30.9899998         4.95230236E-26
   31.1800003        -2.66763669E-25
   31.3700008        -6.11339739E-25
   31.5599995        -8.94306266E-25
   31.7500000        -1.02342584E-24
   31.9400005        -9.31899531E-25
   32.1300011        -6.02979441E-25
   32.3199997        -8.19769955E-26
   32.5099983         5.31143992E-25
   32.7000008         1.10936691E-24
   32.8899994         1.53922116E-24
   33.0800018         1.76000094E-24
   33.2700005         1.78409749E-24
   33.4599991         1.68448092E-24
   33.6500015         1.54627476E-24
   33.8400002         1.39541872E-24
   34.0299988         1.13347114E-24
   34.2200012         5.16602869E-25
   34.4099998        -7.87770305E-25
   34.5999985        -3.05489580E-24
   34.7900009        -6.29139133E-24
   34.9799995        -1.00241944E-23
   35.1699982        -1.31863323E-23
   35.3600006        -1.42003577E-23
   35.5499992        -1.13251814E-23
   35.7400017        -3.25549879E-24
   35.9300003         1.01414538E-23
   36.1199989         2.71705879E-23
   36.3100014         4.40170817E-23
   36.5000000         5.50842827E-23
   36.6899986         5.41093074E-23
   36.8800011         3.59878661E-23
   37.0699997        -1.03353657E-24
   37.2599983        -5.33955082E-23
   37.4500008        -1.11235055E-22
   37.6399994        -1.59053506E-22
   37.8300018        -1.78430113E-22
   38.0200005        -1.52640736E-22
   38.2099991        -7.23854349E-23
   38.4000015         5.87846209E-23
   38.5900002         2.21112360E-22
   38.7799988         3.79045242E-22
   38.9700012         4.86478429E-22
   39.1599998         4.96759116E-22
   39.3499985         3.75930743E-22
   39.5400009         1.16286655E-22
   39.7299995        -2.53632488E-22
   39.9199982        -6.66512088E-22
   40.1100006        -1.02403980E-21
   40.2999992        -1.21561411E-21
   40.4900017        -1.14564495E-21
   40.6800003        -7.64030846E-22
   40.8699989        -9.20699694E-23
   41.0600014         7.64666781E-22
   41.2500000         1.62348887E-21
   41.4399986         2.25494120E-21
   41.6300011         2.43388606E-21
   41.8199997         2.00246916E-21
   42.0099983         9.30646044E-22
   42.2000008        -6.42955767E-22
   42.3899994        -2.40593680E-21
   42.5800018        -3.91313904E-21
   42.7700005        -4.67417025E-21
   42.9599991        -4.27541951E-21
   43.1500015        -2.51238804E-21
   43.3400002         5.00437051E-22
   43.5299988         4.27685496E-21
   43.7200012         7.99132162E-21
   43.9099998         1.06087101E-20
   44.0999985         1.11013277E-20
   44.2900009         8.71811611E-21
   44.4799995         3.24936214E-21
   44.6699982        -4.78161164E-21
   44.8600006        -1.40654825E-20
   45.0499992        -2.26382257E-20
   45.2400017        -2.82062191E-20
   45.4300003        -2.86285401E-20
   45.6199989        -2.24728752E-20
   45.8100014        -9.52531191E-21
   46.0000000         8.88006580E-21
   46.1899986         2.98301944E-20
   46.3800011         4.91714510E-20
   46.5699997         6.22136950E-20
   46.7599983         6.47076187E-20
   46.9500008         5.39190574E-20
   47.1399994         2.95657777E-20
   47.3300018        -5.63139351E-21
   47.5200005        -4.59883082E-20
   47.7099991        -8.35934122E-20
   47.9000015        -1.09701365E-19
   48.0900002        -1.16583753E-19
   48.2799988        -9.94909059E-20
   48.4700012        -5.82875533E-20
   48.6599998         1.68068853E-21
   48.8499985         6.98356538E-20
   49.0400009         1.31879240E-19
   49.2299995         1.72451583E-19
   49.4199982         1.78525971E-19
   49.6100006         1.42883534E-19
   49.7999992         6.68692807E-20
   49.9900017        -3.83492693E-20
   50.1800003        -1.52594635E-19
   50.3699989        -2.49759974E-19
   50.5600014        -3.02860808E-19
   50.7500000        -2.90245373E-19
   50.9399986        -2.01728556E-19
   51.1300011        -4.32015496E-20
   51.3199997         1.61644624E-19
   51.5099983         3.73425931E-19
   51.7000008         5.43229516E-19
   51.8899994         6.22161985E-19
   52.0800018         5.72698187E-19
   52.2700005         3.79537426E-19
   52.4599991         5.73687107E-20
   52.6500015        -3.46812894E-19
   52.8400002        -7.58365441E-19
   53.0299988        -1.08682754E-18
   53.2200012        -1.24349162E-18
   53.4099998        -1.16172378E-18
   53.5999985        -8.15876104E-19
   53.7900009        -2.34228650E-19
   53.9799995         4.98019649E-19
   54.1699982         1.24809736E-18
   54.3600006         1.85731330E-18
   54.5499992         2.17215933E-18
   54.7400017         2.07936538E-18
   54.9300003         1.53758648E-18
   55.1199989         5.97958422E-19
   55.3100014        -5.92967524E-19
   55.5000000        -1.81142483E-18
   55.6899986        -2.79501062E-18
   55.8800011        -3.29607961E-18
   56.0699997        -3.14009920E-18
   56.2599983        -2.27636982E-18
   56.4500008        -8.08257202E-19
   56.6399994         1.00727986E-18
   56.8300018         2.79564899E-18
   57.0200005         4.13344261E-18
   57.2099991         4.63950468E-18
   57.4000015         4.07078658E-18
   57.5900002         2.40161861E-18
   57.7799988        -1.34625958E-19
   57.9700012        -3.05725541E-18
   58.1599998        -5.70946942E-18
   58.3499985        -7.38250921E-18
   58.5400009        -7.47302097E-18
   58.7299995        -5.64312747E-18
   58.9199982        -1.94707232E-18
   59.1100006         3.11000782E-18
   59.2999992         8.60595483E-18
   59.4900017         1.33360482E-17
   59.6800003         1.60348085E-17
   59.8699989         1.56502092E-17
   60.0600014         1.16181446E-17
   60.2500000         4.07649743E-18
   60.4399986        -6.03825800E-18
   60.6300011        -1.70523846E-17
   60.8199997        -2.67866295E-17
   61.0099983        -3.29359199E-17
   61.2000008        -3.35391761E-17
   61.3899994        -2.74531253E-17
   61.5800018        -1.47299939E-17
   61.7700005         3.19584787E-18
   61.9599991         2.35810316E-17
   62.1500015         4.27304233E-17
   62.3400002         5.66068281E-17
   62.5299988         6.16040842E-17
   62.7200012         5.53479154E-17
   62.9099998         3.73634042E-17
   63.0999985         9.45309945E-18
   63.2900009        -2.43328842E-17
   63.4799995        -5.81860945E-17
   63.6699982        -8.54527998E-17
   63.8600006        -9.98443925E-17
   64.0500031        -9.67412476E-17
   64.2399979        -7.43399525E-17
   64.4300003        -3.43928331E-17
   64.6200027         1.76622698E-17
   64.8099976         7.32875273E-17
   65.0000000         1.22121478E-16
   65.1900024         1.53780870E-16
   65.3799973         1.59896633E-16
   65.5699997         1.36009880E-16
   65.7600021         8.29355303E-17
   65.9499969         7.25849002E-18
   66.1399994        -7.92412888E-17
   66.3300018        -1.61251528E-16
   66.5199966        -2.22481833E-16
   66.7099991        -2.48714390E-16
   66.9000015        -2.30811608E-16
   67.0899963        -1.67086871E-16
   67.2799988        -6.45007979E-17
   67.4700012         6.16866765E-17
   67.6600037         1.89917810E-16
   67.8499985         2.95790734E-16
   68.0400009         3.56457643E-16
   68.2300034         3.55219334E-16
   68.4199982         2.85444730E-16
   68.6100006         1.52980927E-16
   68.8000031        -2.35813609E-17
   68.9899979        -2.15074596E-16
   69.1800003        -3.86201072E-16
   69.3700027        -5.01650181E-16
   69.5599976        -5.32887697E-16
   69.7500000        -4.64381843E-16
   69.9400024        -2.98008320E-16
   70.1299973        -5.45927888E-17
   70.3199997         2.28010681E-16
   70.5100021         5.00303928E-16
   70.6999969         7.09327678E-16
   70.8899994         8.08373040E-16
   71.0800018         7.66528395E-16
   71.2699966         5.76224814E-16
   71.4599991         2.57134956E-16
   71.6500015        -1.44690525E-16
   71.8399963        -5.62775361E-16
   72.0299988        -9.20649322E-16
   72.2200012        -1.14523852E-15
   72.4100037        -1.18097780E-15
   72.5999985        -1.00205109E-15
   72.7900009        -6.20256763E-16
   72.9800034        -8.65772757E-17
   73.1699982         5.14468542E-16
   73.3600006         1.07734121E-15
   73.5500031         1.49318345E-15
   73.7399979         1.66988469E-15
   73.9300003         1.55096529E-15
   74.1200027         1.12961553E-15
   74.3099976         4.54782736E-16
   74.5000000        -3.72595738E-16
   74.6900024        -1.21344966E-15
   74.8799973        -1.91287632E-15
   75.0699997        -2.32749640E-15
   75.2600021        -2.35321105E-15
   75.4499969        -1.94819060E-15
   75.6399994        -1.14634951E-15
   75.8300018        -5.79138330E-17
   76.0199966         1.14419815E-15
   76.2099991         2.25090112E-15
   76.4000015         3.05255343E-15
   76.5899963         3.37777660E-15
   76.7799988         3.12847998E-15
   76.9700012         2.30418881E-15
   77.1600037         1.01017340E-15
   77.3499985        -5.53523220E-16
   77.5400009        -2.12172754E-15
   77.7300034        -3.40842564E-15
   77.9199982        -4.15857390E-15
   78.1100006        -4.19826417E-15
   78.3000031        -3.47361139E-15
   78.4899979        -2.07005514E-15
   78.6800003        -2.06807409E-16
   78.8700027         1.79454835E-15
   79.0599976         3.56343246E-15
   79.2500000         4.74722410E-15
   79.4400024         5.08009492E-15
   79.6299973         4.44067102E-15
   79.8199997         2.88651549E-15
   80.0100021         6.56878709E-16
   80.1999969        -1.85946835E-15
   80.3899994        -4.18801422E-15
   80.5800018        -5.85421739E-15
   80.7699966        -6.47638215E-15
   80.9599991        -5.84826021E-15
   81.1500015        -3.99442611E-15
   81.3399963        -1.18524897E-15
   81.5299988         2.09500936E-15
   81.7200012         5.22492189E-15
   81.9100037         7.55648934E-15
   82.0999985         8.54107790E-15
   82.2900009         7.84751377E-15
   82.4800034         5.44857713E-15
   82.6699982         1.65608938E-15
   82.8600006        -2.90701093E-15
   83.0500031        -7.39807978E-15
   83.2399979        -1.08978573E-14
   83.4300003        -1.25823576E-14
   83.6200027        -1.18930126E-14
   83.8099976        -8.67208849E-15
   84.0000000        -3.23404654E-15
   84.1900024         3.64674196E-15
   84.3799973         1.08372817E-14
   84.5699997         1.70249540E-14
   84.7600021         2.09471062E-14
   84.9499969         2.16320458E-14
   85.1399994         1.86067067E-14
   85.3300018         1.20287987E-14
   85.5199966         2.71208451E-15
   85.7099991        -7.96887242E-15
   85.9000015        -1.82862809E-14
   86.0899963        -2.64488393E-14
   86.2799988        -3.09253830E-14
   86.4700012        -3.07439824E-14
   86.6600037        -2.57081394E-14
   86.8499985        -1.64830172E-14
   87.0400009        -4.52578894E-15
   87.2300034         8.13804522E-15
   87.4199982         1.92609600E-14
   87.6100006         2.67851300E-14
   87.8000031         2.92455845E-14
   87.9899979         2.60868851E-14
   88.1800003         1.78262048E-14
   88.3700027         6.02020451E-15
   88.5599976        -6.97242921E-15
   88.7500000        -1.84020940E-14
   88.9400024        -2.56465449E-14
   89.1299973        -2.67440421E-14
   89.3199997        -2.08390451E-14
   89.5100021        -8.44700557E-15
   89.6999969         8.52765751E-15
   89.8899994         2.70439951E-14
   90.0800018         4.34207114E-14
   90.2699966         5.40004476E-14
   90.4599991         5.58680164E-14
   90.6500015         4.74888785E-14
   90.8399963         2.91385839E-14
   91.0299988         3.02329606E-15
   91.2200012        -2.69576926E-14
   91.4100037        -5.57923763E-14
   91.5999985        -7.81979597E-14
   91.7900009        -8.95867446E-14
   91.9800034        -8.69840563E-14
   92.1699982        -6.97214774E-14
   92.3600006        -3.97570364E-14
   92.5500031        -1.53229330E-15
   92.7399979         3.86439233E-14
   92.9300003         7.36078340E-14
   93.1200027         9.65918223E-14
   93.3099976         1.02500792E-13
   93.5000000         8.89794897E-14
   93.6900024         5.70576437E-14
   93.8799973         1.12225818E-14
   94.0699997        -4.11366091E-14
   94.2600021        -9.08571449E-14
   94.4499969        -1.28537277E-13
   94.6399994        -1.46225900E-13
   94.8300018        -1.38969009E-13
   95.0199966        -1.05921009E-13
   95.2099991        -5.07882243E-14
   95.4000015         1.85208768E-14
   95.5899963         9.10286589E-14
   95.7799988         1.54450156E-13
   95.9700012         1.97305415E-13
   96.1600037         2.11022064E-13
   96.3499985         1.91646869E-13
   96.5400009         1.40832346E-13
   96.7300034         6.58750805E-14
   96.9199982        -2.12588312E-14
   97.1100006        -1.05806463E-13
   97.3000031        -1.72694216E-13
   97.4899979        -2.09224998E-13
   97.6800003        -2.07492985E-13
   97.8700027        -1.66074538E-13
   98.0599976        -9.06483886E-14
   98.2500000         6.62784011E-15
   98.4400024         1.08942891E-13
   98.6299973         1.97597486E-13
   98.8199997         2.55264180E-13
   99.0100021         2.69181406E-13
   99.1999969         2.33703139E-13
   99.3899994         1.51709103E-13
   99.5800018         3.45604994E-14
   99.7699966        -9.94693423E-14
   99.9599991        -2.28088625E-13
   100.150002        -3.28754981E-13
   100.339996        -3.82686802E-13
   100.529999        -3.78410221E-13
   100.720001        -3.14181678E-13
   100.910004        -1.98793659E-13
   101.099998        -5.05381496E-14
   101.290001         1.05579018E-13
   101.480003         2.41960694E-13
   101.669998         3.33205604E-13
   101.860001         3.60736804E-13
   102.050003         3.16437143E-13
   102.239998         2.04597461E-13
   102.430000         4.17521005E-14
   102.620003        -1.45662277E-13
   102.809998        -3.25503405E-13
   103.000000        -4.65306233E-13
   103.190002        -5.37942683E-13
   103.379997        -5.26559482E-13
   103.570000        -4.27884507E-13
   103.760002        -2.53247781E-13
   103.949997        -2.70468174E-14
   104.139999         2.17161955E-13
   104.330002         4.42330797E-13
   104.519997         6.14388043E-13
   104.709999         7.08363977E-13
   104.900002         7.13050333E-13
   105.089996         6.33291054E-13
   105.279999         4.89394983E-13
   105.470001         3.13669121E-13
   105.660004         1.44593755E-13
   105.849998         1.96167681E-14
   106.040001        -3.21632640E-14
   106.230003         3.92171850E-15
   106.419998         1.24442015E-13
   106.610001         3.07404438E-13
   106.800003         5.15225937E-13
   106.989998         7.00764858E-13
   107.180000         8.15451602E-13
   107.370003         8.18133972E-13
   107.559998         6.83060596E-13
   107.750000         4.05510315E-13
   107.940002         3.94137686E-15
   108.129997        -4.81884714E-13
   108.320000        -9.96639403E-13
   108.510002        -1.47814844E-12
   108.699997        -1.86764406E-12
   108.889999        -2.11975251E-12
   109.080002        -2.21039723E-12
   109.269997        -2.14109828E-12
   109.459999        -1.93874799E-12
   109.650002        -1.65072979E-12
   109.839996        -1.33609595E-12
   110.029999        -1.05427223E-12
   110.220001        -8.53278494E-13
   110.410004        -7.59632158E-13
   110.599998        -7.71889551E-13
   110.790001        -8.59207941E-13
   110.980003        -9.65453086E-13
   111.169998        -1.01838839E-12
   111.360001        -9.42533920E-13
   111.550003        -6.73539783E-13
   111.739998        -1.71544948E-13
   111.930000         5.68953467E-13
   112.120003         1.51468410E-12
   112.309998         2.59571032E-12
