  -1.50000000         0.00000000    
  -1.30999994         0.00000000    
  -1.12000000         0.00000000    
 -0.930000007        -3.65484373E-26
 -0.740000010         1.33562148E-24
 -0.550000012         1.73379684E-23
 -0.360000014         1.16104270E-22
 -0.170000002         5.62009298E-22
   1.99999996E-02     2.19838273E-21
  0.209999993         7.31543670E-21
  0.400000006         2.12957875E-20
  0.589999974         5.51844046E-20
  0.779999971         1.28852819E-19
  0.970000029         2.73625996E-19
   1.15999997         5.32376027E-19
   1.35000002         9.54639012E-19
   1.53999996         1.58477538E-18
   1.73000002         2.44281924E-18
   1.91999996         3.50024206E-18
   2.10999990         4.65572280E-18
   2.29999995         5.71813745E-18
   2.49000001         6.40433050E-18
   2.68000007         6.35717004E-18
   2.86999989         5.18489547E-18
   3.05999994         2.51694724E-18
   3.25000000        -1.93406449E-18
   3.44000006        -8.31776759E-18
   3.63000011        -1.66117620E-17
   3.81999993        -2.66157985E-17
   4.01000023        -3.79748329E-17
   4.19999981        -5.02227341E-17
   4.38999987        -6.28323415E-17
   4.57999992        -7.52554958E-17
   4.76999998        -8.69411359E-17
   4.96000004        -9.73277980E-17
   5.15000010        -1.05819508E-16
   5.34000015        -1.11763959E-16
   5.53000021        -1.14458120E-16
   5.71999979        -1.13202764E-16
   5.90999985        -1.07414074E-16
   6.09999990        -9.67760222E-17
   6.28999996        -8.13900989E-17
   6.48000002        -6.18533104E-17
   6.67000008        -3.91859147E-17
   6.86000013        -1.45448395E-17
   7.05000019         1.12974583E-17
   7.23999977         3.86547357E-17
   7.42999983         6.96667592E-17
   7.61999989         1.08848081E-16
   7.80999994         1.63167517E-16
   8.00000000         2.41391817E-16
   8.18999958         3.52530163E-16
   8.38000011         5.03417409E-16
   8.56999969         6.95751063E-16
   8.76000023         9.23207785E-16
   8.94999981         1.16951395E-15
   9.14000034         1.40842955E-15
   9.32999992         1.60643737E-15
   9.52000046         1.72842017E-15
   9.71000004         1.74582098E-15
   9.89999962         1.64580482E-15
   10.0900002         1.43903465E-15
   10.2799997         1.16316121E-15
   10.4700003         8.79262763E-16
   10.6599998         6.59545751E-16
   10.8500004         5.66554822E-16
   11.0400000         6.26744506E-16
   11.2299995         8.03935911E-16
   11.4200001         9.80233219E-16
   11.6099997         9.52555041E-16
   11.8000002         4.51473590E-16
   11.9899998        -8.14698364E-16
   12.1800003        -3.09333828E-15
   12.3699999        -6.50792481E-15
   12.5600004        -1.09810910E-14
   12.7500000        -1.61799742E-14
   12.9399996        -2.15037017E-14
   13.1300001        -2.61281797E-14
   13.3199997        -2.91138675E-14
   13.5100002        -2.95687479E-14
   13.6999998        -2.68438429E-14
   13.8900003        -2.07249108E-14
   14.0799999        -1.15752490E-14
   14.2700005        -3.83550071E-16
   14.4600000         1.13205267E-14
   14.6499996         2.17011755E-14
   14.8400002         2.89920777E-14
   15.0299997         3.19701303E-14
   15.2200003         3.04517526E-14
   15.4099998         2.57098742E-14
   15.6000004         2.06965809E-14
   15.7900000         1.99628403E-14
   15.9799995         2.91950302E-14
   16.1700001         5.43407448E-14
   16.3600006         1.00367794E-13
   16.5499992         1.69783174E-13
   16.7399998         2.61121365E-13
   16.9300003         3.67676565E-13
   17.1200008         4.76787392E-13
   17.3099995         5.69969527E-13
   17.5000000         6.24121631E-13
   17.6900005         6.13904327E-13
   17.8799992         5.15212601E-13
   18.0699997         3.09456481E-13
   18.2600002        -1.18468722E-14
   18.4500008        -4.42841185E-13
   18.6399994        -9.60235038E-13
   18.8299999        -1.52211338E-12
   19.0200005        -2.06929287E-12
   19.2099991        -2.52959285E-12
   19.3999996        -2.82499588E-12
   19.5900002        -2.88121762E-12
   19.7800007        -2.63871520E-12
   19.9699993        -2.06376127E-12
   20.1599998        -1.15794234E-12
   20.3500004         3.56020890E-14
   20.5400009         1.43064607E-12
   20.7299995         2.90200177E-12
   20.9200001         4.29551750E-12
   21.1100006         5.44329295E-12
   21.2999992         6.18257572E-12
   21.4899998         6.37608499E-12
   21.6800003         5.93108028E-12
   21.8700008         4.81447304E-12
   22.0599995         3.06173424E-12
   22.2500000         7.78202860E-13
   22.4400005        -1.86745736E-12
   22.6299992        -4.65669517E-12
   22.8199997        -7.33939385E-12
   23.0100002        -9.65448207E-12
   23.2000008        -1.13501699E-11
   23.3899994        -1.22017891E-11
   23.5799999        -1.20262932E-11
   23.7700005        -1.06938737E-11
   23.9599991        -8.13832075E-12
   24.1499996        -4.36838283E-12
   24.3400002         5.17959048E-13
   24.5300007         6.31585539E-12
   24.7199993         1.26946188E-11
   24.9099998         1.91824508E-11
   25.1000004         2.51627018E-11
   25.2900009         2.98911104E-11
   25.4799995         3.25429857E-11
   25.6700001         3.22960200E-11
   25.8600006         2.84482837E-11
   26.0499992         2.05623678E-11
   26.2399998         8.61715040E-12
   26.4300003        -6.85983605E-12
   26.6200008        -2.47118038E-11
   26.8099995        -4.31558782E-11
   27.0000000        -5.98947766E-11
   27.1900005        -7.23471352E-11
   27.3799992        -7.79859025E-11
   27.5699997        -7.47504073E-11
   27.7600002        -6.14749293E-11
   27.9500008        -3.82599508E-11
   28.1399994        -6.70673890E-12
   28.3299999         3.00555969E-11
   28.5200005         6.75969072E-11
   28.7099991         1.00674941E-10
   28.8999996         1.23947699E-10
   29.0900002         1.32822059E-10
   29.2800007         1.24311644E-10
   29.4699993         9.77536316E-11
   29.6599998         5.52356078E-11
   29.8500004         1.61340863E-12
   30.0400009        -5.59434131E-11
   30.2299995        -1.08865403E-10
   30.4200001        -1.48458773E-10
   30.6100006        -1.67366773E-10
   30.7999992        -1.60983837E-10
   30.9899998        -1.28568059E-10
   31.1800003        -7.38179448E-11
   31.3700008        -4.74566046E-12
   31.5599995         6.72179187E-11
   31.7500000         1.28823979E-10
   31.9400005         1.67119860E-10
   32.1300011         1.71772596E-10
   32.3199997         1.37227826E-10
   32.5099983         6.43164064E-11
   32.7000008        -3.90278157E-11
   32.8899994        -1.58162677E-10
   33.0800018        -2.73306072E-10
   33.2700005        -3.62152669E-10
   33.4599991        -4.03228478E-10
   33.6500015        -3.79522830E-10
   33.8400002        -2.81846130E-10
   34.0299988        -1.11353218E-10
   34.2200012         1.19250693E-10
   34.4099998         3.86144172E-10
   34.5999985         6.56561749E-10
   34.7900009         8.92545982E-10
   34.9799995         1.05586495E-09
   35.1699982         1.11347154E-09
   35.3600006         1.04274311E-09
   35.5499992         8.35713332E-10
   35.7400017         5.01586106E-10
   35.9300003         6.70248301E-11
   36.1199989        -4.26009311E-10
   36.3100014        -9.24749999E-10
   36.5000000        -1.37197764E-09
   36.6899986        -1.71344938E-09
   36.8800011        -1.90540361E-09
   37.0699997        -1.92104843E-09
   37.2599983        -1.75500925E-09
   37.4500008        -1.42492751E-09
   37.6399994        -9.69776481E-10
   37.8300018        -4.44905890E-10
   38.0200005         8.56687915E-11
   38.2099991         5.58763980E-10
   38.4000015         9.21990539E-10
   38.5900002         1.14268317E-09
   38.7799988         1.21433652E-09
   38.9700012         1.15935161E-09
   39.1599998         1.02737585E-09
   39.3499985         8.89140039E-10
   39.5400009         8.26397839E-10
   39.7299995         9.19224974E-10
   39.9199982         1.23245680E-09
   40.1100006         1.80331783E-09
   40.2999992         2.63227729E-09
   40.4900017         3.67881769E-09
   40.6800003         4.86317298E-09
   40.8699989         6.07423489E-09
   41.0600014         7.18289250E-09
   41.2500000         8.05916400E-09
   41.4399986         8.59078053E-09
   41.6300011         8.70050609E-09
   41.8199997         8.35948555E-09
   42.0099983         7.59434471E-09
   42.2000008         6.48659526E-09
   42.3899994         5.16397369E-09
   42.5800018         3.78454246E-09
   42.7700005         2.51553778E-09
   42.9599991         1.50981794E-09
   43.1500015         8.83298157E-10
   43.3400002         6.96745439E-10
   43.5299988         9.44831990E-10
   43.7200012         1.55438074E-09
   43.9099998         2.39246090E-09
   44.0999985         3.28356231E-09
   44.2900009         4.03370048E-09
   44.4799995         4.45820758E-09
   44.6699982         4.40930314E-09
   44.8600006         3.79941634E-09
   45.0499992         2.61672350E-09
   45.2400017         9.30361899E-10
   45.4300003        -1.11580201E-09
   45.6199989        -3.32035133E-09
   45.8100014        -5.45035173E-09
   46.0000000        -7.27279348E-09
   46.1899986        -8.58712035E-09
   46.3800011        -9.25422938E-09
   46.5699997        -9.21767995E-09
   46.7599983        -8.51388116E-09
   46.9500008        -7.26945482E-09
   47.1399994        -5.68581715E-09
   47.3300018        -4.01281008E-09
   47.5200005        -2.51484655E-09
   47.7099991        -1.43420897E-09
   47.9000015        -9.56627333E-10
   48.0900002        -1.18410570E-09
   48.2799988        -2.11900919E-09
   48.4700012        -3.66191655E-09
   48.6599998        -5.62381874E-09
   48.8499985        -7.75119346E-09
   49.0400009        -9.76061010E-09
   49.2299995        -1.13780763E-08
   49.4199982        -1.23775834E-08
   49.6100006        -1.26133051E-08
   49.7999992        -1.20407337E-08
   49.9900017        -1.07235749E-08
   50.1800003        -8.82520101E-09
   50.3699989        -6.58571020E-09
   50.5600014        -4.28771330E-09
   50.7500000        -2.21567675E-09
   50.9399986        -6.14636231E-10
   51.1300011         3.45720702E-10
   51.3199997         5.96298122E-10
   51.5099983         1.79338502E-10
   51.7000008        -7.57094165E-10
   51.8899994        -1.98031680E-09
   52.0800018        -3.20703353E-09
   52.2700005        -4.14535384E-09
   52.4599991        -4.53878357E-09
   52.6500015        -4.20577262E-09
   52.8400002        -3.06894554E-09
   53.0299988        -1.16957499E-09
   53.2200012         1.33505274E-09
   53.4099998         4.19125579E-09
   53.5999985         7.08292802E-09
   53.7900009         9.67509628E-09
   53.9799995         1.16608074E-08
   54.1699982         1.28045166E-08
   54.3600006         1.29755877E-08
   54.5499992         1.21668862E-08
   54.7400017         1.04956328E-08
   54.9300003         8.18625345E-09
   55.1199989         5.53769119E-09
   55.3100014         2.87993962E-09
   55.5000000         5.26253874E-10
   55.6899986        -1.27184818E-09
   55.8800011        -2.36004838E-09
   56.0699997        -2.70182365E-09
   56.2599983        -2.38107711E-09
   56.4500008        -1.58644109E-09
   56.6399994        -5.79679027E-10
   56.8300018         3.46938533E-10
   57.0200005         9.17711074E-10
   57.2099991         9.17764531E-10
   57.4000015         2.27651620E-10
   57.5900002        -1.15706911E-09
   57.7799988        -3.12429638E-09
   57.9700012        -5.46213030E-09
   58.1599998        -7.89127697E-09
   58.3499985        -1.01080504E-08
   58.5400009        -1.18312471E-08
   58.7299995        -1.28455557E-08
   58.9199982        -1.30346551E-08
   59.1100006        -1.23988038E-08
   59.2999992        -1.10540848E-08
   59.4900017        -9.21338206E-09
   59.6800003        -7.15203718E-09
   59.8699989        -5.16356113E-09
   60.0600014        -3.51242857E-09
   60.2500000        -2.39148301E-09
   60.4399986        -1.89084370E-09
   60.6300011        -1.98346073E-09
   60.8199997        -2.52987031E-09
   61.0099983        -3.30167071E-09
   61.2000008        -4.02022238E-09
   61.3899994        -4.40455050E-09
   61.5800018        -4.22081747E-09
   61.7700005        -3.32529138E-09
   61.9599991        -1.69358072E-09
   62.1500015         5.69064185E-10
   62.3400002         3.23867555E-09
   62.5299988         6.00362826E-09
   62.7200012         8.51146353E-09
   62.9099998         1.04243902E-08
   63.0999985         1.14747474E-08
   63.2900009         1.15114203E-08
   63.4799995         1.05293516E-08
   63.6699982         8.67675087E-09
   63.8600006         6.23801188E-09
   64.0500031         3.59419761E-09
   64.2399979         1.16661503E-09
   64.4300003        -6.48094578E-10
   64.6200027        -1.54130109E-09
   64.8099976        -1.34403244E-09
   65.0000000        -5.83657636E-11
   65.1900024         2.13703988E-09
   65.3799973         4.90891283E-09
   65.5699997         7.81616905E-09
   65.7600021         1.03748885E-08
   65.9499969         1.21317605E-08
   66.1399994         1.27347706E-08
   66.3300018         1.19900525E-08
   66.5199966         9.89584059E-09
   66.7099991         6.64780320E-09
   66.9000015         2.61446842E-09
   67.0899963        -1.71395920E-09
   67.2799988        -5.79590020E-09
   67.4700012        -9.11729447E-09
   67.6600037        -1.12671366E-08
   67.8499985        -1.19981269E-08
   68.0400009        -1.12631318E-08
   68.2300034        -9.22182064E-09
   68.4199982        -6.21638607E-09
   68.6100006        -2.72000933E-09
   68.8000031         7.34137307E-10
   68.9899979         3.63257779E-09
   69.1800003         5.55784663E-09
   69.3700027         6.24992635E-09
   69.5599976         5.64360336E-09
   69.7500000         3.87625088E-09
   69.9400024         1.26504140E-09
   70.1299973        -1.74277315E-09
   70.3199997        -4.63885641E-09
   70.5100021        -6.93155711E-09
   70.6999969        -8.22074142E-09
   70.8899994        -8.25851298E-09
   71.0800018        -6.98687641E-09
   71.2699966        -4.54691440E-09
   71.4599991        -1.25832966E-09
   71.6500015         2.42739451E-09
   71.8399963         5.99313976E-09
   72.0299988         8.93175756E-09
   72.2200012         1.08200373E-08
   72.4100037         1.13803171E-08
   72.5999985         1.05209201E-08
   72.7900009         8.34976532E-09
   72.9800034         5.15939602E-09
   73.1699982         1.38575840E-09
   73.3600006        -2.45326892E-09
   73.5500031        -5.83080695E-09
   73.7399979        -8.28510593E-09
   73.9300003        -9.48455625E-09
   74.1200027        -9.27462196E-09
   74.3099976        -7.70032482E-09
   74.5000000        -5.00127006E-09
   74.6900024        -1.57995617E-09
   74.8799973         2.05231165E-09
   75.0699997         5.34461897E-09
   75.2600021         7.78147857E-09
   75.4499969         8.95368135E-09
   75.6399994         8.61548521E-09
   75.8300018         6.72045442E-09
   76.0199966         3.43097706E-09
   76.2099991        -9.00040042E-10
   76.4000015        -5.77323567E-09
   76.5899963        -1.06071054E-08
   76.7799988        -1.48143338E-08
   76.9700012        -1.78801631E-08
   77.1600037        -1.94323455E-08
   77.3499985        -1.92930969E-08
   77.5400009        -1.75056147E-08
   77.7300034        -1.43309409E-08
   77.9199982        -1.02148645E-08
   78.1100006        -5.72865400E-09
   78.3000031        -1.49113388E-09
   78.4899979         1.91744975E-09
   78.6800003         4.03782741E-09
   78.8700027         4.59846028E-09
   79.0599976         3.55652618E-09
   79.2500000         1.10635323E-09
   79.4400024        -2.34701347E-09
   79.6299973        -6.24634255E-09
   79.8199997        -9.96518512E-09
   80.0100021        -1.29036106E-08
   80.1999969        -1.45826098E-08
   80.3899994        -1.47226356E-08
   80.5800018        -1.32935929E-08
   80.7699966        -1.05274225E-08
   80.9599991        -6.88986690E-09
   81.1500015        -3.01423708E-09
   81.3399963         3.93930194E-10
   81.5299988         2.66746292E-09
   81.7200012         3.28652372E-09
   81.9100037         1.96866878E-09
   82.0999985        -1.27506405E-09
   82.2900009        -6.12827034E-09
   82.4800034        -1.20051507E-08
   82.6699982        -1.81304980E-08
   82.8600006        -2.36527082E-08
   83.0500031        -2.77731793E-08
   83.2399979        -2.98721865E-08
   83.4300003        -2.96112450E-08
   83.6200027        -2.69949840E-08
   83.8099976        -2.23814354E-08
   84.0000000        -1.64374825E-08
   84.1900024        -1.00448458E-08
   84.3799973        -4.16992263E-09
   84.5699997         2.83017193E-10
   84.7600021         2.61268984E-09
   84.9499969         2.43344567E-09
   85.1399994        -2.58643440E-10
   85.3300018        -5.07767162E-09
   85.5199966        -1.13002701E-08
   85.7099991        -1.79715194E-08
   85.9000015        -2.40488447E-08
   86.0899963        -2.85621056E-08
   86.2799988        -3.07651007E-08
   86.4700012        -3.02547072E-08
   86.6600037        -2.70385012E-08
   86.8499985        -2.15395755E-08
   87.0400009        -1.45368952E-08
   87.2300034        -7.04968039E-09
   87.4199982        -1.83124196E-10
   87.6100006         5.04093922E-09
   87.8000031         7.84221932E-09
   87.9899979         7.80426124E-09
   88.1800003         4.94148944E-09
   88.3700027        -2.99883479E-10
   88.5599976        -7.10772108E-09
   88.7500000        -1.44267940E-08
   88.9400024        -2.11197939E-08
   89.1299973        -2.61416453E-08
   89.3199997        -2.87000361E-08
   89.5100021        -2.83770358E-08
   89.6999969        -2.51927332E-08
   89.8899994        -1.96007282E-08
   90.0800018        -1.24160504E-08
   90.2699966        -4.68658534E-09
   90.4599991         2.47194820E-09
   90.6500015         8.05167666E-09
   90.8399963         1.13113865E-08
   91.0299988         1.18935297E-08
   91.2200012         9.88101512E-09
   91.4100037         5.78479886E-09
   91.5999985         4.64158129E-10
   91.7900009        -5.00791053E-09
   91.9800034        -9.51310497E-09
   92.1699982        -1.20636878E-08
   92.3600006        -1.19583241E-08
   92.5500031        -8.89354101E-09
   92.7399979        -3.01351299E-09
   92.9300003         5.10949683E-09
   93.1200027         1.45608130E-08
   93.3099976         2.42216505E-08
   93.5000000         3.29384093E-08
   93.6900024         3.96966726E-08
   93.8799973         4.37730350E-08
   94.0699997         4.48415811E-08
   94.2600021         4.30190390E-08
   94.4499969         3.88422912E-08
   94.6399994         3.31823884E-08
   94.8300018         2.71089799E-08
   95.0199966         2.17264731E-08
   95.2099991         1.80072490E-08
   95.4000015         1.66473111E-08
   95.5899963         1.79658386E-08
   95.7799988         2.18630642E-08
   95.9700012         2.78416721E-08
   96.1600037         3.50871439E-08
   96.3499985         4.25937152E-08
   96.5400009         4.93159185E-08
   96.7300034         5.43224594E-08
   96.9199982         5.69293412E-08
   97.1100006         5.67930769E-08
   97.3000031         5.39512719E-08
   97.4899979         4.88062533E-08
   97.6800003         4.20560191E-08
   97.8700027         3.45845237E-08
   98.0599976         2.73288965E-08
   98.2500000         2.11439186E-08
   98.4400024         1.66836944E-08
   98.6299973         1.43170897E-08
   98.8199997         1.40877647E-08
   99.0100021         1.57226747E-08
   99.1999969         1.86856379E-08
   99.3899994         2.22661729E-08
   99.5800018         2.56892765E-08
   99.7699966         2.82294330E-08
   99.9599991         2.93125719E-08
   100.150002         2.85921384E-08
   100.339996         2.59899622E-08
   100.529999         2.16979785E-08
   100.720001         1.61424687E-08
   100.910004         9.91755034E-09
   101.099998         3.69837827E-09
   101.290001        -1.85340387E-09
   101.480003        -6.17906259E-09
   101.669998        -8.89554919E-09
   101.860001        -9.84285631E-09
   102.050003        -9.10084097E-09
   102.239998        -6.97434333E-09
   102.430000        -3.94941768E-09
   102.620003        -6.26809549E-10
   102.809998         2.35861441E-09
   103.000000         4.42227366E-09
   103.190002         5.10759746E-09
   103.379997         4.14732204E-09
   103.570000         1.50051005E-09
   103.760002        -2.63980060E-09
   103.949997        -7.86995447E-09
   104.139999        -1.36279104E-08
   104.330002        -1.92684517E-08
   104.519997        -2.41522233E-08
   104.709999        -2.77371193E-08
   104.900002        -2.96594767E-08
   105.089996        -2.97931599E-08
   105.279999        -2.82769328E-08
   105.470001        -2.55043204E-08
   105.660004        -2.20752803E-08
   105.849998        -1.87145588E-08
   106.040001        -1.61669131E-08
   106.230003        -1.50836534E-08
   106.419998        -1.59172178E-08
   106.610001        -1.88404243E-08
   106.800003        -2.37043221E-08
   106.989998        -3.00433989E-08
   107.180000        -3.71300466E-08
   107.370003        -4.40725181E-08
   107.559998        -4.99433987E-08
   107.750000        -5.39200649E-08
   107.940002        -5.54156223E-08
   108.129997        -5.41792780E-08
   108.320000        -5.03488984E-08
   108.510002        -4.44451551E-08
   108.699997        -3.73057034E-08
   108.889999        -2.99670297E-08
   109.080002        -2.35104984E-08
   109.269997        -1.88953049E-08
   109.459999        -1.68041652E-08
   109.650002        -1.75264390E-08
   109.839996        -2.08984527E-08
   110.029999        -2.63124367E-08
   110.220001        -3.27951213E-08
   110.410004        -3.91460802E-08
   110.599998        -4.41163088E-08
   110.790001        -4.66005226E-08
   110.980003        -4.58138096E-08
   111.169998        -4.14247303E-08
   111.360001        -3.36229498E-08
   111.550003        -2.31090365E-08
   111.739998        -1.10056755E-08
   111.930000         1.29821853E-09
   112.120003         1.23484485E-08
   112.309998         2.08418935E-08
