  -1.50000000         0.00000000    
  -1.35000002         0.00000000    
  -1.20000005         0.00000000    
  -1.04999995        -3.69289697E-18
 -0.899999976        -3.25436577E-17
 -0.750000000        -1.66179645E-16
 -0.600000024        -6.42436215E-16
 -0.449999988        -2.07628316E-15
 -0.300000012        -5.88298687E-15
 -0.150000006        -1.49952292E-14
   0.00000000        -3.49130040E-14
  0.150000006        -7.49908016E-14
  0.300000012        -1.49653700E-13
  0.449999988        -2.79002001E-13
  0.600000024        -4.88116925E-13
  0.750000000        -8.04427542E-13
  0.899999976        -1.25279192E-12
   1.04999995        -1.84845607E-12
   1.20000005        -2.58866756E-12
   1.35000002        -3.44429043E-12
   1.50000000        -4.35315065E-12
   1.64999998        -5.21695230E-12
   1.79999995        -5.90337067E-12
   1.95000005        -6.25438763E-12
   2.09999990        -6.10111744E-12
   2.25000000        -5.28438925E-12
   2.40000010        -3.67929428E-12
   2.54999995        -1.22098978E-12
   2.70000005         2.07165621E-12
   2.84999990         6.07828718E-12
   3.00000000         1.05686813E-11
   3.15000010         1.52065912E-11
   3.29999995         1.95674622E-11
   3.45000005         2.31700666E-11
   3.59999990         2.55203879E-11
   3.75000000         2.61643086E-11
   3.90000010         2.47441043E-11
   4.05000019         2.10527359E-11
   4.19999981         1.50794221E-11
   4.34999990         7.04024946E-12
   4.50000000        -2.61141607E-12
   4.65000010        -1.31982732E-11
   4.80000019        -2.38574646E-11
   4.94999981        -3.36026172E-11
   5.09999990        -4.14054242E-11
   5.25000000        -4.62901453E-11
   5.40000010        -4.74323116E-11
   5.55000019        -4.42518799E-11
   5.69999981        -3.64909075E-11
   5.84999990        -2.42667969E-11
   6.00000000        -8.09451204E-12
   6.15000010         1.11260263E-11
   6.30000019         3.21574815E-11
   6.44999981         5.35042011E-11
   6.59999990         7.35163458E-11
   6.75000000         9.05100231E-11
   6.90000010         1.02893319E-10
   7.05000019         1.09287863E-10
   7.19999981         1.08636537E-10
   7.34999990         1.00289742E-10
   7.50000000         8.40649841E-11
   7.65000010         6.02767072E-11
   7.80000019         2.97354849E-11
   7.94999981        -6.28237479E-12
   8.10000038        -4.60933514E-11
   8.25000000        -8.76908823E-11
   8.39999962        -1.28852679E-10
   8.55000019        -1.67268518E-10
   8.69999981        -2.00685191E-10
   8.85000038        -2.27063784E-10
   9.00000000        -2.44742282E-10
   9.14999962        -2.52593280E-10
   9.30000019        -2.50162807E-10
   9.44999981        -2.37773606E-10
   9.60000038        -2.16573495E-10
   9.75000000        -1.88510749E-10
   9.89999962        -1.56222035E-10
   10.0500002        -1.22825819E-10
   10.1999998        -9.16260193E-11
   10.3500004        -6.57441740E-11
   10.5000000        -4.77135380E-11
   10.6499996        -3.90818281E-11
   10.8000002        -4.00783712E-11
   10.9499998        -4.94042446E-11
   11.1000004        -6.41976888E-11
   11.2500000        -8.02114902E-11
   11.3999996        -9.22150134E-11
   11.5500002        -9.46023190E-11
   11.6999998        -8.21541585E-11
   11.8500004        -5.08691769E-11
   12.0000000         1.24466128E-12
   12.1499996         7.35411523E-11
   12.3000002         1.62387659E-10
   12.4499998         2.61194510E-10
   12.6000004         3.60878910E-10
   12.7500000         4.50764259E-10
   12.8999996         5.19853383E-10
   13.0500002         5.58347923E-10
   13.1999998         5.59231550E-10
   13.3500004         5.19695953E-10
   13.5000000         4.42180764E-10
   13.6499996         3.34817007E-10
   13.8000002         2.11121939E-10
   13.9499998         8.88758719E-11
   14.1000004        -1.17806901E-11
   14.2500000        -7.08765130E-11
   14.3999996        -7.15034421E-11
   14.5500002        -2.72597808E-12
   14.6999998         1.37891407E-10
   14.8500004         3.42537693E-10
   15.0000000         5.92535410E-10
   15.1499996         8.59085469E-10
   15.3000002         1.10546772E-09
   15.4499998         1.29060507E-09
   15.6000004         1.37371248E-09
   15.7500000         1.31958200E-09
   15.8999996         1.10391629E-09
   16.0499992         7.18055893E-10
   16.2000008         1.72443115E-10
   16.3500004        -5.01747310E-10
   16.5000000        -1.25322086E-09
   16.6499996        -2.01359751E-09
   16.7999992        -2.70278067E-09
   16.9500008        -3.23628613E-09
   17.1000004        -3.53389540E-09
   17.2500000        -3.52879170E-09
   17.3999996        -3.17620308E-09
   17.5499992        -2.46056131E-09
   17.7000008        -1.40026124E-09
   17.8500004        -4.93116069E-11
   18.0000000         1.50455393E-09
   18.1499996         3.14537707E-09
   18.2999992         4.73778083E-09
   18.4500008         6.13840356E-09
   18.6000004         7.20896676E-09
   18.7500000         7.82975018E-09
   18.8999996         7.91215005E-09
   19.0499992         7.40899919E-09
   19.2000008         6.32150909E-09
   19.3500004         4.70196637E-09
   19.5000000         2.65170752E-09
   19.6499996         3.14340803E-10
   19.7999992        -2.13534834E-09
   19.9500008        -4.50592985E-09
   20.1000004        -6.60605481E-09
   20.2500000        -8.26187119E-09
   20.3999996        -9.33351707E-09
   20.5499992        -9.72908953E-09
   20.7000008        -9.41471345E-09
   20.8500004        -8.41960901E-09
   21.0000000        -6.83554013E-09
   21.1499996        -4.81048890E-09
   21.2999992        -2.53696397E-09
   21.4500008        -2.35830161E-10
   21.6000004         1.86299909E-09
   21.7500000         3.54135499E-09
   21.8999996         4.61325200E-09
   22.0499992         4.94311569E-09
   22.2000008         4.46009363E-09
   22.3500004         3.16704130E-09
   22.5000000         1.14322385E-09
   22.6499996        -1.45971235E-09
   22.7999992        -4.42833636E-09
   22.9500008        -7.50388729E-09
   23.1000004        -1.04033040E-08
   23.2500000        -1.28431514E-08
   23.3999996        -1.45644385E-08
   23.5499992        -1.53562212E-08
   23.7000008        -1.50758908E-08
   23.8500004        -1.36643301E-08
   24.0000000        -1.11544569E-08
   24.1499996        -7.67222108E-09
   24.2999992        -3.42975848E-09
   24.4500008         1.28901101E-09
   24.6000004         6.14931173E-09
   24.7500000         1.07914682E-08
   24.8999996         1.48598414E-08
   25.0499992         1.80324413E-08
   25.2000008         2.00488106E-08
   25.3500004         2.07337738E-08
   25.5000000         2.00150332E-08
   25.6499996         1.79329103E-08
   25.7999992         1.46412509E-08
   25.9500008         1.03990816E-08
   26.1000004         5.55342439E-09
   26.2500000         5.14349896E-10
   26.3999996        -4.27597868E-09
   26.5499992        -8.37799874E-09
   26.7000008        -1.13905250E-08
   26.8500004        -1.29847830E-08
   27.0000000        -1.29339357E-08
   27.1499996        -1.11355618E-08
   27.2999992        -7.62503749E-09
   27.4500008        -2.57841459E-09
   27.6000004         3.69586028E-09
   27.7500000         1.07761604E-08
   27.8999996         1.81567419E-08
   28.0499992         2.52847325E-08
   28.2000008         3.16024007E-08
   28.3500004         3.65915724E-08
   28.5000000         3.98166584E-08
   28.6499996         4.09628100E-08
   28.7999992         3.98658351E-08
   28.9500008         3.65311408E-08
   29.1000004         3.11396278E-08
   29.2500000         2.40394726E-08
   29.3999996         1.57238631E-08
   29.5499992         6.79589141E-09
   29.7000008        -2.07705586E-09
   29.8500004        -1.02160547E-08
   30.0000000        -1.69864762E-08
   30.1499996        -2.18522960E-08
   30.2999992        -2.44242866E-08
   30.4500008        -2.44977034E-08
   30.6000004        -2.20758718E-08
   30.7500000        -1.73770438E-08
   30.8999996        -1.08232827E-08
   31.0499992        -3.01158853E-09
   31.2000008         5.33095079E-09
   31.3500004         1.34047795E-08
   31.5000000         2.04037889E-08
   31.6499996         2.55841783E-08
   31.7999992         2.83304527E-08
   31.9500008         2.82127672E-08
   32.0999985         2.50303920E-08
   32.2500000         1.88370528E-08
   32.4000015         9.94539473E-09
   32.5499992        -1.09054832E-09
   32.7000008        -1.35140645E-08
   32.8499985        -2.64229989E-08
   33.0000000        -3.88411827E-08
   33.1500015        -4.97983557E-08
   33.2999992        -5.84119775E-08
   33.4500008        -6.39639524E-08
   33.5999985        -6.59655939E-08
   33.7500000        -6.42048263E-08
   33.9000015        -5.87711462E-08
   34.0499992        -5.00556006E-08
   34.2000008        -3.87249308E-08
   34.3499985        -2.56715929E-08
   34.5000000        -1.19431007E-08
   34.6500015         1.34366507E-09
   34.7999992         1.30962814E-08
   34.9500008         2.23408350E-08
   35.0999985         2.83080421E-08
   35.2500000         3.05037773E-08
   35.4000015         2.87573982E-08
   35.5499992         2.32430732E-08
   35.7000008         1.44715013E-08
   35.8499985         3.25189320E-09
   36.0000000        -9.37320266E-09
   36.1500015        -2.22152572E-08
   36.2999992        -3.40421558E-08
   36.4500008        -4.36869314E-08
   36.5999985        -5.01533570E-08
   36.7500000        -5.27087956E-08
   36.9000015        -5.09557694E-08
   37.0499992        -4.48751081E-08
   37.2000008        -3.48361802E-08
   37.3499985        -2.15723546E-08
   37.5000000        -6.12311579E-09
   37.6500015         1.02527924E-08
   37.7999992         2.61859388E-08
   37.9500008         4.03171008E-08
   38.0999985         5.14197538E-08
   38.2500000         5.85129527E-08
   38.4000015         6.09540862E-08
   38.5499992         5.85025575E-08
   38.7000008         5.13480742E-08
   38.8499985         4.01001614E-08
   39.0000000         2.57392720E-08
   39.1500015         9.53333235E-09
   39.2999992        -7.07319892E-09
   39.4500008        -2.25878765E-08
   39.5999985        -3.56048950E-08
   39.7500000        -4.49334294E-08
   39.9000015        -4.97077934E-08
   40.0499992        -4.94690369E-08
   40.2000008        -4.42101431E-08
   40.3499985        -3.43802995E-08
   40.5000000        -2.08474482E-08
   40.6500015        -4.82222173E-09
   40.7999992         1.22500294E-08
   40.9500008         2.88193558E-08
   41.0999985         4.33716387E-08
   41.2500000         5.45663639E-08
   41.4000015         6.13590672E-08
   41.5499992         6.30969836E-08
   41.7000008         5.95789835E-08
   41.8499985         5.10741280E-08
   42.0000000         3.82969709E-08
   42.1500015         2.23417942E-08
   42.2999992         4.58183136E-09
   42.4500008        -1.34572753E-08
   42.5999985        -3.02379632E-08
   42.7500000        -4.43521593E-08
   42.9000015        -5.46503429E-08
   43.0499992        -6.03462311E-08
   43.2000008        -6.10872064E-08
   43.3499985        -5.69839642E-08
   43.5000000        -4.85964549E-08
   43.6500015        -3.68776938E-08
   43.7999992        -2.30805774E-08
   43.9500008        -8.63673488E-09
   44.0999985         4.98109953E-09
   44.2500000         1.64000387E-08
   44.4000015         2.44778438E-08
   44.5499992         2.84110637E-08
   44.7000008         2.78102075E-08
   44.8499985         2.27347225E-08
   45.0000000         1.36845459E-08
   45.1500015         1.54908719E-09
   45.2999992        -1.24813040E-08
   45.4500008        -2.70327618E-08
   45.5999985        -4.06826963E-08
   45.7500000        -5.20988657E-08
   45.9000015        -6.01691426E-08
   46.0499992        -6.41093294E-08
   46.2000008        -6.35386002E-08
   46.3499985        -5.85152193E-08
   46.5000000        -4.95292127E-08
   46.6500015        -3.74528000E-08
   46.7999992        -2.34535751E-08
   46.9500008        -8.87908058E-09
   47.0999985         4.87583396E-09
   47.2500000         1.65057852E-08
   47.4000015         2.49223557E-08
   47.5499992         2.93598088E-08
   47.7000008         2.94488220E-08
   47.8499985         2.52510564E-08
   48.0000000         1.72514145E-08
   48.1500015         6.30893515E-09
   48.2999992        -6.42866915E-09
   48.4500008        -1.96382608E-08
   48.5999985        -3.19510534E-08
   48.7500000        -4.20861177E-08
   48.9000015        -4.89745275E-08
   49.0499992        -5.18620418E-08
   49.2000008        -5.03804110E-08
   49.3499985        -4.45806059E-08
   49.5000000        -3.49248914E-08
   49.6500015        -2.22390177E-08
   49.7999992        -7.62936736E-09
   49.9500008         7.62637509E-09
   50.0999985         2.22041834E-08
   50.2500000         3.48618201E-08
   50.4000015         4.45575914E-08
   50.5499992         5.05481950E-08
   50.7000008         5.24563006E-08
   50.8499985         5.03015620E-08
   51.0000000         4.44925696E-08
   51.1500015         3.57809427E-08
   51.2999992         2.51826382E-08
   51.4500008         1.38746810E-08
   51.5999985         3.07781201E-09
   51.7500000        -6.06316464E-09
   51.9000015        -1.25895410E-08
   52.0499992        -1.58187046E-08
   52.2000008        -1.54054796E-08
   52.3499985        -1.13693019E-08
   52.5000000        -4.08528189E-09
   52.6500015         5.75925929E-09
   52.7999992         1.72377153E-08
   52.9500008         2.92787767E-08
   53.0999985         4.07728606E-08
   53.2500000         5.06796916E-08
   53.4000015         5.81264459E-08
   53.5499992         6.24872385E-08
   53.7000008         6.34367225E-08
   53.8499985         6.09733632E-08
   54.0000000         5.54112489E-08
   54.1500015         4.73421018E-08
   54.2999992         3.75723808E-08
   54.4500008         2.70422369E-08
   54.5999985         1.67347896E-08
   54.7500000         7.58465113E-09
   54.9000015         3.94237337E-10
   55.0499992        -4.23470103E-09
   55.2000008        -5.94877569E-09
   55.3499985        -4.66660932E-09
   55.5000000        -5.77566550E-10
   55.6500015         5.88292348E-09
   55.7999992         1.40779317E-08
   55.9500008         2.32284183E-08
   56.0999985         3.24814238E-08
   56.2500000         4.09808081E-08
   56.4000015         4.79345061E-08
   56.5499992         5.26732222E-08
   56.7000008         5.46964856E-08
   56.8499985         5.37035909E-08
   57.0000000         4.96081967E-08
   57.1500015         4.25368647E-08
   57.2999992         3.28128316E-08
   57.4500008         2.09272351E-08
   57.5999985         7.50063300E-09
   57.7500000        -6.76216816E-09
   57.9000015        -2.11207620E-08
   58.0499992        -3.48483056E-08
   58.2000008        -4.72783697E-08
   58.3499985        -5.78470534E-08
   58.5000000        -6.61281305E-08
   58.6500015        -7.18594748E-08
   58.7999992        -7.49592530E-08
   58.9500008        -7.55308278E-08
   59.0999985        -7.38556949E-08
   59.2500000        -7.03743837E-08
   59.4000015        -6.56559322E-08
   59.5499992        -6.03571237E-08
   59.7000008        -5.51736754E-08
   59.8499985        -5.07862907E-08
   60.0000000        -4.78051057E-08
   60.1500015        -4.67167744E-08
   60.2999992        -4.78385367E-08
   60.4500008        -5.12835818E-08
   60.5999985        -5.69414595E-08
   60.7500000        -6.44764029E-08
   60.9000015        -7.33450989E-08
   61.0499992        -8.28337008E-08
   61.2000008        -9.21123586E-08
   61.3499985        -1.00303453E-07
   61.5000000        -1.06558389E-07
   61.6500015        -1.10136376E-07
   61.7999992        -1.10477977E-07
   61.9500008        -1.07266246E-07
   62.0999985        -1.00468853E-07
   62.2500000        -9.03559183E-08
   62.4000015        -7.74904620E-08
   62.5499992        -6.26906029E-08
   62.7000008        -4.69656101E-08
   62.8499985        -3.14304991E-08
   63.0000000        -1.72061601E-08
   63.1500015        -5.31415045E-09
   63.2999992         3.42397244E-09
   63.4500008         8.47255599E-09
   63.5999985         9.64384217E-09
   63.7500000         7.12870296E-09
   63.9000015         1.49162649E-09
   64.0500031        -6.37129016E-09
   64.1999969        -1.53087711E-08
   64.3499985        -2.40192168E-08
   64.5000000        -3.11746788E-08
   64.6500015        -3.55524250E-08
   64.8000031        -3.61611754E-08
   64.9499969        -3.23492095E-08
   65.0999985        -2.38827642E-08
   65.2500000        -1.09857607E-08
   65.4000015         5.66453462E-09
   65.5500031         2.49869814E-08
   65.6999969         4.55877256E-08
   65.8499985         6.58851746E-08
   66.0000000         8.42573655E-08
   66.1500015         9.91974645E-08
   66.3000031         1.09462114E-07
   66.4499969         1.14197647E-07
   66.5999985         1.13030850E-07
   66.7500000         1.06114655E-07
   66.9000015         9.41231093E-08
   67.0500031         7.81952565E-08
   67.1999969         5.98327361E-08
   67.3499985         4.07606144E-08
   67.5000000         2.27647536E-08
   67.6500015         7.52176543E-09
   67.8000031        -3.56162189E-09
   67.9499969        -9.48370626E-09
   68.0999985        -9.74384928E-09
   68.2500000        -4.38969794E-09
   68.4000015         5.98930550E-09
   68.5500031         2.03214849E-08
   68.6999969         3.71596620E-08
   68.8499985         5.48243513E-08
   69.0000000         7.15690476E-08
   69.1500015         8.57510329E-08
   69.3000031         9.59906714E-08
   69.4499969         1.01303463E-07
   69.5999985         1.01191809E-07
   69.7500000         9.56878097E-08
   69.9000015         8.53432383E-08
   70.0500031         7.11682375E-08
   70.1999969         5.45255183E-08
   70.3499985         3.69909792E-08
   70.5000000         2.01951895E-08
   70.6500015         5.66172487E-09
   70.8000031        -5.34151523E-09
   70.9499969        -1.19233841E-08
   71.0999985        -1.36512908E-08
   71.2500000        -1.05861870E-08
   71.4000015        -3.26805893E-09
   71.5500031         7.34598293E-09
   71.6999969         1.99839967E-08
   71.8499985         3.31910854E-08
   72.0000000         4.54773748E-08
   72.1500015         5.54670727E-08
   72.3000031         6.20339620E-08
   72.4499969         6.44100879E-08
   72.5999985         6.22575556E-08
   72.7500000         5.56968622E-08
   72.9000015         4.52899265E-08
   73.0500031         3.19802780E-08
   73.1999969         1.69970455E-08
   73.3499985         1.73282899E-09
   73.5000000        -1.23921051E-08
   73.6500015        -2.40658942E-08
   73.8000031        -3.22082201E-08
   73.9499969        -3.60689469E-08
   74.0999985        -3.52933718E-08
   74.2500000        -2.99486622E-08
   74.4000015        -2.05099937E-08
   74.5500031        -7.80882647E-09
   74.6999969         7.05061209E-09
   74.8499985         2.27977743E-08
   75.0000000         3.81143259E-08
   75.1500015         5.17531724E-08
   75.3000031         6.26467980E-08
   75.4499969         6.99951528E-08
   75.5999985         7.33256584E-08
   75.7500000         7.25209475E-08
   75.9000015         6.78132110E-08
   76.0500031         5.97470802E-08
   76.1999969         4.91162169E-08
   76.3499985         3.68805821E-08
   76.5000000         2.40731968E-08
   76.6500015         1.17054340E-08
   76.8000031         6.79712731E-10
   76.9499969        -8.28295477E-09
   77.0999985        -1.46948080E-08
   77.2500000        -1.83291728E-08
   77.4000015        -1.92233962E-08
   77.5500031        -1.76582269E-08
   77.6999969        -1.41172150E-08
   77.8499985        -9.23112164E-09
   78.0000000        -3.71342979E-09
   78.1500015         1.70671111E-09
   78.3000031         6.34799546E-09
   78.4499969         9.63168389E-09
   78.5999985         1.11234977E-08
   78.7500000         1.05601279E-08
   78.9000015         7.85935583E-09
   79.0500031         3.11430970E-09
   79.1999969        -3.42633233E-09
   79.3499985        -1.13893641E-08
   79.5000000        -2.03157811E-08
   79.6500015        -2.97034539E-08
   79.8000031        -3.90499331E-08
   79.9499969        -4.78920512E-08
   80.0999985        -5.58394220E-08
   80.2500000        -6.25997743E-08
   80.4000015        -6.79948329E-08
   80.5500031        -7.19662694E-08
   80.6999969        -7.45718935E-08
   80.8499985        -7.59732544E-08
   81.0000000        -7.64157946E-08
   81.1500015        -7.62037331E-08
   81.3000031        -7.56714940E-08
   81.4499969        -7.51540483E-08
   81.5999985        -7.49582725E-08
   81.7500000        -7.53373115E-08
   81.9000015        -7.64697390E-08
   82.0500031        -7.84447778E-08
   82.1999969        -8.12546901E-08
   82.3499985        -8.47947135E-08
   82.5000000        -8.88704861E-08
   82.6500015        -9.32125772E-08
   82.8000031        -9.74969723E-08
   82.9499969        -1.01370155E-07
   83.0999985        -1.04477017E-07
   83.2500000        -1.06489530E-07
   83.4000015        -1.07134170E-07
   83.5500031        -1.06215815E-07
   83.6999969        -1.03636367E-07
   83.8499985        -9.94062930E-08
   84.0000000        -9.36480120E-08
   84.1500015        -8.65905179E-08
   84.3000031        -7.85552388E-08
   84.4499969        -6.99338969E-08
   84.5999985        -6.11596889E-08
   84.7500000        -5.26739967E-08
   84.9000015        -4.48908573E-08
   85.0500031        -3.81622911E-08
   85.1999969        -3.27472840E-08
   85.3499985        -2.87872481E-08
   85.5000000        -2.62904720E-08
   85.6500015        -2.51273189E-08
   85.8000031        -2.50372576E-08
   85.9499969        -2.56476262E-08
   86.0999985        -2.65032511E-08
   86.2500000        -2.71047078E-08
   86.4000015        -2.69523053E-08
   86.5500031        -2.55920050E-08
   86.6999969        -2.26591723E-08
   86.8499985        -1.79159141E-08
   87.0000000        -1.12782299E-08
   87.1500015        -2.82984569E-09
   87.3000031         7.17917459E-09
   87.4499969         1.83496187E-08
   87.5999985         3.01651681E-08
   87.7500000         4.20367705E-08
   87.9000015         5.33555102E-08
   88.0500031         6.35490522E-08
   88.1999969         7.21361815E-08
   88.3499985         7.87738585E-08
   88.5000000         8.32916385E-08
   88.6500015         8.57096794E-08
   88.8000031         8.62375771E-08
   88.9499969         8.52537099E-08
   89.0999985         8.32664213E-08
   89.2500000         8.08604383E-08
   89.4000015         7.86338532E-08
   89.5500031         7.71317659E-08
   89.6999969         7.67839481E-08
   89.8499985         7.78529952E-08
   90.0000000         8.03993387E-08
   90.1500015         8.42673842E-08
   90.3000031         8.90952094E-08
   90.4499969         9.43477190E-08
   90.5999985         9.93706308E-08
   90.7500000         1.03460373E-07
   90.9000015         1.05942803E-07
   91.0500031         1.06252749E-07
   91.1999969         1.04005522E-07
   91.3499985         9.90524143E-08
   91.5000000         9.15131864E-08
   91.6500015         8.17811667E-08
   91.8000031         7.04987215E-08
   91.9499969         5.85047246E-08
   92.0999985         4.67579540E-08
   92.2500000         3.62437014E-08
   92.4000015         2.78726873E-08
   92.5500031         2.23827374E-08
   92.6999969         2.02537382E-08
   92.8499985         2.16454765E-08
   93.0000000         2.63660471E-08
   93.1500015         3.38753736E-08
   93.3000031         4.33250378E-08
   93.4499969         5.36317621E-08
   93.5999985         6.35782271E-08
   93.7500000         7.19317796E-08
   93.9000015         7.75694176E-08
   94.0500031         7.95961981E-08
   94.1999969         7.74446320E-08
   94.3499985         7.09438979E-08
   94.5000000         6.03508852E-08
   94.6500015         4.63383500E-08
   94.8000031         2.99400860E-08
   94.9499969         1.24574653E-08
   95.0999985        -4.66421124E-09
   95.2500000        -1.99776924E-08
   95.4000015        -3.21798908E-08
   95.5500031        -4.02472331E-08
   95.6999969        -4.35459278E-08
   95.8499985        -4.19052739E-08
   96.0000000        -3.56454564E-08
   96.1500015        -2.55559751E-08
   96.3000031        -1.28257884E-08
   96.4499969         1.06864384E-09
   96.5999985         1.45068437E-08
   96.7500000         2.58851607E-08
   96.9000015         3.37788606E-08
   97.0500031         3.70888067E-08
   97.1999969         3.51575338E-08
   97.3499985         2.78422174E-08
   97.5000000         1.55365960E-08
   97.6500015        -8.61238802E-10
   97.8000031        -2.00325143E-08
   97.9499969        -4.03649736E-08
   98.0999985        -6.01110273E-08
   98.2500000        -7.75610545E-08
   98.4000015        -9.12141331E-08
   98.5500031        -9.99288616E-08
   98.6999969        -1.03038516E-07
   98.8499985        -1.00418625E-07
   99.0000000        -9.24997678E-08
   99.1500015        -8.02239200E-08
   99.3000031        -6.49486793E-08
   99.4499969        -4.83089799E-08
   99.5999985        -3.20503659E-08
   99.7500000        -1.78509598E-08
   99.9000015        -7.15039228E-09
   100.050003        -1.00339914E-09
   100.199997         2.67983899E-11
   100.349998        -4.07572021E-09
   100.500000        -1.27804318E-08
   100.650002        -2.50676973E-08
   100.800003        -3.95366300E-08
   100.949997        -5.45522063E-08
   101.099998        -6.84162487E-08
   101.250000        -7.95444848E-08
   101.400002        -8.66312462E-08
   101.550003        -8.87846667E-08
   101.699997        -8.56184812E-08
   101.849998        -7.72910269E-08
   102.000000        -6.44876437E-08
   102.150002        -4.83487206E-08
   102.300003        -3.03511456E-08
   102.449997        -1.21559411E-08
   102.599998         4.56173588E-09
   102.750000         1.82823818E-08
   102.900002         2.77939076E-08
   103.050003         3.23097709E-08
   103.199997         3.15415356E-08
   103.349998         2.57188937E-08
   103.500000         1.55558091E-08
   103.650002         2.16734874E-09
   103.800003        -1.30532545E-08
   103.949997        -2.85835107E-08
   104.099998        -4.29302141E-08
   104.250000        -5.47806032E-08
   104.400002        -6.31301518E-08
   104.550003        -6.73739464E-08
   104.699997        -6.73526159E-08
   104.849998        -6.33492334E-08
   105.000000        -5.60386226E-08
   105.150002        -4.63960994E-08
   105.300003        -3.55766723E-08
   105.449997        -2.47789345E-08
   105.599998        -1.51091122E-08
   105.750000        -7.46054862E-09
   105.900002        -2.42164311E-09
   106.050003        -2.21948251E-10
   106.199997        -7.21488091E-10
   106.349998        -3.44344286E-09
   106.500000        -7.64533681E-09
   106.650002        -1.24196102E-08
   106.800003        -1.68111995E-08
   106.949997        -1.99380583E-08
   107.099998        -2.11004156E-08
   107.250000        -1.98660981E-08
   107.400002        -1.61221472E-08
   107.550003        -1.00871267E-08
   107.699997        -2.28299935E-09
   107.849998         6.52972254E-09
   108.000000         1.54455435E-08
   108.150002         2.35250539E-08
   108.300003         2.99101863E-08
   108.449997         3.39299042E-08
   108.599998         3.51837244E-08
   108.750000         3.35930217E-08
   108.900002         2.94138314E-08
   109.050003         2.32093793E-08
   109.199997         1.57852771E-08
   109.349998         8.09475598E-09
   109.500000         1.12486109E-09
   109.650002        -4.22307700E-09
   109.800003        -7.24454274E-09
   109.949997        -7.52120943E-09
   110.099998        -4.97757568E-09
   110.250000         1.02462802E-10
   110.400002         7.10184356E-09
   110.550003         1.51372390E-08
   110.699997         2.31596324E-08
   110.849998         3.00775760E-08
   111.000000         3.48892328E-08
   111.150002         3.68080002E-08
   111.300003         3.53668312E-08
   111.449997         3.04886250E-08
   111.599998         2.25134116E-08
   111.750000         1.21780506E-08
   111.900002         5.49291224E-10
   112.050003        -1.10834799E-08
   112.199997        -2.13447642E-08
   112.349998        -2.89240631E-08
   112.500000        -3.27249055E-08
   112.650002        -3.19948228E-08
   112.800003        -2.64211799E-08
   112.949997        -1.61810476E-08
   113.099998        -1.93839234E-09
   113.250000         1.52125867E-08
   113.400002         3.38530413E-08
   113.550003         5.23834736E-08
   113.699997         6.91911737E-08
   113.849998         8.28231208E-08
   114.000000         9.21454202E-08
   114.150002         9.64713678E-08
   114.300003         9.56433652E-08
   114.449997         9.00586414E-08
   114.599998         8.06348694E-08
   114.750000         6.87180375E-08
   114.900002         5.59417010E-08
   115.050003         4.40518306E-08
   115.199997         3.47158995E-08
   115.349998         2.93367002E-08
   115.500000         2.88912396E-08
   115.650002         3.38127606E-08
   115.800003         4.39294894E-08
   115.949997         5.84677586E-08
   116.099998         7.61202870E-08
   116.250000         9.51733554E-08
   116.400002         1.13680137E-07
   116.550003         1.29662254E-07
   116.699997         1.41318253E-07
   116.849998         1.47216880E-07
   117.000000         1.46453971E-07
   117.150002         1.38755851E-07
   117.300003         1.24517342E-07
   117.449997         1.04769505E-07
   117.599998         8.10796976E-08
   117.750000         5.53939650E-08
   117.900002         2.98378176E-08
   118.050003         6.49640564E-09
   118.199997        -1.28027109E-08
   118.349998        -2.66809259E-08
