  -1.50000000       0.00000000    
  -1.35000002       0.00000000    
  -1.20000005       0.00000000    
  -1.04999995       0.00000000    
 -0.899999976       0.00000000    
 -0.750000000       0.00000000    
 -0.600000024       0.00000000    
 -0.449999988       0.00000000    
 -0.300000012       0.00000000    
 -0.150000006       0.00000000    
  -5.55111512E-17   0.00000000    
  0.150000006       0.00000000    
  0.300000012       0.00000000    
  0.449999988       0.00000000    
  0.600000024       0.00000000    
  0.750000000       0.00000000    
  0.899999976       0.00000000    
   1.04999995       0.00000000    
   1.20000005       0.00000000    
   1.35000002       0.00000000    
   1.50000000       0.00000000    
   1.64999998       0.00000000    
   1.79999995       0.00000000    
   1.95000005       0.00000000    
   2.09999990       0.00000000    
   2.25000000       0.00000000    
   2.40000010       0.00000000    
   2.54999995       0.00000000    
   2.70000005       0.00000000    
   2.84999990       0.00000000    
   3.00000000       0.00000000    
   3.15000010       0.00000000    
   3.29999995       0.00000000    
   3.45000005       0.00000000    
   3.59999990       0.00000000    
   3.75000000       0.00000000    
   3.90000010       0.00000000    
   4.05000019       0.00000000    
   4.19999981       0.00000000    
   4.34999990       0.00000000    
   4.50000000       0.00000000    
   4.65000010      -4.00771361E-43
   4.80000019      -1.00052710E-42
   4.94999981      -2.05710615E-42
   5.09999990      -4.23752656E-42
   5.25000000      -4.06937074E-42
   5.40000010       3.97268115E-42
   5.55000019       2.75957707E-41
   5.69999981       6.33639140E-41
   5.84999990       1.18342458E-40
   6.00000000       1.58000606E-40
   6.15000010       1.92982621E-40
   6.30000019       7.36396356E-41
   6.44999981      -1.60804604E-40
   6.59999990      -4.67548838E-40
   6.75000000      -7.19170194E-40
   6.90000010      -3.98096282E-40
   7.05000019       5.34540713E-40
   7.19999981       4.13923808E-39
   7.34999990       1.18982921E-38
   7.50000000       2.76932954E-38
   7.65000010       5.05162996E-38
   7.80000019       7.62845977E-38
   7.94999981       9.05579548E-38
   8.10000038       7.25465219E-38
   8.25000000      -7.31478219E-39
   8.39999962      -1.83509776E-37
   8.55000019      -4.82429798E-37
   8.69999981      -8.90214377E-37
   8.85000038      -1.31038697E-36
   9.00000000      -1.53977994E-36
   9.14999962      -1.26619948E-36
   9.30000019      -6.63872771E-38
   9.44999981       2.47569700E-36
   9.60000038       6.55527583E-36
   9.75000000       1.18377246E-35
   9.89999962       1.71263457E-35
   10.0500002       2.00783375E-35
   10.1999998       1.72082214E-35
   10.3500004       4.34786511E-36
   10.5000000      -2.21853881E-35
   10.6499996      -6.36575994E-35
   10.8000002      -1.16408218E-34
   10.9499998      -1.69314143E-34
   11.1000004      -2.02174651E-34
   11.2500000      -1.86370554E-34
   11.3999996      -8.91625666E-35
   11.5500002       1.17351748E-34
   11.6999998       4.42638780E-34
   11.8500004       8.61222906E-34
   12.0000000       1.29708914E-33
   12.1499996       1.61504016E-33
   12.3000002       1.62645072E-33
   12.4499998       1.11654028E-33
   12.6000004      -1.02363173E-34
   12.7500000      -2.11310979E-33
   12.8999996      -4.80178936E-33
   13.0500002      -7.77228195E-33
   13.1999998      -1.02978565E-32
   13.3500004      -1.13460662E-32
   13.5000000      -9.71071842E-33
   13.6499996      -4.27082481E-33
   13.8000002       5.63118548E-33
   13.9499998       1.97393449E-32
   14.1000004       3.64556592E-32
   14.2500000       5.25691594E-32
   14.3999996       6.33025748E-32
   14.5500002       6.28261764E-32
   14.6999998       4.53295542E-32
   14.8500004       6.62804033E-33
   15.0000000      -5.38815871E-32
   15.1499996      -1.31290212E-31
   15.3000002      -2.13814241E-31
   15.4499998      -2.82644560E-31
   15.6000004      -3.13611690E-31
   15.7500000      -2.81048756E-31
   15.8999996      -1.63805773E-31
   16.0499992       4.72392271E-32
   16.2000008       3.41516585E-31
   16.3500004       6.82916938E-31
   16.5000000       1.00807734E-30
   16.6499996       1.23098709E-30
   16.7999992       1.25532302E-30
   16.9500008       9.94454209E-31
   17.1000004       3.97006760E-31
   17.2500000      -5.26419143E-31
   17.3999996      -1.68180591E-30
   17.5499992      -2.88309080E-30
   17.7000008      -3.86343428E-30
   17.8500004      -4.31098917E-30
   18.0000000      -3.92916792E-30
   18.1499996      -2.51511198E-30
   18.2999992      -4.31187785E-32
   18.4500008       3.26623763E-30
   18.6000004       6.91379058E-30
   18.7500000       1.01473562E-29
   18.8999996       1.20590448E-29
   19.0499992       1.17549081E-29
   19.2000008       8.57957554E-30
   19.3500004       2.35891059E-30
   19.5000000      -6.39330350E-30
   19.6499996      -1.63678211E-29
   19.7999992      -2.55115391E-29
   19.9500008      -3.12788958E-29
   20.1000004      -3.10886681E-29
   20.2500000      -2.29436997E-29
   20.3999996      -6.11797150E-30
   20.5499992       1.82313750E-29
   20.7000008       4.66974004E-29
   20.8500004       7.36690773E-29
   21.0000000       9.19121899E-29
   21.1499996       9.37232622E-29
   21.2999992       7.25742162E-29
   21.4500008       2.50282781E-29
   21.6000004      -4.74197596E-29
   21.7500000      -1.37013966E-28
   21.8999996      -2.29370336E-28
   22.0499992      -3.04447732E-28
   22.2000008      -3.39052383E-28
   22.3500004      -3.10800797E-28
   22.5000000      -2.03138713E-28
   22.6499996      -1.06805567E-29
   22.7999992       2.56134527E-28
   22.9500008       5.68207208E-28
   23.1000004       8.77841372E-28
   23.2500000       1.12249832E-27
   23.3999996       1.23251899E-27
   23.5499992       1.14240502E-27
   23.7000008       8.04470182E-28
   23.8500004       2.02936225E-28
   24.0000000      -6.34011708E-28
   24.1499996      -1.62693086E-27
   24.2999992      -2.64511764E-27
   24.4500008      -3.51574891E-27
   24.6000004      -4.04287015E-27
   24.7500000      -4.03540024E-27
   24.8999996      -3.34158591E-27
   25.0499992      -1.88562350E-27
   25.2000008       2.99249984E-28
   25.3500004       3.04770575E-27
   25.5000000       6.05577587E-27
   25.6499996       8.89615622E-27
   25.7999992       1.10584378E-26
   25.9500008       1.20139325E-26
   26.1000004       1.13005395E-26
   26.2500000       8.61835932E-27
   26.3999996       3.92239630E-27
   26.5499992      -2.50472023E-27
   26.7000008      -1.00183201E-26
   26.8500004      -1.76323278E-26
   27.0000000      -2.41064707E-26
   27.1499996      -2.81026521E-26
   27.2999992      -2.84007059E-26
   27.4500008      -2.41496531E-26
   27.6000004      -1.51165471E-26
   27.7500000      -1.88426284E-27
   27.8999996       1.40546941E-26
   28.0499992       3.03560486E-26
   28.2000008       4.40643373E-26
   28.3500004       5.20390955E-26
   28.5000000       5.15320890E-26
   28.6499996       4.08398776E-26
   28.7999992       1.99184513E-26
   28.9500008      -9.17767402E-27
   29.1000004      -4.21715210E-26
   29.2500000      -7.28671065E-26
   29.3999996      -9.39333350E-26
   29.5499992      -9.81341117E-26
   29.7000008      -7.98664536E-26
   29.8500004      -3.67662892E-26
   30.0000000       2.89361237E-26
   30.1499996       1.09658667E-25
   30.2999992       1.92617104E-25
   30.4500008       2.61076697E-25
   30.6000004       2.96715805E-25
   30.7500000       2.82878865E-25
   30.8999996       2.08257578E-25
   31.0499992       7.03440458E-26
   31.2000008      -1.22097598E-25
   31.3500004      -3.48249007E-25
   31.5000000      -5.76644404E-25
   31.6499996      -7.68903562E-25
   31.7999992      -8.85462445E-25
   31.9500008      -8.92486758E-25
   32.0999985      -7.68753531E-25
   32.2500000      -5.11083259E-25
   32.4000015      -1.36991699E-25
   32.5499992       3.16366774E-25
   32.7000008       7.97188121E-25
   32.8499985       1.24728188E-24
   33.0000000       1.61206507E-24
   33.1500015       1.85007564E-24
   33.2999992       1.93956383E-24
   33.4500008       1.88008450E-24
   33.5999985       1.68801876E-24
   33.7500000       1.38648635E-24
   33.9000015       9.91896150E-25
   34.0499992       5.01004180E-25
   34.2000008      -1.16670568E-25
   34.3499985      -9.16348124E-25
   34.5000000      -1.96218954E-24
   34.6500015      -3.29789218E-24
   34.7999992      -4.90735184E-24
   34.9500008      -6.67336804E-24
   35.0999985      -8.34604425E-24
   35.2500000      -9.53432909E-24
   35.4000015      -9.73313388E-24
   35.5499992      -8.39390049E-24
   35.7000008      -5.03836940E-24
   35.8499985       5.95428119E-25
   36.0000000       8.39773041E-24
   36.1500015       1.77551401E-23
   36.2999992       2.74812507E-23
   36.4500008       3.58477644E-23
   36.5999985       4.07442145E-23
   36.7500000       3.99754096E-23
   36.9000015       3.16787796E-23
   37.0499992       1.48129571E-23
   37.2000008      -1.03610869E-23
   37.3499985      -4.19067147E-23
   37.5000000      -7.60540609E-23
   37.6500015      -1.07353455E-22
   37.7999992      -1.29199816E-22
   37.9500008      -1.34731245E-22
   38.0999985      -1.18032802E-22
   38.2500000      -7.54988038E-23
   38.4000015      -7.13828716E-24
   38.5499992       8.24362170E-23
   38.7000008       1.83602390E-22
   38.8499985       2.82126977E-22
   39.0000000       3.60496963E-22
   39.1500015       4.00169397E-22
   39.2999992       3.84553763E-22
   39.4500008       3.02365109E-22
   39.5999985       1.50835708E-22
   39.7500000      -6.18169959E-23
   39.9000015      -3.15269586E-22
   40.0499992      -5.77814688E-22
   40.2000008      -8.09203722E-22
   40.3499985      -9.65573220E-22
   40.5000000      -1.00604570E-21
   40.6500015      -9.00217268E-22
   40.7999992      -6.35427888E-22
   40.9500008      -2.22522036E-22
   41.0999985       3.01194843E-22
   41.2500000       8.72876081E-22
   41.4000015       1.40955282E-21
   41.5499992       1.81802929E-21
   41.7000008       2.00846723E-21
   41.8499985       1.91009332E-21
   42.0000000       1.48679445E-21
   42.1500015       7.49962767E-22
   42.2999992      -2.34106704E-22
   42.4500008      -1.34456159E-21
   42.5999985      -2.41552814E-21
   42.7500000      -3.25503548E-21
   42.9000015      -3.67200943E-21
   43.0499992      -3.50843527E-21
   43.2000008      -2.67240205E-21
   43.3499985      -1.16677501E-21
   43.5000000       8.92015639E-22
   43.6500015       3.27002005E-21
   43.7999992       5.63012689E-21
   43.9500008       7.56591249E-21
   44.0999985       8.65327291E-21
   44.2500000       8.51498834E-21
   44.4000015       6.89042904E-21
   44.5499992       3.70041388E-21
   44.7000008      -9.03838203E-22
   44.8499985      -6.51819292E-21
   45.0000000      -1.24978573E-20
   45.1500015      -1.80088238E-20
   45.2999992      -2.21176884E-20
   45.4500008      -2.39130403E-20
   45.5999985      -2.26456283E-20
   45.7500000      -1.78695198E-20
   45.9000015      -9.56330163E-21
   46.0499992       1.79013214E-21
   46.2000008       1.51840101E-20
   46.3499985       2.91412854E-20
   46.5000000       4.18455905E-20
   46.6500015       5.13430425E-20
   46.7999992       5.57968284E-20
   46.9500008       5.37660774E-20
   47.0999985       4.44723381E-20
   47.2500000       2.80133051E-20
   47.4000015       5.48479634E-21
   47.5499992      -2.10205674E-20
   47.7000008      -4.85564422E-20
   47.8499985      -7.36083341E-20
   48.0000000      -9.25019018E-20
   48.1500015      -1.01893749E-19
   48.2999992      -9.92864954E-20
   48.4500008      -8.34980926E-20
   48.5999985      -5.50116854E-20
   48.7500000      -1.61388382E-20
   48.9000015       2.90540469E-20
   49.0499992       7.50794490E-20
   49.2000008       1.15611984E-19
   49.3499985       1.44273379E-19
   49.5000000       1.55535559E-19
   49.6500015       1.45629309E-19
   49.7999992       1.13329276E-19
   49.9500008       6.04850167E-20
   50.0999985      -7.81415795E-21
   50.2500000      -8.35165684E-20
   50.4000015      -1.56351456E-19
   50.5499992      -2.14998458E-19
   50.7000008      -2.48576796E-19
   50.8499985      -2.48287127E-19
   51.0000000      -2.08992584E-19
   51.1500015      -1.30504104E-19
   51.2999992      -1.83436897E-20
   51.4500008       1.16199696E-19
   51.5999985       2.56831205E-19
   51.7500000       3.83838352E-19
   51.9000015       4.76399940E-19
   52.0499992       5.15391114E-19
   52.2000008       4.86358884E-19
   52.3499985       3.82270095E-19
   52.5000000       2.05611432E-19
   52.6500015      -3.05477768E-20
   52.7999992      -3.02826790E-19
   52.9500008      -5.79289110E-19
   53.0999985      -8.22644457E-19
   53.2500000      -9.94650048E-19
   53.4000015      -1.06126115E-18
   53.5499992      -9.97914207E-19
   53.7000008      -7.94223772E-19
   53.8499985      -4.57356071E-19
   54.0000000      -1.34348114E-20
   54.1500015       4.93482925E-19
   54.2999992       1.00503820E-18
   54.4500008       1.45464839E-18
   54.5999985       1.77550513E-18
   54.7500000       1.90963040E-18
   54.9000015       1.81686685E-18
   55.0499992       1.48254454E-18
   55.2000008       9.22590726E-19
   55.3499985       1.85049454E-19
   55.5000000      -6.52649277E-19
   55.6500015      -1.49081790E-18
   55.7999992      -2.21858505E-18
   55.9500008      -2.72785430E-18
   56.0999985      -2.92854610E-18
   56.2500000      -2.76314286E-18
   56.4000015      -2.21841134E-18
   56.5499992      -1.33230693E-18
   56.7000008      -1.94498377E-19
   56.8499985       1.06033739E-18
   57.0000000       2.26639216E-18
   57.1500015       3.24668949E-18
   57.2999992       3.83705139E-18
   57.4500008       3.91117008E-18
   57.5999985       3.40335233E-18
   57.7500000       2.32542225E-18
   57.9000015       7.74639341E-19
   58.0499992      -1.06962694E-18
   58.2000008      -2.96141888E-18
   58.3499985      -4.61527118E-18
   58.5000000      -5.74248385E-18
   58.6500015      -6.09264016E-18
   58.7999992      -5.49517918E-18
   58.9500008      -3.89515711E-18
   59.0999985      -1.37740513E-18
   59.2500000       1.82583411E-18
   59.4000015       5.34703651E-18
   59.5499992       8.71620146E-18
   59.7000008       1.14125075E-17
   59.8499985       1.29301424E-17
   60.0000000       1.28511028E-17
   60.1500015       1.09158890E-17
   60.2999992       7.08213181E-18
   60.4500008       1.56161474E-18
   60.5999985      -5.17216185E-18
   60.7500000      -1.24107044E-17
   60.9000015      -1.92723785E-17
   61.0499992      -2.47956289E-17
   61.2000008      -2.80551540E-17
   61.3499985      -2.82885512E-17
   61.5000000      -2.50180462E-17
   61.6500015      -1.81506769E-17
   61.7999992      -8.04121133E-18
   61.9500008       4.49502725E-18
   62.0999985       1.82271366E-17
   62.2500000       3.16125964E-17
   62.4000015       4.29538481E-17
   62.5499992       5.05936584E-17
   62.7000008       5.31288016E-17
   62.8499985       4.96169633E-17
   63.0000000       3.97498103E-17
   63.1500015       2.39664300E-17
   63.2999992       3.48606501E-18
   63.4500008      -1.97529787E-17
   63.5999985      -4.32510375E-17
   63.7500000      -6.41922463E-17
   63.9000015      -7.97560334E-17
   64.0500031      -8.74633383E-17
   64.1999969      -8.55181206E-17
   64.3499985      -7.31013720E-17
   64.5000000      -5.05761652E-17
   64.6500015      -1.95691048E-17
   64.8000031       1.70945807E-17
   64.9499969       5.56094071E-17
   65.0999985       9.15501995E-17
   65.2500000       1.20344972E-16
   65.4000015       1.37813385E-16
   65.5500031       1.40711628E-16
   65.6999969       1.27217467E-16
   65.8499985       9.72908793E-17
   66.0000000       5.28538501E-17
   66.1500015      -2.24966657E-18
   66.3000031      -6.25299442E-17
   66.4499969      -1.21352769E-16
   66.5999985      -1.71626279E-16
   66.7500000      -2.06607668E-16
   66.9000015      -2.20743245E-16
   67.0500031      -2.10443549E-16
   67.1999969      -1.74693981E-16
   67.3499985      -1.15412090E-16
   67.5000000      -3.74856218E-17
   67.6500015       5.15421203E-17
   67.8000031       1.42133783E-16
   67.9499969       2.23717442E-16
   68.0999985       2.85855806E-16
   68.2500000       3.19502919E-16
   68.4000015       3.18205900E-16
   68.5500031       2.79102544E-16
   68.6999969       2.03577712E-16
   68.8499985       9.74701790E-17
   69.0000000      -2.92336746E-17
   69.1500015      -1.63227114E-16
   69.3000031      -2.89177128E-16
   69.4499969      -3.91371335E-16
   69.5999985      -4.55551366E-16
   69.7500000      -4.70730408E-16
   69.9000015      -4.30777981E-16
   70.0500031      -3.35562955E-16
   70.1999969      -1.91483325E-16
   70.3499985      -1.12677112E-17
   70.5000000       1.86988241E-16
   70.6500015       3.81500384E-16
   70.8000031       5.49049880E-16
   70.9499969       6.67593994E-16
   71.0999985       7.18955531E-16
   71.2500000       6.91278782E-16
   71.4000015       5.80946547E-16
   71.5500031       3.93686038E-16
   71.6999969       1.44670620E-16
   71.8499985      -1.42477242E-16
   72.0000000      -4.37752186E-16
   72.1500015      -7.07745049E-16
   72.3000031      -9.19258600E-16
   72.4499969      -1.04318799E-15
   72.5999985      -1.05823257E-15
   72.7500000      -9.53992986E-16
   72.9000015      -7.33044282E-16
   73.0500031      -4.11661771E-16
   73.1999969      -1.90120168E-17
   73.3499985       4.05217518E-16
   73.5000000       8.14593862E-16
   73.6500015       1.16078888E-15
   73.8000031       1.39902367E-15
   73.9499969       1.49351877E-15
   74.0999985       1.42231994E-15
   74.2500000       1.18089109E-15
   74.4000015       7.83965203E-16
   74.5500031       2.65307527E-16
   74.6999969      -3.24736497E-16
   74.8499985      -9.23791814E-16
   75.0000000      -1.46372947E-15
   75.1500015      -1.87807046E-15
   75.3000031      -2.10974287E-15
   75.4499969      -2.11832267E-15
   75.5999985      -1.88588328E-15
   75.7500000      -1.42067733E-15
   75.9000015      -7.58070030E-16
   76.0500031       4.15776842E-17
   76.1999969       8.98051012E-16
   76.3499985       1.71906427E-15
   76.5000000       2.40997052E-15
   76.6500015       2.88441104E-15
   76.8000031       3.07473807E-15
   76.9499969       2.94098775E-15
   77.0999985       2.47727194E-15
   77.2500000       1.71467050E-15
   77.4000015       7.20055615E-16
   77.5500031      -4.09283805E-16
   77.6999969      -1.55487625E-15
   77.8499985      -2.58933864E-15
   78.0000000      -3.39045901E-15
   78.1500015      -3.85556989E-15
   78.3000031      -3.91455684E-15
   78.4499969      -3.53989998E-15
   78.5999985      -2.75238253E-15
   78.7500000      -1.62152695E-15
   78.9000015      -2.60368637E-16
   79.0500031       1.18517612E-15
   79.1999969       2.55144535E-15
   79.3499985       3.67516923E-15
   79.5000000       4.41266811E-15
   79.6500015       4.65791041E-15
   79.8000031       4.35722049E-15
   79.9499969       3.51868900E-15
   80.0999985       2.21482937E-15
   80.2500000       5.77736239E-16
   80.4000015      -1.21315839E-15
   80.5500031      -2.94974290E-15
   80.6999969      -4.41848511E-15
   80.8499985      -5.42581142E-15
   81.0000000      -5.82269887E-15
   81.1500015      -5.52548772E-15
   81.3000031      -4.53015709E-15
   81.4499969      -2.91791606E-15
   81.5999985      -8.50854813E-16
   81.7500000       1.44249542E-15
   81.9000015       3.69064241E-15
   82.0500031       5.60943885E-15
   82.1999969       6.93604067E-15
   82.3499985       7.46266096E-15
   82.5000000       7.06604668E-15
   82.6500015       5.72880781E-15
   82.8000031       3.54944498E-15
   82.9499969       7.39052817E-16
   83.0999985      -2.39586594E-15
   83.2500000      -5.48342618E-15
   83.4000015      -8.12655353E-15
   83.5500031      -9.94926848E-15
   83.6999969      -1.06439651E-14
   83.8499985      -1.00141072E-14
   84.0000000      -8.00690165E-15
   84.1500015      -4.73133334E-15
   84.3000031      -4.58338475E-16
   84.4499969       4.39820545E-15
   84.5999985       9.31880661E-15
   84.7500000       1.37309148E-14
   84.9000015       1.70716035E-14
   85.0500031       1.88537184E-14
   85.1999969       1.87279628E-14
   85.3499985       1.65333869E-14
   85.5000000       1.23295556E-14
   85.6500015       6.40541985E-15
   85.8000031      -7.37688935E-16
   85.9499969      -8.42866392E-15
   86.0999985      -1.58915070E-14
   86.2500000      -2.23263570E-14
   86.4000015      -2.69982367E-14
   86.5500031      -2.93236809E-14
   86.6999969      -2.89450030E-14
   86.8499985      -2.57828511E-14
   87.0000000      -2.00596240E-14
   87.1500015      -1.22893181E-14
   87.3000031      -3.23308071E-15
   87.4499969       6.17627033E-15
   87.5999985       1.49336804E-14
   87.7500000       2.20748780E-14
   87.9000015       2.67904222E-14
   88.0500031       2.85273988E-14
   88.1999969       2.70659824E-14
   88.3499985       2.25604786E-14
   88.5000000       1.55378674E-14
   88.6500015       6.85171177E-15
   88.8000031      -2.40563562E-15
   88.9499969      -1.10244133E-14
   89.0999985      -1.78198182E-14
   89.2500000      -2.17795210E-14
   89.4000015      -2.21989141E-14
   89.5500031      -1.87870654E-14
   89.6999969      -1.17289279E-14
   89.8499985      -1.69355259E-15
   90.0000000       1.02160288E-14
   90.1500015       2.25688913E-14
   90.3000031       3.37591283E-14
   90.4499969       4.21902639E-14
   90.5999985       4.64711176E-14
   90.7500000       4.56004355E-14
   90.9000015       3.91175367E-14
   91.0500031       2.71987616E-14
   91.1999969       1.06847006E-14
   91.3499985      -8.96963253E-15
   91.5000000      -2.98208961E-14
   91.6500015      -4.96299135E-14
   91.8000031      -6.61023292E-14
   91.9499969      -7.71522874E-14
   92.0999985      -8.11597222E-14
   92.2500000      -7.71907766E-14
   92.4000015      -6.51531780E-14
   92.5500031      -4.58643506E-14
   92.6999969      -2.10186059E-14
   92.8499985       6.94907143E-15
   93.0000000       3.50935305E-14
   93.1500015       6.02635007E-14
   93.3000031       7.94487021E-14
   93.4499969       9.01327285E-14
   93.5999985       9.06114715E-14
   93.7500000       8.02384418E-14
   93.9000015       5.95644682E-14
   94.0500031       3.03494107E-14
   94.1999969      -4.56297835E-15
   94.3499985      -4.15009044E-14
   94.5000000      -7.63296015E-14
   94.6500015      -1.04890340E-13
   94.8000031      -1.23467846E-13
   94.9499969      -1.29234663E-13
   95.0999985      -1.20620853E-13
   95.2500000      -9.75630641E-14
   95.4000015      -6.15982553E-14
   95.5500031      -1.57827988E-14
   95.6999969       3.55629968E-14
   95.8499985       8.72657117E-14
   96.0000000       1.33826910E-13
   96.1500015       1.70015193E-13
   96.3000031       1.91459085E-13
   96.4499969       1.95174186E-13
   96.5999985       1.79962138E-13
   96.7500000       1.46630416E-13
   96.9000015       9.79991641E-14
   97.0500031       3.86842048E-14
   97.1999969      -2.53304830E-14
   97.3499985      -8.72931352E-14
   97.5000000      -1.40398286E-13
   97.6500015      -1.78540207E-13
   97.8000031      -1.97023089E-13
   97.9499969      -1.93146660E-13
   98.0999985      -1.66595999E-13
   98.2500000      -1.19582743E-13
   98.4000015      -5.67109598E-14
   98.5500031       1.54301231E-14
   98.6999969       8.89130281E-14
   98.8499985       1.55297203E-13
   99.0000000       2.06548063E-13
   99.1500015       2.35951341E-13
   99.3000031       2.38920727E-13
   99.4499969       2.13603373E-13
   99.5999985       1.61207541E-13
   99.7500000       8.60033819E-14
   99.9000015      -5.01718833E-15
   100.050003      -1.02798019E-13
   100.199997      -1.97134030E-13
   100.349998      -2.77753054E-13
   100.500000      -3.35450634E-13
   100.650002      -3.63153789E-13
   100.800003      -3.56792070E-13
   100.949997      -3.15871488E-13
   101.099998      -2.43674682E-13
   101.250000      -1.47050544E-13
   101.400002      -3.57997560E-14
   101.550003       7.82917771E-14
   101.699997       1.82678051E-13
   101.849998       2.65411147E-13
   102.000000       3.16486935E-13
   102.150002       3.29029095E-13
   102.300003       3.00173813E-13
   102.449997       2.31546553E-13
   102.599998       1.29262676E-13
   102.750000       3.43448927E-15
   102.900002      -1.32777930E-13
   103.050003      -2.64484425E-13
   103.199997      -3.76617547E-13
   103.349998      -4.55557521E-13
   103.500000      -4.90652061E-13
   103.650002      -4.75460871E-13
   103.800003      -4.08577143E-13
   103.949997      -2.93924011E-13
   104.099998      -1.40475698E-13
   104.250000       3.85817409E-14
   104.400002       2.27173762E-13
   104.550003       4.08011190E-13
   104.699997       5.64438145E-13
   104.849998       6.82251944E-13
   105.000000       7.51291065E-13
   105.150002       7.66605312E-13
   105.300003       7.29065788E-13
   105.449997       6.45328463E-13
   105.599998       5.27138554E-13
   105.750000       3.90034088E-13
   105.900002       2.51578679E-13
   106.050003       1.29311140E-13
   106.199997       3.86369437E-14
   106.349998      -9.09901935E-15
   106.500000      -8.13104873E-15
   106.650002       4.08049415E-14
   106.800003       1.30272692E-13
   106.949997       2.46709012E-13
   107.099998       3.71732755E-13
   107.250000       4.84067376E-13
   107.400002       5.61881379E-13
   107.550003       5.85297381E-13
   107.699997       5.38790963E-13
   107.849998       4.13205494E-13
   108.000000       2.07140864E-13
   108.150002      -7.24622998E-14
   108.300003      -4.10637534E-13
   108.449997      -7.85602215E-13
   108.599998      -1.17075696E-12
   108.750000      -1.53727725E-12
   108.900002      -1.85702582E-12
   109.050003      -2.10547075E-12
   109.199997      -2.26428099E-12
   109.349998      -2.32329867E-12
   109.500000      -2.28164818E-12
   109.650002      -2.14783291E-12
   109.800003      -1.93877640E-12
   109.949997      -1.67789144E-12
   110.099998      -1.39236376E-12
   110.250000      -1.10994287E-12
   110.400002      -8.55590338E-13
   110.550003      -6.48369433E-13
   110.699997      -4.98943443E-13
   110.849998      -4.07994493E-13
   111.000000      -3.65780268E-13
   111.150002      -3.52924531E-13
   111.300003      -3.42400614E-13
   111.449997      -3.02528483E-13
   111.599998      -2.00685903E-13
   111.750000      -7.33906869E-15
   111.900002       3.00050322E-13
   112.050003       7.33691591E-13
   112.199997       1.29310397E-12
   112.349998       1.96403614E-12
   112.500000       2.71884230E-12
   112.650002       3.51833081E-12
   112.800003       4.31494814E-12
   112.949997       5.05698868E-12
   113.099998       5.69342143E-12
   113.250000       6.17881527E-12
   113.400002       6.47783563E-12
   113.550003       6.56880453E-12
   113.699997       6.44591108E-12
   113.849998       6.11978046E-12
   114.000000       5.61630516E-12
   114.150002       4.97381129E-12
   114.300003       4.23883411E-12
   114.449997       3.46092512E-12
   114.599998       2.68706216E-12
   114.750000       1.95625786E-12
   114.900002       1.29499579E-12
   115.050003       7.14027362E-13
   115.199997       2.06940896E-13
   115.349998      -2.49279249E-13
   115.500000      -6.91689382E-13
   115.650002      -1.16703836E-12
   115.800003      -1.72605148E-12
   115.949997      -2.41693991E-12
   116.099998      -3.27882643E-12
   116.250000      -4.33581426E-12
   116.400002      -5.59238853E-12
   116.550003      -7.03070544E-12
   116.699997      -8.61014038E-12
   116.849998      -1.02692421E-11
   117.000000      -1.19299640E-11
   117.150002      -1.35038048E-11
   117.300003      -1.48992745E-11
   117.449997      -1.60299257E-11
   117.599998      -1.68221236E-11
   117.750000      -1.72217258E-11
   117.900002      -1.71989489E-11
   118.050003      -1.67508455E-11
   118.199997      -1.59011103E-11
   118.349998      -1.46971740E-11
