  -1.50000000         0.00000000    
  -1.30999994         0.00000000    
  -1.12000000         0.00000000    
 -0.930000007        -1.52535099E-17
 -0.740000010        -1.47154346E-16
 -0.550000012        -8.26196572E-16
 -0.360000014        -3.49224273E-15
 -0.170000002        -1.21544849E-14
   1.99999996E-02    -3.62724716E-14
  0.209999993        -9.48750288E-14
  0.400000006        -2.20598835E-13
  0.589999974        -4.60785923E-13
  0.779999971        -8.71974910E-13
  0.970000029        -1.50510930E-12
   1.15999997        -2.38177533E-12
   1.35000002        -3.46584783E-12
   1.53999996        -4.63851830E-12
   1.73000002        -5.68639320E-12
   1.91999996        -6.31140366E-12
   2.10999990        -6.16755518E-12
   2.29999995        -4.92366521E-12
   2.49000001        -2.34429490E-12
   2.68000007         1.62541996E-12
   2.86999989         6.78971376E-12
   3.05999994         1.26664408E-11
   3.25000000         1.85016551E-11
   3.44000006         2.33428034E-11
   3.63000011         2.61679654E-11
   3.81999993         2.60566117E-11
   4.01000023         2.23765988E-11
   4.19999981         1.49549435E-11
   4.38999987         4.19804035E-12
   4.57999992        -8.86872780E-12
   4.76999998        -2.26614959E-11
   4.96000004        -3.52025839E-11
   5.15000010        -4.43750627E-11
   5.34000015        -4.82350618E-11
   5.53000021        -4.53355860E-11
   5.71999979        -3.50090200E-11
   5.90999985        -1.75582465E-11
   6.09999990         5.68116951E-12
   6.28999996         3.24249481E-11
   6.48000002         5.96634755E-11
   6.67000008         8.39953246E-11
   6.86000013         1.02024965E-10
   7.05000019         1.10770969E-10
   7.23999977         1.08032784E-10
   7.42999983         9.26747082E-11
   7.61999989         6.47994922E-11
   7.80999994         2.57996558E-11
   8.00000000        -2.17131747E-11
   8.18999958        -7.40940226E-11
   8.38000011        -1.26955321E-10
   8.56999969        -1.75552781E-10
   8.76000023        -2.15253926E-10
   8.94999981        -2.42067838E-10
   9.14000034        -2.53196908E-10
   9.32999992        -2.47546039E-10
   9.52000046        -2.26097946E-10
   9.71000004        -1.92047253E-10
   9.89999962        -1.50590290E-10
   10.0900002        -1.08306829E-10
   10.2799997        -7.21405297E-11
   10.4700003        -4.80843282E-11
   10.6599998        -3.97809216E-11
   10.8500004        -4.73316941E-11
   11.0400000        -6.66386599E-11
   11.2299995        -8.95601648E-11
   11.4200001        -1.05034689E-10
   11.6099997        -1.01128342E-10
   11.8000002        -6.77265188E-11
   11.9899998         6.30888516E-13
   12.1800003         1.02418705E-10
   12.3699999         2.27967090E-10
   12.5600004         3.59999114E-10
   12.7500000         4.76090611E-10
   12.9399996         5.52858981E-10
   13.1300001         5.71232173E-10
   13.3199997         5.21760912E-10
   13.5100002         4.08724554E-10
   13.6999998         2.51826338E-10
   13.8900003         8.46129972E-11
   14.0799999        -5.06425110E-11
   14.2700005        -1.11089339E-10
   14.4600000        -6.31891831E-11
   14.6499996         1.07558434E-10
   14.8400002         3.89255544E-10
   15.0299997         7.40657757E-10
   15.2200003         1.09406617E-09
   15.4099998         1.36446032E-09
   15.6000004         1.46401480E-09
   15.7900000         1.31988243E-09
   15.9799995         8.92136476E-10
   16.1700001         1.88283084E-10
   16.3600006        -7.29058480E-10
   16.5499992        -1.74381798E-09
   16.7399998        -2.69849121E-09
   16.9300003        -3.41566064E-09
   17.1200008        -3.72627351E-09
   17.3099995        -3.50035112E-09
   17.5000000        -2.67490119E-09
   17.6900005        -1.27376798E-09
   17.8799992         5.84908399E-10
   18.0699997         2.69617328E-09
   18.2600002         4.79084239E-09
   18.4500008         6.57077459E-09
   18.6399994         7.75207987E-09
   18.8299999         8.10981682E-09
   19.0200005         7.51704210E-09
   19.2099991         5.97156680E-09
   19.3999996         3.60531938E-09
   19.5900002         6.73776424E-10
   19.7800007        -2.47408916E-09
   19.9699993        -5.44175505E-09
   20.1599998        -7.84078402E-09
   20.3500004        -9.34812761E-09
   20.5400009        -9.75650316E-09
   20.7299995        -9.00993058E-09
   20.9200001        -7.21846405E-09
   21.1100006        -4.64901051E-09
   21.2999992        -1.69262460E-09
   21.4899998         1.18789867E-09
   21.6800003         3.52321705E-09
   21.8700008         4.90642771E-09
   22.0599995         5.05596986E-09
   22.2500000         3.86310939E-09
   22.4400005         1.41656165E-09
   22.6299992        -2.00016959E-09
   22.8199997        -5.93944360E-09
   23.0100002        -9.84488313E-09
   23.2000008        -1.31247093E-08
   23.3899994        -1.52334305E-08
   23.5799999        -1.57508353E-08
   23.7700005        -1.44472247E-08
   23.9599991        -1.13253158E-08
   24.1499996        -6.63215705E-09
   24.3400002        -8.38205116E-10
   24.5300007         5.41489253E-09
   24.7199993         1.13919949E-08
   24.9099998         1.63582339E-08
   25.1000004         1.96769445E-08
   25.2900009         2.08989110E-08
   25.4799995         1.98307877E-08
   25.6700001         1.65728178E-08
   25.8600006         1.15196945E-08
   26.0499992         5.32284750E-09
   26.2399998        -1.18253296E-09
   26.4300003        -7.07786185E-09
   26.6200008        -1.14771694E-08
   26.8099995        -1.36445228E-08
   27.0000000        -1.30978153E-08
   27.1900005        -9.68494707E-09
   27.3799992        -3.62121555E-09
   27.5699997         4.51884707E-09
   27.7600002         1.38565062E-08
   27.9500008         2.33061339E-08
   28.1399994         3.17044986E-08
   28.3299999         3.79570366E-08
   28.5200005         4.11829859E-08
   28.7099991         4.08403800E-08
   28.8999996         3.68132085E-08
   29.0900002         2.94471665E-08
   29.2800007         1.95261514E-08
   29.4699993         8.18931944E-09
   29.6599998        -3.20361737E-09
   29.8500004        -1.32436035E-08
   30.0400009        -2.06587760E-08
   30.2299995        -2.44917988E-08
   30.4200001        -2.42432332E-08
   30.6100006        -1.99594723E-08
   30.7999992        -1.22502133E-08
   30.9899998        -2.22948926E-09
   31.1800003         8.61546390E-09
   31.3700008         1.86128606E-08
   31.5599995         2.61291273E-08
   31.7500000         2.97965048E-08
   31.9400005         2.87140747E-08
   32.1300011         2.25932126E-08
   32.3199997         1.18248513E-08
   32.5099983        -2.54400256E-09
   32.7000008        -1.89249985E-08
   32.8899994        -3.53821648E-08
   33.0800018        -4.98809598E-08
   33.2700005        -6.05604029E-08
   33.4599991        -6.59915145E-08
   33.6500015        -6.53860184E-08
   33.8400002        -5.87244848E-08
   34.0299988        -4.67834695E-08
   34.2200012        -3.10540251E-08
   34.4099998        -1.35591334E-08
   34.5999985         3.40842110E-09
   34.7900009         1.75940134E-08
   34.9799995         2.70937441E-08
   35.1699982         3.06280228E-08
   35.3600006         2.77363519E-08
   35.5499992         1.88630871E-08
   35.7400017         5.31810285E-09
   35.9300003        -1.08864757E-08
   36.1199989        -2.73045941E-08
   36.3100014        -4.13949337E-08
   36.5000000        -5.08837026E-08
   36.6899986        -5.41000595E-08
   36.8800011        -5.02346218E-08
   37.0699997        -3.94810264E-08
   37.2599983        -2.30360424E-08
   37.4500008        -2.95383651E-09
   37.6399994         1.81287767E-08
   37.8300018         3.73594489E-08
   38.0200005         5.20784482E-08
   38.2099991         6.02087340E-08
   38.4000015         6.05699597E-08
   38.5900002         5.30681028E-08
   38.7799988         3.87299366E-08
   38.9700012         1.95737364E-08
   39.1599998        -1.66783076E-09
   39.3499985        -2.19344312E-08
   39.5400009        -3.82790297E-08
   39.7299995        -4.82986415E-08
   39.9199982        -5.04908826E-08
   40.1100006        -4.44824870E-08
   40.2999992        -3.10943769E-08
   40.4900017        -1.22317783E-08
   40.6800003         9.38599953E-09
   40.8699989         3.06175458E-08
   41.0600014         4.83559113E-08
   41.2500000         5.99825114E-08
   41.4399986         6.37509601E-08
   41.6300011         5.90434901E-08
   41.8199997         4.64613485E-08
   42.0099983         2.77350072E-08
   42.2000008         5.46714762E-09
   42.3899994        -1.72536190E-08
   42.5800018        -3.73107092E-08
   42.7700005        -5.20205745E-08
   42.9599991        -5.95274976E-08
   43.1500015        -5.90726721E-08
   43.3400002        -5.10969080E-08
   43.5299988        -3.71616160E-08
   43.7200012        -1.97002858E-08
   43.9099998        -1.63858216E-09
   44.0999985         1.40585676E-08
   44.2900009         2.48432723E-08
   44.4799995         2.89742008E-08
   44.6699982         2.57793893E-08
   44.8600006         1.57520237E-08
   45.0499992         4.64847549E-10
   45.2400017        -1.76829733E-08
   45.4300003        -3.58465400E-08
   45.6199989        -5.11836298E-08
   45.8100014        -6.13004616E-08
   46.0000000        -6.46249987E-08
   46.1899986        -6.06496400E-08
   46.3800011        -5.00056032E-08
   46.5699997        -3.43581945E-08
   46.7599983        -1.61401275E-08
   46.9500008         1.83439341E-09
   47.1399994         1.68135230E-08
   47.3300018         2.65395297E-08
   47.5200005         2.96005691E-08
   47.7099991         2.56476849E-08
   47.9000015         1.54437174E-08
   48.0900002         7.37513384E-10
   48.2799988        -1.60155622E-08
   48.4700012        -3.20418430E-08
   48.6599998        -4.46844588E-08
   48.8499985        -5.18166203E-08
   49.0400009        -5.21684385E-08
   49.2299995        -4.55167743E-08
   49.4199982        -3.27097212E-08
   49.6100006        -1.55236428E-08
   49.7999992         3.62284691E-09
   49.9900017         2.20513723E-08
   50.1800003         3.72413993E-08
   50.3699989         4.72168828E-08
   50.5600014         5.08416740E-08
   50.7500000         4.79786557E-08
   50.9399986         3.94898976E-08
   51.1300011         2.70806257E-08
   51.3199997         1.30146347E-08
   51.5099983        -2.51459298E-10
   51.7000008        -1.04556586E-08
   51.8899994        -1.58782250E-08
   52.0800018        -1.55956865E-08
   52.2700005        -9.60372937E-09
   52.4599991         1.20669397E-09
   52.6500015         1.52119064E-08
   52.8400002         3.03268521E-08
   53.0299988         4.43390817E-08
   53.2200012         5.52510713E-08
   53.4099998         6.15773246E-08
   53.5999985         6.25521466E-08
   53.7900009         5.82197650E-08
   53.9799995         4.93986363E-08
   54.1699982         3.75312261E-08
   54.3600006         2.44480844E-08
   54.5499992         1.20861303E-08
   54.7400017         2.20551555E-09
   54.9300003        -3.85336030E-09
   55.1199989        -5.34038369E-09
   55.3100014        -2.17459606E-09
   55.5000000         5.07277331E-09
   55.6899986         1.52812714E-08
   55.8800011         2.69493157E-08
   56.0699997         3.83998007E-08
   56.2599983         4.79937086E-08
   56.4500008         5.43246301E-08
   56.6399994         5.63728371E-08
   56.8300018         5.36051630E-08
   57.0200005         4.60148826E-08
   57.2099991         3.41030137E-08
   57.4000015         1.88079827E-08
   57.5900002         1.39438794E-09
   57.7799988        -1.66863217E-08
   57.9700012        -3.39496999E-08
   58.1599998        -4.90329839E-08
   58.3499985        -6.08372659E-08
   58.5400009        -6.86444608E-08
   58.7299995        -7.21973876E-08
   58.9199982        -7.17332327E-08
   59.1100006        -6.79636614E-08
   59.2999992        -6.19992946E-08
   59.4900017        -5.52223263E-08
   59.6800003        -4.91174710E-08
   59.8699989        -4.50784832E-08
   60.0600014        -4.42129391E-08
   60.2500000        -4.71713157E-08
   60.4399986        -5.40264544E-08
   60.6300011        -6.42251692E-08
   60.8199997        -7.66259376E-08
   61.0099983        -8.96251819E-08
   61.2000008        -1.01361323E-07
   61.3899994        -1.09972888E-07
   61.5800018        -1.13876162E-07
   61.7700005        -1.12021453E-07
   61.9599991        -1.04086766E-07
   62.1500015        -9.05739270E-08
   62.3400002        -7.27847720E-08
   62.5299988        -5.26722630E-08
   62.7200012        -3.25811307E-08
   62.9099998        -1.49114925E-08
   63.0999985        -1.75359283E-09
   63.2900009         5.44981127E-09
   63.4799995         6.15778672E-09
   63.6699982         8.56394178E-10
   63.8600006        -8.97297880E-09
   64.0500031        -2.10459348E-08
   64.2399979        -3.26056053E-08
   64.4300003        -4.08452649E-08
   64.6200027        -4.33590159E-08
   64.8099976        -3.85489081E-08
   65.0000000        -2.59204018E-08
   65.1900024        -6.21330809E-09
   65.3799973         1.86597546E-08
   65.5699997         4.58649581E-08
   65.7600021         7.20551441E-08
   65.9499969         9.38733322E-08
   66.1399994         1.08473508E-07
   66.3300018         1.13975240E-07
   66.5199966         1.09777169E-07
   66.7099991         9.66756986E-08
   66.9000015         7.67659643E-08
   67.0899963         5.31371391E-08
   67.2799988         2.94080547E-08
   67.4700012         9.17556164E-09
   67.6600037        -4.53689752E-09
   67.8499985        -9.74248593E-09
   68.0400009        -5.79172355E-09
   68.2300034         6.53726984E-09
   68.4199982         2.51730370E-08
   68.6100006         4.70873438E-08
   68.8000031         6.87791726E-08
   68.9899979         8.68280026E-08
   69.1800003         9.84275772E-08
   69.3700027         1.01815388E-07
   69.5599976         9.65309823E-08
   69.7500000         8.34642719E-08
   69.9400024         6.46895089E-08
   70.1299973         4.31149125E-08
   70.3199997         2.20068976E-08
   70.5100021         4.46701121E-09
   70.6999969        -7.05444103E-09
   70.8899994        -1.11314424E-08
   71.0800018        -7.56511565E-09
   71.2699966         2.61232458E-09
   71.4599991         1.73288139E-08
   71.6500015         3.38244064E-08
   71.8399963         4.91047238E-08
   72.0299988         6.04219395E-08
   72.2200012         6.57068142E-08
   72.4100037         6.38848761E-08
   72.5999985         5.50299184E-08
   72.7900009         4.03347222E-08
   72.9800034         2.19083400E-08
   73.1699982         2.43615683E-09
   73.3600006        -1.52406834E-08
   73.5500031        -2.85590289E-08
   73.7399979        -3.56134571E-08
   73.9300003        -3.54255256E-08
   74.1200027        -2.80653261E-08
   74.3099976        -1.46123522E-08
   74.5000000         3.03196401E-09
   74.6900024         2.24454251E-08
   74.8799973         4.10495353E-08
   75.0699997         5.64796636E-08
   75.2600021         6.69054288E-08
   75.4499969         7.12565438E-08
   75.6399994         6.93262905E-08
   75.8300018         6.17450411E-08
   76.0199966         4.98363022E-08
   76.2099991         3.53843426E-08
   76.4000015         2.03536992E-08
   76.5899963         6.60458088E-09
   76.7799988        -4.35448788E-09
   76.9700012        -1.15446710E-08
   77.1600037        -1.46061492E-08
   77.3499985        -1.37940708E-08
   77.5400009        -9.89031701E-09
   77.7300034        -4.05132550E-09
   77.9199982         2.38085018E-09
   78.1100006         8.07475242E-09
   78.3000031         1.18857466E-08
   78.4899979         1.29907587E-08
   78.6800003         1.09680736E-08
   78.8700027         5.81755843E-09
   79.0599976        -2.07503348E-09
   79.2500000        -1.20192949E-08
   79.4400024        -2.31320936E-08
   79.6299973        -3.44633015E-08
   79.8199997        -4.51186750E-08
   80.0100021        -5.43654330E-08
   80.1999969        -6.17095068E-08
   80.3899994        -6.69377371E-08
   80.5800018        -7.01228728E-08
   80.7699966        -7.15932700E-08
   80.9599991        -7.18730959E-08
   81.1500015        -7.16013560E-08
   81.3399963        -7.14399917E-08
   81.5299988        -7.19818871E-08
   81.7200012        -7.36694190E-08
   81.9100037        -7.67326540E-08
   82.0999985        -8.11544112E-08
   82.2900009        -8.66661694E-08
   82.4800034        -9.27759203E-08
   82.6699982        -9.88251045E-08
   82.8600006        -1.04068654E-07
   83.0500031        -1.07769196E-07
   83.2399979        -1.09294419E-07
   83.4300003        -1.08205519E-07
   83.6200027        -1.04325274E-07
   83.8099976        -9.77758319E-08
   84.0000000        -8.89794620E-08
   84.1900024        -7.86197560E-08
   84.3799973        -6.75658001E-08
   84.5699997        -5.67666767E-08
   84.7600021        -4.71288040E-08
   84.9499969        -3.93916189E-08
   85.1399994        -3.40190454E-08
   85.3300018        -3.11233848E-08
   85.5199966        -3.04349044E-08
   85.7099991        -3.13249409E-08
   85.9000015        -3.28828378E-08
   86.0899963        -3.40389761E-08
   86.2799988        -3.37184183E-08
   86.4700012        -3.10038040E-08
   86.6600037        -2.52829402E-08
   86.8499985        -1.63572444E-08
   87.0400009        -4.49163240E-09
   87.2300034         9.60537072E-09
   87.4199982         2.48720475E-08
   87.6100006         4.00435987E-08
   87.8000031         5.38405978E-08
   87.9899979         6.51668159E-08
   88.1800003         7.32841769E-08
   88.3700027         7.79346863E-08
   88.5599976         7.93864459E-08
   88.7500000         7.83925600E-08
   88.9400024         7.60660797E-08
   89.1299973         7.36886534E-08
   89.3199997         7.24827203E-08
   89.5100021         7.33853369E-08
   89.6999969         7.68629747E-08
   89.8899994         8.28019395E-08
   90.0800018         9.04976645E-08
   90.2699966         9.87499931E-08
   90.4599991         1.06053577E-07
   90.6500015         1.10855211E-07
   90.8399963         1.11836542E-07
   91.0299988         1.08173943E-07
   91.2200012         9.97285454E-08
   91.4100037         8.71289672E-08
   91.5999985         7.17257294E-08
   91.7900009         5.54175799E-08
   91.9800034         4.03719334E-08
   92.1699982         2.86813169E-08
   92.3600006         2.20109371E-08
   92.5500031         2.12970210E-08
   92.7399979         2.65502234E-08
   92.9300003         3.68030371E-08
   93.1200027         5.02178388E-08
   93.3099976         6.43453291E-08
   93.5000000         7.64973791E-08
   93.6900024         8.41768895E-08
   93.8799973         8.54952873E-08
   94.0699997         7.95071671E-08
   94.2600021         6.64028406E-08
   94.4499969         4.75209632E-08
   94.6399994         2.51724472E-08
   94.8300018         2.29805996E-09
   95.0199966        -1.79892012E-08
   95.2099991        -3.29046408E-08
   95.4000015        -4.04537559E-08
   95.5899963        -3.97777775E-08
   95.7799988        -3.13223474E-08
   95.9700012        -1.67968626E-08
   96.1600037         1.07415965E-09
   96.3499985         1.89712832E-08
   96.5400009         3.35064776E-08
   96.7300034         4.17708463E-08
   96.9199982         4.18140473E-08
   97.1100006         3.29753078E-08
   97.3000031         1.60092597E-08
   97.4899979        -7.01687997E-09
   97.6800003        -3.30410224E-08
   97.8700027        -5.84889328E-08
   98.0599976        -7.98443693E-08
   98.2500000        -9.42136893E-08
   98.4400024        -9.97918619E-08
   98.6299973        -9.61527107E-08
   98.8199997        -8.43143511E-08
   99.0100021        -6.65684112E-08
   99.1999969        -4.61002614E-08
   99.3899994        -2.64629989E-08
   99.5800018        -1.09919318E-08
   99.7699966        -2.25684560E-09
   99.9599991        -1.64294478E-09
   100.150002        -9.13000875E-09
   100.339996        -2.33060788E-08
   100.529999        -4.16126937E-08
   100.720001        -6.07798825E-08
   100.910004        -7.73773507E-08
   101.099998        -8.83889300E-08
   101.290001        -9.17140568E-08
   101.480003        -8.65126637E-08
   101.669998        -7.33370484E-08
   101.860001        -5.40307461E-08
   102.050003        -3.14140003E-08
   102.239998        -8.81149198E-09
   102.430000         1.04960804E-08
   102.620003         2.38030822E-08
   102.809998         2.94036919E-08
   103.000000         2.68409135E-08
   103.190002         1.69417618E-08
   103.379997         1.63787239E-09
   103.570000        -1.63923239E-08
   103.760002        -3.41939277E-08
   103.949997        -4.90345151E-08
   104.139999        -5.88450639E-08
   104.330002        -6.25285992E-08
   104.519997        -6.00875580E-08
   104.709999        -5.25539576E-08
   104.900002        -4.17420196E-08
   105.089996        -2.98735898E-08
   105.279999        -1.91480645E-08
   105.470001        -1.13363807E-08
   105.660004        -7.47204787E-09
   105.849998        -7.69263497E-09
   106.040001        -1.12564251E-08
   106.230003        -1.67261565E-08
   106.419998        -2.22812897E-08
   106.610001        -2.60971440E-08
   106.800003        -2.67178688E-08
   106.989998        -2.33522996E-08
   107.180000        -1.60371378E-08
   107.370003        -5.63709790E-09
   107.559998         6.31735908E-09
   107.750000         1.79235649E-08
   107.940002         2.72754743E-08
   108.129997         3.28375194E-08
   108.320000         3.37518209E-08
   108.510002         3.00190912E-08
   108.699997         2.25168453E-08
   108.889999         1.28485835E-08
   109.080002         3.04955172E-09
   109.269997        -4.79791407E-09
   109.459999        -8.96831676E-09
   109.650002        -8.43980530E-09
   109.839996        -3.11639736E-09
   110.029999         6.12022166E-09
   110.220001         1.75444210E-08
   110.410004         2.88867152E-08
   110.599998         3.77494302E-08
   110.790001         4.20640838E-08
   110.980003         4.05065812E-08
   111.169998         3.27914584E-08
   111.360001         1.97861940E-08
   111.550003         3.41777229E-09
   111.739998        -1.36192115E-08
   111.930000        -2.83070261E-08
   112.120003        -3.78267160E-08
   112.309998        -4.00658777E-08
