  -1.50000000         0.00000000    
  -1.35000002         0.00000000    
  -1.20000005         0.00000000    
  -1.04999995         0.00000000    
 -0.899999976         0.00000000    
 -0.750000000         0.00000000    
 -0.600000024         0.00000000    
 -0.449999988         0.00000000    
 -0.300000012         0.00000000    
 -0.150000006         0.00000000    
   0.00000000         0.00000000    
  0.150000006         0.00000000    
  0.300000012         0.00000000    
  0.449999988         0.00000000    
  0.600000024         0.00000000    
  0.750000000         0.00000000    
  0.899999976         0.00000000    
   1.04999995         0.00000000    
   1.20000005         0.00000000    
   1.35000002         0.00000000    
   1.50000000         0.00000000    
   1.64999998         0.00000000    
   1.79999995         0.00000000    
   1.95000005         0.00000000    
   2.09999990         0.00000000    
   2.25000000         0.00000000    
   2.40000010         0.00000000    
   2.54999995         0.00000000    
   2.70000005         0.00000000    
   2.84999990         0.00000000    
   3.00000000         0.00000000    
   3.15000010         0.00000000    
   3.29999995         0.00000000    
   3.45000005         0.00000000    
   3.59999990         0.00000000    
   3.75000000         0.00000000    
   3.90000010         0.00000000    
   4.05000019         0.00000000    
   4.19999981         0.00000000    
   4.34999990         0.00000000    
   4.50000000         0.00000000    
   4.65000010         0.00000000    
   4.80000019         0.00000000    
   4.94999981         0.00000000    
   5.09999990         0.00000000    
   5.25000000         0.00000000    
   5.40000010         0.00000000    
   5.55000019         0.00000000    
   5.69999981         0.00000000    
   5.84999990         0.00000000    
   6.00000000         0.00000000    
   6.15000010         0.00000000    
   6.30000019         0.00000000    
   6.44999981         0.00000000    
   6.59999990         0.00000000    
   6.75000000         0.00000000    
   6.90000010         0.00000000    
   7.05000019         0.00000000    
   7.19999981         0.00000000    
   7.34999990         0.00000000    
   7.50000000         0.00000000    
   7.65000010         0.00000000    
   7.80000019         0.00000000    
   7.94999981         0.00000000    
   8.10000038         0.00000000    
   8.25000000         0.00000000    
   8.39999962         0.00000000    
   8.55000019         0.00000000    
   8.69999981         0.00000000    
   8.85000038         0.00000000    
   9.00000000         0.00000000    
   9.14999962         0.00000000    
   9.30000019         0.00000000    
   9.44999981         0.00000000    
   9.60000038         0.00000000    
   9.75000000         0.00000000    
   9.89999962         0.00000000    
   10.0500002         0.00000000    
   10.1999998         0.00000000    
   10.3500004        -3.11380626E-36
   10.5000000        -4.97199026E-36
   10.6499996         7.75048540E-35
   10.8000002         1.71691729E-34
   10.9499998         2.75533787E-34
   11.1000004         3.40035503E-34
   11.2500000         2.91930349E-34
   11.3999996        -1.82917528E-34
   11.5500002        -1.03553311E-33
   11.6999998        -2.07583431E-33
   11.8500004        -2.44814000E-33
   12.0000000        -2.17874553E-33
   12.1499996        -1.68926179E-33
   12.3000002        -3.53814501E-34
   12.4499998         1.57582971E-33
   12.6000004         2.23797484E-33
   12.7500000         8.47222492E-34
   12.8999996        -4.87028983E-33
   13.0500002        -1.60171082E-32
   13.1999998        -3.18231829E-32
   13.3500004        -4.88166847E-32
   13.5000000        -6.66619614E-32
   13.6499996        -7.89974639E-32
   13.8000002        -7.19342181E-32
   13.9499998        -3.89143056E-32
   14.1000004         1.31280458E-32
   14.2500000         8.88329074E-32
   14.3999996         1.93874989E-31
   14.5500002         3.11464861E-31
   14.6999998         4.55751667E-31
   14.8500004         6.18270720E-31
   15.0000000         7.66759166E-31
   15.1499996         8.84249263E-31
   15.3000002         9.37160990E-31
   15.4499998         9.04215081E-31
   15.6000004         7.22614463E-31
   15.7500000         3.59410478E-31
   15.8999996        -2.16695918E-31
   16.0499992        -9.97007383E-31
   16.2000008        -1.95743395E-30
   16.3500004        -3.01627337E-30
   16.5000000        -4.04638370E-30
   16.6499996        -4.87069413E-30
   16.7999992        -5.21508501E-30
   16.9500008        -4.80641509E-30
   17.1000004        -3.36813588E-30
   17.2500000        -6.82068090E-31
   17.3999996         3.33776599E-30
   17.5499992         8.53347058E-30
   17.7000008         1.44333569E-29
   17.8500004         2.02216009E-29
   18.0000000         2.47234711E-29
   18.1499996         2.64992703E-29
   18.2999992         2.40618510E-29
   18.4500008         1.61078897E-29
   18.6000004         1.91182721E-30
   18.7500000        -1.83611887E-29
   18.8999996        -4.31945883E-29
   19.0499992        -6.95703192E-29
   19.2000008        -9.30474353E-29
   19.3500004        -1.08104867E-28
   19.5000000        -1.08830534E-28
   19.6499996        -9.00485397E-29
   19.7999992        -4.85628502E-29
   19.9500008         1.54411298E-29
   20.1000004         9.73470800E-29
   20.2500000         1.87516845E-28
   20.3999996         2.71689276E-28
   20.5499992         3.32385921E-28
   20.7000008         3.51512404E-28
   20.8500004         3.13858716E-28
   21.0000000         2.11072292E-28
   21.1499996         4.53139267E-29
   21.2999992        -1.68219496E-28
   21.4500008        -4.00975726E-28
   21.6000004        -6.13491743E-28
   21.7500000        -7.60962269E-28
   21.8999996        -8.01498135E-28
   22.0499992        -7.05982940E-28
   22.2000008        -4.67693165E-28
   22.3500004        -1.09352196E-28
   22.5000000         3.14718427E-28
   22.6499996         7.23416795E-28
   22.7999992         1.02132652E-27
   22.9500008         1.11809555E-27
   23.1000004         9.52015772E-28
   23.2500000         5.13317001E-28
   23.3999996        -1.38655798E-28
   23.5499992        -8.70305305E-28
   23.7000008        -1.48550857E-27
   23.8500004        -1.75629808E-27
   24.0000000        -1.47058136E-27
   24.1499996        -4.90381775E-28
   24.2999992         1.19025051E-27
   24.4500008         3.40154434E-27
   24.6000004         5.78270519E-27
   24.7500000         7.80632485E-27
   24.8999996         8.84748489E-27
   25.0499992         8.29329701E-27
   25.2000008         5.67830323E-27
   25.3500004         8.21635900E-28
   25.5000000        -6.06396492E-27
   25.6499996        -1.43213322E-26
   25.7999992        -2.28789923E-26
   25.9500008        -3.03707782E-26
   26.1000004        -3.53341215E-26
   26.2500000        -3.64553671E-26
   26.3999996        -3.28138742E-26
   26.5499992        -2.40687656E-26
   26.7000008        -1.05378567E-26
   26.8500004         6.86103760E-27
   27.0000000         2.68028127E-26
   27.1499996         4.78379551E-26
   27.2999992         6.86849172E-26
   27.4500008         8.84289964E-26
   27.6000004         1.06528159E-25
   27.7500000         1.22562040E-25
   27.8999996         1.35727697E-25
   28.0499992         1.44175436E-25
   28.2000008         1.44370864E-25
   28.3500004         1.30739446E-25
   28.5000000         9.58701426E-26
   28.6499996         3.15007937E-26
   28.7999992        -6.96275814E-26
   28.9500008        -2.11172099E-25
   29.1000004        -3.90220894E-25
   29.2500000        -5.94578121E-25
   29.3999996        -8.01085242E-25
   29.5499992        -9.75785835E-25
   29.7000008        -1.07656834E-24
   29.8500004        -1.05853508E-24
   30.0000000        -8.81782705E-25
   30.1499996        -5.20621228E-25
   30.2999992         2.73631905E-26
   30.4500008         7.34408598E-25
   30.6000004         1.53991555E-24
   30.7500000         2.35366768E-24
   30.8999996         3.06567381E-24
   31.0499992         3.56201859E-24
   31.2000008         3.74456376E-24
   31.3500004         3.55090235E-24
   31.5000000         2.97000944E-24
   31.6499996         2.04893801E-24
   31.7999992         8.86938798E-25
   31.9500008        -3.84446111E-25
   32.0999985        -1.63356478E-24
   32.2500000        -2.76772282E-24
   32.4000015        -3.77033664E-24
   32.5499992        -4.72518058E-24
   32.7000008        -5.81649628E-24
   32.8499985        -7.29627233E-24
   33.0000000        -9.41541936E-24
   33.1500015        -1.23234809E-23
   33.2999992        -1.59509411E-23
   33.4500008        -1.98973297E-23
   33.5999985        -2.33551485E-23
   33.7500000        -2.51018601E-23
   33.9000015        -2.35880676E-23
   34.0499992        -1.71384654E-23
   34.2000008        -4.26359164E-24
   34.3499985         1.59434753E-23
   34.5000000         4.33769558E-23
   34.6500015         7.65293149E-23
   34.7999992         1.12232604E-22
   34.9500008         1.45621603E-22
   35.0999985         1.70394826E-22
   35.2500000         1.79416467E-22
   35.4000015         1.65652296E-22
   35.5499992         1.23370525E-22
   35.7000008         4.94741216E-23
   35.8499985        -5.52261514E-23
   36.0000000        -1.85026745E-22
   36.1500015        -3.28869851E-22
   36.2999992        -4.70609122E-22
   36.4500008        -5.90133590E-22
   36.5999985        -6.65369363E-22
   36.7500000        -6.75040368E-22
   36.9000015        -6.01923943E-22
   37.0499992        -4.36201407E-22
   37.2000008        -1.78411849E-22
   37.3499985         1.58516967E-22
   37.5000000         5.48641021E-22
   37.6500015         9.54124059E-22
   37.7999992         1.32825274E-21
   37.9500008         1.62021216E-21
   38.0999985         1.78120077E-21
   38.2500000         1.77118898E-21
   38.4000015         1.56542235E-21
   38.5499992         1.15967602E-21
   38.7000008         5.73323558E-22
   38.8499985        -1.50507643E-22
   39.0000000        -9.48060155E-22
   39.1500015        -1.74124690E-21
   39.2999992        -2.44650803E-21
   39.4500008        -2.98512822E-21
   39.5999985        -3.29355128E-21
   39.7500000        -3.33208626E-21
   39.9000015        -3.09048692E-21
   40.0499992        -2.58927565E-21
   40.2000008        -1.87630150E-21
   40.3499985        -1.01882762E-21
   40.5000000        -9.22822866E-23
   40.6500015         8.32442933E-22
   40.7999992         1.70076775E-21
   40.9500008         2.48278564E-21
   41.0999985         3.17608719E-21
   41.2500000         3.80174310E-21
   41.4000015         4.39337474E-21
   41.5499992         4.98066692E-21
   41.7000008         5.57011348E-21
   41.8499985         6.12690216E-21
   42.0000000         6.56239417E-21
   42.1500015         6.73145527E-21
   42.2999992         6.44277610E-21
   42.4500008         5.48342552E-21
   42.5999985         3.65632612E-21
   42.7500000         8.26566487E-22
   42.9000015        -3.03011606E-21
   43.0499992        -7.78517755E-21
   43.2000008        -1.31306045E-20
   43.3499985        -1.85760225E-20
   43.5000000        -2.34753890E-20
   43.6500015        -2.70851244E-20
   43.7999992        -2.86505928E-20
   43.9500008        -2.75125668E-20
   44.0999985        -2.32205915E-20
   44.2500000        -1.56368979E-20
   44.4000015        -5.01331188E-21
   44.5499992         7.97473843E-21
   44.7000008         2.22487092E-20
   44.8499985         3.64067714E-20
   45.0000000         4.88593454E-20
   45.1500015         5.80079727E-20
   45.2999992         6.24470245E-20
   45.4500008         6.11622967E-20
   45.5999985         5.36981194E-20
   45.7500000         4.02667354E-20
   45.9000015         2.17795541E-20
   46.0499992        -2.10169092E-22
   46.2000008        -2.36517497E-20
   46.3499985        -4.62143320E-20
   46.5000000        -6.55513106E-20
   46.6500015        -7.95781353E-20
   46.7999992        -8.67260680E-20
   46.9500008        -8.61366759E-20
   47.0999985        -7.77692012E-20
   47.2500000        -6.24050968E-20
   47.4000015        -4.15488136E-20
   47.5499992        -1.72392970E-20
   47.7000008         8.19996420E-21
   47.8499985         3.24354482E-20
   48.0000000         5.33825564E-20
   48.1500015         6.94123312E-20
   48.2999992         7.94788801E-20
   48.4500008         8.31546511E-20
   48.5999985         8.05773178E-20
   48.7500000         7.23276969E-20
   48.9000015         5.92702891E-20
   49.0499992         4.23942149E-20
   49.2000008         2.26904625E-20
   49.3499985         1.09249728E-21
   49.5000000        -2.15082194E-20
   49.6500015        -4.41795614E-20
   49.7999992        -6.58254369E-20
   49.9500008        -8.50635190E-20
   50.0999985        -1.00153271E-19
   50.2500000        -1.09020712E-19
   50.4000015        -1.09412808E-19
   50.5499992        -9.91906975E-20
   50.7000008        -7.67411967E-20
   50.8499985        -4.14537428E-20
   51.0000000         5.81741383E-21
   51.1500015         6.24029319E-20
   51.2999992         1.23679140E-19
   51.4500008         1.83222509E-19
   51.5999985         2.33304043E-19
   51.7500000         2.65720010E-19
   51.9000015         2.72894303E-19
   52.0499992         2.49127569E-19
   52.2000008         1.91818311E-19
   52.3499985         1.02451217E-19
   52.5000000        -1.28519674E-20
   52.6500015        -1.43390195E-19
   52.7999992        -2.74652941E-19
   52.9500008        -3.89808631E-19
   53.0999985        -4.71804434E-19
   53.2500000        -5.05854756E-19
   53.4000015        -4.81995972E-19
   53.5499992        -3.97321732E-19
   53.7000008        -2.57498300E-19
   53.8499985        -7.72077653E-20
   54.0000000         1.20723572E-19
   54.1500015         3.07590807E-19
   54.2999992         4.52345993E-19
   54.4500008         5.26065880E-19
   54.5999985         5.06820386E-19
   54.7500000         3.84263807E-19
   54.9000015         1.63211627E-19
   55.0499992        -1.34498172E-19
   55.2000008        -4.70408877E-19
   55.3499985        -7.92412919E-19
   55.5000000        -1.04024745E-18
   55.6500015        -1.15310808E-18
   55.7999992        -1.07860195E-18
   55.9500008        -7.81954874E-19
   56.0999985        -2.54195833E-19
   56.2500000         4.81993542E-19
   56.4000015         1.36992742E-18
   56.5499992         2.32089861E-18
   56.7000008         3.22083451E-18
   56.8499985         3.94136714E-18
   57.0000000         4.35441854E-18
   57.1500015         4.34880777E-18
   57.2999992         3.84692214E-18
   57.4500008         2.81926376E-18
   57.5999985         1.29469761E-18
   57.7500000        -6.35441853E-19
   57.9000015        -2.82061330E-18
   58.0499992        -5.06209265E-18
   58.2000008        -7.13116377E-18
   58.3499985        -8.79287863E-18
   58.5000000        -9.83291018E-18
   58.6500015        -1.00843847E-17
   58.7999992        -9.45128792E-18
   58.9500008        -7.92521828E-18
   59.0999985        -5.59283116E-18
   59.2500000        -2.63233025E-18
   59.4000015         7.01329839E-19
   59.5499992         4.10142783E-18
   59.7000008         7.24212839E-18
   59.8499985         9.81511587E-18
   60.0000000         1.15657717E-17
   60.1500015         1.23242392E-17
   60.2999992         1.20271556E-17
   60.4500008         1.07268368E-17
   60.5999985         8.58623402E-18
   60.7500000         5.85981942E-18
   60.9000015         2.86250421E-18
   61.0499992        -6.95841715E-20
   61.2000008        -2.62132688E-18
   61.3499985        -4.53808738E-18
   61.5000000        -5.65684047E-18
   61.6500015        -5.92436185E-18
   61.7999992        -5.39960798E-18
   61.9500008        -4.23966915E-18
   62.0999985        -2.67116824E-18
   62.2500000        -9.51282313E-19
   62.4000015         6.75549566E-19
   62.5499992         2.01818173E-18
   62.7000008         2.96953807E-18
   62.8499985         3.52169251E-18
   63.0000000         3.76154469E-18
   63.1500015         3.84634187E-18
   63.2999992         3.96169179E-18
   63.4500008         4.26801208E-18
   63.5999985         4.84405197E-18
   63.7500000         5.63779133E-18
   63.9000015         6.43508425E-18
   64.0500031         6.85506701E-18
   64.1999969         6.37813162E-18
   64.3499985         4.40793795E-18
   64.5000000         3.63642582E-19
   64.6500015        -6.20687753E-18
   64.8000031        -1.55068026E-17
   64.9499969        -2.73805187E-17
   65.0999985        -4.12329154E-17
   65.2500000        -5.59953034E-17
   65.4000015        -7.01517782E-17
   65.5500031        -8.18334015E-17
   65.6999969        -8.89796597E-17
   65.8499985        -8.95570781E-17
   66.0000000        -8.18163020E-17
   66.1500015        -6.45605998E-17
   66.3000031        -3.73938113E-17
   66.4499969        -9.13628845E-19
   66.5999985         4.31815908E-17
   66.7500000         9.20980181E-17
   66.9000015         1.42078540E-16
   67.0500031         1.88663659E-16
   67.1999969         2.27067616E-16
   67.3499985         2.52641156E-16
   67.5000000         2.61378592E-16
   67.6500015         2.50417297E-16
   67.8000031         2.18472363E-16
   67.9499969         1.66151151E-16
   68.0999985         9.60992561E-17
   68.2500000         1.29445411E-17
   68.4000015        -7.69759720E-17
   68.5500031        -1.66097814E-16
   68.6999969        -2.46287958E-16
   68.8499985        -3.09626171E-16
   69.0000000        -3.49236184E-16
   69.1500015        -3.60082203E-16
   69.3000031        -3.39641630E-16
   69.4499969        -2.88372102E-16
   69.5999985        -2.09904558E-16
   69.7500000        -1.10918859E-16
   69.9000015        -6.88505179E-19
   70.0500031         1.09684771E-16
   70.1999969         2.08290921E-16
   70.3499985         2.83598807E-16
   70.5000000         3.25698965E-16
   70.6500015         3.27475537E-16
   70.8000031         2.85578746E-16
   70.9499969         2.01079904E-16
   71.0999985         7.97163816E-17
   71.2500000        -6.83311272E-17
   71.4000015        -2.29141073E-16
   71.5500031        -3.86196361E-16
   71.6999969        -5.21886539E-16
   71.8499985        -6.19236989E-16
   72.0000000        -6.63702830E-16
   72.1500015        -6.44846024E-16
   72.3000031        -5.57713756E-16
   72.4499969        -4.03754904E-16
   72.5999985        -1.91146802E-16
   72.7500000         6.55413382E-17
   72.9000015         3.46359475E-16
   73.0500031         6.27603027E-16
   73.1999969         8.83927426E-16
   73.3499985         1.09076477E-15
   73.5000000         1.22681213E-15
   73.6500015         1.27633921E-15
   73.8000031         1.23106392E-15
   73.9499969         1.09137622E-15
   74.0999985         8.66741657E-16
   74.2500000         5.75191858E-16
   74.4000015         2.41902075E-16
   74.5500031        -1.03053185E-16
   74.6999969        -4.27578711E-16
   74.8499985        -7.00808220E-16
   75.0000000        -8.96404698E-16
   75.1500015        -9.95567268E-16
   75.3000031        -9.89408068E-16
   75.4499969        -8.80410969E-16
   75.5999985        -6.82760648E-16
   75.7500000        -4.21438067E-16
   75.9000015        -1.30102765E-16
   76.0500031         1.52090668E-16
   76.1999969         3.84470293E-16
   76.3499985         5.29249585E-16
   76.5000000         5.55917782E-16
   76.6500015         4.45155624E-16
   76.8000031         1.91837425E-16
   76.9499969        -1.93252115E-16
   77.0999985        -6.83242980E-16
   77.2500000        -1.23666122E-15
   77.4000015        -1.80051422E-15
   77.5500031        -2.31476063E-15
   77.6999969        -2.71779330E-15
   77.8499985        -2.95243646E-15
   78.0000000        -2.97189006E-15
   78.1500015        -2.74502266E-15
   78.3000031        -2.26045713E-15
   78.4499969        -1.52899304E-15
   78.5999985        -5.84050605E-16
   78.7500000         5.19991144E-16
   78.9000015         1.71148449E-15
   79.0500031         2.90695312E-15
   79.1999969         4.01782455E-15
   79.3499985         4.95785409E-15
   79.5000000         5.65056484E-15
   79.6500015         6.03599956E-15
   79.8000031         6.07615400E-15
   79.9499969         5.75855815E-15
   80.0999985         5.09766027E-15
   80.2500000         4.13386680E-15
   80.4000015         2.93032128E-15
   80.5500031         1.56771844E-15
   80.6999969         1.37634489E-16
   80.8499985        -1.26500908E-15
   81.0000000        -2.54965366E-15
   81.1500015        -3.63728822E-15
   81.3000031        -4.46647758E-15
   81.4499969        -4.99772732E-15
   81.5999985        -5.21584678E-15
   81.7500000        -5.13017617E-15
   81.9000015        -4.77273758E-15
   82.0500031        -4.19457365E-15
   82.1999969        -3.46066957E-15
   82.3499985        -2.64398476E-15
   82.5000000        -1.81914471E-15
   82.6500015        -1.05634993E-15
   82.8000031        -4.15987780E-16
   82.9499969         5.56686398E-17
   83.0999985         3.29421648E-16
   83.2500000         3.94658643E-16
   83.4000015         2.59426498E-16
   83.5500031        -5.07909741E-17
   83.6999969        -4.95390078E-16
   83.8499985        -1.02179818E-15
   84.0000000        -1.56919736E-15
   84.1500015        -2.07257548E-15
   84.3000031        -2.46690236E-15
   84.4499969        -2.69125957E-15
   84.5999985        -2.69281197E-15
   84.7500000        -2.43050577E-15
   84.9000015        -1.87841012E-15
   85.0500031        -1.02856460E-15
   85.1999969         1.06809300E-16
   85.3499985         1.49393001E-15
   85.5000000         3.07714936E-15
   85.6500015         4.77994795E-15
   85.8000031         6.50746191E-15
   85.9499969         8.15067618E-15
   86.0999985         9.59232371E-15
   86.2500000         1.07143484E-14
   86.4000015         1.14066022E-14
   86.5500031         1.15762460E-14
   86.6999969         1.11571205E-14
   86.8499985         1.01182109E-14
   87.0000000         8.47027696E-15
   87.1500015         6.26970399E-15
   87.3000031         3.61879665E-15
   87.4499969         6.61982295E-16
   87.5999985        -2.42228151E-15
   87.7500000        -5.43364690E-15
   87.9000015        -8.16538491E-15
   88.0500031        -1.04221068E-14
   88.1999969        -1.20381991E-14
   88.3499985        -1.28951694E-14
   88.5000000        -1.29360650E-14
   88.6500015        -1.21751449E-14
   88.8000031        -1.07013863E-14
   88.9499969        -8.67481593E-15
   89.0999985        -6.31538152E-15
   89.2500000        -3.88479803E-15
   89.4000015        -1.66261154E-15
   89.5500031         8.15605047E-17
   89.6999969         1.11705900E-15
   89.8499985         1.27956789E-15
   90.0000000         4.93861131E-16
   90.1500015        -1.21085075E-15
   90.3000031        -3.69519267E-15
   90.4499969        -6.71488842E-15
   90.5999985        -9.93736597E-15
   90.7500000        -1.29688512E-14
   90.9000015        -1.53899652E-14
   91.0500031        -1.67967802E-14
   91.1999969        -1.68434941E-14
   91.3499985        -1.52824412E-14
   91.5000000        -1.19971494E-14
   91.6500015        -7.02454460E-15
   91.8000031        -5.63332444E-16
   91.9499969         7.03321907E-15
   92.0999985         1.52803422E-14
   92.2500000         2.35992680E-14
   92.4000015         3.13662094E-14
   92.5500031         3.79684653E-14
   92.6999969         4.28623371E-14
   92.8499985         4.56269849E-14
   93.0000000         4.60085664E-14
   93.1500015         4.39495479E-14
   93.3000031         3.95994950E-14
   93.4499969         3.33053152E-14
   93.5999985         2.55809388E-14
   93.7500000         1.70586998E-14
   93.9000015         8.42654888E-15
   94.0500031         3.57078730E-16
   94.1999969        -6.56457607E-15
   94.3499985        -1.19063788E-14
   94.5000000        -1.54412531E-14
   94.6500015        -1.71789649E-14
   94.8000031        -1.73734843E-14
   94.9499969        -1.65037577E-14
   95.0999985        -1.52283378E-14
   95.2500000        -1.43171845E-14
   95.4000015        -1.45664510E-14
   95.5500031        -1.67041216E-14
   95.6999969        -2.12958228E-14
   95.8499985        -2.86605456E-14
   96.0000000        -3.88055304E-14
   96.1500015        -5.13882184E-14
   96.3000031        -6.57106815E-14
   96.4499969        -8.07492162E-14
   96.5999985        -9.52182465E-14
   96.7500000        -1.07664332E-13
   96.9000015        -1.16583026E-13
   97.0500031        -1.20548807E-13
   97.1999969        -1.18346468E-13
   97.3499985        -1.09092131E-13
   97.5000000        -9.23324392E-14
   97.6500015        -6.81120809E-14
   97.8000031        -3.70028240E-14
   97.9499969        -9.03992207E-17
   98.0999985         4.10805050E-14
   98.2500000         8.45990419E-14
   98.4000015         1.28311139E-13
   98.5500031         1.69962338E-13
   98.6999969         2.07348258E-13
   98.8499985         2.38459914E-13
   99.0000000         2.61612075E-13
   99.1500015         2.75543883E-13
   99.3000031         2.79484904E-13
   99.4499969         2.73181976E-13
   99.5999985         2.56887122E-13
   99.7500000         2.31309871E-13
   99.9000015         1.97540741E-13
   100.050003         1.56955137E-13
   100.199997         1.11108239E-13
   100.349998         6.16314793E-14
   100.500000         1.01405480E-14
   100.650002        -4.18376000E-14
   100.800003        -9.29138832E-14
   100.949997        -1.41860658E-13
   101.099998        -1.87611672E-13
   101.250000        -2.29243057E-13
   101.400002        -2.65942569E-13
   101.550003        -2.96975145E-13
   101.699997        -3.21653348E-13
   101.849998        -3.39320369E-13
   102.000000        -3.49350973E-13
   102.150002        -3.51173002E-13
   102.300003        -3.44309135E-13
   102.449997        -3.28434979E-13
   102.599998        -3.03447073E-13
   102.750000        -2.69531982E-13
   102.900002        -2.27226590E-13
   103.050003        -1.77460314E-13
   103.199997        -1.21570519E-13
   103.349998        -6.12857136E-14
   103.500000         1.32635862E-15
   103.650002         6.39442858E-14
   103.800003         1.24107579E-13
   103.949997         1.79351664E-13
   104.099998         2.27353062E-13
   104.250000         2.66072076E-13
   104.400002         2.93881483E-13
   104.550003         3.09669635E-13
   104.699997         3.12910207E-13
   104.849998         3.03692997E-13
   105.000000         2.82715041E-13
   105.150002         2.51233767E-13
   105.300003         2.10989443E-13
   105.449997         1.64104461E-13
   105.599998         1.12969956E-13
   105.750000         6.01301845E-14
   105.900002         8.17320980E-15
   106.050003        -4.03648604E-14
   106.199997        -8.30786991E-14
   106.349998        -1.17754940E-13
   106.500000        -1.42418737E-13
   106.650002        -1.55370684E-13
   106.800003        -1.55221010E-13
   106.949997        -1.40927892E-13
   107.099998        -1.11845232E-13
   107.250000        -6.77829781E-14
   107.400002        -9.07930127E-15
   107.550003         6.33201513E-14
   107.699997         1.47784955E-13
   107.849998         2.41936137E-13
   108.000000         3.42611193E-13
   108.150002         4.45871448E-13
   108.300003         5.47065269E-13
   108.449997         6.40956526E-13
   108.599998         7.21921817E-13
   108.750000         7.84213135E-13
   108.900002         8.22275136E-13
   109.050003         8.31099783E-13
   109.199997         8.06592260E-13
   109.349998         7.45920686E-13
   109.500000         6.47816924E-13
   109.650002         5.12800035E-13
   109.800003         3.43295081E-13
   109.949997         1.43629385E-13
   110.099998        -8.01032485E-14
   110.250000        -3.20308477E-13
   110.400002        -5.68273618E-13
   110.550003        -8.14641648E-13
   110.699997        -1.04994247E-12
   110.849998        -1.26514142E-12
   111.000000        -1.45216012E-12
   111.150002        -1.60433028E-12
   111.300003        -1.71673949E-12
   111.449997        -1.78644545E-12
   111.599998        -1.81253851E-12
   111.750000        -1.79605441E-12
   111.900002        -1.73974637E-12
   112.050003        -1.64774357E-12
   112.199997        -1.52513072E-12
   112.349998        -1.37749274E-12
   112.500000        -1.21047042E-12
   112.650002        -1.02937049E-12
   112.800003        -8.38866953E-13
   112.949997        -6.42819457E-13
   113.099998        -4.44221157E-13
   113.250000        -2.45273745E-13
   113.400002        -4.75692619E-14
   113.550003         1.47650040E-13
   113.699997         3.39196390E-13
   113.849998         5.25651896E-13
   114.000000         7.05139397E-13
   114.150002         8.75190111E-13
   114.300003         1.03273564E-12
   114.449997         1.17423931E-12
   114.599998         1.29596290E-12
   114.750000         1.39434818E-12
   114.900002         1.46647397E-12
   115.050003         1.51053790E-12
   115.199997         1.52630653E-12
   115.349998         1.51546928E-12
   115.500000         1.48184329E-12
   115.650002         1.43138724E-12
   115.800003         1.37199399E-12
   115.949997         1.31306164E-12
   116.099998         1.26486105E-12
   116.250000         1.23774179E-12
   116.400002         1.24123910E-12
   116.550003         1.28315913E-12
   116.699997         1.36872783E-12
   116.849998         1.49988539E-12
   117.000000         1.67480450E-12
   117.150002         1.88768619E-12
   117.300003         2.12887043E-12
   117.449997         2.38526473E-12
   117.599998         2.64106879E-12
   117.750000         2.87874152E-12
   117.900002         3.08013445E-12
   118.050003         3.22769784E-12
   118.199997         3.30565740E-12
   118.349998         3.30106190E-12
