  -1.50000000         0.00000000    
  -1.30999994         0.00000000    
  -1.12000000         0.00000000    
 -0.930000007         3.93838784E-19
 -0.740000010         3.80012977E-18
 -0.550000012         2.13315983E-17
 -0.360000014         9.00960888E-17
 -0.170000002         3.13060598E-16
   1.99999996E-02     9.31545660E-16
  0.209999993         2.42463986E-15
  0.400000006         5.59210940E-15
  0.589999974         1.15255697E-14
  0.779999971         2.13317912E-14
  0.970000029         3.54702704E-14
   1.15999997         5.26161722E-14
   1.35000002         6.80544691E-14
   1.53999996         7.17305989E-14
   1.73000002         4.62173770E-14
   1.91999996        -3.50088373E-14
   2.10999990        -2.08469228E-13
   2.29999995        -5.20168435E-13
   2.49000001        -1.02307822E-12
   2.68000007        -1.77213669E-12
   2.86999989        -2.81652392E-12
   3.05999994        -4.18932077E-12
   3.25000000        -5.89510558E-12
   3.44000006        -7.89651504E-12
   3.63000011        -1.01012185E-11
   3.81999993        -1.23511314E-11
   4.01000023        -1.44158010E-11
   4.19999981        -1.59918398E-11
   4.38999987        -1.67098887E-11
   4.57999992        -1.61499703E-11
   4.76999998        -1.38653498E-11
   4.96000004        -9.41413093E-12
   5.15000010        -2.39721220E-12
   5.34000015         7.49936484E-12
   5.53000021         2.04600243E-11
   5.71999979         3.64958515E-11
   5.90999985         5.54045941E-11
   6.09999990         7.67382338E-11
   6.28999996         9.97827654E-11
   6.48000002         1.23555582E-10
   6.67000008         1.46825885E-10
   6.86000013         1.68162859E-10
   7.05000019         1.86014273E-10
   7.23999977         1.98814895E-10
   7.42999983         2.05118950E-10
   7.61999989         2.03746742E-10
   7.80999994         1.93929470E-10
   8.00000000         1.75434334E-10
   8.18999958         1.48650259E-10
   8.38000011         1.14616802E-10
   8.56999969         7.49853582E-11
   8.76000023         3.19094091E-11
   8.94999981        -1.21289185E-11
   9.14000034        -5.45385681E-11
   9.32999992        -9.28608440E-11
   9.52000046        -1.25003535E-10
   9.71000004        -1.49440293E-10
   9.89999962        -1.65353523E-10
   10.0900002        -1.72708195E-10
   10.2799997        -1.72254752E-10
   10.4700003        -1.65468764E-10
   10.6599998        -1.54440682E-10
   10.8500004        -1.41731529E-10
   11.0400000        -1.30207040E-10
   11.2299995        -1.22857294E-10
   11.4200001        -1.22602123E-10
   11.6099997        -1.32077890E-10
   11.8000002        -1.53401472E-10
   11.9899998        -1.87911881E-10
   12.1800003        -2.35901659E-10
   12.3699999        -2.96363517E-10
   12.5600004        -3.66791403E-10
   12.7500000        -4.43083459E-10
   12.9399996        -5.19594534E-10
   13.1300001        -5.89374272E-10
   13.3199997        -6.44604592E-10
   13.5100002        -6.77220002E-10
   13.6999998        -6.79661716E-10
   13.8900003        -6.45686726E-10
   14.0799999        -5.71134251E-10
   14.2700005        -4.54548787E-10
   14.4600000        -2.97569552E-10
   14.6499996        -1.05027168E-10
   14.8400002         1.15275588E-10
   15.0299997         3.53077262E-10
   15.2200003         5.96406702E-10
   15.4099998         8.32477698E-10
   15.6000004         1.04862719E-09
   15.7900000         1.23319688E-09
   15.9799995         1.37627398E-09
   16.1700001         1.47023538E-09
   16.3600006         1.51006840E-09
   16.5499992         1.49347235E-09
   16.7399998         1.42076584E-09
   16.9300003         1.29464139E-09
   17.1200008         1.11981369E-09
   17.3099995         9.02607378E-10
   17.5000000         6.50527632E-10
   17.6900005         3.71853964E-10
   17.8799992         7.52901214E-11
   18.0699997        -2.30299113E-10
   18.2600002        -5.36041933E-10
   18.4500008        -8.33095204E-10
   18.6399994        -1.11257359E-09
   18.8299999        -1.36540190E-09
   19.0200005        -1.58215774E-09
   19.2099991        -1.75298531E-09
   19.3999996        -1.86767934E-09
   19.5900002        -1.91602734E-09
   19.7800007        -1.88847626E-09
   19.9699993        -1.77712667E-09
   20.1599998        -1.57700430E-09
   20.3500004        -1.28746402E-09
   20.5400009        -9.13530529E-10
   20.7299995        -4.66922334E-10
   20.9200001         3.34861826E-11
   21.1100006         5.61983515E-10
   21.2999992         1.08724107E-09
   21.4899998         1.57443469E-09
   21.6800003         1.98813055E-09
   21.8700008         2.29565478E-09
   22.0599995         2.47056109E-09
   22.2500000         2.49575649E-09
   22.4400005         2.36585374E-09
   22.6299992         2.08839057E-09
   22.8199997         1.68369785E-09
   23.0100002         1.18337273E-09
   23.2000008         6.27491115E-10
   23.3899994         6.08787881E-11
   23.5799999        -4.71128081E-10
   23.7700005        -9.26931087E-10
   23.9599991        -1.27243660E-09
   24.1499996        -1.48392920E-09
   24.3400002        -1.54977309E-09
   24.5300007        -1.47082313E-09
   24.7199993        -1.25959942E-09
   24.9099998        -9.38424005E-10
   25.1000004        -5.36832301E-10
   25.2900009        -8.86141230E-11
   25.4799995         3.71139924E-10
   25.6700001         8.08686340E-10
   25.8600006         1.19373122E-09
   26.0499992         1.50087309E-09
   26.2399998         1.71036818E-09
   26.4300003         1.80829784E-09
   26.6200008         1.78628379E-09
   26.8099995         1.64093461E-09
   27.0000000         1.37321132E-09
   27.1900005         9.87866566E-10
   27.3799992         4.93070418E-10
   27.5699997        -9.97254501E-11
   27.7600002        -7.75703890E-10
   27.9500008        -1.51644708E-09
   28.1399994        -2.29967334E-09
   28.3299999        -3.09909809E-09
   28.5200005        -3.88455845E-09
   28.7099991        -4.62254857E-09
   28.8999996        -5.27725241E-09
   29.0900002        -5.81211346E-09
   29.2800007        -6.19190343E-09
   29.4699993        -6.38517728E-09
   29.6599998        -6.36693187E-09
   29.8500004        -6.12121864E-09
   30.0400009        -5.64343683E-09
   30.2299995        -4.94201968E-09
   30.4200001        -4.03924538E-09
   30.6100006        -2.97097613E-09
   30.7999992        -1.78520332E-09
   30.9899998        -5.39407075E-10
   31.1800003         7.03160530E-10
   31.3700008         1.87801263E-09
   31.5599995         2.92442937E-09
   31.7500000         3.79048037E-09
   31.9400005         4.43757697E-09
   32.1300011         4.84406204E-09
   32.3199997         5.00740560E-09
   32.5099983         4.94467534E-09
   32.7000008         4.69111194E-09
   32.8899994         4.29682512E-09
   33.0800018         3.82183485E-09
   33.2700005         3.32989147E-09
   33.4599991         2.88167401E-09
   33.6500015         2.52808596E-09
   33.8400002         2.30441066E-09
   34.0299988         2.22603691E-09
   34.2200012         2.28633357E-09
   34.4099998         2.45700704E-09
   34.5999985         2.69102762E-09
   34.7900009         2.92786639E-09
   34.9799995         3.10052450E-09
   35.1699982         3.14357695E-09
   35.3600006         3.00132585E-09
   35.5499992         2.63510702E-09
   35.7400017         2.02889927E-09
   35.9300003         1.19256460E-09
   36.1199989         1.62336561E-10
   36.3100014        -1.00151398E-09
   36.5000000        -2.21957985E-09
   36.6899986        -3.40026451E-09
   36.8800011        -4.44804593E-09
   37.0699997        -5.27223376E-09
   37.2599983        -5.79537351E-09
   37.4500008        -5.96056404E-09
   37.6399994        -5.73705217E-09
   37.8300018        -5.12370590E-09
   38.0200005        -4.15008961E-09
   38.2099991        -2.87513258E-09
   38.4000015        -1.38344902E-09
   38.5900002         2.20398796E-10
   38.7799988         1.81935012E-09
   38.9700012         3.29248850E-09
   39.1599998         4.52431603E-09
   39.3499985         5.41395417E-09
   39.5400009         5.88354920E-09
   39.7299995         5.88512394E-09
   39.9199982         5.40520695E-09
   40.1100006         4.46666792E-09
   40.2999992         3.12745252E-09
   40.4900017         1.47620116E-09
   40.6800003        -3.74953957E-10
   40.8699989        -2.29976704E-09
   41.0600014        -4.16846468E-09
   41.2500000        -5.85848081E-09
   41.4399986        -7.26413951E-09
   41.6300011        -8.30429414E-09
   41.8199997        -8.92709906E-09
   42.0099983        -9.11153819E-09
   42.2000008        -8.86570550E-09
   42.3899994        -8.22227353E-09
   42.5800018        -7.23195193E-09
   42.7700005        -5.95592287E-09
   42.9599991        -4.45836834E-09
   43.1500015        -2.80008683E-09
   43.3400002        -1.03397535E-09
   43.5299988         7.97156618E-10
   43.7200012         2.66036682E-09
   43.9099998         4.53026061E-09
   44.0999985         6.38517017E-09
   44.2900009         8.20265722E-09
   44.4799995         9.95526683E-09
   44.6699982         1.16073995E-08
   44.8600006         1.31139970E-08
   45.0499992         1.44215058E-08
   45.2400017         1.54711923E-08
   45.4300003         1.62046039E-08
   45.6199989         1.65705245E-08
   45.8100014         1.65326082E-08
   46.0000000         1.60765747E-08
   46.1899986         1.52159192E-08
   46.3800011         1.39950682E-08
   46.5699997         1.24892123E-08
   46.7599983         1.08004361E-08
   46.9500008         9.05016417E-09
   47.1399994         7.36850359E-09
   47.3300018         5.88148730E-09
   47.5200005         4.69763117E-09
   47.7099991         3.89540933E-09
   47.9000015         3.51326190E-09
   48.0900002         3.54355456E-09
   48.2799988         3.93147914E-09
   48.4700012         4.57931204E-09
   48.6599998         5.35576428E-09
   48.8499985         6.10953288E-09
   49.0400009         6.68554456E-09
   49.2299995         6.94202029E-09
   49.4199982         6.76633460E-09
   49.6100006         6.08776718E-09
   49.7999992         4.88558438E-09
   49.9900017         3.19149440E-09
   50.1800003         1.08620135E-09
   50.3699989        -1.30944811E-09
   50.5600014        -3.84762844E-09
   50.7500000        -6.36927622E-09
   50.9399986        -8.72052652E-09
   51.1300011        -1.07677733E-08
   51.3199997        -1.24096458E-08
   51.5099983        -1.35845424E-08
   51.7000008        -1.42730281E-08
   51.8899994        -1.44951260E-08
   52.0800018        -1.43031134E-08
   52.2700005        -1.37711176E-08
   52.4599991        -1.29831310E-08
   52.6500015        -1.20211867E-08
   52.8400002        -1.09553691E-08
   53.0299988        -9.83697213E-09
   53.2200012        -8.69556427E-09
   53.4099998        -7.54015073E-09
   53.5999985        -6.36394981E-09
   53.7900009        -5.15176612E-09
   53.9799995        -3.88860943E-09
   54.1699982        -2.56801447E-09
   54.3600006        -1.19863997E-09
   54.5499992         1.91978849E-10
   54.7400017         1.55717528E-09
   54.9300003         2.83449464E-09
   55.1199989         3.95219546E-09
   55.3100014         4.83798734E-09
   55.5000000         5.42880008E-09
   55.6899986         5.68022251E-09
   55.8800011         5.57432855E-09
   56.0699997         5.12483611E-09
   56.2599983         4.37886305E-09
   56.4500008         3.41498785E-09
   56.6399994         2.33774289E-09
   56.8300018         1.26900590E-09
   57.0200005         3.37116918E-10
   57.2099991        -3.35251271E-10
   57.4000015        -6.43387676E-10
   57.5900002        -5.11804377E-10
   57.7799988         9.65469232E-11
   57.9700012         1.17400689E-09
   58.1599998         2.66555689E-09
   58.3499985         4.47015269E-09
   58.5400009         6.44608678E-09
   58.7299995         8.42011527E-09
   58.9199982         1.01997060E-08
   59.1100006         1.15875203E-08
   59.2999992         1.23970212E-08
   59.4900017         1.24679147E-08
   59.6800003         1.16802354E-08
   59.8699989         9.96585481E-09
   60.0600014         7.31642480E-09
   60.2500000         3.78709197E-09
   60.4399986        -5.04501829E-10
   60.6300011        -5.38393286E-09
   60.8199997        -1.06301608E-08
   61.0099983        -1.59895652E-08
   61.2000008        -2.11928857E-08
   61.3899994        -2.59738844E-08
   61.5800018        -3.00883762E-08
   61.7700005        -3.33320571E-08
   61.9599991        -3.55555869E-08
   62.1500015        -3.66755373E-08
   62.3400002        -3.66800492E-08
   62.5299988        -3.56284460E-08
   62.7200012        -3.36447172E-08
   62.9099998        -3.09053370E-08
   63.0999985        -2.76226046E-08
   63.2900009        -2.40252209E-08
   63.4799995        -2.03381720E-08
   63.6699982        -1.67641065E-08
   63.8600006        -1.34681848E-08
   64.0500031        -1.05678772E-08
   64.2399979        -8.12846679E-09
   64.4300003        -6.16426821E-09
   64.6200027        -4.64473837E-09
   64.8099976        -3.50412521E-09
   65.0000000        -2.65292543E-09
   65.1900024        -1.98947059E-09
   65.3799973        -1.41020173E-09
   65.5699997        -8.17735657E-10
   65.7600021        -1.26388414E-10
   65.9499969         7.34600936E-10
   66.1399994         1.81950943E-09
   66.3300018         3.16546767E-09
   66.5199966         4.79201390E-09
   66.7099991         6.70044908E-09
   66.9000015         8.87302054E-09
   67.0899963         1.12723031E-08
   67.2799988         1.38413903E-08
   67.4700012         1.65055685E-08
   67.6600037         1.91758911E-08
   67.8499985         2.17547882E-08
   68.0400009         2.41432581E-08
   68.2300034         2.62488857E-08
   68.4199982         2.79935470E-08
   68.6100006         2.93196152E-08
   68.8000031         3.01937391E-08
   68.9899979         3.06075840E-08
   69.1800003         3.05755457E-08
   69.3700027         3.01299679E-08
   69.5599976         2.93148261E-08
   69.7500000         2.81791248E-08
   69.9400024         2.67711684E-08
   70.1299973         2.51346215E-08
   70.3199997         2.33068160E-08
   70.5100021         2.13192415E-08
   70.6999969         1.91996392E-08
   70.8899994         1.69748571E-08
   71.0800018         1.46734225E-08
   71.2699966         1.23270132E-08
   71.4599991         9.97022820E-09
   71.6500015         7.63856089E-09
   71.8399963         5.36494582E-09
   72.0299988         3.17552384E-09
   72.2200012         1.08560483E-09
   72.4100037        -9.03225772E-10
   72.5999985        -2.80413226E-09
   72.7900009        -4.64365035E-09
   72.9800034        -6.45791420E-09
   73.1699982        -8.28682722E-09
   73.3600006        -1.01668887E-08
   73.5500031        -1.21236177E-08
   73.7399979        -1.41646312E-08
   73.9300003        -1.62743561E-08
   74.1200027        -1.84111766E-08
   74.3099976        -2.05075690E-08
   74.5000000        -2.24733707E-08
   74.6900024        -2.42020324E-08
   74.8799973        -2.55793307E-08
   75.0699997        -2.64937139E-08
   75.2600021        -2.68472515E-08
   75.4499969        -2.65660116E-08
   75.6399994        -2.56087898E-08
   75.8300018        -2.39731683E-08
   76.0199966        -2.16981793E-08
   76.2099991        -1.88632150E-08
   76.4000015        -1.55832378E-08
   76.5899963        -1.20007941E-08
   76.7799988        -8.27558289E-09
   76.9700012        -4.57274441E-09
   77.1600037        -1.05103504E-09
   77.3499985         2.14801155E-09
   77.5400009         4.90888175E-09
   77.7300034         7.14828507E-09
   77.9199982         8.81839313E-09
   78.1100006         9.90716575E-09
   78.3000031         1.04361062E-08
   78.4899979         1.04559899E-08
   78.6800003         1.00412043E-08
   78.8700027         9.28331101E-09
   79.0599976         8.28447710E-09
   79.2500000         7.15110993E-09
   79.4400024         5.98813532E-09
   79.6299973         4.89406782E-09
   79.8199997         3.95702093E-09
   80.0100021         3.25169536E-09
   80.1999969         2.83735635E-09
   80.3899994         2.75673950E-09
   80.5800018         3.03577075E-09
   80.7699966         3.68391562E-09
   80.9599991         4.69497063E-09
   81.1500015         6.04803807E-09
   81.3399963         7.70847919E-09
   81.5299988         9.62868718E-09
   81.7200012         1.17486518E-08
   81.9100037         1.39963845E-08
   82.0999985         1.62884337E-08
   82.2900009         1.85307680E-08
   82.4800034         2.06203872E-08
   82.6699982         2.24479493E-08
   82.8600006         2.39015119E-08
   83.0500031         2.48715395E-08
   83.2399979         2.52568437E-08
   83.4300003         2.49710972E-08
   83.6200027         2.39495002E-08
   83.8099976         2.21548415E-08
   84.0000000         1.95824885E-08
   84.1900024         1.62636553E-08
   84.3799973         1.22665691E-08
   84.5699997         7.69522401E-09
   84.7600021         2.68563549E-09
   84.9499969        -2.60034749E-09
   85.1399994        -7.98341038E-09
   85.3300018        -1.32768765E-08
   85.5199966        -1.82978876E-08
   85.7099991        -2.28788757E-08
   85.9000015        -2.68783751E-08
   86.0899963        -3.01901615E-08
   86.2799988        -3.27497567E-08
   86.4700012        -3.45374467E-08
   86.6600037        -3.55773935E-08
   86.8499985        -3.59326258E-08
   87.0400009        -3.56964236E-08
   87.2300034        -3.49808502E-08
   87.4199982        -3.39038486E-08
   87.6100006        -3.25763736E-08
   87.8000031        -3.10911368E-08
   87.9899979        -2.95144318E-08
   88.1800003        -2.78819243E-08
   88.3700027        -2.61988831E-08
   88.5599976        -2.44445886E-08
   88.7500000        -2.25801564E-08
   88.9400024        -2.05584900E-08
   89.1299973        -1.83348838E-08
   89.3199997        -1.58768216E-08
   89.5100021        -1.31716851E-08
   89.6999969        -1.02314788E-08
   89.8899994        -7.09424874E-09
   90.0800018        -3.82223053E-09
   90.2699966        -4.97210551E-10
   90.4599991         2.78607648E-09
   90.6500015         5.92772320E-09
   90.8399963         8.83064111E-09
   91.0299988         1.14080594E-08
   91.2200012         1.35899176E-08
   91.4100037         1.53277675E-08
   91.5999985         1.65979266E-08
   91.7900009         1.74028791E-08
   91.9800034         1.77708390E-08
   92.1699982         1.77536972E-08
   92.3600006         1.74234938E-08
   92.5500031         1.68676948E-08
   92.7399979         1.61836322E-08
   92.9300003         1.54724553E-08
   93.1200027         1.48330077E-08
   93.3099976         1.43559893E-08
   93.5000000         1.41187915E-08
   93.6900024         1.41811469E-08
   93.8799973         1.45818335E-08
   94.0699997         1.53364486E-08
   94.2600021         1.64362977E-08
   94.4499969         1.78483344E-08
   94.6399994         1.95162162E-08
   94.8300018         2.13624762E-08
   95.0199966         2.32917952E-08
   95.2099991         2.51954368E-08
   95.4000015         2.69566556E-08
   95.5899963         2.84569115E-08
   95.7799988         2.95824485E-08
   95.9700012         3.02307193E-08
   96.1600037         3.03161585E-08
   96.3499985         2.97746059E-08
   96.5400009         2.85661717E-08
   96.7300034         2.66762914E-08
   96.9199982         2.41151668E-08
   97.1100006         2.09160049E-08
   97.3000031         1.71326562E-08
   97.4899979         1.28372886E-08
   97.6800003         8.11857603E-09
   97.8700027         3.08056358E-09
   98.0599976        -2.15790097E-09
   98.2500000        -7.46377982E-09
   98.4400024        -1.26912685E-08
   98.6299973        -1.76848935E-08
   98.8199997        -2.22849437E-08
   99.0100021        -2.63355009E-08
   99.1999969        -2.96947302E-08
   99.3899994        -3.22464793E-08
   99.5800018        -3.39117356E-08
   99.7699966        -3.46581679E-08
   99.9599991        -3.45059732E-08
   100.150002        -3.35286892E-08
   100.339996        -3.18481277E-08
   100.529999        -2.96237115E-08
   100.720001        -2.70370872E-08
   100.910004        -2.42739358E-08
   101.099998        -2.15052562E-08
   101.290001        -1.88706810E-08
   101.480003        -1.64660179E-08
   101.669998        -1.43367487E-08
   101.860001        -1.24782940E-08
   102.050003        -1.08428839E-08
   102.239998        -9.35200806E-09
   102.430000        -7.91263144E-09
   102.620003        -6.43488862E-09
   102.809998        -4.84884666E-09
   103.000000        -3.11812398E-09
   103.190002        -1.24856880E-09
   103.379997         7.09068304E-10
   103.570000         2.66282396E-09
   103.760002         4.48910686E-09
   103.949997         6.04703443E-09
   104.139999         7.19580795E-09
   104.330002         7.81306664E-09
   104.519997         7.81205767E-09
   104.709999         7.15553750E-09
   104.900002         5.86470472E-09
   105.089996         4.02197742E-09
   105.279999         1.76713222E-09
   105.470001        -7.12933768E-10
   105.660004        -3.19982774E-09
   105.849998        -5.46301582E-09
   106.040001        -7.28086347E-09
   106.230003        -8.46104520E-09
   106.419998        -8.85817286E-09
   106.610001        -8.38679970E-09
   106.800003        -7.02856751E-09
   106.989998        -4.83294693E-09
   107.180000        -1.91184402E-09
   107.370003         1.57107682E-09
   107.559998         5.41492673E-09
   107.750000         9.39829814E-09
   107.940002         1.32964111E-08
   108.129997         1.68971326E-08
   108.320000         2.00146371E-08
   108.510002         2.24998598E-08
   108.699997         2.42473650E-08
   108.889999         2.51985597E-08
   109.080002         2.53415049E-08
   109.269997         2.47077345E-08
   109.459999         2.33666224E-08
   109.650002         2.14178577E-08
   109.839996         1.89826359E-08
   110.029999         1.61941500E-08
   110.220001         1.31881066E-08
   110.410004         1.00938751E-08
   110.599998         7.02693015E-09
   110.790001         4.08318401E-09
   110.980003         1.33557643E-09
   111.169998        -1.16688725E-09
   111.360001        -3.39778716E-09
   111.550003        -5.35005951E-09
   111.739998        -7.03154024E-09
   111.930000        -8.46012416E-09
   112.120003        -9.65933467E-09
   112.309998        -1.06549818E-08
