  -1.50000000         0.00000000    
  -1.30999994         0.00000000    
  -1.12000000         0.00000000    
 -0.930000007        -1.93080856E-26
 -0.740000010        -1.91465367E-25
 -0.550000012        -1.10550681E-24
 -0.360000014        -4.81566056E-24
 -0.170000002        -1.73881399E-23
   1.99999996E-02    -5.46032669E-23
  0.209999993        -1.54120929E-22
  0.400000006        -4.02619283E-22
  0.589999974        -1.00204530E-21
  0.779999971        -2.43851794E-21
  0.970000029        -5.89926916E-21
   1.15999997        -1.42233012E-20
   1.35000002        -3.38661443E-20
   1.53999996        -7.85606256E-20
   1.73000002        -1.75457739E-19
   1.91999996        -3.74378223E-19
   2.10999990        -7.60240970E-19
   2.29999995        -1.46768724E-18
   2.49000001        -2.69548673E-18
   2.68000007        -4.71676170E-18
   2.86999989        -7.87987472E-18
   3.05999994        -1.25943716E-17
   3.25000000        -1.92970500E-17
   3.44000006        -2.83949928E-17
   3.63000011        -4.01851720E-17
   3.81999993        -5.47535630E-17
   4.01000023        -7.18601775E-17
   4.19999981        -9.08198454E-17
   4.38999987        -1.10391799E-16
   4.57999992        -1.28693660E-16
   4.76999998        -1.43158137E-16
   4.96000004        -1.50551424E-16
   5.15000010        -1.47072011E-16
   5.34000015        -1.28544502E-16
   5.53000021        -9.07138538E-17
   5.71999979        -2.96319587E-17
   5.90999985         5.78911219E-17
   6.09999990         1.73818718E-16
   6.28999996         3.18466680E-16
   6.48000002         4.90200625E-16
   6.67000008         6.85312123E-16
   6.86000013         8.98107340E-16
   7.05000019         1.12119697E-15
   7.23999977         1.34593175E-15
   7.42999983         1.56288336E-15
   7.61999989         1.76226168E-15
   7.80999994         1.93416437E-15
   8.00000000         2.06860586E-15
   8.18999958         2.15533463E-15
   8.38000011         2.18350652E-15
   8.56999969         2.14133444E-15
   8.76000023         2.01583846E-15
   8.94999981         1.79280749E-15
   9.14000034         1.45703791E-15
   9.32999992         9.92891174E-16
   9.52000046         3.85195697E-16
   9.71000004        -3.79429573E-16
   9.89999962        -1.31070874E-15
   10.0900002        -2.41210144E-15
   10.2799997        -3.67731350E-15
   10.4700003        -5.08589922E-15
   10.6599998        -6.59828925E-15
   10.8500004        -8.15103701E-15
   11.0400000        -9.65362095E-15
   11.2299995        -1.09885923E-14
   11.4200001        -1.20170030E-14
   11.6099997        -1.25907068E-14
   11.8000002        -1.25722127E-14
   11.9899998        -1.18612336E-14
   12.1800003        -1.04252188E-14
   12.3699999        -8.32926206E-15
   12.5600004        -5.75936961E-15
   12.7500000        -3.03265154E-15
   12.9399996        -5.88836288E-16
   13.1300001         1.04017689E-15
   13.3199997         1.28255908E-15
   13.5100002        -4.03649978E-16
   13.6999998        -4.45118821E-15
   13.8900003        -1.11053643E-14
   14.0799999        -2.03583285E-14
   14.2700005        -3.19055458E-14
   14.4600000        -4.51303322E-14
   14.6499996        -5.91172754E-14
   14.8400002        -7.26897654E-14
   15.0299997        -8.44630287E-14
   15.2200003        -9.29024178E-14
   15.4099998        -9.63783564E-14
   15.6000004        -9.32141801E-14
   15.7900000        -8.17294772E-14
   15.9799995        -6.02881325E-14
   16.1700001        -2.73647495E-14
   16.3600006         1.83571250E-14
   16.5499992         7.78455398E-14
   16.7399998         1.51539602E-13
   16.9300003         2.39138760E-13
   17.1200008         3.39383578E-13
   17.3099995         4.49854509E-13
   17.5000000         5.66815366E-13
   17.6900005         6.85118195E-13
   17.8799992         7.98172780E-13
   18.0699997         8.97970825E-13
   18.2600002         9.75146396E-13
   18.4500008         1.01906092E-12
   18.6399994         1.01792283E-12
   18.8299999         9.58994386E-13
   19.0200005         8.28982011E-13
   19.2099991         6.14752552E-13
   19.3999996         3.04529893E-13
   19.5900002        -1.10297303E-13
   19.7800007        -6.32714475E-13
   19.9699993        -1.25707637E-12
   20.1599998        -1.96585977E-12
   20.3500004        -2.72669821E-12
   20.5400009        -3.49040393E-12
   20.7299995        -4.19078531E-12
   20.9200001        -4.74703306E-12
   21.1100006        -5.06923236E-12
   21.2999992        -5.06715156E-12
   21.4899998        -4.66191755E-12
   21.6800003        -3.79952276E-12
   21.8700008        -2.46449757E-12
   22.0599995        -6.91608988E-13
   22.2500000         1.42676637E-12
   22.4400005         3.73976891E-12
   22.6299992         6.04525718E-12
   22.8199997         8.10567238E-12
   23.0100002         9.67187094E-12
   23.2000008         1.05128189E-11
   23.3899994         1.04477460E-11
   23.5799999         9.37639723E-12
   23.7700005         7.30264720E-12
   23.9599991         4.34706438E-12
   24.1499996         7.45093494E-13
   24.3400002        -3.17067748E-12
   24.5300007        -7.00344080E-12
   24.7199993        -1.03371400E-11
   24.9099998        -1.27880709E-11
   25.1000004        -1.40560966E-11
   25.2900009        -1.39677219E-11
   25.4799995        -1.25037697E-11
   25.6700001        -9.80609084E-12
   25.8600006        -6.16054863E-12
   26.0499992        -1.95718593E-12
   26.2399998         2.36774966E-12
   26.4300003         6.39954799E-12
   26.6200008         9.81170440E-12
   26.8099995         1.24196009E-11
   27.0000000         1.42101955E-11
   27.1900005         1.53397208E-11
   27.3799992         1.60961348E-11
   27.5699997         1.68291648E-11
   27.7600002         1.78571758E-11
   27.9500008         1.93657330E-11
   28.1399994         2.13166724E-11
   28.3299999         2.33874430E-11
   28.5200005         2.49581952E-11
   28.7099991         2.51581655E-11
   28.8999996         2.29741382E-11
   29.0900002         1.74129530E-11
   29.2800007         7.69923448E-12
   29.4699993        -6.51995341E-12
   29.6599998        -2.49975041E-11
   29.8500004        -4.67706082E-11
   30.0400009        -7.01369240E-11
   30.2299995        -9.27418836E-11
   30.4200001        -1.11781188E-10
   30.6100006        -1.24304608E-10
   30.7999992        -1.27589606E-10
   30.9899998        -1.19538254E-10
   31.1800003        -9.90422813E-11
   31.3700008        -6.62596714E-11
   31.5599995        -2.27537173E-11
   31.7500000         2.85383453E-11
   31.9400005         8.35178593E-11
   32.1300011         1.37303238E-10
   32.3199997         1.84733895E-10
   32.5099983         2.20938337E-10
   32.7000008         2.41892117E-10
   32.8899994         2.44889803E-10
   33.0800018         2.28864275E-10
   33.2700005         1.94507382E-10
   33.4599991         1.44173742E-10
   33.6500015         8.15819912E-11
   33.8400002         1.13581046E-11
   34.0299988        -6.15098111E-11
   34.2200012        -1.32222275E-10
   34.4099998        -1.96641134E-10
   34.5999985        -2.51613563E-10
   34.7900009        -2.95102054E-10
   34.9799995        -3.26108696E-10
   35.1699982        -3.44417550E-10
   35.3600006        -3.50212109E-10
   35.5499992        -3.43649359E-10
   35.7400017        -3.24481358E-10
   35.9300003        -2.91811464E-10
   36.1199989        -2.44052056E-10
   36.3100014        -1.79118165E-10
   36.5000000        -9.48522302E-11
   36.6899986         1.03664976E-11
   36.8800011         1.36908110E-10
   37.0699997         2.83180535E-10
   37.2599983         4.45034481E-10
   37.4500008         6.15394014E-10
   37.6399994         7.84198873E-10
   37.8300018         9.38709110E-10
   38.0200005         1.06418108E-09
   38.2099991         1.14487941E-09
   38.4000015         1.16534660E-09
   38.5900002         1.11182141E-09
   38.7799988         9.73673808E-10
   38.9700012         7.44715734E-10
   39.1599998         4.24254826E-10
   39.3499985         1.77729758E-11
   39.5400009        -4.62857863E-10
   39.7299995        -9.99673788E-10
   39.9199982        -1.56944224E-09
   40.1100006        -2.14497331E-09
   40.2999992        -2.69684519E-09
   40.4900017        -3.19542592E-09
   40.6800003        -3.61304409E-09
   40.8699989        -3.92613986E-09
   41.0600014        -4.11722434E-09
   41.2500000        -4.17647206E-09
   41.4399986        -4.10280343E-09
   41.6300011        -3.90434796E-09
   41.8199997        -3.59822394E-09
   42.0099983        -3.20962679E-09
   42.2000008        -2.77028289E-09
   42.3899994        -2.31636488E-09
   42.5800018        -1.88602489E-09
   42.7700005        -1.51672519E-09
   42.9599991        -1.24255939E-09
   43.1500015        -1.09176301E-09
   43.3400002        -1.08459208E-09
   43.5299988        -1.23171962E-09
   43.7200012        -1.53326341E-09
   43.9099998        -1.97851358E-09
   44.0999985        -2.54638288E-09
   44.2900009        -3.20655547E-09
   44.4799995        -3.92127264E-09
   44.6699982        -4.64764360E-09
   44.8600006        -5.34034283E-09
   45.0499992        -5.95452709E-09
   45.2400017        -6.44877884E-09
   45.4300003        -6.78787826E-09
   45.6199989        -6.94520885E-09
   45.8100014        -6.90462709E-09
   46.0000000        -6.66163835E-09
   46.1899986        -6.22379925E-09
   46.3800011        -5.61030067E-09
   46.5699997        -4.85075136E-09
   46.7599983        -3.98326216E-09
   46.9500008        -3.05195536E-09
   47.1399994        -2.10409135E-09
   47.3300018        -1.18701549E-09
   47.5200005        -3.45134393E-10
   47.7099991         3.82874316E-10
   47.9000015         9.66446256E-10
   48.0900002         1.38496903E-09
   48.2799988         1.62897351E-09
   48.4700012         1.70062320E-09
   48.6599998         1.61348046E-09
   48.8499985         1.39157041E-09
   49.0400009         1.06779263E-09
   49.2299995         6.81769752E-10
   49.4199982         2.77247364E-10
   49.6100006        -1.00807737E-10
   49.7999992        -4.09237866E-10
   49.9900017        -6.09660766E-10
   50.1800003        -6.71176559E-10
   50.3699989        -5.72615011E-10
   50.5600014        -3.04161224E-10
   50.7500000         1.31770941E-10
   50.9399986         7.20487781E-10
   51.1300011         1.43579770E-09
   51.3199997         2.24156094E-09
   51.5099983         3.09389248E-09
   51.7000008         3.94384880E-09
   51.8899994         4.74041340E-09
   52.0800018         5.43357581E-09
   52.2700005         5.97732530E-09
   52.4599991         6.33240216E-09
   52.6500015         6.46866960E-09
   52.8400002         6.36703401E-09
   53.0299988         6.02082961E-09
   53.2200012         5.43663381E-09
   53.4099998         4.63447147E-09
   53.5999985         3.64738018E-09
   53.7900009         2.52030974E-09
   53.9799995         1.30834077E-09
   54.1699982         7.42363601E-11
   54.3600006        -1.11462328E-09
   54.5499992        -2.18983121E-09
   54.7400017        -3.08590486E-09
   54.9300003        -3.74438081E-09
   55.1199989        -4.11778700E-09
   55.3100014        -4.17318846E-09
   55.5000000        -3.89499633E-09
   55.6899986        -3.28676064E-09
   55.8800011        -2.37170905E-09
   56.0699997        -1.19189913E-09
   56.2599983         1.94052205E-10
   56.4500008         1.71457448E-09
   56.6399994         3.28986038E-09
   56.8300018         4.83736606E-09
   57.0200005         6.27766550E-09
   57.2099991         7.54017826E-09
   57.4000015         8.56826254E-09
   57.5900002         9.32321065E-09
   57.7799988         9.78674475E-09
   57.9700012         9.96177452E-09
   58.1599998         9.87128601E-09
   58.3499985         9.55547197E-09
   58.5400009         9.06734865E-09
   58.7299995         8.46732195E-09
   58.9199982         7.81723308E-09
   59.1100006         7.17453563E-09
   59.2999992         6.58720367E-09
   59.4900017         6.08993656E-09
   59.6800003         5.70202996E-09
   59.8699989         5.42712986E-09
   60.0600014         5.25482768E-09
   60.2500000         5.16385157E-09
   60.4399986         5.12640774E-09
   60.6300011         5.11309928E-09
   60.8199997         5.09778530E-09
   61.0099983         5.06177811E-09
   61.2000008         4.99685804E-09
   61.3899994         4.90676300E-09
   61.5800018         4.80700546E-09
   61.7700005         4.72307082E-09
   61.9599991         4.68724970E-09
   62.1500015         4.73451323E-09
   62.3400002         4.89792695E-09
   62.5299988         5.20414423E-09
   62.7200012         5.66949554E-09
   62.9099998         6.29709929E-09
   63.0999985         7.07530656E-09
   63.2900009         7.97765054E-09
   63.4799995         8.96430574E-09
   63.6699982         9.98491778E-09
   63.8600006         1.09825269E-08
   64.0500031         1.18982166E-08
   64.2399979         1.26760273E-08
   64.4300003         1.32676838E-08
   64.6200027         1.36366820E-08
   64.8099976         1.37613503E-08
   65.0000000         1.36366358E-08
   65.1900024         1.32744384E-08
   65.3799973         1.27025466E-08
   65.5699997         1.19622872E-08
   65.7600021         1.11051950E-08
   65.9499969         1.01890318E-08
   66.1399994         9.27358368E-09
   66.3300018         8.41657588E-09
   66.5199966         7.67005304E-09
   66.7099991         7.07741732E-09
   66.9000015         6.67124800E-09
   67.0899963         6.47189635E-09
   67.2799988         6.48678977E-09
   67.4700012         6.71031186E-09
   67.6600037         7.12415238E-09
   67.8499985         7.69803332E-09
   68.0400009         8.39077696E-09
   68.2300034         9.15174425E-09
   68.4199982         9.92269023E-09
   68.6100006         1.06401385E-08
   68.8000031         1.12382752E-08
   68.9899979         1.16523680E-08
   69.1800003         1.18225758E-08
   69.3700027         1.16979457E-08
   69.5599976         1.12402843E-08
   69.7500000         1.04275841E-08
   69.9400024         9.25662658E-09
   70.1299973         7.74447884E-09
   70.3199997         5.92866289E-09
   70.5100021         3.86590493E-09
   70.6999969         1.62949798E-09
   70.8899994        -6.94553859E-10
   71.0800018        -3.01234793E-09
   71.2699966        -5.22751575E-09
   71.4599991        -7.24691107E-09
   71.6500015        -8.98618335E-09
   71.8399963        -1.03748858E-08
   72.0299988        -1.13608323E-08
   72.2200012        -1.19134089E-08
   72.4100037        -1.20256827E-08
   72.5999985        -1.17151044E-08
   72.7900009        -1.10227552E-08
   72.9800034        -1.00110968E-08
   73.1699982        -8.76028849E-09
   73.3600006        -7.36324868E-09
   73.5500031        -5.91971050E-09
   73.7399979        -4.52966287E-09
   73.9300003        -3.28661764E-09
   74.1200027        -2.27121832E-09
   74.3099976        -1.54571245E-09
   74.5000000        -1.14975673E-09
   74.6900024        -1.09793086E-09
   74.8799973        -1.37919043E-09
   75.0699997        -1.95831751E-09
   75.2600021        -2.77923795E-09
   75.4499969        -3.76990128E-09
   75.6399994        -4.84828711E-09
   75.8300018        -5.92899330E-09
   76.0199966        -6.92984026E-09
   76.2099991        -7.77794629E-09
   76.4000015        -8.41479864E-09
   76.5899963        -8.79996875E-09
   76.7799988        -8.91325858E-09
   76.9700012        -8.75521078E-09
   77.1600037        -8.34606428E-09
   77.3499985        -7.72335707E-09
   77.5400009        -6.93845070E-09
   77.7300034        -6.05233241E-09
   77.9199982        -5.13106357E-09
   78.1100006        -4.24121804E-09
   78.3000031        -3.44563733E-09
   78.4899979        -2.79975643E-09
   78.6800003        -2.34868858E-09
   78.8700027        -2.12518025E-09
   79.0599976        -2.14847251E-09
   79.2500000        -2.42403386E-09
   79.4400024        -2.94408253E-09
   79.6299973        -3.68876640E-09
   79.8199997        -4.62785454E-09
   80.0100021        -5.72278225E-09
   80.1999969        -6.92890323E-09
   80.3899994        -8.19781487E-09
   80.5800018        -9.47965706E-09
   80.7699966        -1.07253131E-08
   80.9599991        -1.18884520E-08
   81.1500015        -1.29273960E-08
   81.3399963        -1.38067913E-08
   81.5299988        -1.44990606E-08
   81.7200012        -1.49856181E-08
   81.9100037        -1.52577861E-08
   82.0999985        -1.53173740E-08
   82.2900009        -1.51767932E-08
   82.4800034        -1.48586574E-08
   82.6699982        -1.43947476E-08
   82.8600006        -1.38242848E-08
   83.0500031        -1.31915145E-08
   83.2399979        -1.25426478E-08
   83.4300003        -1.19223165E-08
   83.6200027        -1.13697993E-08
   83.8099976        -1.09153273E-08
   84.0000000        -1.05768763E-08
   84.1900024        -1.03578452E-08
   84.3799973        -1.02459907E-08
   84.5699997        -1.02138920E-08
   84.7600021        -1.02210791E-08
   84.9499969        -1.02177662E-08
   85.1399994        -1.01499156E-08
   85.3300018        -9.96518956E-09
   85.5199966        -9.61916768E-09
   85.7099991        -9.08113673E-09
   85.9000015        -8.33875635E-09
   86.0899963        -7.40097894E-09
   86.2799988        -6.29880326E-09
   86.4700012        -5.08365261E-09
   86.6600037        -3.82345000E-09
   86.8499985        -2.59674260E-09
   87.0400009        -1.48543700E-09
   87.2300034        -5.66885261E-10
   87.4199982         9.38551389E-11
   87.6100006         4.50800230E-10
   87.8000031         4.82163753E-10
   87.9899979         1.93309868E-10
   88.1800003        -3.82755494E-10
   88.3700027        -1.18739996E-09
   88.5599976        -2.14070361E-09
   88.7500000        -3.14772608E-09
   88.9400024        -4.10614742E-09
   89.1299973        -4.91462337E-09
   89.3199997        -5.48114665E-09
   89.5100021        -5.73071546E-09
   89.6999969        -5.61165825E-09
   89.8899994        -5.10009679E-09
   90.0800018        -4.20214796E-09
   90.2699966        -2.95366154E-09
   90.4599991        -1.41748802E-09
   90.6500015         3.21517785E-10
   90.8399963         2.16336438E-09
   91.0299988         4.00107547E-09
   91.2200012         5.72943470E-09
   91.4100037         7.25354798E-09
   91.5999985         8.49647641E-09
   91.7900009         9.40525702E-09
   91.9800034         9.95480853E-09
   92.1699982         1.01493951E-08
   92.3600006         1.00216013E-08
   92.5500031         9.62896252E-09
   92.7399979         9.04864628E-09
   92.9300003         8.37073166E-09
   93.1200027         7.69072006E-09
   93.3099976         7.10196346E-09
   93.5000000         6.68863276E-09
   93.6900024         6.51975540E-09
   93.8799973         6.64471589E-09
   94.0699997         7.09045178E-09
   94.2600021         7.86042165E-09
   94.4499969         8.93526231E-09
   94.6399994         1.02749400E-08
   94.8300018         1.18221104E-08
   95.0199966         1.35063258E-08
   95.2099991         1.52487214E-08
   95.4000015         1.69667924E-08
   95.5899963         1.85789037E-08
   95.7799988         2.00082564E-08
   95.9700012         2.11860343E-08
   96.1600037         2.20536585E-08
   96.3499985         2.25640520E-08
   96.5400009         2.26820056E-08
   96.7300034         2.23838246E-08
   96.9199982         2.16564242E-08
   97.1100006         2.04962110E-08
   97.3000031         1.89079792E-08
   97.4899979         1.69040550E-08
   97.6800003         1.45038630E-08
   97.8700027         1.17339551E-08
   98.0599976         8.62844463E-09
   98.2500000         5.22969756E-09
   98.4400024         1.58902624E-09
   98.6299973        -2.23287633E-09
   98.8199997        -6.16603968E-09
   99.0100021        -1.01320676E-08
   99.1999969        -1.40458463E-08
   99.3899994        -1.78181345E-08
   99.5800018        -2.13588880E-08
   99.7699966        -2.45811087E-08
   99.9599991        -2.74049032E-08
   100.150002        -2.97614235E-08
   100.339996        -3.15963149E-08
   100.529999        -3.28724461E-08
   100.720001        -3.35716557E-08
   100.910004        -3.36954535E-08
   101.099998        -3.32646337E-08
   101.290001        -3.23178817E-08
   101.480003        -3.09094936E-08
   101.669998        -2.91064239E-08
   101.860001        -2.69848037E-08
   102.050003        -2.46261678E-08
   102.239998        -2.21135679E-08
   102.430000        -1.95277448E-08
   102.620003        -1.69435612E-08
   102.809998        -1.44268411E-08
   103.000000        -1.20318058E-08
   103.190002        -9.79923520E-09
   103.379997        -7.75547271E-09
   103.570000        -5.91233373E-09
   103.760002        -4.26791003E-09
   103.949997        -2.80816770E-09
   104.139999        -1.50916779E-09
   104.330002        -3.39667960E-10
   104.519997         7.36173955E-10
   104.709999         1.75625015E-09
   104.900002         2.75832446E-09
   105.089996         3.77835496E-09
   105.279999         4.84929519E-09
   105.470001         6.00029049E-09
   105.660004         7.25605043E-09
   105.849998         8.63615579E-09
   106.040001         1.01540865E-08
   106.230003         1.18158283E-08
   106.419998         1.36180738E-08
   106.610001         1.55461652E-08
   106.800003         1.75721357E-08
   106.989998         1.96532763E-08
   107.180000         2.17317098E-08
   107.370003         2.37354403E-08
   107.559998         2.55811372E-08
   107.750000         2.71787464E-08
   107.940002         2.84377339E-08
   108.129997         2.92745010E-08
   108.320000         2.96202636E-08
   108.510002         2.94285787E-08
   108.699997         2.86816135E-08
   108.889999         2.73943783E-08
   109.080002         2.56162842E-08
   109.269997         2.34296973E-08
   109.459999         2.09454445E-08
   109.650002         1.82955908E-08
   109.839996         1.56240798E-08
   110.029999         1.30760407E-08
   110.220001         1.07867528E-08
   110.410004         8.87127172E-09
   110.599998         7.41567963E-09
   110.790001         6.47079057E-09
   110.980003         6.04887029E-09
   111.169998         6.12372908E-09
   111.360001         6.63415811E-09
   111.550003         7.49037810E-09
   111.739998         8.58287930E-09
   111.930000         9.79272841E-09
   112.120003         1.10023102E-08
   112.309998         1.21053523E-08
