  -1.50000000         0.00000000    
  -1.35000002         0.00000000    
  -1.20000005         0.00000000    
  -1.04999995         3.49234054E-26
 -0.899999976         3.22811102E-25
 -0.750000000         1.73356227E-24
 -0.600000024         7.05553407E-24
 -0.449999988         2.40233594E-23
 -0.300000012         7.18076795E-23
 -0.150000006         1.93578489E-22
   0.00000000         4.78602795E-22
  0.150000006         1.09778782E-21
  0.300000012         2.35639442E-21
  0.449999988         4.76691989E-21
  0.600000024         9.14444290E-21
  0.750000000         1.67268925E-20
  0.899999976         2.93245544E-20
   1.04999995         4.95067920E-20
   1.20000005         8.08386552E-20
   1.35000002         1.28184057E-19
   1.50000000         1.98092451E-19
   1.64999998         2.99279813E-19
   1.79999995         4.43199598E-19
   1.95000005         6.44673654E-19
   2.09999990         9.22518451E-19
   2.25000000         1.30006198E-18
   2.40000010         1.80540461E-18
   2.54999995         2.47124116E-18
   2.70000005         3.33403666E-18
   2.84999990         4.43234764E-18
   3.00000000         5.80408317E-18
   3.15000010         7.48255423E-18
   3.29999995         9.49121345E-18
   3.45000005         1.18370604E-17
   3.59999990         1.45028022E-17
   3.75000000         1.74379285E-17
   3.90000010         2.05490160E-17
   4.05000019         2.36896041E-17
   4.19999981         2.66501761E-17
   4.34999990         2.91487794E-17
   4.50000000         3.08230227E-17
   4.65000010         3.12241987E-17
   4.80000019         2.98145307E-17
   4.94999981         2.59684900E-17
   5.09999990         1.89793763E-17
   5.25000000         8.07234393E-18
   5.40000010        -7.57505535E-18
   5.55000019        -2.88039576E-17
   5.69999981        -5.64362303E-17
   5.84999990        -9.12274800E-17
   6.00000000        -1.33812121E-16
   6.15000010        -1.84641800E-16
   6.30000019        -2.43919972E-16
   6.44999981        -3.11536230E-16
   6.59999990        -3.87005039E-16
   6.75000000        -4.69413483E-16
   6.90000010        -5.57383096E-16
   7.05000019        -6.49050060E-16
   7.19999981        -7.42067777E-16
   7.34999990        -8.33631192E-16
   7.50000000        -9.20522585E-16
   7.65000010        -9.99173088E-16
   7.80000019        -1.06573167E-15
   7.94999981        -1.11612811E-15
   8.10000038        -1.14612007E-15
   8.25000000        -1.15130412E-15
   8.39999962        -1.12708533E-15
   8.55000019        -1.06859400E-15
   8.69999981        -9.70556609E-16
   8.85000038        -8.27132226E-16
   9.00000000        -6.31745654E-16
   9.14999962        -3.76955628E-16
   9.30000019        -5.44124635E-17
   9.44999981         3.45041068E-16
   9.60000038         8.31075588E-16
   9.75000000         1.41335272E-15
   9.89999962         2.10076876E-15
   10.0500002         2.90050106E-15
   10.1999998         3.81692909E-15
   10.3500004         4.85055958E-15
   10.5000000         5.99711185E-15
   10.6499996         7.24693946E-15
   10.8000002         8.58495505E-15
   10.9499998         9.99117882E-15
   11.1000004         1.14419565E-14
   11.2500000         1.29117806E-14
   11.3999996         1.43755179E-14
   11.5500002         1.58107339E-14
   11.6999998         1.71996698E-14
   11.8500004         1.85304144E-14
   12.0000000         1.97967829E-14
   12.1499996         2.09965542E-14
   12.3000002         2.21278328E-14
   12.4499998         2.31836475E-14
   12.6000004         2.41450892E-14
   12.7500000         2.49736789E-14
   12.8999996         2.56038138E-14
   13.0500002         2.59363606E-14
   13.1999998         2.58344066E-14
   13.3500004         2.51220706E-14
   13.5000000         2.35869690E-14
   13.6499996         2.09864593E-14
   13.8000002         1.70574462E-14
   13.9499998         1.15289231E-14
   14.1000004         4.13635961E-15
   14.2500000        -5.36342533E-15
   14.3999996        -1.71777740E-14
   14.5500002        -3.14650344E-14
   14.6999998        -4.83229688E-14
   14.8500004        -6.77787159E-14
   15.0000000        -8.97797529E-14
   15.1499996        -1.14185218E-13
   15.3000002        -1.40757469E-13
   15.4499998        -1.69153713E-13
   15.6000004        -1.98918857E-13
   15.7500000        -2.29481581E-13
   15.8999996        -2.60155965E-13
   16.0499992        -2.90151583E-13
   16.2000008        -3.18593920E-13
   16.3500004        -3.44555981E-13
   16.5000000        -3.67098279E-13
   16.6499996        -3.85312469E-13
   16.7999992        -3.98358728E-13
   16.9500008        -4.05485785E-13
   17.1000004        -4.06019212E-13
   17.2500000        -3.99306483E-13
   17.3999996        -3.84609391E-13
   17.5499992        -3.60943941E-13
   17.7000008        -3.26877035E-13
   17.8500004        -2.80302908E-13
   18.0000000        -2.18236128E-13
   18.1499996        -1.36669823E-13
   18.2999992        -3.05546468E-14
   18.4500008         1.06043558E-13
   18.6000004         2.79558657E-13
   18.7500000         4.96280751E-13
   18.8999996         7.61453021E-13
   19.0499992         1.07814192E-12
   19.2000008         1.44595859E-12
   19.3500004         1.85974955E-12
   19.5000000         2.30841214E-12
   19.6499996         2.77401322E-12
   19.7999992         3.23139887E-12
   19.9500008         3.64846304E-12
   20.1000004         3.98720553E-12
   20.2500000         4.20564365E-12
   20.3999996         4.26055675E-12
   20.5499992         4.11094769E-12
   20.7000008         3.72200101E-12
   20.8500004         3.06923237E-12
   21.0000000         2.14244659E-12
   21.1499996         9.49087163E-13
   21.2999992        -4.83429594E-13
   21.4500008        -2.10676875E-12
   21.6000004        -3.85238542E-12
   21.7500000        -5.63401669E-12
   21.8999996        -7.35193590E-12
   22.0499992        -8.89876367E-12
   22.2000008        -1.01664519E-11
   22.3500004        -1.10539416E-11
   22.5000000        -1.14748462E-11
   22.6499996        -1.13645265E-11
   22.7999992        -1.06858940E-11
   22.9500008        -9.43340892E-12
   23.1000004        -7.63488057E-12
   23.2500000        -5.35087035E-12
   23.3999996        -2.67175149E-12
   23.5499992         2.87318048E-13
   23.7000008         3.39302111E-12
   23.8500004         6.50148555E-12
   24.0000000         9.46614488E-12
   24.1499996         1.21451495E-11
   24.2999992         1.44077068E-11
   24.4500008         1.61388888E-11
   24.6000004         1.72427055E-11
   24.7500000         1.76434804E-11
   24.8999996         1.72858203E-11
   25.0499992         1.61337593E-11
   25.2000008         1.41697314E-11
   25.3500004         1.13941313E-11
   25.5000000         7.82614164E-12
   25.6499996         3.50630571E-12
   25.7999992        -1.49897412E-12
   25.9500008        -7.09120263E-12
   26.1000004        -1.31324812E-11
   26.2500000        -1.94381716E-11
   26.3999996        -2.57709167E-11
   26.5499992        -3.18376644E-11
   26.7000008        -3.72913332E-11
   26.8500004        -4.17386230E-11
   27.0000000        -4.47550608E-11
   27.1499996        -4.59076978E-11
   27.2999992        -4.47852033E-11
   27.4500008        -4.10340581E-11
   27.6000004        -3.43986506E-11
   27.7500000        -2.47622131E-11
   27.8999996        -1.21848798E-11
   28.0499992         3.06544395E-12
   28.2000008         2.04935270E-11
   28.3500004         3.93725504E-11
   28.5000000         5.87581789E-11
   28.6499996         7.75228631E-11
   28.7999992         9.44105696E-11
   28.9500008         1.08110493E-10
   29.1000004         1.17346105E-10
   29.2500000         1.20974258E-10
   29.3999996         1.18087429E-10
   29.5499992         1.08110784E-10
   29.7000008         9.08855838E-11
   29.8500004         6.67302463E-11
   30.0000000         3.64714856E-11
   30.1499996         1.43966967E-12
   30.2999992        -3.65750555E-11
   30.4500008        -7.54065005E-11
   30.6000004        -1.12633097E-10
   30.7500000        -1.45729359E-10
   30.8999996        -1.72238904E-10
   31.0499992        -1.89957022E-10
   31.2000008        -1.97109162E-10
   31.3500004        -1.92510521E-10
   31.5000000        -1.75693182E-10
   31.6499996        -1.46987783E-10
   31.7999992        -1.07550614E-10
   31.9500008        -5.93301103E-11
   32.0999985        -4.97196208E-12
   32.2500000         5.23332037E-11
   32.4000015         1.09050713E-10
   32.5499992         1.61537492E-10
   32.7000008         2.06295397E-10
   32.8499985         2.40222647E-10
   33.0000000         2.60843180E-10
   33.1500015         2.66494549E-10
   33.2999992         2.56457883E-10
   33.4500008         2.31017941E-10
   33.5999985         1.91446581E-10
   33.7500000         1.39909737E-10
   33.9000015         7.93046045E-11
   34.0499992         1.30402911E-11
   34.2000008        -5.52197177E-11
   34.3499985        -1.21830643E-10
   34.5000000        -1.83430909E-10
   34.6500015        -2.37173919E-10
   34.7999992        -2.80905937E-10
   34.9500008        -3.13273379E-10
   35.0999985        -3.33750388E-10
   35.2500000        -3.42583684E-10
   35.4000015        -3.40661943E-10
   35.5499992        -3.29323735E-10
   35.7000008        -3.10125065E-10
   35.8499985        -2.84592627E-10
   36.0000000        -2.53991744E-10
   36.1500015        -2.19136223E-10
   36.2999992        -1.80265608E-10
   36.4500008        -1.37007669E-10
   36.5999985        -8.84364248E-11
   36.7500000        -3.32255647E-11
   36.9000015         3.01130405E-11
   37.0499992         1.02926535E-10
   37.2000008         1.86082968E-10
   37.3499985         2.79632983E-10
   37.5000000         3.82509524E-10
   37.6500015         4.92302421E-10
   37.7999992         6.05140660E-10
   37.9500008         7.15706605E-10
   38.0999985         8.17395540E-10
   38.2500000         9.02621144E-10
   38.4000015         9.63253255E-10
   38.5499992         9.91160931E-10
   38.7000008         9.78823245E-10
   38.8499985         9.19960275E-10
   39.0000000         8.10131517E-10
   39.1500015         6.47251697E-10
   39.2999992         4.31972624E-10
   39.4500008         1.67894004E-10
   39.5999985        -1.38425674E-10
   39.7500000        -4.77670570E-10
   39.9000015        -8.38176528E-10
   40.0499992        -1.20652655E-09
   40.2000008        -1.56829727E-09
   40.3499985        -1.90890459E-09
   40.5000000        -2.21449281E-09
   40.6500015        -2.47279863E-09
   40.7999992        -2.67393330E-09
   40.9500008        -2.81101631E-09
   41.0999985        -2.88062152E-09
   41.2500000        -2.88299229E-09
   41.4000015        -2.82201618E-09
   41.5499992        -2.70495271E-09
   41.7000008        -2.54193910E-09
   41.8499985        -2.34530706E-09
   42.0000000        -2.12876117E-09
   42.1500015        -1.90648342E-09
   42.2999992        -1.69222514E-09
   42.4500008        -1.49846002E-09
   42.5999985        -1.33565514E-09
   42.7500000        -1.21171584E-09
   42.9000015        -1.13164078E-09
   43.0499992        -1.09740672E-09
   43.2000008        -1.10808684E-09
   43.3499985        -1.16018140E-09
   43.5000000        -1.24812594E-09
   43.6500015        -1.36492617E-09
   43.7999992        -1.50285873E-09
   43.9500008        -1.65417191E-09
   44.0999985        -1.81172155E-09
   44.2500000        -1.96948635E-09
   44.4000015        -2.12291540E-09
   44.5499992        -2.26908492E-09
   44.7000008        -2.40664999E-09
   44.8499985        -2.53561061E-09
   45.0000000        -2.65691602E-09
   45.1500015        -2.77196111E-09
   45.2999992        -2.88203239E-09
   45.4500008        -2.98776559E-09
   45.5999985        -3.08868198E-09
   45.7500000        -3.18285687E-09
   45.9000015        -3.26676397E-09
   46.0499992        -3.33532180E-09
   46.2000008        -3.38214057E-09
   46.3499985        -3.39996076E-09
   46.5000000        -3.38123574E-09
   46.6500015        -3.31881589E-09
   46.7999992        -3.20665938E-09
   46.9500008        -3.04050962E-09
   47.0999985        -2.81846635E-09
   47.2500000        -2.54139509E-09
   47.4000015        -2.21313212E-09
   47.5499992        -1.84045745E-09
   47.7000008        -1.43283474E-09
   47.8499985        -1.00193476E-09
   48.0000000        -5.60979097E-10
   48.1500015        -1.23955499E-10
   48.2999992         2.95229702E-10
   48.4500008         6.83595958E-10
   48.5999985         1.02986275E-09
   48.7500000         1.32509581E-09
   48.9000015         1.56317614E-09
   49.0499992         1.74106463E-09
   49.2000008         1.85884508E-09
   49.3499985         1.91955474E-09
   49.5000000         1.92882221E-09
   49.6500015         1.89434823E-09
   49.7999992         1.82527815E-09
   49.9500008         1.73151815E-09
   50.0999985         1.62304814E-09
   50.2500000         1.50928259E-09
   50.4000015         1.39852518E-09
   50.5499992         1.29754985E-09
   50.7000008         1.21133092E-09
   50.8499985         1.14292908E-09
   51.0000000         1.09353515E-09
   51.1500015         1.06264786E-09
   51.2999992         1.04836584E-09
   51.4500008         1.04775955E-09
   51.5999985         1.05728304E-09
   51.7500000         1.07319198E-09
   51.9000015         1.09192855E-09
   52.0499992         1.11044363E-09
   52.2000008         1.12643317E-09
   52.3499985         1.13847365E-09
   52.5000000         1.14605314E-09
   52.6500015         1.14950316E-09
   52.7999992         1.14984589E-09
   52.9500008         1.14857979E-09
   53.0999985         1.14742804E-09
   53.2500000         1.14808274E-09
   53.4000015         1.15196919E-09
   53.5499992         1.16005860E-09
   53.7000008         1.17274523E-09
   53.8499985         1.18980115E-09
   54.0000000         1.21040944E-09
   54.1500015         1.23327004E-09
   54.2999992         1.25676447E-09
   54.4500008         1.27915845E-09
   54.5999985         1.29881850E-09
   54.7500000         1.31441891E-09
   54.9000015         1.32511424E-09
   55.0499992         1.33066114E-09
   55.2000008         1.33147460E-09
   55.3499985         1.32861566E-09
   55.5000000         1.32371403E-09
   55.6500015         1.31883349E-09
   55.7999992         1.31629918E-09
   55.9500008         1.31850519E-09
   56.0999985         1.32772360E-09
   56.2500000         1.34593603E-09
   56.4000015         1.37470513E-09
   56.5499992         1.41509660E-09
   56.7000008         1.46765855E-09
   56.8499985         1.53245638E-09
   57.0000000         1.60915581E-09
   57.1500015         1.69714143E-09
   57.2999992         1.79565451E-09
   57.4500008         1.90392901E-09
   57.5999985         2.02131289E-09
   57.7500000         2.14735185E-09
   57.9000015         2.28183072E-09
   58.0499992         2.42476084E-09
   58.2000008         2.57631361E-09
   58.3499985         2.73670953E-09
   58.5000000         2.90606827E-09
   58.6500015         3.08424331E-09
   58.7999992         3.27065286E-09
   58.9500008         3.46413387E-09
   59.0999985         3.66283759E-09
   59.2500000         3.86418408E-09
   59.4000015         4.06488931E-09
   59.5499992         4.26107327E-09
   59.7000008         4.44844517E-09
   59.8499985         4.62256144E-09
   60.0000000         4.77913620E-09
   60.1500015         4.91438312E-09
   60.2999992         5.02535658E-09
   60.4500008         5.11026110E-09
   60.5999985         5.16869658E-09
   60.7500000         5.20180965E-09
   60.9000015         5.21232479E-09
   61.0499992         5.20444132E-09
   61.2000008         5.18359355E-09
   61.3499985         5.15608756E-09
   61.5000000         5.12862730E-09
   61.6500015         5.10776932E-09
   61.7999992         5.09935782E-09
   61.9500008         5.10797404E-09
   62.0999985         5.13646148E-09
   62.2500000         5.18557597E-09
   62.4000015         5.25379207E-09
   62.5499992         5.33730393E-09
   62.7000008         5.43022294E-09
   62.8499985         5.52497115E-09
   63.0000000         5.61284974E-09
   63.1500015         5.68473535E-09
   63.2999992         5.73185988E-09
   63.4500008         5.74660186E-09
   63.5999985         5.72323700E-09
   63.7500000         5.65856650E-09
   63.9000015         5.55238389E-09
   64.0500031         5.40772715E-09
   64.1999969         5.23088728E-09
   64.3499985         5.03116748E-09
   64.5000000         4.82040319E-09
   64.6500015         4.61226524E-09
   64.8000031         4.42139880E-09
   64.9499969         4.26244906E-09
   65.0999985         4.14904378E-09
   65.2500000         4.09280210E-09
   65.4000015         4.10244061E-09
   65.5500031         4.18303658E-09
   65.6999969         4.33551106E-09
   65.8499985         4.55636684E-09
   66.0000000         4.83770624E-09
   66.1500015         5.16754239E-09
   66.3000031         5.53038859E-09
   66.4499969         5.90809268E-09
   66.5999985         6.28087893E-09
   66.7500000         6.62852084E-09
   66.9000015         6.93158775E-09
   67.0500031         7.17266735E-09
   67.1999969         7.33749328E-09
   67.3499985         7.41588213E-09
   67.5000000         7.40242578E-09
   67.6500015         7.29686800E-09
   67.8000031         7.10413550E-09
   67.9499969         6.83400936E-09
   68.0999985         6.50045306E-09
   68.2500000         6.12063245E-09
   68.4000015         5.71370373E-09
   68.5500031         5.29944444E-09
   68.6999969         4.89684115E-09
   68.8499985         4.52273463E-09
   69.0000000         4.19062918E-09
   69.1500015         3.90976806E-09
   69.3000031         3.68454356E-09
   69.4499969         3.51429130E-09
   69.5999985         3.39348882E-09
   69.7500000         3.31233707E-09
   69.9000015         3.25767990E-09
   70.0500031         3.21417581E-09
   70.1999969         3.16563287E-09
   70.3499985         3.09638160E-09
   70.5000000         2.99258129E-09
   70.6500015         2.84334645E-09
   70.8000031         2.64160360E-09
   70.9499969         2.38461628E-09
   71.0999985         2.07413975E-09
   71.2500000         1.71620484E-09
   71.4000015         1.32056066E-09
   71.5500031         8.99831820E-10
   71.6999969         4.68469874E-10
   71.8499985         4.15906927E-11
   72.0000000        -3.66205566E-10
   72.1500015        -7.41936679E-10
   72.3000031        -1.07518483E-09
   72.4499969        -1.35882183E-09
   72.5999985        -1.58947022E-09
   72.7500000        -1.76768611E-09
   72.9000015        -1.89786320E-09
   73.0500031        -1.98788785E-09
   73.1999969        -2.04858019E-09
   73.3499985        -2.09297868E-09
   73.5000000        -2.13551798E-09
   73.6500015        -2.19116436E-09
   73.8000031        -2.27455654E-09
   73.9499969        -2.39920017E-09
   74.0999985        -2.57675503E-09
   74.2500000        -2.81644219E-09
   74.4000015        -3.12458726E-09
   74.5500031        -3.50431439E-09
   74.6999969        -3.95539335E-09
   74.8499985        -4.47423343E-09
   75.0000000        -5.05402431E-09
   75.1500015        -5.68500447E-09
   75.3000031        -6.35485131E-09
   75.4499969        -7.04916925E-09
   75.5999985        -7.75205677E-09
   75.7500000        -8.44672687E-09
   75.9000015        -9.11615761E-09
   76.0500031        -9.74373560E-09
   76.1999969        -1.03138671E-08
   76.3499985        -1.08125304E-08
   76.5000000        -1.12277307E-08
   76.6500015        -1.15498571E-08
   76.8000031        -1.17719008E-08
   76.9499969        -1.18895569E-08
   77.0999985        -1.19011974E-08
   77.2500000        -1.18077326E-08
   77.4000015        -1.16123884E-08
   77.5500031        -1.13204219E-08
   77.6999969        -1.09388099E-08
   77.8499985        -1.04759321E-08
   78.0000000        -9.94129223E-09
   78.1500015        -9.34527300E-09
   78.3000031        -8.69895089E-09
   78.4499969        -8.01396460E-09
   78.5999985        -7.30242666E-09
   78.7500000        -6.57685284E-09
   78.9000015        -5.85009152E-09
   79.0500031        -5.13521758E-09
   79.1999969        -4.44537562E-09
   79.3499985        -3.79353393E-09
   79.5000000        -3.19215832E-09
   79.6500015        -2.65279265E-09
   79.8000031        -2.18556551E-09
   79.9499969        -1.79864890E-09
   80.0999985        -1.49770640E-09
   80.2500000        -1.28537514E-09
   80.4000015        -1.16083343E-09
   80.5500031        -1.11950005E-09
   80.6999969        -1.15290755E-09
   80.8499985        -1.24878541E-09
   81.0000000        -1.39136813E-09
   81.1500015        -1.56193403E-09
   81.3000031        -1.73956083E-09
   81.4499969        -1.90206495E-09
   81.5999985        -2.02708295E-09
   81.7500000        -2.09323869E-09
   81.9000015        -2.08132755E-09
   82.0500031        -1.97545602E-09
   82.1999969        -1.76406489E-09
   82.3499985        -1.44077961E-09
   82.5000000        -1.00503195E-09
   82.6500015        -4.62416438E-10
   82.8000031         1.75245984E-10
   82.9499969         8.90144292E-10
   83.0999985         1.65900904E-09
   83.2500000         2.45391640E-09
   83.4000015         3.24333271E-09
   83.5500031         3.99334965E-09
   83.6999969         4.66905492E-09
   83.8499985         5.23598009E-09
   84.0000000         5.66155789E-09
   84.1500015         5.91652327E-09
   84.3000031         5.97620176E-09
   84.4499969         5.82162674E-09
   84.5999985         5.44043388E-09
   84.7500000         4.82750506E-09
   84.9000015         3.98532274E-09
   85.0500031         2.92403324E-09
   85.1999969         1.66120540E-09
   85.3499985         2.21299923E-10
   85.5000000        -1.36512679E-09
   85.6500015        -3.06245984E-09
   85.8000031        -4.83125717E-09
   85.9499969        -6.62963595E-09
   86.0999985        -8.41475245E-09
   86.2500000        -1.01443316E-08
   86.4000015        -1.17781775E-08
   86.5500031        -1.32796139E-08
   86.6999969        -1.46167940E-08
   86.8499985        -1.57638347E-08
   87.0000000        -1.67017138E-08
   87.1500015        -1.74189037E-08
   87.3000031        -1.79116899E-08
   87.4499969        -1.81841671E-08
   87.5999985        -1.82478992E-08
   87.7500000        -1.81212254E-08
   87.9000015        -1.78282704E-08
   88.0500031        -1.73976407E-08
   88.1999969        -1.68609180E-08
   88.3499985        -1.62509473E-08
   88.5000000        -1.56000723E-08
   88.6500015        -1.49383457E-08
   88.8000031        -1.42918379E-08
   88.9499969        -1.36811567E-08
   89.0999985        -1.31202382E-08
   89.2500000        -1.26155157E-08
   89.4000015        -1.21655068E-08
   89.5500031        -1.17608927E-08
   89.6999969        -1.13850636E-08
   89.8499985        -1.10151523E-08
   90.0000000        -1.06234808E-08
   90.1500015        -1.01793365E-08
   90.3000031        -9.65101332E-09
   90.4499969        -9.00794550E-09
   90.5999985        -8.22282775E-09
   90.7500000        -7.27356131E-09
   90.9000015        -6.14491480E-09
   91.0500031        -4.82975482E-09
   91.1999969        -3.32977890E-09
   91.3499985        -1.65567859E-09
   91.5000000         1.73274492E-10
   91.6500015         2.13020623E-09
   91.8000031         4.18210622E-09
   91.9499969         6.29168495E-09
   92.0999985         8.41948111E-09
   92.2500000         1.05260840E-08
   92.4000015         1.25742785E-08
   92.5500031         1.45309853E-08
   92.6999969         1.63688352E-08
   92.8499985         1.80672668E-08
   93.0000000         1.96130827E-08
   93.1500015         2.10004245E-08
   93.3000031         2.22301910E-08
   93.4499969         2.33089370E-08
   93.5999985         2.42474059E-08
   93.7500000         2.50587693E-08
   93.9000015         2.57567763E-08
   94.0500031         2.63539377E-08
   94.1999969         2.68599454E-08
   94.3499985         2.72803877E-08
   94.5000000         2.76159451E-08
   94.6500015         2.78620718E-08
   94.8000031         2.80092021E-08
   94.9499969         2.80434609E-08
   95.0999985         2.79477970E-08
   95.2500000         2.77034466E-08
   95.4000015         2.72915823E-08
   95.5500031         2.66950426E-08
   95.6999969         2.58999489E-08
   95.8499985         2.48970959E-08
   96.0000000         2.36830306E-08
   96.1500015         2.22606875E-08
   96.3000031         2.06395718E-08
   96.4499969         1.88354594E-08
   96.5999985         1.68696559E-08
   96.7500000         1.47678714E-08
   96.9000015         1.25588011E-08
   97.0500031         1.02725375E-08
   97.1999969         7.93891708E-09
   97.3499985         5.58595614E-09
   97.5000000         3.23847948E-09
   97.6500015         9.17030341E-10
   97.8000031        -1.36282041E-09
   97.9499969        -3.59074770E-09
   98.0999985        -5.76150105E-09
   98.2500000        -7.87430121E-09
   98.4000015        -9.93185978E-09
   98.5500031        -1.19391013E-08
   98.6999969        -1.39016914E-08
   98.8499985        -1.58245026E-08
   99.0000000        -1.77101231E-08
   99.1500015        -1.95575822E-08
   99.3000031        -2.13613447E-08
   99.4499969        -2.31107400E-08
   99.5999985        -2.47898306E-08
   99.7500000        -2.63777871E-08
   99.9000015        -2.78497261E-08
   100.050003        -2.91779916E-08
   100.199997        -3.03337551E-08
   100.349998        -3.12888346E-08
   100.500000        -3.20175957E-08
   100.650002        -3.24987397E-08
   100.800003        -3.27168941E-08
   100.949997        -3.26638165E-08
   101.099998        -3.23391518E-08
   101.250000        -3.17506341E-08
   101.400002        -3.09137498E-08
   101.550003        -2.98508844E-08
   101.699997        -2.85899961E-08
   101.849998        -2.71629510E-08
   102.000000        -2.56036525E-08
   102.150002        -2.39461002E-08
   102.300003        -2.22225545E-08
   102.449997        -2.04619379E-08
   102.599998        -1.86885867E-08
   102.750000        -1.69214527E-08
   102.900002        -1.51737680E-08
   103.050003        -1.34531994E-08
   103.199997        -1.17624435E-08
   103.349998        -1.01001811E-08
   103.500000        -8.46227799E-09
   103.650002        -6.84313051E-09
   103.800003        -5.23699439E-09
   103.949997        -3.63921449E-09
   104.099998        -2.04721151E-09
   104.250000        -4.61156391E-10
   104.400002         1.11571230E-09
   104.550003         2.67716671E-09
   104.699997         4.21442792E-09
   104.849998         5.71694558E-09
   105.000000         7.17342497E-09
   105.150002         8.57302407E-09
   105.300003         9.90659821E-09
   105.449997         1.11679030E-08
   105.599998         1.23546098E-08
   105.750000         1.34690721E-08
   105.900002         1.45187249E-08
   106.050003         1.55160738E-08
   106.199997         1.64782286E-08
   106.349998         1.74259895E-08
   106.500000         1.83825168E-08
   106.650002         1.93716367E-08
   106.800003         2.04158948E-08
   106.949997         2.15344844E-08
   107.099998         2.27411761E-08
   107.250000         2.40424072E-08
   107.400002         2.54357051E-08
   107.550003         2.69085465E-08
   107.699997         2.84378192E-08
   107.849998         2.99899199E-08
   108.000000         3.15215658E-08
   108.150002         3.29812941E-08
   108.300003         3.43115971E-08
   108.449997         3.54515883E-08
   108.599998         3.63400403E-08
   108.750000         3.69186104E-08
   108.900002         3.71351021E-08
   109.050003         3.69464708E-08
   109.199997         3.63214632E-08
   109.349998         3.52426746E-08
   109.500000         3.37079022E-08
   109.650002         3.17307425E-08
   109.800003         2.93403524E-08
   109.949997         2.65804285E-08
   110.099998         2.35075017E-08
   110.250000         2.01885939E-08
   110.400002         1.66984560E-08
   110.550003         1.31165114E-08
   110.699997         9.52369561E-09
   110.849998         5.99936545E-09
   111.000000         2.61842925E-09
   111.150002        -5.51176216E-10
   111.300003        -3.45055629E-09
   111.449997        -6.03140782E-09
   111.599998        -8.25703150E-09
   111.750000        -1.01027924E-08
   111.900002        -1.15560752E-08
   112.050003        -1.26157840E-08
   112.199997        -1.32914648E-08
   112.349998        -1.36021363E-08
   112.500000        -1.35749278E-08
   112.650002        -1.32436018E-08
   112.800003        -1.26470736E-08
   112.949997        -1.18279608E-08
   113.099998        -1.08312586E-08
   113.250000        -9.70313963E-09
   113.400002        -8.48993764E-09
   113.550003        -7.23725968E-09
   113.699997        -5.98924776E-09
   113.849998        -4.78793361E-09
   114.000000        -3.67265129E-09
   114.150002        -2.67945799E-09
   114.300003        -1.84053839E-09
   114.449997        -1.18356236E-09
   114.599998        -7.30997707E-10
   114.750000        -4.99400299E-10
   114.900002        -4.98724340E-10
   115.050003        -7.31719019E-10
   115.199997        -1.19348820E-09
   115.349998        -1.87129978E-09
   115.500000        -2.74471534E-09
   115.650002        -3.78610254E-09
   115.800003        -4.96155783E-09
   115.949997        -6.23222585E-09
   116.099998        -7.55597718E-09
   116.250000        -8.88933727E-09
   116.400002        -1.01895550E-08
   116.550003        -1.14166623E-08
   116.699997        -1.25353559E-08
   116.849998        -1.35165665E-08
   117.000000        -1.43385810E-08
   117.150002        -1.49876414E-08
   117.300003        -1.54579798E-08
   117.449997        -1.57513202E-08
   117.599998        -1.58759104E-08
   117.750000        -1.58452167E-08
   117.900002        -1.56764148E-08
   118.050003        -1.53888688E-08
   118.199997        -1.50027137E-08
   118.349998        -1.45377053E-08
