  -1.50000000         0.00000000    
  -1.35000002         0.00000000    
  -1.20000005         0.00000000    
  -1.04999995         0.00000000    
 -0.899999976         0.00000000    
 -0.750000000         0.00000000    
 -0.600000024         0.00000000    
 -0.449999988         0.00000000    
 -0.300000012         0.00000000    
 -0.150000006         0.00000000    
   0.00000000         0.00000000    
  0.150000006         0.00000000    
  0.300000012         0.00000000    
  0.449999988         0.00000000    
  0.600000024         0.00000000    
  0.750000000         0.00000000    
  0.899999976         0.00000000    
   1.04999995         0.00000000    
   1.20000005         0.00000000    
   1.35000002         0.00000000    
   1.50000000         0.00000000    
   1.64999998         0.00000000    
   1.79999995         0.00000000    
   1.95000005         0.00000000    
   2.09999990         0.00000000    
   2.25000000         0.00000000    
   2.40000010         0.00000000    
   2.54999995         0.00000000    
   2.70000005         0.00000000    
   2.84999990         0.00000000    
   3.00000000         0.00000000    
   3.15000010         0.00000000    
   3.29999995         0.00000000    
   3.45000005         0.00000000    
   3.59999990         0.00000000    
   3.75000000         0.00000000    
   3.90000010         0.00000000    
   4.05000019         0.00000000    
   4.19999981         0.00000000    
   4.34999990         0.00000000    
   4.50000000         0.00000000    
   4.65000010         0.00000000    
   4.80000019         0.00000000    
   4.94999981         0.00000000    
   5.09999990         0.00000000    
   5.25000000         0.00000000    
   5.40000010         0.00000000    
   5.55000019         0.00000000    
   5.69999981         0.00000000    
   5.84999990         0.00000000    
   6.00000000         0.00000000    
   6.15000010         0.00000000    
   6.30000019         0.00000000    
   6.44999981         0.00000000    
   6.59999990         0.00000000    
   6.75000000         0.00000000    
   6.90000010         0.00000000    
   7.05000019         0.00000000    
   7.19999981         0.00000000    
   7.34999990         0.00000000    
   7.50000000         0.00000000    
   7.65000010         0.00000000    
   7.80000019         0.00000000    
   7.94999981         0.00000000    
   8.10000038         0.00000000    
   8.25000000         0.00000000    
   8.39999962         0.00000000    
   8.55000019         0.00000000    
   8.69999981         0.00000000    
   8.85000038         0.00000000    
   9.00000000         0.00000000    
   9.14999962         0.00000000    
   9.30000019         0.00000000    
   9.44999981         0.00000000    
   9.60000038         0.00000000    
   9.75000000         0.00000000    
   9.89999962         0.00000000    
   10.0500002         0.00000000    
   10.1999998         0.00000000    
   10.3500004         0.00000000    
   10.5000000         0.00000000    
   10.6499996         0.00000000    
   10.8000002         0.00000000    
   10.9499998         0.00000000    
   11.1000004         0.00000000    
   11.2500000         0.00000000    
   11.3999996         2.57539681E-36
   11.5500002         9.96968514E-36
   11.6999998         4.08249389E-35
   11.8500004         8.58173669E-35
   12.0000000         1.43099184E-34
   12.1499996         1.86032829E-34
   12.3000002         5.75271323E-35
   12.4499998        -2.95494392E-34
   12.6000004        -9.68302635E-34
   12.7500000        -1.78910369E-33
   12.8999996        -2.81946912E-33
   13.0500002        -3.31194431E-33
   13.1999998        -3.08509447E-33
   13.3500004        -1.73396125E-33
   13.5000000         1.48097659E-33
   13.6499996         6.22479654E-33
   13.8000002         1.17088098E-32
   13.9499998         1.77143722E-32
   14.1000004         2.31482873E-32
   14.2500000         2.55934654E-32
   14.3999996         2.24093672E-32
   14.5500002         1.10515571E-32
   14.6999998        -1.11295254E-32
   14.8500004        -3.48026261E-32
   15.0000000        -5.41645051E-32
   15.1499996        -5.84974713E-32
   15.3000002        -3.85925551E-32
   15.4499998         1.55489705E-32
   15.6000004         9.66038361E-32
   15.7500000         1.92924931E-31
   15.8999996         3.01764681E-31
   16.0499992         3.99836692E-31
   16.2000008         4.53654914E-31
   16.3500004         4.05129473E-31
   16.5000000         2.05754746E-31
   16.6499996        -2.04712365E-31
   16.7999992        -8.52963998E-31
   16.9500008        -1.71236688E-30
   17.1000004        -2.71256286E-30
   17.2500000        -3.73739081E-30
   17.3999996        -4.58199084E-30
   17.5499992        -4.99662437E-30
   17.7000008        -4.68833377E-30
   17.8500004        -3.38202326E-30
   18.0000000        -9.77836480E-31
   18.1499996         2.50263688E-30
   18.2999992         6.79360353E-30
   18.4500008         1.13637397E-29
   18.6000004         1.53977753E-29
   18.7500000         1.78378804E-29
   18.8999996         1.75527134E-29
   19.0499992         1.35234151E-29
   19.2000008         5.11157418E-30
   19.3500004        -7.65279924E-30
   19.5000000        -2.38590160E-29
   19.6499996        -4.15484538E-29
   19.7999992        -5.78235007E-29
   19.9500008        -6.89684240E-29
   20.1000004        -7.08828345E-29
   20.2500000        -5.98933338E-29
   20.3999996        -3.35929006E-29
   20.5499992         8.28394755E-30
   20.7000008         6.32194208E-29
   20.8500004         1.25311884E-28
   21.0000000         1.85359779E-28
   21.1499996         2.31674061E-28
   21.2999992         2.51357378E-28
   21.4500008         2.32427509E-28
   21.6000004         1.66258310E-28
   21.7500000         5.01836466E-29
   21.8999996        -1.10259128E-28
   22.0499992        -2.99993585E-28
   22.2000008        -4.94349335E-28
   22.3500004        -6.60764271E-28
   22.5000000        -7.62490061E-28
   22.6499996        -7.63875720E-28
   22.7999992        -6.36902625E-28
   22.9500008        -3.68166883E-28
   23.1000004         3.50023473E-29
   23.2500000         5.40221279E-28
   23.3999996         1.08939014E-27
   23.5499992         1.60204717E-27
   23.7000008         1.98352122E-27
   23.8500004         2.13748333E-27
   24.0000000         1.98197874E-27
   24.1499996         1.46683370E-27
   24.2999992         5.89872234E-28
   24.4500008        -5.91136174E-28
   24.6000004        -1.95385535E-27
   24.7500000        -3.31666168E-27
   24.8999996        -4.45528687E-27
   25.0499992        -5.13065426E-27
   25.2000008        -5.12586370E-27
   25.3500004        -4.28817046E-27
   25.5000000        -2.56993376E-27
   25.6499996        -6.12734552E-29
   25.7999992         2.99319096E-27
   25.9500008         6.20022793E-27
   26.1000004         9.05092626E-27
   26.2500000         1.09814969E-26
   26.3999996         1.14580544E-26
   26.5499992         1.00763753E-26
   26.7000008         6.66278238E-27
   26.8500004         1.35871526E-27
   27.0000000        -5.32981545E-27
   27.1499996        -1.25350337E-26
   27.2999992        -1.90945354E-26
   27.4500008        -2.36861527E-26
   27.6000004        -2.50228713E-26
   27.7500000        -2.20874829E-26
   27.8999996        -1.43749516E-26
   28.0499992        -2.10163773E-27
   28.2000008         1.36627519E-26
   28.3500004         3.09807987E-26
   28.5000000         4.71789882E-26
   28.6499996         5.91340488E-26
   28.7999992         6.36977201E-26
   28.9500008         5.82164310E-26
   29.1000004         4.10777407E-26
   29.2500000         1.21984720E-26
   29.3999996        -2.66357744E-26
   29.5499992        -7.16600322E-26
   29.7000008        -1.17303703E-25
   29.8500004        -1.56666469E-25
   30.0000000        -1.82268753E-25
   30.1499996        -1.87004778E-25
   30.2999992        -1.65189495E-25
   30.4500008        -1.13569519E-25
   30.6000004        -3.21675044E-26
   30.7500000         7.51518140E-26
   30.8999996         2.00471484E-25
   31.0499992         3.32004019E-25
   31.2000008         4.54664321E-25
   31.3500004         5.51008841E-25
   31.5000000         6.02511991E-25
   31.6499996         5.91163784E-25
   31.7999992         5.01390180E-25
   31.9500008         3.22306330E-25
   32.0999985         5.02832791E-26
   32.2500000        -3.08273086E-25
   32.4000015        -7.34178152E-25
   32.5499992        -1.19320694E-24
   32.7000008        -1.63497950E-24
   32.8499985        -1.99383411E-24
   33.0000000        -2.19258524E-24
   33.1500015        -2.14991438E-24
   33.2999992        -1.79172676E-24
   33.4500008        -1.06609296E-24
   33.5999985         3.95616918E-26
   33.7500000         1.48144844E-24
   33.9000015         3.14602206E-24
   34.0499992         4.84430489E-24
   34.2000008         6.31805404E-24
   34.3499985         7.26104180E-24
   34.5000000         7.35684502E-24
   34.6500015         6.33167333E-24
   34.7999992         4.01721618E-24
   34.9500008         4.14740515E-25
   35.0999985        -4.25151260E-24
   35.2500000        -9.50536370E-24
   35.4000015        -1.46274675E-23
   35.5499992        -1.87118659E-23
   35.7000008        -2.07741376E-23
   35.8499985        -1.99059930E-23
   36.0000000        -1.54607886E-23
   36.1500015        -7.24386830E-24
   36.2999992         4.32660269E-24
   36.4500008         1.81265973E-23
   36.5999985         3.23369105E-23
   36.7500000         4.45835122E-23
   36.9000015         5.22160097E-23
   37.0499992         5.27089972E-23
   37.2000008         4.41442397E-23
   37.3499985         2.57060628E-23
   37.5000000        -1.89695725E-24
   37.6500015        -3.61784864E-23
   37.7999992        -7.28755763E-23
   37.9500008        -1.06264953E-22
   38.0999985        -1.29811909E-22
   38.2500000        -1.37113163E-22
   38.4000015        -1.23033423E-22
   38.5499992        -8.48786882E-23
   38.7000008        -2.34080858E-23
   38.8499985         5.65275763E-23
   39.0000000         1.45911866E-22
   39.1500015         2.32184963E-22
   39.2999992         3.00599070E-22
   39.4500008         3.36223751E-22
   39.5999985         3.26388764E-22
   39.7500000         2.63234226E-22
   39.9000015         1.45957354E-22
   40.0499992        -1.76831203E-23
   40.2000008        -2.10996525E-22
   40.3499985        -4.09396570E-22
   40.5000000        -5.82927718E-22
   40.6500015        -7.00127862E-22
   40.7999992        -7.32823559E-22
   40.9500008        -6.61227654E-22
   41.0999985        -4.78550642E-22
   41.2500000        -1.94288830E-22
   41.4000015         1.64570206E-22
   41.5499992         5.54960693E-22
   41.7000008         9.21964484E-22
   41.8499985         1.20561211E-21
   42.0000000         1.34956516E-21
   42.1500015         1.31057367E-21
   42.2999992         1.06731028E-21
   42.4500008         6.27072526E-22
   42.5999985         2.89691181E-23
   42.7500000        -6.57435921E-22
   42.9000015        -1.33846790E-21
   43.0499992        -1.90739165E-21
   43.2000008        -2.25910316E-21
   43.3499985        -2.30667473E-21
   43.5000000        -1.99743519E-21
   43.6500015        -1.32602666E-21
   43.7999992        -3.42013384E-22
   43.9500008         8.49861537E-22
   44.0999985         2.09777911E-21
   44.2500000         3.21917611E-21
   44.4000015         4.02389279E-21
   44.5499992         4.34152490E-21
   44.7000008         4.04941463E-21
   44.8499985         3.09720271E-21
   45.0000000         1.52388348E-21
   45.1500015        -5.36032071E-22
   45.2999992        -2.85944019E-21
   45.4500008        -5.15516325E-21
   45.5999985        -7.09665389E-21
   45.7500000        -8.36356017E-21
   45.9000015        -8.68720912E-21
   46.0499992        -7.89398573E-21
   46.2000008        -5.94029094E-21
   46.3499985        -2.93332523E-21
   46.5000000         8.66628707E-22
   46.6500015         5.06455951E-21
   46.7999992         9.16920419E-21
   46.9500008         1.26482968E-20
   47.0999985         1.49946568E-20
   47.2500000         1.57951705E-20
   47.4000015         1.47936697E-20
   47.5499992         1.19387681E-20
   47.7000008         7.40900424E-21
   47.8499985         1.61004981E-21
   48.0000000        -4.85798448E-21
   48.1500015        -1.12613096E-20
   48.2999992        -1.68156335E-20
   48.4500008        -2.07827384E-20
   48.5999985        -2.25689784E-20
   48.7500000        -2.18131356E-20
   48.9000015        -1.84513896E-20
   49.0499992        -1.27492136E-20
   49.2000008        -5.29332907E-21
   49.3499985         3.05855484E-21
   49.5000000         1.12673801E-20
   49.6500015         1.82337006E-20
   49.7999992         2.29373161E-20
   49.9500008         2.45794393E-20
   50.0999985         2.27095619E-20
   50.2500000         1.73193445E-20
   50.4000015         8.88843373E-21
   50.5499992        -1.62854747E-21
   50.7000008        -1.28781908E-20
   50.8499985        -2.32447462E-20
   51.0000000        -3.10359846E-20
   51.1500015        -3.47003463E-20
   51.2999992        -3.30513229E-20
   51.4500008        -2.54714485E-20
   51.5999985        -1.20674932E-20
   51.7500000         6.24841330E-21
   51.9000015         2.77709282E-20
   52.0499992         5.01164305E-20
   52.2000008         7.04383001E-20
   52.3499985         8.57271698E-20
   52.5000000         9.31680020E-20
   52.6500015         9.05153759E-20
   52.7999992         7.64412144E-20
   52.9500008         5.08079826E-20
   53.0999985         1.48242915E-20
   53.2500000        -2.89493892E-20
   53.4000015        -7.67612881E-20
   53.5499992        -1.23991168E-19
   53.7000008        -1.65609973E-19
   53.8499985        -1.96729800E-19
   54.0000000        -2.13181427E-19
   54.1500015        -2.12046535E-19
   54.2999992        -1.92071946E-19
   54.4500008        -1.53902226E-19
   54.5999985        -1.00087051E-19
   54.7500000        -3.48473679E-20
   54.9000015         3.63831321E-20
   55.0499992         1.07590962E-19
   55.2000008         1.72911289E-19
   55.3499985         2.27352659E-19
   55.5000000         2.67411207E-19
   55.6500015         2.91476243E-19
   55.7999992         2.99952518E-19
   55.9500008         2.95061916E-19
   56.0999985         2.80334198E-19
   56.2500000         2.59846020E-19
   56.4000015         2.37314085E-19
   56.5499992         2.15181950E-19
   56.7000008         1.93856601E-19
   56.8499985         1.71245515E-19
   57.0000000         1.42714466E-19
   57.1500015         1.01535535E-19
   57.2999992         3.98266721E-20
   57.4500008        -5.00914503E-20
   57.5999985        -1.74069859E-19
   57.7500000        -3.34444890E-19
   57.9000015        -5.28536875E-19
   58.0499992        -7.47585313E-19
   58.2000008        -9.76345162E-19
   58.3499985        -1.19350654E-18
   58.5000000        -1.37300856E-18
   58.6500015        -1.48621329E-18
   58.7999992        -1.50478712E-18
   58.9500008        -1.40403549E-18
   59.0999985        -1.16635217E-18
   59.2500000        -7.84395833E-19
   59.4000015        -2.63603255E-19
   59.5499992         3.76317496E-19
   59.7000008         1.10118398E-18
   59.8499985         1.86358560E-18
   60.0000000         2.60559618E-18
   60.1500015         3.26282571E-18
   60.2999992         3.76954146E-18
   60.4500008         4.06447105E-18
   60.5999985         4.09680844E-18
   60.7500000         3.83189061E-18
   60.9000015         3.25601492E-18
   61.0499992         2.37989995E-18
   61.2000008         1.24035795E-18
   61.3499985        -1.00123912E-19
   61.5000000        -1.55606187E-18
   61.6500015        -3.02392706E-18
   61.7999992        -4.38918783E-18
   61.9500008        -5.53508196E-18
   62.0999985        -6.35257919E-18
   62.2500000        -6.75080585E-18
   62.4000015        -6.66707491E-18
   62.5499992        -6.07556302E-18
   62.7000008        -4.99365255E-18
   62.8499985        -3.48499547E-18
   63.0000000        -1.65853497E-18
   63.1500015         3.37020239E-19
   63.2999992         2.32341241E-18
   63.4500008         4.10739346E-18
   63.5999985         5.49878321E-18
   63.7500000         6.33064484E-18
   63.9000015         6.47973711E-18
   64.0500031         5.88504595E-18
   64.1999969         4.56207727E-18
   64.3499985         2.61068479E-18
   64.5000000         2.14586871E-19
   64.6500015        -2.36856117E-18
   64.8000031        -4.82679450E-18
   64.9499969        -6.82227715E-18
   65.0999985        -8.02653384E-18
   65.2500000        -8.15934348E-18
   65.4000015        -7.02731868E-18
   65.5500031        -4.55767336E-18
   65.6999969        -8.22672995E-19
   65.8499985         3.94923528E-18
   66.0000000         9.37854483E-18
   66.1500015         1.49574455E-17
   66.3000031         2.00897008E-17
   66.4499969         2.41450596E-17
   66.5999985         2.65236671E-17
   66.7500000         2.67242750E-17
   66.9000015         2.44089534E-17
   67.0500031         1.94567124E-17
   67.1999969         1.19989397E-17
   67.3499985         2.43098828E-18
   67.5000000        -8.60354277E-18
   67.6500015        -2.02565001E-17
   67.8000031        -3.15443705E-17
   67.9499969        -4.14374374E-17
   68.0999985        -4.89606881E-17
   68.2500000        -5.32962296E-17
   68.4000015        -5.38761593E-17
   68.5500031        -5.04550296E-17
   68.6999969        -4.31526063E-17
   68.8499985        -3.24603970E-17
   69.0000000        -1.92089272E-17
   69.1500015        -4.49711505E-18
   69.3000031         1.04107025E-17
   69.4499969         2.42104780E-17
   69.5999985         3.56941702E-17
   69.7500000         4.38809190E-17
   69.9000015         4.81286999E-17
   70.0500031         4.82129135E-17
   70.1999969         4.43613819E-17
   70.3499985         3.72393966E-17
   70.5000000         2.78841625E-17
   70.6500015         1.75934401E-17
   70.8000031         7.77896613E-18
   70.9499969        -2.00081212E-19
   71.0999985        -5.20511507E-18
   71.2500000        -6.46787203E-18
   71.4000015        -3.70291827E-18
   71.5500031         2.83267546E-18
   71.6999969         1.23429484E-17
   71.8499985         2.35633779E-17
   72.0000000         3.48936381E-17
   72.1500015         4.45806013E-17
   72.3000031         5.09323194E-17
   72.4499969         5.25386347E-17
   72.5999985         4.84711725E-17
   72.7500000         3.84361813E-17
   72.9000015         2.28571526E-17
   73.0500031         2.87127398E-18
   73.1999969        -1.97668456E-17
   73.3499985        -4.28695716E-17
   73.5000000        -6.40723713E-17
   73.6500015        -8.11347251E-17
   73.8000031        -9.22505833E-17
   73.9499969        -9.63283190E-17
   74.0999985        -9.32000477E-17
   74.2500000        -8.37251834E-17
   74.4000015        -6.97630761E-17
   74.5500031        -5.40035848E-17
   74.6999969        -3.96616527E-17
   74.8499985        -3.00602001E-17
   75.0000000        -2.81426995E-17
   75.1500015        -3.59708257E-17
   75.3000031        -5.42709693E-17
   75.4499969        -8.20952538E-17
   75.5999985        -1.16655932E-16
   75.7500000        -1.53378066E-16
   75.9000015        -1.86193803E-16
   76.0500031        -2.08074636E-16
   76.1999969        -2.11768666E-16
   76.3499985        -1.90681384E-16
   76.5000000        -1.39813164E-16
   76.6500015        -5.66501657E-17
   76.8000031         5.81025824E-17
   76.9499969         2.00051236E-16
   77.0999985         3.60993901E-16
   77.2500000         5.29210409E-16
   77.4000015         6.90178380E-16
   77.5500031         8.27688726E-16
   77.6999969         9.25284074E-16
   77.8499985         9.67902431E-16
   78.0000000         9.43570245E-16
   78.1500015         8.44971269E-16
   78.3000031         6.70710651E-16
   78.4499969         4.26110724E-16
   78.5999985         1.23409498E-16
   78.7500000        -2.18715990E-16
   78.9000015        -5.76313541E-16
   79.0500031        -9.21947823E-16
   79.1999969        -1.22698938E-15
   79.3499985        -1.46420656E-15
   79.5000000        -1.61042001E-15
   79.6500015        -1.64895059E-15
   79.8000031        -1.57159753E-15
   79.9499969        -1.37991164E-15
   80.0999985        -1.08558538E-15
   80.2500000        -7.09864326E-16
   80.4000015        -2.81980762E-16
   80.5500031         1.63285890E-16
   80.6999969         5.88719027E-16
   80.8499985         9.58156576E-16
   81.0000000         1.24002045E-15
   81.1500015         1.41051537E-15
   81.3000031         1.45614281E-15
   81.4499969         1.37523602E-15
   81.5999985         1.17830690E-15
   81.7500000         8.87122117E-16
   81.9000015         5.32558307E-16
   82.0500031         1.51427680E-16
   82.1999969        -2.17413002E-16
   82.3499985        -5.37256217E-16
   82.5000000        -7.77577040E-16
   82.6500015        -9.17435467E-16
   82.8000031        -9.47828174E-16
   82.9499969        -8.72675758E-16
   83.0999985        -7.08270845E-16
   83.2500000        -4.81193170E-16
   83.4000015        -2.24877798E-16
   83.5500031         2.48020346E-17
   83.6999969         2.34436406E-16
   83.8499985         3.77871589E-16
   84.0000000         4.40280076E-16
   84.1500015         4.20938820E-16
   84.3000031         3.34269324E-16
   84.4499969         2.08873335E-16
   84.5999985         8.45287596E-17
   84.7500000         7.35661515E-18
   84.9000015         2.36122379E-17
   85.0500031         1.72760086E-16
   85.1999969         4.80633388E-16
   85.3499985         9.53537282E-16
   85.5000000         1.57411470E-15
   85.6500015         2.29965443E-15
   85.8000031         3.06329148E-15
   85.9499969         3.77825060E-15
   86.0999985         4.34494190E-15
   86.2500000         4.66037824E-15
   86.4000015         4.62906936E-15
   86.5500031         4.17432575E-15
   86.6999969         3.24876162E-15
   86.8499985         1.84280001E-15
   87.0000000        -9.89832528E-18
   87.1500015        -2.23089272E-15
   87.3000031        -4.69974876E-15
   87.4499969        -7.26116114E-15
   87.5999985        -9.73596610E-15
   87.7500000        -1.19351304E-14
   87.9000015        -1.36754808E-14
   88.0500031        -1.47956666E-14
   88.1999969        -1.51707599E-14
   88.3499985        -1.47240025E-14
   88.5000000        -1.34344287E-14
   88.6500015        -1.13395189E-14
   88.8000031        -8.53251694E-15
   88.9499969        -5.15463975E-15
   89.0999985        -1.38294487E-15
   89.2500000         2.58489066E-15
   89.4000015         6.54726610E-15
   89.5500031         1.03150266E-14
   89.6999969         1.37257293E-14
   89.8499985         1.66542686E-14
   90.0000000         1.90187272E-14
   90.1500015         2.07808776E-14
   90.3000031         2.19414500E-14
   90.4499969         2.25308596E-14
   90.5999985         2.25967723E-14
   90.7500000         2.21902286E-14
   90.9000015         2.13523640E-14
   91.0500031         2.01036968E-14
   91.1999969         1.84377084E-14
   91.3499985         1.63199515E-14
   91.5000000         1.36932109E-14
   91.6500015         1.04884592E-14
   91.8000031         6.64051892E-15
   91.9499969         2.10663955E-15
   92.0999985        -3.11439446E-15
   92.2500000        -8.96524744E-15
   92.4000015        -1.53177625E-14
   92.5500031        -2.19676741E-14
   92.6999969        -2.86379298E-14
   92.8499985        -3.49912766E-14
   93.0000000        -4.06517132E-14
   93.1500015        -4.52332975E-14
   93.3000031        -4.83737636E-14
   93.4499969        -4.97696062E-14
   93.5999985        -4.92088432E-14
   93.7500000        -4.65976101E-14
   93.9000015        -4.19771301E-14
   94.0500031        -3.55284819E-14
   94.1999969        -2.75637040E-14
   94.3499985        -1.85033094E-14
   94.5000000        -8.84176782E-15
   94.6500015         8.96011886E-16
   94.8000031         1.02029320E-14
   94.9499969         1.86376420E-14
   95.0999985         2.58668497E-14
   95.2500000         3.16969487E-14
   95.4000015         3.60909016E-14
   95.5500031         3.91676946E-14
   95.6999969         4.11835178E-14
   95.8499985         4.24959174E-14
   96.0000000         4.35140849E-14
   96.1500015         4.46403846E-14
   96.3000031         4.62093844E-14
   96.4499969         4.84314466E-14
   96.5999985         5.13478555E-14
   96.7500000         5.48034992E-14
   96.9000015         5.84416345E-14
   97.0500031         6.17229792E-14
   97.1999969         6.39687888E-14
   97.3499985         6.44248449E-14
   97.5000000         6.23408253E-14
   97.6500015         5.70572642E-14
   97.8000031         4.80912239E-14
   97.9499969         3.52110986E-14
   98.0999985         1.84918812E-14
   98.2500000        -1.65647923E-15
   98.4000015        -2.44922965E-14
   98.5500031        -4.89785723E-14
   98.6999969        -7.38507901E-14
   98.8499985        -9.77107257E-14
   99.0000000        -1.19138017E-13
   99.1500015        -1.36808791E-13
   99.3000031        -1.49609627E-13
   99.4499969        -1.56734949E-13
   99.5999985        -1.57757447E-13
   99.7500000        -1.52663526E-13
   99.9000015        -1.41849179E-13
   100.050003        -1.26076002E-13
   100.199997        -1.06391302E-13
   100.349998        -8.40202135E-14
   100.500000        -6.02410713E-14
   100.650002        -3.62577129E-14
   100.800003        -1.30827601E-14
   100.949997         8.55457452E-15
   101.099998         2.82651574E-14
   101.250000         4.60136351E-14
   101.400002         6.20866206E-14
   101.550003         7.70177447E-14
   101.699997         9.14773696E-14
   101.849998         1.06139022E-13
   102.000000         1.21537952E-13
   102.150002         1.37939112E-13
   102.300003         1.55231256E-13
   102.449997         1.72862253E-13
   102.599998         1.89826304E-13
   102.750000         2.04708822E-13
   102.900002         2.15788094E-13
   103.050003         2.21186730E-13
   103.199997         2.19059539E-13
   103.349998         2.07799910E-13
   103.500000         1.86243422E-13
   103.650002         1.53846567E-13
   103.800003         1.10820031E-13
   103.949997         5.81993899E-14
   104.099998        -2.15761950E-15
   104.250000        -6.76515389E-14
   104.400002        -1.35095074E-13
   104.550003        -2.00928846E-13
   104.699997        -2.61480372E-13
   104.849998        -3.13242542E-13
   105.000000        -3.53145302E-13
   105.150002        -3.78794164E-13
   105.300003        -3.88652272E-13
   105.449997        -3.82147656E-13
   105.599998        -3.59695374E-13
   105.750000        -3.22632844E-13
   105.900002        -2.73075399E-13
   106.050003        -2.13708296E-13
   106.199997        -1.47537581E-13
   106.349998        -7.76268630E-14
   106.500000        -6.84883228E-15
   106.650002         6.23218450E-14
   106.800003         1.27952146E-13
   106.949997         1.88716325E-13
   107.099998         2.43877943E-13
   107.250000         2.93193204E-13
   107.400002         3.36749237E-13
   107.550003         3.74760742E-13
   107.699997         4.07352022E-13
   107.849998         4.34355704E-13
   108.000000         4.55157505E-13
   108.150002         4.68611966E-13
   108.300003         4.73045539E-13
   108.449997         4.66354494E-13
   108.599998         4.46192833E-13
   108.750000         4.10233669E-13
   108.900002         3.56478573E-13
   109.050003         2.83580803E-13
   109.199997         1.91146036E-13
   109.349998         7.99719381E-14
   109.500000        -4.78039849E-14
   109.650002        -1.88673933E-13
   109.800003        -3.37858214E-13
   109.949997        -4.89531592E-13
   110.099998        -6.37162686E-13
   110.250000        -7.73938476E-13
   110.400002        -8.93234705E-13
   110.550003        -9.89089561E-13
   110.699997        -1.05663178E-12
   110.849998        -1.09242183E-12
   111.000000        -1.09467047E-12
   111.150002        -1.06331166E-12
   111.300003        -9.99923343E-13
   111.449997        -9.07502534E-13
   111.599998        -7.90121549E-13
   111.750000        -6.52501382E-13
   111.900002        -4.99550217E-13
   112.050003        -3.35918169E-13
   112.199997        -1.65619864E-13
   112.349998         8.23358122E-15
   112.500000         1.83561052E-13
   112.650002         3.59281371E-13
   112.800003         5.35130208E-13
   112.949997         7.11345479E-13
   113.099998         8.88259355E-13
   113.250000         1.06584620E-12
   113.400002         1.24328651E-12
   113.550003         1.41860276E-12
   113.699997         1.58842058E-12
   113.849998         1.74789545E-12
   114.000000         1.89082734E-12
   114.150002         2.00996468E-12
   114.300003         2.09747887E-12
   114.449997         2.14556736E-12
   114.599998         2.14713100E-12
   114.750000         2.09645344E-12
   114.900002         1.98981478E-12
   115.050003         1.82596776E-12
   115.199997         1.60642289E-12
   115.349998         1.33550126E-12
   115.500000         1.02014252E-12
   115.650002         6.69477169E-13
   115.800003         2.94197473E-13
   115.949997        -9.42114632E-14
   116.099998        -4.84310075E-13
   116.250000        -8.65525913E-13
   116.400002        -1.22887594E-12
   116.550003        -1.56751500E-12
   116.699997        -1.87705320E-12
   116.849998        -2.15560859E-12
   117.000000        -2.40359100E-12
   117.150002        -2.62324125E-12
   117.300003        -2.81797610E-12
   117.449997        -2.99161650E-12
   117.599998        -3.14758267E-12
   117.750000        -3.28815512E-12
   117.900002        -3.41388441E-12
   118.050003        -3.52322576E-12
   118.199997        -3.61244324E-12
   118.349998        -3.67580705E-12
