  -1.50000000       0.00000000    
  -1.35000002       0.00000000    
  -1.20000005       0.00000000    
  -1.04999995      -3.69289615E-18
 -0.899999976      -3.25436543E-17
 -0.750000000      -1.66179632E-16
 -0.600000024      -6.42436215E-16
 -0.449999988      -2.07628274E-15
 -0.300000012      -5.88298517E-15
 -0.150000006      -1.49952242E-14
  -5.55111512E-17  -3.49129972E-14
  0.150000006      -7.49907880E-14
  0.300000012      -1.49653686E-13
  0.449999988      -2.79001919E-13
  0.600000024      -4.88116763E-13
  0.750000000      -8.04427326E-13
  0.899999976      -1.25279138E-12
   1.04999995      -1.84845542E-12
   1.20000005      -2.58866691E-12
   1.35000002      -3.44428891E-12
   1.50000000      -4.35314892E-12
   1.64999998      -5.21695057E-12
   1.79999995      -5.90336851E-12
   1.95000005      -6.25438546E-12
   2.09999990      -6.10111484E-12
   2.25000000      -5.28438664E-12
   2.40000010      -3.67929168E-12
   2.54999995      -1.22098805E-12
   2.70000005       2.07165730E-12
   2.84999990       6.07828805E-12
   3.00000000       1.05686805E-11
   3.15000010       1.52065895E-11
   3.29999995       1.95674605E-11
   3.45000005       2.31700596E-11
   3.59999990       2.55203809E-11
   3.75000000       2.61643034E-11
   3.90000010       2.47440991E-11
   4.05000019       2.10527342E-11
   4.19999981       1.50794221E-11
   4.34999990       7.04025076E-12
   4.50000000      -2.61141239E-12
   4.65000010      -1.31982663E-11
   4.80000019      -2.38574525E-11
   4.94999981      -3.36025999E-11
   5.09999990      -4.14054034E-11
   5.25000000      -4.62901210E-11
   5.40000010      -4.74322838E-11
   5.55000019      -4.42518522E-11
   5.69999981      -3.64908763E-11
   5.84999990      -2.42667709E-11
   6.00000000      -8.09448862E-12
   6.15000010       1.11260393E-11
   6.30000019       3.21574885E-11
   6.44999981       5.35042045E-11
   6.59999990       7.35163458E-11
   6.75000000       9.05100161E-11
   6.90000010       1.02893312E-10
   7.05000019       1.09287857E-10
   7.19999981       1.08636537E-10
   7.34999990       1.00289756E-10
   7.50000000       8.40650119E-11
   7.65000010       6.02767350E-11
   7.80000019       2.97355231E-11
   7.94999981      -6.28233143E-12
   8.10000038      -4.60933063E-11
   8.25000000      -8.76908476E-11
   8.39999962      -1.28852651E-10
   8.55000019      -1.67268491E-10
   8.69999981      -2.00685177E-10
   8.85000038      -2.27063771E-10
   9.00000000      -2.44742254E-10
   9.14999962      -2.52593252E-10
   9.30000019      -2.50162807E-10
   9.44999981      -2.37773579E-10
   9.60000038      -2.16573481E-10
   9.75000000      -1.88510735E-10
   9.89999962      -1.56222035E-10
   10.0500002      -1.22825805E-10
   10.1999998      -9.16260054E-11
   10.3500004      -6.57441601E-11
   10.5000000      -4.77135449E-11
   10.6499996      -3.90818489E-11
   10.8000002      -4.00783989E-11
   10.9499998      -4.94042827E-11
   11.1000004      -6.41977235E-11
   11.2500000      -8.02115041E-11
   11.3999996      -9.22149995E-11
   11.5500002      -9.46022705E-11
   11.6999998      -8.21540613E-11
   11.8500004      -5.08690173E-11
   12.0000000       1.24487291E-12
   12.1499996       7.35414021E-11
   12.3000002       1.62387964E-10
   12.4499998       2.61194899E-10
   12.6000004       3.60879271E-10
   12.7500000       4.50764620E-10
   12.8999996       5.19853716E-10
   13.0500002       5.58348201E-10
   13.1999998       5.59231716E-10
   13.3500004       5.19696064E-10
   13.5000000       4.42180764E-10
   13.6499996       3.34816924E-10
   13.8000002       2.11121787E-10
   13.9499998       8.88756707E-11
   14.1000004      -1.17808983E-11
   14.2500000      -7.08766726E-11
   14.3999996      -7.15035323E-11
   14.5500002      -2.72599716E-12
   14.6999998       1.37891462E-10
   14.8500004       3.42537887E-10
   15.0000000       5.92535576E-10
   15.1499996       8.59085636E-10
   15.3000002       1.10546794E-09
   15.4499998       1.29060507E-09
   15.6000004       1.37371237E-09
   15.7500000       1.31958189E-09
   15.8999996       1.10391607E-09
   16.0499992       7.18055504E-10
   16.2000008       1.72442574E-10
   16.3500004      -5.01748088E-10
   16.5000000      -1.25322175E-09
   16.6499996      -2.01359862E-09
   16.7999992      -2.70278155E-09
   16.9500008      -3.23628702E-09
   17.1000004      -3.53389606E-09
   17.2500000      -3.52879193E-09
   17.3999996      -3.17620263E-09
   17.5499992      -2.46056020E-09
   17.7000008      -1.40025957E-09
   17.8500004      -4.93093691E-11
   18.0000000       1.50455681E-09
   18.1499996       3.14538018E-09
   18.2999992       4.73778439E-09
   18.4500008       6.13840623E-09
   18.6000004       7.20896809E-09
   18.7500000       7.82975107E-09
   18.8999996       7.91215005E-09
   19.0499992       7.40899830E-09
   19.2000008       6.32150643E-09
   19.3500004       4.70196238E-09
   19.5000000       2.65170352E-09
   19.6499996       3.14337056E-10
   19.7999992      -2.13535190E-09
   19.9500008      -4.50593296E-09
   20.1000004      -6.60605659E-09
   20.2500000      -8.26187208E-09
   20.3999996      -9.33351618E-09
   20.5499992      -9.72908776E-09
   20.7000008      -9.41470990E-09
   20.8500004      -8.41960368E-09
   21.0000000      -6.83553436E-09
   21.1499996      -4.81048312E-09
   21.2999992      -2.53695887E-09
   21.4500008      -2.35826636E-10
   21.6000004       1.86300020E-09
   21.7500000       3.54135365E-09
   21.8999996       4.61324801E-09
   22.0499992       4.94310903E-09
   22.2000008       4.46008430E-09
   22.3500004       3.16702975E-09
   22.5000000       1.14321064E-09
   22.6499996      -1.45972523E-09
   22.7999992      -4.42834924E-09
   22.9500008      -7.50389884E-09
   23.1000004      -1.04033138E-08
   23.2500000      -1.28431585E-08
   23.3999996      -1.45644430E-08
   23.5499992      -1.53562212E-08
   23.7000008      -1.50758872E-08
   23.8500004      -1.36643248E-08
   24.0000000      -1.11544480E-08
   24.1499996      -7.67221220E-09
   24.2999992      -3.42974826E-09
   24.4500008       1.28902067E-09
   24.6000004       6.14931972E-09
   24.7500000       1.07914735E-08
   24.8999996       1.48598422E-08
   25.0499992       1.80324378E-08
   25.2000008       2.00488017E-08
   25.3500004       2.07337614E-08
   25.5000000       2.00150172E-08
   25.6499996       1.79328925E-08
   25.7999992       1.46412340E-08
   25.9500008       1.03990656E-08
   26.1000004       5.55341195E-09
   26.2500000       5.14342013E-10
   26.3999996      -4.27598090E-09
   26.5499992      -8.37799519E-09
   26.7000008      -1.13905152E-08
   26.8500004      -1.29847688E-08
   27.0000000      -1.29339188E-08
   27.1499996      -1.11355423E-08
   27.2999992      -7.62501706E-09
   27.4500008      -2.57839661E-09
   27.6000004       3.69587339E-09
   27.7500000       1.07761675E-08
   27.8999996       1.81567437E-08
   28.0499992       2.52847254E-08
   28.2000008       3.16023865E-08
   28.3500004       3.65915511E-08
   28.5000000       3.98166300E-08
   28.6499996       4.09627745E-08
   28.7999992       3.98657960E-08
   28.9500008       3.65311017E-08
   29.1000004       3.11395922E-08
   29.2500000       2.40394424E-08
   29.3999996       1.57238382E-08
   29.5499992       6.79587409E-09
   29.7000008      -2.07706274E-09
   29.8500004      -1.02160520E-08
   30.0000000      -1.69864620E-08
   30.1499996      -2.18522747E-08
   30.2999992      -2.44242599E-08
   30.4500008      -2.44976750E-08
   30.6000004      -2.20758434E-08
   30.7500000      -1.73770189E-08
   30.8999996      -1.08232623E-08
   31.0499992      -3.01157588E-09
   31.2000008       5.33095346E-09
   31.3500004       1.34047724E-08
   31.5000000       2.04037711E-08
   31.6499996       2.55841535E-08
   31.7999992       2.83304225E-08
   31.9500008       2.82127335E-08
   32.0999985       2.50303547E-08
   32.2500000       1.88370155E-08
   32.4000015       9.94536187E-09
   32.5499992      -1.09057419E-09
   32.7000008      -1.35140823E-08
   32.8499985      -2.64230060E-08
   33.0000000      -3.88411792E-08
   33.1500015      -4.97983415E-08
   33.2999992      -5.84119526E-08
   33.4500008      -6.39639239E-08
   33.5999985      -6.59655583E-08
   33.7500000      -6.42047908E-08
   33.9000015      -5.87711178E-08
   34.0499992      -5.00555792E-08
   34.2000008      -3.87249202E-08
   34.3499985      -2.56715893E-08
   34.5000000      -1.19431069E-08
   34.6500015       1.34364697E-09
   34.7999992       1.30962556E-08
   34.9500008       2.23408048E-08
   35.0999985       2.83080119E-08
   35.2500000       3.05037489E-08
   35.4000015       2.87573716E-08
   35.5499992       2.32430555E-08
   35.7000008       1.44714924E-08
   35.8499985       3.25189764E-09
   36.0000000      -9.37318489E-09
   36.1500015      -2.22152270E-08
   36.2999992      -3.40421167E-08
   36.4500008      -4.36868888E-08
   36.5999985      -5.01533073E-08
   36.7500000      -5.27087494E-08
   36.9000015      -5.09557267E-08
   37.0499992      -4.48750725E-08
   37.2000008      -3.48361553E-08
   37.3499985      -2.15723404E-08
   37.5000000      -6.12311579E-09
   37.6500015       1.02527800E-08
   37.7999992       2.61859157E-08
   37.9500008       4.03170723E-08
   38.0999985       5.14197218E-08
   38.2500000       5.85129207E-08
   38.4000015       6.09540507E-08
   38.5499992       5.85025290E-08
   38.7000008       5.13480529E-08
   38.8499985       4.01001543E-08
   39.0000000       2.57392845E-08
   39.1500015       9.53335810E-09
   39.2999992      -7.07315673E-09
   39.4500008      -2.25878232E-08
   39.5999985      -3.56048346E-08
   39.7500000      -4.49333690E-08
   39.9000015      -4.97077401E-08
   40.0499992      -4.94689942E-08
   40.2000008      -4.42101147E-08
   40.3499985      -3.43802924E-08
   40.5000000      -2.08474642E-08
   40.6500015      -4.82225682E-09
   40.7999992       1.22499779E-08
   40.9500008       2.88192936E-08
   41.0999985       4.33715677E-08
   41.2500000       5.45662928E-08
   41.4000015       6.13590032E-08
   41.5499992       6.30969268E-08
   41.7000008       5.95789409E-08
   41.8499985       5.10741032E-08
   42.0000000       3.82969638E-08
   42.1500015       2.23418066E-08
   42.2999992       4.58186067E-09
   42.4500008      -1.34572282E-08
   42.5999985      -3.02379064E-08
   42.7500000      -4.43520918E-08
   42.9000015      -5.46502754E-08
   43.0499992      -6.03461672E-08
   43.2000008      -6.10871567E-08
   43.3499985      -5.69839287E-08
   43.5000000      -4.85964371E-08
   43.6500015      -3.68776973E-08
   43.7999992      -2.30806005E-08
   43.9500008      -8.63677752E-09
   44.0999985       4.98104313E-09
   44.2500000       1.63999729E-08
   44.4000015       2.44777745E-08
   44.5499992       2.84109998E-08
   44.7000008       2.78101524E-08
   44.8499985       2.27346799E-08
   45.0000000       1.36845220E-08
   45.1500015       1.54908708E-09
   45.2999992      -1.24812836E-08
   45.4500008      -2.70327210E-08
   45.5999985      -4.06826359E-08
   45.7500000      -5.20987946E-08
   45.9000015      -6.01690644E-08
   46.0499992      -6.41092512E-08
   46.2000008      -6.35385291E-08
   46.3499985      -5.85151554E-08
   46.5000000      -4.95291630E-08
   46.6500015      -3.74527680E-08
   46.7999992      -2.34535662E-08
   46.9500008      -8.87909302E-09
   47.0999985       4.87580198E-09
   47.2500000       1.65057408E-08
   47.4000015       2.49222989E-08
   47.5499992       2.93597520E-08
   47.7000008       2.94487688E-08
   47.8499985       2.52510084E-08
   48.0000000       1.72513772E-08
   48.1500015       6.30891339E-09
   48.2999992      -6.42867715E-09
   48.4500008      -1.96382537E-08
   48.5999985      -3.19510320E-08
   48.7500000      -4.20860857E-08
   48.9000015      -4.89744814E-08
   49.0499992      -5.18619885E-08
   49.2000008      -5.03803541E-08
   49.3499985      -4.45805490E-08
   49.5000000      -3.49248417E-08
   49.6500015      -2.22389751E-08
   49.7999992      -7.62934071E-09
   49.9500008       7.62638752E-09
   50.0999985       2.22041816E-08
   50.2500000       3.48618023E-08
   50.4000015       4.45575630E-08
   50.5499992       5.05481559E-08
   50.7000008       5.24562545E-08
   50.8499985       5.03015123E-08
   51.0000000       4.44925234E-08
   51.1500015       3.57809036E-08
   51.2999992       2.51826044E-08
   51.4500008       1.38746570E-08
   51.5999985       3.07780046E-09
   51.7500000      -6.06315975E-09
   51.9000015      -1.25895223E-08
   52.0499992      -1.58186744E-08
   52.2000008      -1.54054351E-08
   52.3499985      -1.13692487E-08
   52.5000000      -4.08521839E-09
   52.6500015       5.75932724E-09
   52.7999992       1.72377845E-08
   52.9500008       2.92788425E-08
   53.0999985       4.07729246E-08
   53.2500000       5.06797448E-08
   53.4000015       5.81264850E-08
   53.5499992       6.24872669E-08
   53.7000008       6.34367368E-08
   53.8499985       6.09733632E-08
   54.0000000       5.54112383E-08
   54.1500015       4.73420805E-08
   54.2999992       3.75723559E-08
   54.4500008       2.70422085E-08
   54.5999985       1.67347647E-08
   54.7500000       7.58463692E-09
   54.9000015       3.94234090E-10
   55.0499992      -4.23468771E-09
   55.2000008      -5.94874194E-09
   55.3499985      -4.66655514E-09
   55.5000000      -5.77494608E-10
   55.6500015       5.88300875E-09
   55.7999992       1.40780294E-08
   55.9500008       2.32285213E-08
   56.0999985       3.24815304E-08
   56.2500000       4.09809040E-08
   56.4000015       4.79345879E-08
   56.5499992       5.26732826E-08
   56.7000008       5.46965246E-08
   56.8499985       5.37036016E-08
   57.0000000       4.96081860E-08
   57.1500015       4.25368363E-08
   57.2999992       3.28127854E-08
   57.4500008       2.09271800E-08
   57.5999985       7.50057172E-09
   57.7500000      -6.76222589E-09
   57.9000015      -2.11208118E-08
   58.0499992      -3.48483340E-08
   58.2000008      -4.72783803E-08
   58.3499985      -5.78470427E-08
   58.5000000      -6.61280950E-08
   58.6500015      -7.18594180E-08
   58.7999992      -7.49591891E-08
   58.9500008      -7.55307497E-08
   59.0999985      -7.38556096E-08
   59.2500000      -7.03743055E-08
   59.4000015      -6.56558612E-08
   59.5499992      -6.03570669E-08
   59.7000008      -5.51736399E-08
   59.8499985      -5.07862765E-08
   60.0000000      -4.78051128E-08
   60.1500015      -4.67168029E-08
   60.2999992      -4.78385900E-08
   60.4500008      -5.12836493E-08
   60.5999985      -5.69415342E-08
   60.7500000      -6.44764881E-08
   60.9000015      -7.33451770E-08
   61.0499992      -8.28337647E-08
   61.2000008      -9.21124013E-08
   61.3499985      -1.00303467E-07
   61.5000000      -1.06558375E-07
   61.6500015      -1.10136334E-07
   61.7999992      -1.10477906E-07
   61.9500008      -1.07266160E-07
   62.0999985      -1.00468760E-07
   62.2500000      -9.03558259E-08
   62.4000015      -7.74903768E-08
   62.5499992      -6.26905177E-08
   62.7000008      -4.69655426E-08
   62.8499985      -3.14304529E-08
   63.0000000      -1.72061387E-08
   63.1500015      -5.31415534E-09
   63.2999992       3.42394135E-09
   63.4500008       8.47250359E-09
   63.5999985       9.64376845E-09
   63.7500000       7.12861681E-09
   63.9000015       1.49153079E-09
   64.0500031      -6.37138386E-09
   64.1999969      -1.53088600E-08
   64.3499985      -2.40192950E-08
   64.5000000      -3.11747463E-08
   64.6500015      -3.55524747E-08
   64.8000031      -3.61612074E-08
   64.9499969      -3.23492237E-08
   65.0999985      -2.38827678E-08
   65.2500000      -1.09857528E-08
   65.4000015       5.66454927E-09
   65.5500031       2.49870027E-08
   65.6999969       4.55877434E-08
   65.8499985       6.58851960E-08
   66.0000000       8.42573797E-08
   66.1500015       9.91974716E-08
   66.3000031       1.09462114E-07
   66.4499969       1.14197633E-07
   66.5999985       1.13030836E-07
   66.7500000       1.06114648E-07
   66.9000015       9.41230951E-08
   67.0500031       7.81952352E-08
   67.1999969       5.98327077E-08
   67.3499985       4.07605896E-08
   67.5000000       2.27647305E-08
   67.6500015       7.52174234E-09
   67.8000031      -3.56164165E-09
   67.9499969      -9.48372314E-09
   68.0999985      -9.74386349E-09
   68.2500000      -4.38970504E-09
   68.4000015       5.98930550E-09
   68.5500031       2.03214903E-08
   68.6999969       3.71596833E-08
   68.8499985       5.48243904E-08
   69.0000000       7.15690973E-08
   69.1500015       8.57510898E-08
   69.3000031       9.59907283E-08
   69.4499969       1.01303520E-07
   69.5999985       1.01191851E-07
   69.7500000       9.56878452E-08
   69.9000015       8.53432596E-08
   70.0500031       7.11682446E-08
   70.1999969       5.45255112E-08
   70.3499985       3.69909472E-08
   70.5000000       2.01951380E-08
   70.6500015       5.66166225E-09
   70.8000031      -5.34158184E-09
   70.9499969      -1.19234516E-08
   71.0999985      -1.36513494E-08
   71.2500000      -1.05862359E-08
   71.4000015      -3.26809380E-09
   71.5500031       7.34597227E-09
   71.6999969       1.99840056E-08
   71.8499985       3.31911210E-08
   72.0000000       4.54774316E-08
   72.1500015       5.54671509E-08
   72.3000031       6.20340472E-08
   72.4499969       6.44101874E-08
   72.5999985       6.22576550E-08
   72.7500000       5.56969439E-08
   72.9000015       4.52899904E-08
   73.0500031       3.19803171E-08
   73.1999969       1.69970527E-08
   73.3499985       1.73280335E-09
   73.5000000      -1.23921620E-08
   73.6500015      -2.40659794E-08
   73.8000031      -3.22083231E-08
   73.9499969      -3.60690642E-08
   74.0999985      -3.52934926E-08
   74.2500000      -2.99487795E-08
   74.4000015      -2.05100932E-08
   74.5500031      -7.80890286E-09
   74.6999969       7.05056502E-09
   74.8499985       2.27977583E-08
   75.0000000       3.81143401E-08
   75.1500015       5.17532115E-08
   75.3000031       6.26468619E-08
   75.4499969       6.99952309E-08
   75.5999985       7.33257366E-08
   75.7500000       7.25210185E-08
   75.9000015       6.78132608E-08
   76.0500031       5.97471157E-08
   76.1999969       4.91162240E-08
   76.3499985       3.68805644E-08
   76.5000000       2.40731435E-08
   76.6500015       1.17053514E-08
   76.8000031       6.79605150E-10
   76.9499969      -8.28308266E-09
   77.0999985      -1.46949422E-08
   77.2500000      -1.83293061E-08
   77.4000015      -1.92235188E-08
   77.5500031      -1.76583317E-08
   77.6999969      -1.41172931E-08
   77.8499985      -9.23116783E-09
   78.0000000      -3.71344355E-09
   78.1500015       1.70672920E-09
   78.3000031       6.34803987E-09
   78.4499969       9.63174873E-09
   78.5999985       1.11235767E-08
   78.7500000       1.05602123E-08
   78.9000015       7.85943666E-09
   79.0500031       3.11437942E-09
   79.1999969      -3.42628126E-09
   79.3499985      -1.13893321E-08
   79.5000000      -2.03157722E-08
   79.6500015      -2.97034628E-08
   79.8000031      -3.90499615E-08
   79.9499969      -4.78920867E-08
   80.0999985      -5.58394611E-08
   80.2500000      -6.25998098E-08
   80.4000015      -6.79948613E-08
   80.5500031      -7.19662694E-08
   80.6999969      -7.45718722E-08
   80.8499985      -7.59732046E-08
   81.0000000      -7.64157306E-08
   81.1500015      -7.62036549E-08
   81.3000031      -7.56714016E-08
   81.4499969      -7.51539346E-08
   81.5999985      -7.49581517E-08
   81.7500000      -7.53371907E-08
   81.9000015      -7.64696182E-08
   82.0500031      -7.84446641E-08
   82.1999969      -8.12545977E-08
   82.3499985      -8.47946282E-08
   82.5000000      -8.88704221E-08
   82.6500015      -9.32125346E-08
   82.8000031      -9.74969510E-08
   82.9499969      -1.01370162E-07
   83.0999985      -1.04477039E-07
   83.2500000      -1.06489566E-07
   83.4000015      -1.07134213E-07
   83.5500031      -1.06215857E-07
   83.6999969      -1.03636410E-07
   83.8499985      -9.94063214E-08
   84.0000000      -9.36480191E-08
   84.1500015      -8.65905037E-08
   84.3000031      -7.85552103E-08
   84.4499969      -6.99338472E-08
   84.5999985      -6.11596249E-08
   84.7500000      -5.26739150E-08
   84.9000015      -4.48907649E-08
   85.0500031      -3.81621987E-08
   85.1999969      -3.27471916E-08
   85.3499985      -2.87871647E-08
   85.5000000      -2.62903956E-08
   85.6500015      -2.51272585E-08
   85.8000031      -2.50372114E-08
   85.9499969      -2.56476014E-08
   86.0999985      -2.65032494E-08
   86.2500000      -2.71047309E-08
   86.4000015      -2.69523497E-08
   86.5500031      -2.55920707E-08
   86.6999969      -2.26592540E-08
   86.8499985      -1.79160065E-08
   87.0000000      -1.12783205E-08
   87.1500015      -2.82993096E-09
   87.3000031       7.17909865E-09
   87.4499969       1.83495530E-08
   87.5999985       3.01651149E-08
   87.7500000       4.20367279E-08
   87.9000015       5.33554783E-08
   88.0500031       6.35490309E-08
   88.1999969       7.21361602E-08
   88.3499985       7.87738301E-08
   88.5000000       8.32916101E-08
   88.6500015       8.57096367E-08
   88.8000031       8.62375131E-08
   88.9499969       8.52536317E-08
   89.0999985       8.32663147E-08
   89.2500000       8.08603247E-08
   89.4000015       7.86337111E-08
   89.5500031       7.71316238E-08
   89.6999969       7.67837989E-08
   89.8499985       7.78528459E-08
   90.0000000       8.03992037E-08
   90.1500015       8.42672634E-08
   90.3000031       8.90951171E-08
   90.4499969       9.43476479E-08
   90.5999985       9.93705953E-08
   90.7500000       1.03460366E-07
   90.9000015       1.05942831E-07
   91.0500031       1.06252799E-07
   91.1999969       1.04005593E-07
   91.3499985       9.90524782E-08
   91.5000000       9.15132503E-08
   91.6500015       8.17812023E-08
   91.8000031       7.04987357E-08
   91.9499969       5.85047069E-08
   92.0999985       4.67579042E-08
   92.2500000       3.62436161E-08
   92.4000015       2.78725754E-08
   92.5500031       2.23826149E-08
   92.6999969       2.02536050E-08
   92.8499985       2.16453522E-08
   93.0000000       2.63659441E-08
   93.1500015       3.38753026E-08
   93.3000031       4.33250058E-08
   93.4499969       5.36317728E-08
   93.5999985       6.35782769E-08
   93.7500000       7.19318720E-08
   93.9000015       7.75695383E-08
   94.0500031       7.95963544E-08
   94.1999969       7.74447884E-08
   94.3499985       7.09440542E-08
   94.5000000       6.03510344E-08
   94.6500015       4.63384673E-08
   94.8000031       2.99401606E-08
   94.9499969       1.24574999E-08
   95.0999985      -4.66421790E-09
   95.2500000      -1.99777404E-08
   95.4000015      -3.21799831E-08
   95.5500031      -4.02473539E-08
   95.6999969      -4.35460663E-08
   95.8499985      -4.19054231E-08
   96.0000000      -3.56455985E-08
   96.1500015      -2.55560941E-08
   96.3000031      -1.28258764E-08
   96.4499969       1.06858955E-09
   96.5999985       1.45068242E-08
   96.7500000       2.58851802E-08
   96.9000015       3.37789174E-08
   97.0500031       3.70888955E-08
   97.1999969       3.51576404E-08
   97.3499985       2.78423311E-08
   97.5000000       1.55367079E-08
   97.6500015      -8.61140714E-10
   97.8000031      -2.00324397E-08
   97.9499969      -4.03649238E-08
   98.0999985      -6.01110131E-08
   98.2500000      -7.75610687E-08
   98.4000015      -9.12141758E-08
   98.5500031      -9.99289327E-08
   98.6999969      -1.03038602E-07
   98.8499985      -1.00418717E-07
   99.0000000      -9.24998673E-08
   99.1500015      -8.02240052E-08
   99.3000031      -6.49487504E-08
   99.4499969      -4.83090261E-08
   99.5999985      -3.20503837E-08
   99.7500000      -1.78509509E-08
   99.9000015      -7.15036119E-09
   100.050003      -1.00334807E-09
   100.199997       2.68607098E-11
   100.349998      -4.07565492E-09
   100.500000      -1.27803643E-08
   100.650002      -2.50676369E-08
   100.800003      -3.95365838E-08
   100.949997      -5.45521779E-08
   101.099998      -6.84162416E-08
   101.250000      -7.95445061E-08
   101.400002      -8.66312959E-08
   101.550003      -8.87847378E-08
   101.699997      -8.56185736E-08
   101.849998      -7.72911335E-08
   102.000000      -6.44877574E-08
   102.150002      -4.83488343E-08
   102.300003      -3.03512522E-08
   102.449997      -1.21560371E-08
   102.599998       4.56166172E-09
   102.750000       1.82823321E-08
   102.900002       2.77938863E-08
   103.050003       3.23097780E-08
   103.199997       3.15415747E-08
   103.349998       2.57189612E-08
   103.500000       1.55559032E-08
   103.650002       2.16746576E-09
   103.800003      -1.30531275E-08
   103.949997      -2.85833774E-08
   104.099998      -4.29300790E-08
   104.250000      -5.47804717E-08
   104.400002      -6.31300381E-08
   104.550003      -6.73738469E-08
   104.699997      -6.73525378E-08
   104.849998      -6.33491766E-08
   105.000000      -5.60385836E-08
   105.150002      -4.63960745E-08
   105.300003      -3.55766652E-08
   105.449997      -2.47789327E-08
   105.599998      -1.51091140E-08
   105.750000      -7.46054596E-09
   105.900002      -2.42163334E-09
   106.050003      -2.21926574E-10
   106.199997      -7.21451288E-10
   106.349998      -3.44338935E-09
   106.500000      -7.64526842E-09
   106.650002      -1.24195276E-08
   106.800003      -1.68111001E-08
   106.949997      -1.99379500E-08
   107.099998      -2.11003002E-08
   107.250000      -1.98659791E-08
   107.400002      -1.61220388E-08
   107.550003      -1.00870396E-08
   107.699997      -2.28293406E-09
   107.849998       6.52976162E-09
   108.000000       1.54455524E-08
   108.150002       2.35250361E-08
   108.300003       2.99101401E-08
   108.449997       3.39298332E-08
   108.599998       3.51836391E-08
   108.750000       3.35929293E-08
   108.900002       2.94137408E-08
   109.050003       2.32092976E-08
   109.199997       1.57852131E-08
   109.349998       8.09471778E-09
   109.500000       1.12484977E-09
   109.650002      -4.22305613E-09
   109.800003      -7.24449079E-09
   109.949997      -7.52112950E-09
   110.099998      -4.97747354E-09
   110.250000       1.02577072E-10
   110.400002       7.10195946E-09
   110.550003       1.51373438E-08
   110.699997       2.31597141E-08
   110.849998       3.00776257E-08
   111.000000       3.48892506E-08
   111.150002       3.68079682E-08
   111.300003       3.53667637E-08
   111.449997       3.04885148E-08
   111.599998       2.25132712E-08
   111.750000       1.21778880E-08
   111.900002       5.49114865E-10
   112.050003      -1.10836593E-08
   112.199997      -2.13449258E-08
   112.349998      -2.89241999E-08
   112.500000      -3.27250014E-08
   112.650002      -3.19948761E-08
   112.800003      -2.64211817E-08
   112.949997      -1.61809979E-08
   113.099998      -1.93829752E-09
   113.250000       1.52127200E-08
   113.400002       3.38531976E-08
   113.550003       5.23836370E-08
   113.699997       6.91913229E-08
   113.849998       8.28232345E-08
   114.000000       9.21454983E-08
   114.150002       9.64714033E-08
   114.300003       9.56433510E-08
   114.449997       9.00585704E-08
   114.599998       8.06347487E-08
   114.750000       6.87178741E-08
   114.900002       5.59414985E-08
   115.050003       4.40516068E-08
   115.199997       3.47156721E-08
   115.349998       2.93364852E-08
   115.500000       2.88910549E-08
   115.650002       3.38126220E-08
   115.800003       4.39294041E-08
   115.949997       5.84677373E-08
   116.099998       7.61203225E-08
   116.250000       9.51734478E-08
   116.400002       1.13680279E-07
   116.550003       1.29662425E-07
   116.699997       1.41318438E-07
   116.849998       1.47217051E-07
   117.000000       1.46454127E-07
   117.150002       1.38755965E-07
   117.300003       1.24517413E-07
   117.449997       1.04769526E-07
   117.599998       8.10796763E-08
   117.750000       5.53938939E-08
   117.900002       2.98377074E-08
   118.050003       6.49627241E-09
   118.199997      -1.28028530E-08
   118.349998      -2.66810574E-08
