  -1.50000000       0.00000000    
  -1.35000002       0.00000000    
  -1.20000005       0.00000000    
  -1.04999995       0.00000000    
 -0.899999976       0.00000000    
 -0.750000000       0.00000000    
 -0.600000024       0.00000000    
 -0.449999988       0.00000000    
 -0.300000012       0.00000000    
 -0.150000006       0.00000000    
  -5.55111512E-17   0.00000000    
  0.150000006       0.00000000    
  0.300000012       0.00000000    
  0.449999988       0.00000000    
  0.600000024       0.00000000    
  0.750000000       0.00000000    
  0.899999976       0.00000000    
   1.04999995       0.00000000    
   1.20000005       0.00000000    
   1.35000002       0.00000000    
   1.50000000       0.00000000    
   1.64999998       0.00000000    
   1.79999995       0.00000000    
   1.95000005       0.00000000    
   2.09999990       0.00000000    
   2.25000000       0.00000000    
   2.40000010       0.00000000    
   2.54999995       0.00000000    
   2.70000005       0.00000000    
   2.84999990       0.00000000    
   3.00000000       0.00000000    
   3.15000010       0.00000000    
   3.29999995       0.00000000    
   3.45000005       0.00000000    
   3.59999990       0.00000000    
   3.75000000       0.00000000    
   3.90000010       2.52233724E-43
   4.05000019      -1.13505176E-42
   4.19999981      -1.25135953E-41
   4.34999990      -2.99723729E-41
   4.50000000      -5.92917406E-41
   4.65000010      -1.01189163E-40
   4.80000019      -1.48153681E-40
   4.94999981      -1.34391529E-40
   5.09999990      -6.54112110E-41
   5.25000000       8.06307136E-41
   5.40000010       2.48637992E-40
   5.55000019       4.60218646E-40
   5.69999981       8.57335420E-40
   5.84999990       1.19741094E-39
   6.00000000       9.54037626E-40
   6.15000010      -2.32202162E-40
   6.30000019      -1.53908534E-39
   6.44999981      -3.59784081E-39
   6.59999990      -4.58149768E-39
   6.75000000      -6.23957428E-39
   6.90000010      -1.13453356E-38
   7.05000019      -2.11400012E-38
   7.19999981      -4.15709343E-38
   7.34999990      -8.22347632E-38
   7.50000000      -1.58430132E-37
   7.65000010      -2.83374791E-37
   7.80000019      -4.64712587E-37
   7.94999981      -6.86063128E-37
   8.10000038      -9.00882451E-37
   8.25000000      -1.00714338E-36
   8.39999962      -8.22765869E-37
   8.55000019      -6.77252929E-38
   8.69999981       1.60980073E-36
   8.85000038       4.60278359E-36
   9.00000000       9.21513816E-36
   9.14999962       1.54817313E-35
   9.30000019       2.28551588E-35
   9.44999981       2.98509357E-35
   9.60000038       3.36526469E-35
   9.75000000       2.98492454E-35
   9.89999962       1.24456010E-35
   10.0500002      -2.55441695E-35
   10.1999998      -9.06402687E-35
   10.3500004      -1.86348054E-34
   10.5000000      -3.09423679E-34
   10.6499996      -4.45229138E-34
   10.8000002      -5.62952234E-34
   10.9499998      -6.12130280E-34
   11.1000004      -5.22596962E-34
   11.2500000      -2.10455113E-34
   11.3999996       4.07265676E-34
   11.5500002       1.38742542E-33
   11.6999998       2.72507196E-33
   11.8500004       4.31048121E-33
   12.0000000       5.88643967E-33
   12.1499996       7.01825890E-33
   12.3000002       7.09344278E-33
   12.4499998       5.37047994E-33
   12.6000004       1.09452327E-33
   12.7500000      -6.30951589E-33
   12.8999996      -1.69708823E-32
   13.0500002      -3.02606100E-32
   13.1999998      -4.44878768E-32
   13.3500004      -5.66900606E-32
   13.5000000      -6.26257134E-32
   13.6499996      -5.70893878E-32
   13.8000002      -3.46506582E-32
   13.9499998       9.13213790E-33
   14.1000004       7.60663158E-32
   14.2500000       1.63422820E-31
   14.3999996       2.62111824E-31
   14.5500002       3.55426845E-31
   14.6999998       4.18963537E-31
   14.8500004       4.22339839E-31
   15.0000000       3.33221827E-31
   15.1499996       1.23846664E-31
   15.3000002      -2.20274687E-31
   15.4499998      -6.90473909E-31
   15.6000004      -1.24561908E-30
   15.7500000      -1.80583523E-30
   15.8999996      -2.25211966E-30
   16.0499992      -2.43464516E-30
   16.2000008      -2.19176771E-30
   16.3500004      -1.38016983E-30
   16.5000000       8.58086014E-32
   16.6499996       2.19052545E-30
   16.7999992       4.77696905E-30
   16.9500008       7.52060747E-30
   17.1000004       9.92855631E-30
   17.2500000       1.13743813E-29
   17.3999996       1.11750295E-29
   17.5499992       8.70965255E-30
   17.7000008       3.57089003E-30
   17.8500004      -4.27127552E-30
   18.0000000      -1.43229153E-29
   18.1499996      -2.54735742E-29
   18.2999992      -3.59958774E-29
   18.4500008      -4.36692849E-29
   18.6000004      -4.60447269E-29
   18.7500000      -4.08432144E-29
   18.8999996      -2.64515464E-29
   19.0499992      -2.44658818E-30
   19.2000008       2.99476058E-29
   19.3500004       6.75811646E-29
   19.5000000       1.05386862E-28
   19.6499996       1.36757926E-28
   19.7999992       1.54326656E-28
   19.9500008       1.51103480E-28
   20.1000004       1.21851782E-28
   20.2500000       6.44930924E-29
   20.3999996      -1.87237420E-29
   20.5499992      -1.20577033E-28
   20.7000008      -2.29004024E-28
   20.8500004      -3.28168038E-28
   21.0000000      -4.00463717E-28
   21.1499996      -4.29268503E-28
   21.2999992      -4.02046109E-28
   21.4500008      -3.13240420E-28
   21.6000004      -1.66317255E-28
   21.7500000       2.56460081E-29
   21.8999996       2.41228239E-28
   22.0499992       4.53853817E-28
   22.2000008       6.36522639E-28
   22.3500004       7.67227223E-28
   22.5000000       8.33818562E-28
   22.6499996       8.36900050E-28
   22.7999992       7.89470895E-28
   22.9500008       7.12559798E-28
   23.1000004       6.26981149E-28
   23.2500000       5.42498980E-28
   23.3999996       4.46873381E-28
   23.5499992       2.98208730E-28
   23.7000008       2.43677760E-29
   23.8500004      -4.67318716E-28
   24.0000000      -1.26840928E-27
   24.1499996      -2.43675667E-27
   24.2999992      -3.95724986E-27
   24.4500008      -5.70361957E-27
   24.6000004      -7.41174418E-27
   24.7500000      -8.67600933E-27
   24.8999996      -8.97889648E-27
   25.0499992      -7.75976049E-27
   25.2000008      -4.52159163E-27
   25.3500004       1.03454495E-27
   25.5000000       8.86744677E-27
   25.6499996       1.84742750E-26
   25.7999992       2.88220686E-26
   25.9500008       3.83629591E-26
   26.1000004       4.51548697E-26
   26.2500000       4.70932797E-26
   26.3999996       4.22382968E-26
   26.5499992       2.91977851E-26
   26.7000008       7.50710852E-27
   26.8500004      -2.20662345E-26
   27.0000000      -5.73641531E-26
   27.1499996      -9.48806460E-26
   27.2999992      -1.30029718E-25
   27.4500008      -1.57621398E-25
   27.6000004      -1.72484055E-25
   27.7500000      -1.70135148E-25
   27.8999996      -1.47383253E-25
   28.0499992      -1.02752633E-25
   28.2000008      -3.66588162E-26
   28.3500004       4.86739135E-26
   28.5000000       1.49485296E-25
   28.6499996       2.60805649E-25
   28.7999992       3.76657515E-25
   28.9500008       4.89965107E-25
   29.1000004       5.92076496E-25
   29.2500000       6.71942401E-25
   29.3999996       7.15176317E-25
   29.5499992       7.03409618E-25
   29.7000008       6.14496958E-25
   29.8500004       4.24163360E-25
   30.0000000       1.09562229E-25
   30.1499996      -3.45092848E-25
   30.2999992      -9.41145474E-25
   30.4500008      -1.65728691E-24
   30.6000004      -2.44206389E-24
   30.7500000      -3.20913349E-24
   30.8999996      -3.83749434E-24
   31.0499992      -4.17868496E-24
   31.2000008      -4.07217770E-24
   31.3500004      -3.36892674E-24
   31.5000000      -1.96131805E-24
   31.6499996       1.84074357E-25
   31.7999992       2.99621146E-24
   31.9500008       6.27820631E-24
   32.0999985       9.70139642E-24
   32.2500000       1.28203678E-23
   32.4000015       1.51119749E-23
   32.5499992       1.60377678E-23
   32.7000008       1.51248033E-23
   32.8499985       1.20552091E-23
   33.0000000       6.75109529E-24
   33.1500015      -5.60866397E-25
   33.2999992      -9.32061642E-24
   33.4500008      -1.86540171E-23
   33.5999985      -2.74466639E-23
   33.7500000      -3.44701608E-23
   33.9000015      -3.85492532E-23
   34.0499992      -3.87486394E-23
   34.2000008      -3.45511799E-23
   34.3499985      -2.59954312E-23
   34.5000000      -1.37423088E-23
   34.6500015       9.52068239E-25
   34.7999992       1.63673129E-23
   34.9500008       3.05464960E-23
   35.0999985       4.15952566E-23
   35.2500000       4.80097055E-23
   35.4000015       4.89784519E-23
   35.5499992       4.45999962E-23
   35.7000008       3.59624837E-23
   35.8499985       2.50493851E-23
   36.0000000       1.44605872E-23
   36.1500015       6.97042466E-24
   36.2999992       4.97771113E-24
   36.4500008       9.93173355E-24
   36.5999985       2.18369036E-23
   36.7500000       3.89417115E-23
   36.9000015       5.77026382E-23
   37.0499992       7.30793738E-23
   37.2000008       7.91685217E-23
   37.3499985       7.01241935E-23
   37.5000000       4.12549546E-23
   37.6500015      -9.86221440E-24
   37.7999992      -8.24390759E-23
   37.9500008      -1.71893271E-22
   38.0999985      -2.69782756E-22
   38.2500000      -3.64351073E-22
   38.4000015      -4.41689708E-22
   38.5499992      -4.87420821E-22
   38.7000008      -4.88704960E-22
   38.8499985      -4.36298848E-22
   39.0000000      -3.26343502E-22
   39.1500015      -1.61570818E-22
   39.2999992       4.83273766E-23
   39.4500008       2.87310235E-22
   39.5999985       5.34575013E-22
   39.7500000       7.66950262E-22
   39.9000015       9.61769320E-22
   40.0499992       1.09978388E-21
   40.2000008       1.16762622E-21
   40.3499985       1.15936350E-21
   40.5000000       1.07680831E-21
   40.6500015       9.28454298E-22
   40.7999992       7.27156483E-22
   40.9500008       4.86943617E-22
   41.0999985       2.19579723E-22
   41.2500000      -6.83677663E-23
   41.4000015      -3.77177345E-22
   41.5499992      -7.13707780E-22
   41.7000008      -1.08887453E-21
   41.8499985      -1.51294171E-21
   42.0000000      -1.98919166E-21
   42.1500015      -2.50700046E-21
   42.2999992      -3.03572235E-21
   42.4500008      -3.52095446E-21
   42.5999985      -3.88466149E-21
   42.7500000      -4.03025780E-21
   42.9000015      -3.85304768E-21
   43.0499992      -3.25555004E-21
   43.2000008      -2.16622164E-21
   43.3499985      -5.59148346E-22
   43.5000000       1.52841803E-21
   43.6500015       3.98412229E-21
   43.7999992       6.61739078E-21
   43.9500008       9.16755468E-21
   44.0999985       1.13242876E-20
   44.2500000       1.27596552E-20
   44.4000015       1.31691120E-20
   44.5499992       1.23169124E-20
   44.7000008       1.00799333E-20
   44.8499985       6.48320051E-21
   45.0000000       1.72056576E-21
   45.1500015      -3.84473993E-21
   45.2999992      -9.70270338E-21
   45.4500008      -1.52422988E-20
   45.5999985      -1.98169986E-20
   45.7500000      -2.28232443E-20
   45.9000015      -2.37823280E-20
   46.0499992      -2.24145460E-20
   46.2000008      -1.86942544E-20
   46.3499985      -1.28760824E-20
   46.5000000      -5.48567765E-21
   46.6500015       2.72711795E-21
   46.7999992       1.08695281E-20
   46.9500008       1.80130243E-20
   47.0999985       2.33134943E-20
   47.2500000       2.61282574E-20
   47.4000015       2.61130693E-20
   47.5499992       2.32836447E-20
   47.7000008       1.80302561E-20
   47.8499985       1.10799009E-20
   48.0000000       3.40778096E-21
   48.1500015      -3.89264411E-21
   48.2999992      -9.76499799E-21
   48.4500008      -1.33499188E-20
   48.5999985      -1.41265598E-20
   48.7500000      -1.20137515E-20
   48.9000015      -7.41320961E-21
   49.0499992      -1.18432230E-21
   49.2000008       5.45094818E-21
   49.3499985       1.10646231E-20
   49.5000000       1.42232705E-20
   49.6500015       1.37078077E-20
   49.7999992       8.72366808E-21
   49.9500008      -9.27940339E-22
   50.0999985      -1.47434944E-20
   50.2500000      -3.14940908E-20
   50.4000015      -4.92948334E-20
   50.5499992      -6.57645875E-20
   50.7000008      -7.82626985E-20
   50.8499985      -8.41798057E-20
   51.0000000      -8.12524588E-20
   51.1500015      -6.78679914E-20
   51.2999992      -4.33260241E-20
   51.4500008      -8.02711657E-21
   51.5999985       3.64341233E-20
   51.7500000       8.72850676E-20
   51.9000015       1.40703875E-19
   52.0499992       1.92054756E-19
   52.2000008       2.36214452E-19
   52.3499985       2.67967667E-19
   52.5000000       2.82444310E-19
   52.6500015       2.75567285E-19
   52.7999992       2.44479951E-19
   52.9500008       1.87920430E-19
   53.0999985       1.06513333E-19
   53.2500000       2.95024447E-21
   53.4000015      -1.17965080E-19
   53.5499992      -2.49425922E-19
   53.7000008      -3.82898597E-19
   53.8499985      -5.08567391E-19
   54.0000000      -6.15939157E-19
   54.1500015      -6.94583819E-19
   54.2999992      -7.34969206E-19
   54.4500008      -7.29335331E-19
   54.5999985      -6.72535733E-19
   54.7500000      -5.62764678E-19
   54.9000015      -4.02085051E-19
   55.0499992      -1.96676304E-19
   55.2000008       4.32613554E-20
   55.3499985       3.03985721E-19
   55.5000000       5.69076790E-19
   55.6500015       8.20646248E-19
   55.7999992       1.04080869E-18
   55.9500008       1.21328609E-18
   56.0999985       1.32498638E-18
   56.2500000       1.36737712E-18
   56.4000015       1.33747495E-18
   56.5499992       1.23829837E-18
   56.7000008       1.07867185E-18
   56.8499985       8.72343123E-19
   57.0000000       6.36449514E-19
   57.1500015       3.89460879E-19
   57.2999992       1.48807763E-19
   57.4500008      -7.15315808E-20
   57.5999985      -2.63169838E-19
   57.7500000      -4.24857669E-19
   57.9000015      -5.63159657E-19
   58.0499992      -6.92056317E-19
   58.2000008      -8.31386567E-19
   58.3499985      -1.00418517E-18
   58.5000000      -1.23312043E-18
   58.6500015      -1.53638376E-18
   58.7999992      -1.92349560E-18
   58.9500008      -2.39156506E-18
   59.0999985      -2.92254698E-18
   59.2500000      -3.48198991E-18
   59.4000015      -4.01962918E-18
   59.5499992      -4.47200681E-18
   59.7000008      -4.76706544E-18
   59.8499985      -4.83041962E-18
   60.0000000      -4.59277973E-18
   60.1500015      -3.99782098E-18
   60.2999992      -3.00966274E-18
   60.4500008      -1.61911516E-18
   60.5999985       1.52087457E-19
   60.7500000       2.24965582E-18
   60.9000015       4.58804950E-18
   61.0499992       7.05473393E-18
   61.2000008       9.51707029E-18
   61.3499985       1.18311990E-17
   61.5000000       1.38520526E-17
   61.6500015       1.54434687E-17
   61.7999992       1.64873755E-17
   61.9500008       1.68911274E-17
   62.0999985       1.65923249E-17
   62.2500000       1.55607579E-17
   62.4000015       1.37975488E-17
   62.5499992       1.13319128E-17
   62.7000008       8.21628659E-18
   62.8499985       4.52084066E-18
   63.0000000       3.28387239E-19
   63.1500015      -4.26933515E-18
   63.2999992      -9.17331471E-18
   63.4500008      -1.42765583E-17
   63.5999985      -1.94611858E-17
   63.7500000      -2.45939954E-17
   63.9000015      -2.95215764E-17
   64.0500031      -3.40663582E-17
   64.1999969      -3.80250825E-17
   64.3499985      -4.11710125E-17
   64.5000000      -4.32608942E-17
   64.6500015      -4.40470930E-17
   64.8000031      -4.32945075E-17
   64.9499969      -4.08013091E-17
   65.0999985      -3.64215465E-17
   65.2500000      -3.00873448E-17
   65.4000015      -2.18278769E-17
   65.5500031      -1.17825120E-17
   65.6999969      -2.05691113E-19
   65.8499985       1.25380232E-17
   66.0000000       2.59893581E-17
   66.1500015       3.96196286E-17
   66.3000031       5.28640674E-17
   66.4499969       6.51602395E-17
   66.5999985       7.59876102E-17
   66.7500000       8.49039754E-17
   66.9000015       9.15744392E-17
   67.0500031       9.57890634E-17
   67.1999969       9.74666850E-17
   67.3499985       9.66436601E-17
   67.5000000       9.34483143E-17
   67.6500015       8.80636862E-17
   67.8000031       8.06830845E-17
   67.9499969       7.14641764E-17
   68.0999985       6.04883698E-17
   68.2500000       4.77321164E-17
   68.4000015       3.30562449E-17
   68.5500031       1.62175228E-17
   68.6999969      -3.09543558E-18
   68.8499985      -2.52028201E-17
   69.0000000      -5.03547852E-17
   69.1500015      -7.86401336E-17
   69.3000031      -1.09892274E-16
   69.4499969      -1.43603663E-16
   69.5999985      -1.78860973E-16
   69.7500000      -2.14312438E-16
   69.9000015      -2.48176895E-16
   70.0500031      -2.78300880E-16
   70.1999969      -3.02265401E-16
   70.3499985      -3.17539549E-16
   70.5000000      -3.21672091E-16
   70.6500015      -3.12507565E-16
   70.8000031      -2.88409239E-16
   70.9499969      -2.48467983E-16
   71.0999985      -1.92675921E-16
   71.2500000      -1.22044186E-16
   71.4000015      -3.86476418E-17
   71.5500031       5.44150377E-17
   71.6999969       1.53151008E-16
   71.8499985       2.52888833E-16
   72.0000000       3.48568696E-16
   72.1500015       4.35086758E-16
   72.3000031       5.07667397E-16
   72.4499969       5.62231777E-16
   72.5999985       5.95729495E-16
   72.7500000       6.06401263E-16
   72.9000015       5.93944426E-16
   73.0500031       5.59560818E-16
   73.1999969       5.05877140E-16
   73.3499985       4.36737017E-16
   73.5000000       3.56879809E-16
   73.6500015       2.71528296E-16
   73.8000031       1.85922170E-16
   73.9499969       1.04836745E-16
   74.0999985       3.21332206E-17
   74.2500000      -2.96160008E-17
   74.4000015      -7.93874946E-17
   74.5500031      -1.17822640E-16
   74.6999969      -1.47181940E-16
   74.8499985      -1.71134643E-16
   75.0000000      -1.94397476E-16
   75.1500015      -2.22249931E-16
   75.3000031      -2.59967620E-16
   75.4499969      -3.12224126E-16
   75.5999985      -3.82515923E-16
   75.7500000      -4.72667096E-16
   75.9000015      -5.82460353E-16
   76.0500031      -7.09434933E-16
   76.1999969      -8.48873920E-16
   76.3499985      -9.93987234E-16
   76.5000000      -1.13627913E-15
   76.6500015      -1.26607010E-15
   76.8000031      -1.37312935E-15
   76.9499969      -1.44736405E-15
   77.0999985      -1.47950578E-15
   77.2500000      -1.46173598E-15
   77.4000015      -1.38819870E-15
   77.5500031      -1.25536191E-15
   77.6999969      -1.06220346E-15
   77.8499985      -8.10217454E-16
   78.0000000      -5.03252873E-16
   78.1500015      -1.47216457E-16
   78.3000031       2.50318353E-16
   78.4499969       6.80544704E-16
   78.5999985       1.13384540E-15
   78.7500000       1.60015705E-15
   78.9000015       2.06923521E-15
   79.0500031       2.53080040E-15
   79.1999969       2.97455546E-15
   79.3499985       3.39009013E-15
   79.5000000       3.76670004E-15
   79.6500015       4.09316940E-15
   79.8000031       4.35757074E-15
   79.9499969       4.54713502E-15
   80.0999985       4.64825550E-15
   80.2500000       4.64666139E-15
   80.4000015       4.52780022E-15
   80.5500031       4.27742999E-15
   80.6999969       3.88241744E-15
   80.8499985       3.33170754E-15
   81.0000000       2.61740846E-15
   81.1500015       1.73592880E-15
   81.3000031       6.89085072E-16
   81.4499969      -5.14904552E-16
   81.5999985      -1.86061862E-15
   81.7500000      -3.32490078E-15
   81.9000015      -4.87665794E-15
   82.0500031      -6.47702590E-15
   82.1999969      -8.07993538E-15
   82.3499985      -9.63307955E-15
   82.5000000      -1.10792596E-14
   82.6500015      -1.23580786E-14
   82.8000031      -1.34079361E-14
   82.9499969      -1.41682490E-14
   83.0999985      -1.45818297E-14
   83.2500000      -1.45973355E-14
   83.4000015      -1.41717006E-14
   83.5500031      -1.32724608E-14
   83.6999969      -1.18798785E-14
   83.8499985      -9.98878087E-15
   84.0000000      -7.61001759E-15
   84.1500015      -4.77146831E-15
   84.3000031      -1.51852181E-15
   84.4499969       2.08601832E-15
   84.5999985       5.96265116E-15
   84.7500000       1.00165280E-14
   84.9000015       1.41394210E-14
   85.0500031       1.82122926E-14
   85.1999969       2.21083900E-14
   85.3499985       2.56967841E-14
   85.5000000       2.88462254E-14
   85.6500015       3.14292253E-14
   85.8000031       3.33261759E-14
   85.9499969       3.44294058E-14
   86.0999985       3.46470187E-14
   86.2500000       3.39063867E-14
   86.4000015       3.21572365E-14
   86.5500031       2.93742081E-14
   86.6999969       2.55588719E-14
   86.8499985       2.07411721E-14
   87.0000000       1.49803011E-14
   87.1500015       8.36499246E-15
   87.3000031       1.01326772E-15
   87.4499969      -6.92838053E-15
   87.5999985      -1.52864053E-14
   87.7500000      -2.38622242E-14
   87.9000015      -3.24349719E-14
   88.0500031      -4.07650259E-14
   88.1999969      -4.85984476E-14
   88.3499985      -5.56724331E-14
   88.5000000      -6.17218272E-14
   88.6500015      -6.64867263E-14
   88.8000031      -6.97211657E-14
   88.9499969      -7.12026737E-14
   89.0999985      -7.07424367E-14
   89.2500000      -6.81958288E-14
   89.4000015      -6.34725494E-14
   89.5500031      -5.65461374E-14
   89.6999969      -4.74619056E-14
   89.8499985      -3.63428160E-14
   90.0000000      -2.33926207E-14
   90.1500015      -8.89570264E-15
   90.3000031       6.78674815E-15
   90.4499969       2.32244796E-14
   90.5999985       3.99297803E-14
   90.7500000       5.63726955E-14
   90.9000015       7.19993794E-14
   91.0500031       8.62527077E-14
   91.1999969       9.85943166E-14
   91.3499985       1.08526991E-13
   91.5000000       1.15616040E-13
   91.6500015       1.19508814E-13
   91.8000031       1.19951127E-13
   91.9499969       1.16799650E-13
   92.0999985       1.10029864E-13
   92.2500000       9.97390443E-14
   92.4000015       8.61442062E-14
   92.5500031       6.95754150E-14
   92.6999969       5.04647322E-14
   92.8499985       2.93317887E-14
   93.0000000       6.76661291E-15
   93.1500015      -1.65891826E-14
   93.3000031      -4.00620224E-14
   93.4499969      -6.29659695E-14
   93.5999985      -8.46215527E-14
   93.7500000      -1.04373494E-13
   93.9000015      -1.21606921E-13
   94.0500031      -1.35762075E-13
   94.1999969      -1.46347656E-13
   94.3499985      -1.52952913E-13
   94.5000000      -1.55258903E-13
   94.6500015      -1.53048852E-13
   94.8000031      -1.46218107E-13
   94.9499969      -1.34783244E-13
   95.0999985      -1.18890209E-13
   95.2500000      -9.88210504E-14
   95.4000015      -7.49982284E-14
   95.5500031      -4.79859377E-14
   95.6999969      -1.84871666E-14
   95.8499985       1.26643860E-14
   96.0000000       4.45183915E-14
   96.1500015       7.60286338E-14
   96.3000031       1.06080699E-13
   96.4499969       1.33526396E-13
   96.5999985       1.57224345E-13
   96.7500000       1.76085343E-13
   96.9000015       1.89121031E-13
   97.0500031       1.95493510E-13
   97.1999969       1.94563495E-13
   97.3499985       1.85934330E-13
   97.5000000       1.69488921E-13
   97.6500015       1.45417234E-13
   97.8000031       1.14231907E-13
   97.9499969       7.67702416E-14
   98.0999985       3.41814555E-14
   98.2500000      -1.21012387E-14
   98.4000015      -6.04033154E-14
   98.5500031      -1.08865004E-13
   98.6999969      -1.55508974E-13
   98.8499985      -1.98316624E-13
   99.0000000      -2.35310117E-13
   99.1500015      -2.64636078E-13
   99.3000031      -2.84647685E-13
   99.4499969      -2.93980958E-13
   99.5999985      -2.91622141E-13
   99.7500000      -2.76962643E-13
   99.9000015      -2.49839618E-13
   100.050003      -2.10559651E-13
   100.199997      -1.59905292E-13
   100.349998      -9.91233801E-14
   100.500000      -2.98960516E-14
   100.650002       4.57043867E-14
   100.800003       1.25275306E-13
   100.949997       2.06155812E-13
   101.099998       2.85508813E-13
   101.250000       3.60410025E-13
   101.400002       4.27941509E-13
   101.550003       4.85286778E-13
   101.699997       5.29824828E-13
   101.849998       5.59220476E-13
   102.000000       5.71509528E-13
   102.150002       5.65175294E-13
   102.300003       5.39215591E-13
   102.449997       4.93198364E-13
   102.599998       4.27303565E-13
   102.750000       3.42350605E-13
   102.900002       2.39809366E-13
   103.050003       1.21793810E-13
   103.199997      -8.96296976E-15
   103.349998      -1.49153164E-13
   103.500000      -2.94958367E-13
   103.650002      -4.42133499E-13
   103.800003      -5.86110099E-13
   103.949997      -7.22116811E-13
   104.099998      -8.45316493E-13
   104.250000      -9.50955785E-13
   104.400002      -1.03452338E-12
   104.550003      -1.09191367E-12
   104.699997      -1.11958934E-12
   104.849998      -1.11473732E-12
   105.000000      -1.07541255E-12
   105.150002      -1.00066223E-12
   105.300003      -8.90624976E-13
   105.449997      -7.46599722E-13
   105.599998      -5.71077474E-13
   105.750000      -3.67733838E-13
   105.900002      -1.41378744E-13
   106.050003       1.02137970E-13
   106.199997       3.56064137E-13
   106.349998       6.12923991E-13
   106.500000       8.64733686E-13
   106.650002       1.10324770E-12
   106.800003       1.32022908E-12
   106.949997       1.50773296E-12
   107.099998       1.65839629E-12
   107.250000       1.76571941E-12
   107.400002       1.82433127E-12
   107.550003       1.83022629E-12
   107.699997       1.78096318E-12
   107.849998       1.67581519E-12
   108.000000       1.51586751E-12
   108.150002       1.30405289E-12
   108.300003       1.04512330E-12
   108.449997       7.45557695E-13
   108.599998       4.13405773E-13
   108.750000       5.80719216E-14
   108.900002      -3.09953777E-13
   109.050003      -6.79409925E-13
   109.199997      -1.03861353E-12
   109.349998      -1.37583358E-12
   109.500000      -1.67967582E-12
   109.650002      -1.93946747E-12
   109.800003      -2.14562591E-12
   109.949997      -2.29000304E-12
   110.099998      -2.36619079E-12
   110.250000      -2.36977668E-12
   110.400002      -2.29854373E-12
   110.550003      -2.15260535E-12
   110.699997      -1.93446886E-12
   110.849998      -1.64902651E-12
   111.000000      -1.30347165E-12
   111.150002      -9.07141278E-13
   111.300003      -4.71287018E-13
   111.449997      -8.78132016E-15
   111.599998       4.66236045E-13
   111.750000       9.38760788E-13
   111.900002       1.39336665E-12
   112.050003       1.81467580E-12
   112.199997       2.18784344E-12
   112.349998       2.49904286E-12
   112.500000       2.73593561E-12
   112.650002       2.88811379E-12
   112.800003       2.94749771E-12
   112.949997       2.90867330E-12
   113.099998       2.76916099E-12
   113.250000       2.52960153E-12
   113.400002       2.19384710E-12
   113.550003       1.76895640E-12
   113.699997       1.26508493E-12
   113.849998       6.95272399E-13
   114.000000       7.51297218E-14
   114.150002      -5.77568267E-13
   114.300003      -1.24337400E-12
   114.449997      -1.90172812E-12
   114.599998      -2.53157478E-12
   114.750000      -3.11201130E-12
   114.900002      -3.62295133E-12
   115.050003      -4.04577890E-12
   115.199997      -4.36397142E-12
   115.349998      -4.56366975E-12
   115.500000      -4.63417586E-12
   115.650002      -4.56835784E-12
   115.800003      -4.36294577E-12
   115.949997      -4.01871635E-12
   116.099998      -3.54054546E-12
   116.250000      -2.93733874E-12
   116.400002      -2.22183274E-12
   116.550003      -1.41027934E-12
   116.699997      -5.22019114E-13
   116.849998       4.21038557E-13
   117.000000       1.39501290E-12
   117.150002       2.37471002E-12
   117.300003       3.33431850E-12
   117.449997       4.24812008E-12
   117.599998       5.09119960E-12
   117.750000       5.84012786E-12
   117.900002       6.47360420E-12
   118.050003       6.97303630E-12
   118.199997       7.32304842E-12
   118.349998       7.51190256E-12
