  -1.50000000       0.00000000    
  -1.35000002       0.00000000    
  -1.20000005       0.00000000    
  -1.04999995       9.53527217E-20
 -0.899999976       8.40409402E-19
 -0.750000000       4.29128480E-18
 -0.600000024       1.65847115E-17
 -0.449999988       5.35636240E-17
 -0.300000012       1.51588060E-16
 -0.150000006       3.85662862E-16
  -5.55111512E-17   8.95402764E-16
  0.150000006       1.91530201E-15
  0.300000012       3.79912192E-15
  0.449999988       7.02035730E-15
  0.600000024       1.21240052E-14
  0.750000000       1.96024481E-14
  0.899999976       2.96714489E-14
   1.04999995       4.19316681E-14
   1.20000005       5.49161275E-14
   1.35000002       6.55414647E-14
   1.50000000       6.84986600E-14
   1.64999998       5.56433663E-14
   1.79999995       1.54608771E-14
   1.95000005      -6.72999322E-14
   2.09999990      -2.11712185E-13
   2.25000000      -4.40368499E-13
   2.40000010      -7.78576639E-13
   2.54999995      -1.25296659E-12
   2.70000005      -1.88945582E-12
   2.84999990      -2.71056463E-12
   3.00000000      -3.73213179E-12
   3.15000010      -4.95956097E-12
   3.29999995      -6.38377892E-12
   3.45000005      -7.97717361E-12
   3.59999990      -9.68982273E-12
   3.75000000      -1.14463699E-11
   3.90000010      -1.31439182E-11
   4.05000019      -1.46512941E-11
   4.19999981      -1.58099922E-11
   4.34999990      -1.64370410E-11
   4.50000000      -1.63298923E-11
   4.65000010      -1.52733850E-11
   4.80000019      -1.30486299E-11
   4.94999981      -9.44359955E-12
   5.09999990      -4.26512558E-12
   5.25000000       2.64814776E-12
   5.40000010       1.14122782E-11
   5.55000019       2.20845165E-11
   5.69999981       3.46503867E-11
   5.84999990       4.90119507E-11
   6.00000000       6.49780507E-11
   6.15000010       8.22573745E-11
   6.30000019       1.00455214E-10
   6.44999981       1.19075097E-10
   6.59999990       1.37526060E-10
   6.75000000       1.55136598E-10
   6.90000010       1.71175629E-10
   7.05000019       1.84880680E-10
   7.19999981       1.95492733E-10
   7.34999990       2.02296443E-10
   7.50000000       2.04663897E-10
   7.65000010       2.02098893E-10
   7.80000019       1.94278871E-10
   7.94999981       1.81090754E-10
   8.10000038       1.62656902E-10
   8.25000000       1.39348311E-10
   8.39999962       1.11782368E-10
   8.55000019       8.08037942E-11
   8.69999981       4.74489302E-11
   8.85000038       1.28947521E-11
   9.00000000      -2.16042444E-11
   9.14999962      -5.47871852E-11
   9.30000019      -8.54607149E-11
   9.44999981      -1.12570293E-10
   9.60000038      -1.35263578E-10
   9.75000000      -1.52941493E-10
   9.89999962      -1.65293668E-10
   10.0500002      -1.72316689E-10
   10.1999998      -1.74314868E-10
   10.3500004      -1.71884965E-10
   10.5000000      -1.65887151E-10
   10.6499996      -1.57405325E-10
   10.8000002      -1.47699367E-10
   10.9499998      -1.38152323E-10
   11.1000004      -1.30213992E-10
   11.2500000      -1.25341584E-10
   11.3999996      -1.24937435E-10
   11.5500002      -1.30283159E-10
   11.6999998      -1.42469439E-10
   11.8500004      -1.62321726E-10
   12.0000000      -1.90322827E-10
   12.1499996      -2.26535776E-10
   12.3000002      -2.70531791E-10
   12.4499998      -3.21330518E-10
   12.6000004      -3.77360754E-10
   12.7500000      -4.36450293E-10
   12.8999996      -4.95853303E-10
   13.0500002      -5.52321022E-10
   13.1999998      -6.02219219E-10
   13.3500004      -6.41690034E-10
   13.5000000      -6.66853683E-10
   13.6499996      -6.74037548E-10
   13.8000002      -6.60018984E-10
   13.9499998      -6.22263407E-10
   14.1000004      -5.59138291E-10
   14.2500000      -4.70085360E-10
   14.3999996      -3.55734581E-10
   14.5500002      -2.17948284E-10
   14.6999998      -5.97904087E-11
   14.8500004       1.14579603E-10
   15.0000000       3.00080683E-10
   15.1499996       4.90939844E-10
   15.3000002       6.80960621E-10
   15.4499998       8.63810856E-10
   15.6000004       1.03331055E-09
   15.7500000       1.18369947E-09
   15.8999996       1.30987021E-09
   16.0499992       1.40755496E-09
   16.2000008       1.47345669E-09
   16.3500004       1.50532564E-09
   16.5000000       1.50198176E-09
   16.6499996       1.46328760E-09
   16.7999992       1.39008205E-09
   16.9500008       1.28408317E-09
   17.1000004       1.14776921E-09
   17.2500000       9.84248016E-10
   17.3999996       7.97124478E-10
   17.5499992       5.90370808E-10
   17.7000008       3.68208741E-10
   17.8500004       1.35009073E-10
   18.0000000      -1.04788761E-10
   18.1499996      -3.46732754E-10
   18.2999992      -5.86386217E-10
   18.4500008      -8.19332824E-10
   18.6000004      -1.04115716E-09
   18.7500000      -1.24741295E-09
   18.8999996      -1.43358314E-09
   19.0499992      -1.59504965E-09
   19.2000008      -1.72708836E-09
   19.3500004      -1.82490534E-09
   19.5000000      -1.88372828E-09
   19.6499996      -1.89896743E-09
   19.7999992      -1.86645122E-09
   19.9500008      -1.78273096E-09
   20.1000004      -1.64544556E-09
   20.2500000      -1.45371870E-09
   20.3999996      -1.20855692E-09
   20.5499992      -9.13206510E-10
   20.7000008      -5.73424974E-10
   20.8500004      -1.97617395E-10
   21.0000000       2.03194794E-10
   21.1499996       6.15609452E-10
   21.2999992       1.02428821E-09
   21.4500008       1.41261158E-09
   21.6000004       1.76351111E-09
   21.7500000       2.06043427E-09
   21.8999996       2.28837860E-09
   22.0499992       2.43491516E-09
   22.2000008       2.49111998E-09
   22.3500004       2.45233189E-09
   22.5000000       2.31866681E-09
   22.6499996       2.09523243E-09
   22.7999992       1.79201354E-09
   22.9500008       1.42342393E-09
   23.1000004       1.00754738E-09
   23.2500000       5.65119396E-10
   23.3999996       1.18320048E-10
   23.5499992      -3.10532350E-10
   23.7000008      -7.00292491E-10
   23.8500004      -1.03220765E-09
   24.0000000      -1.29096123E-09
   24.1499996      -1.46546830E-09
   24.2999992      -1.54937951E-09
   24.4500008      -1.54126734E-09
   24.6000004      -1.44450130E-09
   24.7500000      -1.26683652E-09
   24.8999996      -1.01977049E-09
   25.0499992      -7.17724269E-10
   25.2000008      -3.77122777E-10
   25.3500004      -1.54463473E-11
   25.5000000       3.49678925E-10
   25.6499996       7.01295522E-10
   25.7999992       1.02379194E-09
   25.9500008       1.30341238E-09
   26.1000004       1.52859747E-09
   26.2500000       1.69015535E-09
   26.3999996       1.78128889E-09
   26.5499992       1.79750592E-09
   26.7000008       1.73644743E-09
   26.8500004       1.59767810E-09
   27.0000000       1.38246525E-09
   27.1499996       1.09358278E-09
   27.2999992       7.35158712E-10
   27.4500008       3.12580545E-10
   27.6000004      -1.67540745E-10
   27.7500000      -6.97354396E-10
   27.8999996      -1.26771760E-09
   28.0499992      -1.86813143E-09
   28.2000008      -2.48668974E-09
   28.3500004      -3.11007065E-09
   28.5000000      -3.72359965E-09
   28.6499996      -4.31140679E-09
   28.7999992      -4.85670126E-09
   28.9500008      -5.34216138E-09
   29.1000004      -5.75045211E-09
   29.2500000      -6.06485573E-09
   29.3999996      -6.26998098E-09
   29.5499992      -6.35254205E-09
   29.7000008      -6.30213615E-09
   29.8500004      -6.11199935E-09
   30.0000000      -5.77966430E-09
   30.1499996      -5.30747846E-09
   30.2999992      -4.70293404E-09
   30.4500008      -3.97876354E-09
   30.6000004      -3.15277005E-09
   30.7500000      -2.24737717E-09
   30.8999996      -1.28889943E-09
   31.0499992      -3.06548509E-10
   31.2000008       6.68785360E-10
   31.3500004       1.60592395E-09
   31.5000000       2.47489162E-09
   31.6499996       3.24842575E-09
   31.7999992       3.90341848E-09
   31.9500008       4.42219195E-09
   32.0999985       4.79352780E-09
   32.2500000       5.01336395E-09
   32.4000015       5.08510123E-09
   32.5499992       5.01947639E-09
   32.7000008       4.83398832E-09
   32.8499985       4.55188287E-09
   33.0000000       4.20075130E-09
   33.1500015       3.81080723E-09
   33.2999992       3.41294082E-09
   33.4500008       3.03667580E-09
   33.5999985       2.70816436E-09
   33.7500000       2.44834597E-09
   33.9000015       2.27143415E-09
   34.0499992       2.18381535E-09
   34.2000008       2.18348895E-09
   34.3499985       2.26008723E-09
   34.5000000       2.39550091E-09
   34.6500015       2.56509347E-09
   34.7999992       2.73942691E-09
   34.9500008       2.88639335E-09
   35.0999985       2.97361091E-09
   35.2500000       2.97091196E-09
   35.4000015       2.85275359E-09
   35.5499992       2.60035726E-09
   35.7000008       2.20344187E-09
   35.8499985       1.66139891E-09
   36.0000000       9.83828574E-10
   36.1500015       1.90391813E-10
   36.2999992      -6.90020319E-10
   36.4500008      -1.62074221E-09
   36.5999985      -2.55932964E-09
   36.7500000      -3.45994433E-09
   36.9000015      -4.27599733E-09
   37.0499992      -4.96286523E-09
   37.2000008      -5.48052270E-09
   37.3499985      -5.79593573E-09
   37.5000000      -5.88508220E-09
   37.6500015      -5.73448888E-09
   37.7999992      -5.34222089E-09
   37.9500008      -4.71827022E-09
   38.0999985      -3.88434174E-09
   38.2500000      -2.87304602E-09
   38.4000015      -1.72655157E-09
   38.5499992      -4.94753738E-10
   38.7000008       7.66952335E-10
   38.8499985       2.00020733E-09
   39.0000000       3.14641024E-09
   39.1500015       4.14951806E-09
   39.2999992       4.95879782E-09
   39.4500008       5.53138690E-09
   39.5999985       5.83455062E-09
   39.7500000       5.84749316E-09
   39.9000015       5.56262103E-09
   40.0499992       4.98616215E-09
   40.2000008       4.13808543E-09
   40.3499985       3.05128256E-09
   40.5000000       1.77005088E-09
   40.6500015       3.47927076E-10
   40.7999992      -1.15500631E-09
   40.9500008      -2.67518740E-09
   41.0999985      -4.14882084E-09
   41.2500000      -5.51512436E-09
   41.4000015      -6.71931133E-09
   41.5499992      -7.71515563E-09
   41.7000008      -8.46695336E-09
   41.8499985      -8.95075747E-09
   42.0000000      -9.15482978E-09
   42.1500015      -9.07929287E-09
   42.2999992      -8.73506156E-09
   42.4500008      -8.14216072E-09
   42.5999985      -7.32760075E-09
   42.7500000      -6.32301145E-09
   42.9000015      -5.16224308E-09
   43.0499992      -3.87912724E-09
   43.2000008      -2.50559973E-09
   43.3499985      -1.07029863E-09
   43.5000000       4.02263417E-10
   43.6500015       1.89192462E-09
   43.7999992       3.38254291E-09
   43.9500008       4.86117147E-09
   44.0999985       6.31688923E-09
   44.2500000       7.73943931E-09
   44.4000015       9.11785847E-09
   44.5499992       1.04392583E-08
   44.7000008       1.16879333E-08
   44.8499985       1.28449100E-08
   45.0000000       1.38880267E-08
   45.1500015       1.47925752E-08
   45.2999992       1.55324908E-08
   45.4500008       1.60819944E-08
   45.5999985       1.64176104E-08
   45.7500000       1.65203407E-08
   45.9000015       1.63778591E-08
   46.0499992       1.59864779E-08
   46.2000008       1.53527271E-08
   46.3499985       1.44943382E-08
   46.5000000       1.34404861E-08
   46.6500015       1.22312152E-08
   46.7999992       1.09159934E-08
   46.9500008       9.55143786E-09
   47.0999985       8.19831047E-09
   47.2500000       6.91796354E-09
   47.4000015       5.76846082E-09
   47.5499992       4.80064877E-09
   47.7000008       4.05446787E-09
   47.8499985       3.55581919E-09
   48.0000000       3.31423200E-09
   48.1500015       3.32158123E-09
   48.2999992       3.55198249E-09
   48.4500008       3.96295219E-09
   48.5999985       4.49779503E-09
   48.7500000       5.08906606E-09
   48.9000015       5.66292924E-09
   49.0499992       6.14408036E-09
   49.2000008       6.46089138E-09
   49.3499985       6.55040155E-09
   49.5000000       6.36278275E-09
   49.6500015       5.86492899E-09
   49.7999992       5.04290121E-09
   49.9500008       3.90304145E-09
   50.0999985       2.47166354E-09
   50.2500000       7.93356936E-10
   50.4000015      -1.07197051E-09
   50.5499992      -3.05308689E-09
   50.7000008      -5.07212983E-09
   50.8499985      -7.04965064E-09
   51.0000000      -8.90965257E-09
   51.1500015      -1.05841877E-08
   51.2999992      -1.20172228E-08
   51.4500008      -1.31674982E-08
   51.5999985      -1.40101859E-08
   51.7500000      -1.45372718E-08
   51.9000015      -1.47567034E-08
   52.0499992      -1.46903929E-08
   52.2000008      -1.43713512E-08
   52.3499985      -1.38401699E-08
   52.5000000      -1.31412241E-08
   52.6500015      -1.23189308E-08
   52.7999992      -1.14143575E-08
   52.9500008      -1.04624887E-08
   53.0999985      -9.49034629E-09
   53.2500000      -8.51608917E-09
   53.4000015      -7.54912310E-09
   53.5499992      -6.59113519E-09
   53.7000008      -5.63793545E-09
   53.8499985      -4.68184247E-09
   54.0000000      -3.71435971E-09
   54.1500015      -2.72884670E-09
   54.2999992      -1.72289716E-09
   54.4500008      -7.00161762E-10
   54.5999985       3.28556071E-10
   54.7500000       1.34507283E-09
   54.9000015       2.32449149E-09
   55.0499992       3.23670668E-09
   55.2000008       4.04861167E-09
   55.3499985       4.72682027E-09
   55.5000000       5.24065102E-09
   55.6500015       5.56510349E-09
   55.7999992       5.68356917E-09
   55.9500008       5.59002400E-09
   56.0999985       5.29052091E-09
   56.2500000       4.80382401E-09
   56.4000015       4.16113588E-09
   56.5499992       3.40489992E-09
   56.7000008       2.58675681E-09
   56.8499985       1.76476689E-09
   57.0000000       1.00008901E-09
   57.1500015       3.53311075E-10
   57.2999992      -1.19358981E-10
   57.4500008      -3.69769049E-10
   57.5999985      -3.61190244E-10
   57.7500000      -7.11489340E-11
   57.9000015       5.06438391E-10
   58.0499992       1.35996026E-09
   58.2000008       2.45972309E-09
   58.3499985       3.75853970E-09
   58.5000000       5.19327203E-09
   58.6500015       6.68727784E-09
   58.7999992       8.15367152E-09
   58.9500008       9.49926093E-09
   59.0999985       1.06289448E-08
   59.2500000       1.14504060E-08
   59.4000015       1.18788401E-08
   59.5499992       1.18414967E-08
   59.7000008       1.12817924E-08
   59.8499985       1.01627533E-08
   60.0000000       8.46965786E-09
   60.1500015       6.21166496E-09
   60.2999992       3.42234707E-09
   60.4500008       1.59095195E-10
   60.5999985      -3.49862495E-09
   60.7500000      -7.45210649E-09
   60.9000015      -1.15871881E-08
   61.0499992      -1.57788520E-08
   61.2000008      -1.98964472E-08
   61.3499985      -2.38092550E-08
   61.5000000      -2.73921916E-08
   61.6500015      -3.05313641E-08
   61.7999992      -3.31291545E-08
   61.9500008      -3.51086484E-08
   62.0999985      -3.64171129E-08
   62.2500000      -3.70283004E-08
   62.4000015      -3.69434936E-08
   62.5499992      -3.61911425E-08
   62.7000008      -3.48250850E-08
   62.8499985      -3.29214274E-08
   63.0000000      -3.05743058E-08
   63.1500015      -2.78906356E-08
   63.2999992      -2.49842831E-08
   63.4500008      -2.19699530E-08
   63.5999985      -1.89572180E-08
   63.7500000      -1.60450444E-08
   63.9000015      -1.33171856E-08
   64.0500031      -1.08387317E-08
   64.1999969      -8.65401084E-09
   64.3499985      -6.78587941E-09
   64.5000000      -5.23645483E-09
   64.6500015      -3.98907174E-09
   64.8000031      -3.01124348E-09
   64.9499969      -2.25833285E-09
   65.0999985      -1.67756664E-09
   65.2500000      -1.21206034E-09
   65.4000015      -8.04538824E-10
   65.5500031      -4.00516231E-10
   65.6999969       4.92254536E-11
   65.8499985       5.86904025E-10
   66.0000000       1.24672872E-09
   66.1500015       2.05452988E-09
   66.3000031       3.02781578E-09
   66.4499969       4.17614077E-09
   66.5999985       5.50157253E-09
   66.7500000       6.99916480E-09
   66.9000015       8.65732019E-09
   67.0500031       1.04580797E-08
   67.1999969       1.23773454E-08
   67.3499985       1.43851500E-08
   67.5000000       1.64460978E-08
   67.6500015       1.85200637E-08
   67.8000031       2.05632720E-08
   67.9499969       2.25297452E-08
   68.0999985       2.43731417E-08
   68.2500000       2.60488182E-08
   68.4000015       2.75160392E-08
   68.5500031       2.87400663E-08
   68.6999969       2.96939522E-08
   68.8499985       3.03598533E-08
   69.0000000       3.07296943E-08
   69.1500015       3.08051185E-08
   69.3000031       3.05967305E-08
   69.4499969       3.01226706E-08
   69.5999985       2.94067810E-08
   69.7500000       2.84764621E-08
   69.9000015       2.73605156E-08
   70.0500031       2.60872142E-08
   70.1999969       2.46827572E-08
   70.3499985       2.31702586E-08
   70.5000000       2.15693490E-08
   70.6500015       1.98962944E-08
   70.8000031       1.81646147E-08
   70.9499969       1.63859859E-08
   71.0999985       1.45712278E-08
   71.2500000       1.27312347E-08
   71.4000015       1.08775984E-08
   71.5500031       9.02287400E-09
   71.6999969       7.18037718E-09
   71.8499985       5.36356914E-09
   72.0000000       3.58508512E-09
   72.1500015       1.85558302E-09
   72.3000031       1.82561105E-10
   72.4499969      -1.43063150E-09
   72.5999985      -2.98544145E-09
   72.7500000      -4.48826087E-09
   72.9000015      -5.95001737E-09
   73.0500031      -7.38514894E-09
   73.1999969      -8.81009399E-09
   73.3499985      -1.02413145E-08
   73.5000000      -1.16931371E-08
   73.6500015      -1.31754998E-08
   73.8000031      -1.46919028E-08
   73.9499969      -1.62377418E-08
   74.0999985      -1.77991435E-08
   74.2500000      -1.93525178E-08
   74.4000015      -2.08648565E-08
   74.5500031      -2.22947847E-08
   74.6999969      -2.35943372E-08
   74.8499985      -2.47113814E-08
   75.0000000      -2.55924846E-08
   75.1500015      -2.61861040E-08
   75.3000031      -2.64458553E-08
   75.4499969      -2.63336641E-08
   75.5999985      -2.58225690E-08
   75.7500000      -2.48990215E-08
   75.9000015      -2.35644624E-08
   76.0500031      -2.18361222E-08
   76.1999969      -1.97469365E-08
   76.3499985      -1.73445489E-08
   76.5000000      -1.46894976E-08
   76.6500015      -1.18526335E-08
   76.8000031      -8.91198138E-09
   76.9499969      -5.94916783E-09
   77.0999985      -3.04571279E-09
   77.2500000      -2.79341633E-10
   77.4000015       2.27939401E-09
   77.5500031       4.57006077E-09
   77.6999969       6.54462839E-09
   77.8499985       8.16903523E-09
   78.0000000       9.42397183E-09
   78.1500015       1.03048876E-08
   78.3000031       1.08212870E-08
   78.4499969       1.09954197E-08
   78.5999985       1.08605054E-08
   78.7500000       1.04586126E-08
   78.9000015       9.83838877E-09
   79.0500031       9.05275233E-09
   79.1999969       8.15667001E-09
   79.3499985       7.20511339E-09
   79.5000000       6.25126528E-09
   79.6500015       5.34499023E-09
   79.8000031       4.53161109E-09
   79.9499969       3.85095245E-09
   80.0999985       3.33665873E-09
   80.2500000       3.01574388E-09
   80.4000015       2.90834690E-09
   80.5500031       3.02767234E-09
   80.6999969       3.38007244E-09
   80.8499985       3.96526367E-09
   81.0000000       4.77661066E-09
   81.1500015       5.80150994E-09
   81.3000031       7.02177028E-09
   81.4499969       8.41403214E-09
   81.5999985       9.95016070E-09
   81.7500000       1.15976295E-08
   81.9000015       1.33198705E-08
   82.0500031       1.50766226E-08
   82.1999969       1.68243020E-08
   82.3499985       1.85164293E-08
   82.5000000       2.01041619E-08
   82.6500015       2.15369873E-08
   82.8000031       2.27636221E-08
   82.9499969       2.37331204E-08
   83.0999985       2.43962450E-08
   83.2500000       2.47070133E-08
   83.4000015       2.46244714E-08
   83.5500031       2.41144988E-08
   83.6999969       2.31516513E-08
   83.8499985       2.17208704E-08
   84.0000000       1.98189465E-08
   84.1500015       1.74556476E-08
   84.3000031       1.46543666E-08
   84.4499969       1.14522472E-08
   84.5999985       7.89970844E-09
   84.7500000       4.05937550E-09
   84.9000015       4.40950488E-12
   85.0500031      -4.18370005E-09
   85.1999969      -8.41779713E-09
   85.3499985      -1.26080844E-08
   85.5000000      -1.66653642E-08
   85.6500015      -2.05043555E-08
   85.8000031      -2.40469564E-08
   85.9499969      -2.72252301E-08
   86.0999985      -2.99840366E-08
   86.2500000      -3.22830580E-08
   86.4000015      -3.40982176E-08
   86.5500031      -3.54222252E-08
   86.6999969      -3.62643284E-08
   86.8499985      -3.66491726E-08
   87.0000000      -3.66147930E-08
   87.1500015      -3.62099186E-08
   87.3000031      -3.54906220E-08
   87.4499969      -3.45166207E-08
   87.5999985      -3.33474510E-08
   87.7500000      -3.20387556E-08
   87.9000015      -3.06389794E-08
   88.0500031      -2.91867668E-08
   88.1999969      -2.77091665E-08
   88.3499985      -2.62208779E-08
   88.5000000      -2.47245531E-08
   88.6500015      -2.32120776E-08
   88.8000031      -2.16667804E-08
   88.9499969      -2.00663077E-08
   89.0999985      -1.83859203E-08
   89.2500000      -1.66019234E-08
   89.4000015      -1.46949075E-08
   89.5500031      -1.26525226E-08
   89.6999969      -1.04716280E-08
   89.8499985      -8.15951662E-09
   90.0000000      -5.73430947E-09
   90.1500015      -3.22439520E-09
   90.3000031      -6.67097155E-10
   90.4499969       1.89339389E-09
   90.5999985       4.40847492E-09
   90.7500000       6.82791690E-09
   90.9000015       9.10266706E-09
   91.0500031       1.11874812E-08
   91.1999969       1.30432891E-08
   91.3499985       1.46390828E-08
   91.5000000       1.59533311E-08
   91.6500015       1.69748358E-08
   91.8000031       1.77030852E-08
   91.9499969       1.81480893E-08
   92.0999985       1.83297733E-08
   92.2500000       1.82770012E-08
   92.4000015       1.80262756E-08
   92.5500031       1.76202040E-08
   92.6999969       1.71057764E-08
   92.8499985       1.65325105E-08
   93.0000000       1.59505760E-08
   93.1500015       1.54088919E-08
   93.3000031       1.49533257E-08
   93.4499969       1.46249786E-08
   93.5999985       1.44587071E-08
   93.7500000       1.44818415E-08
   93.9000015       1.47131933E-08
   94.0500031       1.51623585E-08
   94.1999969       1.58293432E-08
   94.3499985       1.67045133E-08
   94.5000000       1.77688282E-08
   94.6500015       1.89943741E-08
   94.8000031       2.03451727E-08
   94.9499969       2.17781970E-08
   95.0999985       2.32446169E-08
   95.2500000       2.46912020E-08
   95.4000015       2.60619082E-08
   95.5500031       2.72995493E-08
   95.6999969       2.83475643E-08
   95.8499985       2.91518347E-08
   96.0000000       2.96624485E-08
   96.1500015       2.98354088E-08
   96.3000031       2.96341387E-08
   96.4499969       2.90307920E-08
   96.5999985       2.80071966E-08
   96.7500000       2.65555045E-08
   96.9000015       2.46783838E-08
   97.0500031       2.23888925E-08
   97.1999969       1.97099510E-08
   97.3499985       1.66735461E-08
   97.5000000       1.33197755E-08
   97.6500015       9.69573577E-09
   97.8000031       5.85445825E-09
   97.9499969       1.85387472E-09
   98.0999985      -2.24408669E-09
   98.2500000      -6.37431841E-09
   98.4000015      -1.04692761E-08
   98.5500031      -1.44597632E-08
   98.6999969      -1.82758448E-08
   98.8499985      -2.18479919E-08
   99.0000000      -2.51085730E-08
   99.1500015      -2.79937336E-08
   99.3000031      -3.04456371E-08
   99.4499969      -3.24150164E-08
   99.5999985      -3.38638451E-08
   99.7500000      -3.47679254E-08
   99.9000015      -3.51191360E-08
   100.050003      -3.49270053E-08
   100.199997      -3.42194433E-08
   100.349998      -3.30423013E-08
   100.500000      -3.14577662E-08
   100.650002      -2.95414964E-08
   100.800003      -2.73786753E-08
   100.949997      -2.50591938E-08
   101.099998      -2.26723422E-08
   101.250000      -2.03014121E-08
   101.400002      -1.80186710E-08
   101.550003      -1.58811844E-08
   101.699997      -1.39278198E-08
   101.849998      -1.21777486E-08
   102.000000      -1.06305684E-08
   102.150002      -9.26807875E-09
   102.300003      -8.05752443E-09
   102.449997      -6.95603086E-09
   102.599998      -5.91582561E-09
   102.750000      -4.88979435E-09
   102.900002      -3.83685439E-09
   103.050003      -2.72668954E-09
   103.199997      -1.54342339E-09
   103.349998      -2.87927487E-10
   103.500000       1.02142583E-09
   103.650002       2.34963582E-09
   103.800003       3.64747743E-09
   103.949997       4.85523888E-09
   104.099998       5.90749671E-09
   104.250000       6.73853373E-09
   104.400002       7.28799510E-09
   104.550003       7.50634044E-09
   104.699997       7.35966799E-09
   104.849998       6.83356616E-09
   105.000000       5.93568128E-09
   105.150002       4.69680961E-09
   105.300003       3.17040927E-09
   105.449997       1.43053980E-09
   105.599998      -4.31647773E-10
   105.750000      -2.31266561E-09
   105.900002      -4.10238998E-09
   106.050003      -5.69032288E-09
   106.199997      -6.97202740E-09
   106.349998      -7.85530219E-09
   106.500000      -8.26569213E-09
   106.650002      -8.15097678E-09
   106.800003      -7.48433404E-09
   106.949997      -6.26600771E-09
   107.099998      -4.52335058E-09
   107.250000      -2.30930963E-09
   107.400002       3.00544645E-10
   107.550003       3.21220628E-09
   107.699997       6.31832187E-09
   107.849998       9.50383772E-09
   108.000000       1.26518112E-08
   108.150002       1.56490465E-08
   108.300003       1.83911943E-08
   108.449997       2.07870894E-08
   108.599998       2.27620891E-08
   108.750000       2.42603715E-08
   108.900002       2.52460985E-08
   109.050003       2.57035602E-08
   109.199997       2.56363482E-08
   109.349998       2.50657557E-08
   109.500000       2.40285480E-08
   109.650002       2.25742873E-08
   109.800003       2.07623874E-08
   109.949997       1.86590405E-08
   110.099998       1.63341713E-08
   110.250000       1.38584939E-08
   110.400002       1.13008252E-08
   110.550003       8.72567441E-09
   110.699997       6.19120843E-09
   110.849998       3.74764975E-09
   111.000000       1.43612378E-09
   111.150002      -7.11989023E-10
   111.300003      -2.67519074E-09
   111.449997      -4.44153159E-09
   111.599998      -6.00781513E-09
   111.750000      -7.37843919E-09
   111.900002      -8.56395843E-09
   112.050003      -9.57949631E-09
   112.199997      -1.04431308E-08
   112.349998      -1.11743965E-08
   112.500000      -1.17930066E-08
   112.650002      -1.23178889E-08
   112.800003      -1.27665745E-08
   112.949997      -1.31549420E-08
   113.099998      -1.34972646E-08
   113.250000      -1.38064653E-08
   113.400002      -1.40944785E-08
   113.550003      -1.43725485E-08
   113.699997      -1.46513797E-08
   113.849998      -1.49410049E-08
   114.000000      -1.52503343E-08
   114.150002      -1.55863731E-08
   114.300003      -1.59531659E-08
   114.449997      -1.63505920E-08
   114.599998      -1.67731269E-08
   114.750000      -1.72088104E-08
   114.900002      -1.76385555E-08
   115.050003      -1.80359851E-08
   115.199997      -1.83679187E-08
   115.349998      -1.85955660E-08
   115.500000      -1.86763813E-08
   115.650002      -1.85665510E-08
   115.800003      -1.82239024E-08
   115.949997      -1.76110255E-08
   116.099998      -1.66983583E-08
   116.250000      -1.54669895E-08
   116.400002      -1.39109044E-08
   116.550003      -1.20384884E-08
   116.699997      -9.87316007E-09
   116.849998      -7.45300799E-09
   117.000000      -4.82953277E-09
   117.150002      -2.06548423E-09
   117.300003       7.67985786E-10
   117.449997       3.59470564E-09
   117.599998       6.33714814E-09
   117.750000       8.92016505E-09
   117.900002       1.12745830E-08
   118.050003       1.33404425E-08
   118.199997       1.50697570E-08
   118.349998       1.64286593E-08
