  -1.50000000         0.00000000    
  -1.30999994         0.00000000    
  -1.12000000         0.00000000    
 -0.930000007         0.00000000    
 -0.740000010         0.00000000    
 -0.550000012         0.00000000    
 -0.360000014         0.00000000    
 -0.170000002         0.00000000    
   1.99999996E-02     0.00000000    
  0.209999993         0.00000000    
  0.400000006         0.00000000    
  0.589999974         0.00000000    
  0.779999971         0.00000000    
  0.970000029         0.00000000    
   1.15999997         0.00000000    
   1.35000002         0.00000000    
   1.53999996         0.00000000    
   1.73000002         0.00000000    
   1.91999996         0.00000000    
   2.10999990         0.00000000    
   2.29999995         0.00000000    
   2.49000001         0.00000000    
   2.68000007         0.00000000    
   2.86999989         0.00000000    
   3.05999994         0.00000000    
   3.25000000         0.00000000    
   3.44000006         0.00000000    
   3.63000011         0.00000000    
   3.81999993         0.00000000    
   4.01000023         0.00000000    
   4.19999981         0.00000000    
   4.38999987         0.00000000    
   4.57999992         0.00000000    
   4.76999998         0.00000000    
   4.96000004         0.00000000    
   5.15000010         0.00000000    
   5.34000015         0.00000000    
   5.53000021         0.00000000    
   5.71999979         0.00000000    
   5.90999985         0.00000000    
   6.09999990         0.00000000    
   6.28999996         0.00000000    
   6.48000002         0.00000000    
   6.67000008         0.00000000    
   6.86000013         0.00000000    
   7.05000019         0.00000000    
   7.23999977         0.00000000    
   7.42999983         0.00000000    
   7.61999989         0.00000000    
   7.80999994         0.00000000    
   8.00000000         0.00000000    
   8.18999958         0.00000000    
   8.38000011         0.00000000    
   8.56999969         0.00000000    
   8.76000023         0.00000000    
   8.94999981         0.00000000    
   9.14000034         0.00000000    
   9.32999992         0.00000000    
   9.52000046         0.00000000    
   9.71000004         0.00000000    
   9.89999962         0.00000000    
   10.0900002         0.00000000    
   10.2799997         0.00000000    
   10.4700003         0.00000000    
   10.6599998         0.00000000    
   10.8500004         0.00000000    
   11.0400000         0.00000000    
   11.2299995         0.00000000    
   11.4200001        -1.39017893E-36
   11.6099997        -1.76679728E-36
   11.8000002         4.26143908E-35
   11.9899998         5.68838649E-35
   12.1800003        -1.12720059E-34
   12.3699999        -4.52617488E-34
   12.5600004        -8.60798258E-34
   12.7500000        -1.37432169E-33
   12.9399996        -1.95282121E-33
   13.1300001        -2.75755050E-33
   13.3199997        -3.14728731E-33
   13.5100002        -2.43252852E-33
   13.6999998        -3.78863262E-33
   13.8900003        -3.46562587E-33
   14.0799999        -1.56853209E-33
   14.2700005         9.26215051E-33
   14.4600000        -5.99174725E-34
   14.6499996        -3.12153377E-32
   14.8400002        -7.56526653E-32
   15.0299997        -1.04396523E-31
   15.2200003        -7.53130297E-32
   15.4099998         2.73386925E-32
   15.6000004         2.00172182E-31
   15.7900000         4.55532602E-31
   15.9799995         8.12970953E-31
   16.1700001         1.20920443E-30
   16.3600006         1.52069425E-30
   16.5499992         1.56829519E-30
   16.7399998         1.16548299E-30
   16.9300003         1.33626342E-31
   17.1200008        -1.50503855E-30
   17.3099995        -3.55225064E-30
   17.5000000        -5.56428131E-30
   17.6900005        -6.83480338E-30
   17.8799992        -6.58566554E-30
   18.0699997        -4.11346738E-30
   18.2600002         8.28132573E-31
   18.4500008         7.72007890E-30
   18.6399994         1.50966531E-29
   18.8299999         2.06189985E-29
   19.0200005         2.13883428E-29
   19.2099991         1.47827010E-29
   19.3999996        -5.58726148E-31
   19.5900002        -2.36329524E-29
   19.7800007        -5.03874281E-29
   19.9699993        -7.36759685E-29
   20.1599998        -8.41132329E-29
   20.3500004        -7.24515405E-29
   20.5400009        -3.22801447E-29
   20.7299995         3.63944908E-29
   20.9200001         1.24584520E-28
   21.1100006         2.13488925E-28
   21.2999992         2.76208037E-28
   21.4899998         2.83076722E-28
   21.6800003         2.09459133E-28
   21.8700008         4.51332143E-29
   22.0599995        -1.97090727E-28
   22.2500000        -4.76630587E-28
   22.4400005        -7.26686205E-28
   22.6299992        -8.64239588E-28
   22.8199997        -8.08154197E-28
   23.0100002        -5.03428410E-28
   23.2000008         5.36719601E-29
   23.3899994         7.96398273E-28
   23.5799999         1.58171706E-27
   23.7700005         2.20447045E-27
   23.9599991         2.43402243E-27
   24.1499996         2.07089257E-27
   24.3400002         1.01421387E-27
   24.5300007        -6.76084225E-28
   24.7199993        -2.74144572E-27
   24.9099998        -4.73090323E-27
   25.1000004        -6.06470833E-27
   25.2900009        -6.15645616E-27
   25.4799995        -4.57843892E-27
   25.6700001        -1.23695431E-27
   25.8600006         3.49083931E-27
   26.0499992         8.71151115E-27
   26.2399998         1.31055404E-26
   26.4300003         1.51715024E-26
   26.6200008         1.36025505E-26
   26.8099995         7.72642110E-27
   27.0000000        -2.10140412E-27
   27.1900005        -1.42828737E-26
   27.3799992        -2.60599060E-26
   27.5699997        -3.39601631E-26
   27.7600002        -3.45824387E-26
   27.9500008        -2.55893659E-26
   28.1399994        -6.67593340E-27
   28.3299999         1.97734133E-26
   28.5200005         4.86101143E-26
   28.7099991         7.25978954E-26
   28.8999996         8.38323224E-26
   29.0900002         7.56823600E-26
   29.2800007         4.48408507E-26
   29.4699993        -7.03662079E-27
   29.6599998        -7.26019259E-26
   29.8500004        -1.39325421E-25
   30.0400009        -1.91305536E-25
   30.2299995        -2.12127656E-25
   30.4200001        -1.88273414E-25
   30.6100006        -1.12467751E-25
   30.7999992         1.36023887E-26
   30.9899998         1.77599399E-25
   31.1800003         3.56096620E-25
   31.3700008         5.15531547E-25
   31.5599995         6.14782871E-25
   31.7500000         6.09823351E-25
   31.9400005         4.61061047E-25
   32.1300011         1.43795242E-25
   32.3199997        -3.38608313E-25
   32.5099983        -9.40783485E-25
   32.7000008        -1.56470728E-24
   32.8899994        -2.05827477E-24
   33.0800018        -2.22977649E-24
   33.2700005        -1.88334033E-24
   33.4599991        -8.75683429E-25
   33.6500015         8.13167041E-25
   33.8400002         3.01178436E-24
   34.0299988         5.31650322E-24
   34.2200012         7.10555890E-24
   34.4099998         7.63050402E-24
   34.5999985         6.19121704E-24
   34.7900009         2.37515783E-24
   34.9799995        -3.68893566E-24
   35.1699982        -1.11393652E-23
   35.3600006        -1.83402477E-23
   35.5499992        -2.30663844E-23
   35.7400017        -2.29467631E-23
   35.9300003        -1.61285089E-23
   36.1199989        -2.03782099E-24
   36.3100014         1.79628598E-23
   36.5000000         4.02632019E-23
   36.6899986         5.92595026E-23
   36.8800011         6.82980247E-23
   37.0699997         6.12597635E-23
   37.2599983         3.45275362E-23
   37.4500008        -1.11251957E-23
   37.6399994        -6.93093191E-23
   37.8300018        -1.28030724E-22
   38.0200005        -1.71318412E-22
   38.2099991        -1.82489932E-22
   38.4000015        -1.48600001E-22
   38.5900002        -6.51409844E-23
   38.7799988         6.02740345E-23
   38.9700012         2.06576519E-22
   39.1599998         3.41277888E-22
   39.3499985         4.26210213E-22
   39.5400009         4.26344660E-22
   39.7299995         3.20026733E-22
   39.9199982         1.08148930E-22
   40.1100006        -1.80542266E-22
   40.2999992        -4.90415009E-22
   40.4900017        -7.47443461E-22
   40.6800003        -8.74680793E-22
   40.8699989        -8.12111274E-22
   41.0600014        -5.36474237E-22
   41.2500000        -7.56439164E-23
   41.4399986         4.87579148E-22
   41.6300011         1.02567225E-21
   41.8199997         1.39093894E-21
   42.0099983         1.45092861E-21
   42.2000008         1.12755340E-21
   42.3899994         4.30171935E-22
   42.5800018        -5.27563213E-22
   42.7700005        -1.53513756E-21
   42.9599991        -2.32016488E-21
   43.1500015        -2.60760691E-21
   43.3400002        -2.19280047E-21
   43.5299988        -1.01209678E-21
   43.7200012         8.07810985E-22
   43.9099998         2.93912579E-21
   44.0999985         4.89157900E-21
   44.2900009         6.10083628E-21
   44.4799995         6.05452789E-21
   44.6699982         4.43192709E-21
   44.8600006         1.22530884E-21
   45.0499992        -3.19044410E-21
   45.2400017        -8.06689879E-21
   45.4300003        -1.23824002E-20
   45.6199989        -1.50264111E-20
   45.8100014        -1.50391581E-20
   46.0000000        -1.18597594E-20
   46.1899986        -5.52617113E-21
   46.3800011         3.22761533E-21
   46.5699997         1.30163719E-20
   46.7599983         2.20026359E-20
   46.9500008         2.82282848E-20
   47.1399994         3.00231504E-20
   47.3300018         2.64091256E-20
   47.5200005         1.74076961E-20
   47.7099991         4.16766914E-21
   47.9000015        -1.11404604E-20
   48.0900002        -2.56712256E-20
   48.2799988        -3.64456844E-20
   48.4700012        -4.09906444E-20
   48.6599998        -3.79431431E-20
   48.8499985        -2.74778123E-20
   49.0400009        -1.14361718E-20
   49.2299995         6.91128708E-21
   49.4199982         2.34640977E-20
   49.6100006         3.41618614E-20
   49.7999992         3.59599129E-20
   49.9900017         2.76968665E-20
   50.1800003         1.06344941E-20
   50.3699989        -1.15063723E-20
   50.5600014        -3.30990538E-20
   50.7500000        -4.77145468E-20
   50.9399986        -4.96011552E-20
   51.1300011        -3.52503212E-20
   51.3199997        -4.69057936E-21
   51.5099983         3.78447376E-20
   51.7000008         8.41436941E-20
   51.8899994         1.23240593E-19
   52.0800018         1.43528748E-19
   52.2700005         1.35423748E-19
   52.4599991         9.40511077E-20
   52.6500015         2.13329363E-20
   52.8400002        -7.31232767E-20
   53.0299988        -1.72760342E-19
   53.2200012        -2.56555676E-19
   53.4099998        -3.02996982E-19
   53.5999985        -2.94898186E-19
   53.7900009        -2.24096463E-19
   53.9799995        -9.49260128E-20
   54.1699982         7.45471970E-20
   54.3600006         2.54206561E-19
   54.5499992         4.06603448E-19
   54.7400017         4.94156095E-19
   54.9300003         4.87600689E-19
   55.1199989         3.73967605E-19
   55.3100014         1.62174252E-19
   55.5000000        -1.15450348E-19
   55.6899986        -4.06735435E-19
   55.8800011        -6.48352539E-19
   56.0699997        -7.78459209E-19
   56.2599983        -7.51043032E-19
   56.4500008        -5.48940526E-19
   56.6399994        -1.92327415E-19
   56.8300018         2.60003132E-19
   57.0200005         7.18029995E-19
   57.2099991         1.07625142E-18
   57.4000015         1.23551563E-18
   57.5900002         1.12691168E-18
   57.7799988         7.32586668E-19
   57.9700012         9.82641389E-20
   58.1599998        -6.66689014E-19
   58.3499985        -1.40362593E-18
   58.5400009        -1.93243515E-18
   58.7299995        -2.08867820E-18
   58.9199982        -1.76321943E-18
   59.1100006        -9.35965927E-19
   59.2999992         3.04578267E-19
   59.4900017         1.76232918E-18
   59.6800003         3.15800807E-18
   59.8699989         4.17504814E-18
   60.0600014         4.52030134E-18
   60.2500000         3.98881794E-18
   60.4399986         2.51968727E-18
   60.6300011         2.30220365E-19
   60.8199997        -2.58133497E-18
   61.0099983        -5.46902497E-18
   61.2000008        -7.90600287E-18
   61.3899994        -9.37548013E-18
   61.5800018        -9.47048100E-18
   61.7700005        -7.98372642E-18
   61.9599991        -4.96903938E-18
   62.1500015        -7.59484927E-19
   62.3400002         4.06541859E-18
   62.5299988         8.76186349E-18
   62.7200012         1.25419763E-17
   62.9099998         1.47124925E-17
   63.0999985         1.48071534E-17
   63.2900009         1.26873078E-17
   63.4799995         8.58934505E-18
   63.6699982         3.10611097E-18
   63.8600006        -2.89894938E-18
   64.0500031        -8.43347527E-18
   64.2399979        -1.25509264E-17
   64.4300003        -1.45276656E-17
   64.6200027        -1.40092152E-17
   64.8099976        -1.10959190E-17
   65.0000000        -6.34767483E-18
   65.1900024        -7.01351449E-19
   65.3799973         4.68958964E-18
   65.5699997         8.66810091E-18
   65.7600021         1.03023170E-17
   65.9499969         9.08731853E-18
   66.1399994         5.07907177E-18
   66.3300018        -1.07067084E-18
   66.5199966        -8.19334804E-18
   66.7099991        -1.47906627E-17
   66.9000015        -1.93029759E-17
   67.0899963        -2.04142848E-17
   67.2799988        -1.73383178E-17
   67.4700012        -1.00287733E-17
   67.6600037         7.33371403E-19
   67.8499985         1.34036371E-17
   68.0400009         2.58902784E-17
   68.2300034         3.58955689E-17
   68.4199982         4.13282198E-17
   68.6100006         4.07147297E-17
   68.8000031         3.35314602E-17
   68.9899979         2.03876579E-17
   69.1800003         3.01207915E-18
   69.3700027        -1.59702222E-17
   69.5599976        -3.34457113E-17
   69.7500000        -4.63423273E-17
   69.9400024        -5.21908383E-17
   70.1299973        -4.96143295E-17
   70.3199997        -3.86483829E-17
   70.5100021        -2.08207415E-17
   70.6999969         1.04071708E-18
   70.8899994         2.32521380E-17
   71.0800018         4.19013699E-17
   71.2699966         5.35509681E-17
   71.4599991         5.58874522E-17
   71.6500015         4.81906061E-17
   71.8399963         3.15240848E-17
   72.0299988         8.59725703E-18
   72.2200012        -1.66904716E-17
   72.4100037        -3.99492932E-17
   72.5999985        -5.71168875E-17
   72.7900009        -6.52391857E-17
   72.9800034        -6.30576126E-17
   73.1699982        -5.12768501E-17
   73.3600006        -3.24441114E-17
   73.5500031        -1.04468999E-17
   73.7399979         1.02868959E-17
   73.9300003         2.57345881E-17
   74.1200027         3.31790912E-17
   74.3099976         3.18693830E-17
   74.5000000         2.32816005E-17
   74.6900024         1.08949795E-17
   74.8799973        -5.08194901E-19
   75.0699997        -5.90649474E-18
   75.2600021        -1.26682597E-18
   75.4499969         1.53183675E-17
   75.6399994         4.28438066E-17
   75.8300018         7.71661573E-17
   76.0199966         1.11453085E-16
   76.2099991         1.37288768E-16
   76.4000015         1.46275721E-16
   76.5899963         1.31849996E-16
   76.7799988         9.09510031E-17
   76.9700012         2.51783521E-17
   77.1600037        -5.88628540E-17
   77.3499985        -1.50192997E-16
   77.5400009        -2.35037879E-16
   77.7300034        -2.99136541E-16
   77.9199982        -3.30378504E-16
   78.1100006        -3.21263874E-16
   78.3000031        -2.70668346E-16
   78.4899979        -1.84489308E-16
   78.6800003        -7.49374813E-17
   78.8700027         4.14939471E-17
   79.0599976         1.47077676E-16
   79.2500000         2.26368311E-16
   79.4400024         2.69486682E-16
   79.6299973         2.74452122E-16
   79.8199997         2.47974480E-16
   80.0100021         2.04382155E-16
   80.1999969         1.62728238E-16
   80.3899994         1.42495294E-16
   80.5800018         1.58671281E-16
   80.7699966         2.17180373E-16
   80.9599991         3.11694069E-16
   81.1500015         4.22682226E-16
   81.3399963         5.19208115E-16
   81.5299988         5.63482421E-16
   81.7200012         5.17642004E-16
   81.9100037         3.51713676E-16
   82.0999985         5.13868485E-17
   82.2900009        -3.75920898E-16
   82.4800034        -8.98059906E-16
   82.6699982        -1.45915137E-15
   82.8600006        -1.98490673E-15
   83.0500031        -2.39183914E-15
   83.2399979        -2.59920022E-15
   83.4300003        -2.54190035E-15
   83.6200027        -2.18233740E-15
   83.8099976        -1.51908149E-15
   84.0000000        -5.90734648E-16
   84.1900024         5.26016407E-16
   84.3799973         1.72423117E-15
   84.5699997         2.87952704E-15
   84.7600021         3.86607309E-15
   84.9499969         4.57336975E-15
   85.1399994         4.92116740E-15
   85.3300018         4.87009005E-15
   85.5199966         4.42619142E-15
   85.7099991         3.63865322E-15
   85.9000015         2.59099332E-15
   86.0899963         1.38730857E-15
   86.2799988         1.35973643E-16
   86.4700012        -1.06629145E-15
   86.6600037        -2.14710253E-15
   86.8499985        -3.06555051E-15
   87.0400009        -3.81252494E-15
   87.2300034        -4.40430239E-15
   87.4199982        -4.87079859E-15
   87.6100006        -5.24106210E-15
   87.8000031        -5.52923499E-15
   87.9899979        -5.72425120E-15
   88.1800003        -5.78598084E-15
   88.3700027        -5.64924855E-15
   88.5599976        -5.23563262E-15
   88.7500000        -4.47125654E-15
   88.9400024        -3.30732781E-15
   89.1299973        -1.73930455E-15
   89.3199997         1.79583664E-16
   89.5100021         2.33400077E-15
   89.6999969         4.55345304E-15
   89.8899994         6.63059678E-15
   90.0800018         8.34876415E-15
   90.2699966         9.51461606E-15
   90.4599991         9.99051136E-15
   90.6500015         9.72067292E-15
   90.8399963         8.74593112E-15
   91.0299988         7.20346803E-15
   91.2200012         5.31038794E-15
   91.4100037         3.33281630E-15
   91.5999985         1.54489217E-15
   91.7900009         1.84109321E-16
   91.9800034        -5.89432229E-16
   92.1699982        -7.22599784E-16
   92.3600006        -2.81878245E-16
   92.5500031         5.53981147E-16
   92.7399979         1.52099261E-15
   92.9300003         2.31285798E-15
   93.1200027         2.63297015E-15
   93.3099976         2.24675510E-15
   93.5000000         1.02511326E-15
   93.6900024        -1.02900368E-15
   93.8799973        -3.77634986E-15
   94.0699997        -6.96090914E-15
   94.2600021        -1.02505124E-14
   94.4499969        -1.32918333E-14
   94.6399994        -1.57700272E-14
   94.8300018        -1.74619806E-14
   95.0199966        -1.82727504E-14
   95.2099991        -1.82474817E-14
   95.4000015        -1.75551830E-14
   95.5899963        -1.64461764E-14
   95.7799988        -1.51899604E-14
   95.9700012        -1.40048690E-14
   96.1600037        -1.29931127E-14
   96.3499985        -1.20950562E-14
   96.5400009        -1.10740486E-14
   96.7300034        -9.53829995E-15
   96.9199982        -6.99988621E-15
   97.1100006        -2.96401667E-15
   97.3000031         2.96472416E-15
   97.4899979         1.09766932E-14
   97.6800003         2.09715176E-14
   97.8700027         3.25098868E-14
   98.0599976         4.48155680E-14
   98.2500000         5.68328479E-14
   98.4400024         6.73355550E-14
   98.6299973         7.50746917E-14
   98.8199997         7.89446023E-14
   99.0100021         7.81426315E-14
   99.1999969         7.22969183E-14
   99.3899994         6.15405283E-14
   99.5800018         4.65172910E-14
   99.7699966         2.83151493E-14
   99.9599991         8.33421805E-15
   100.150002        -1.18926746E-14
   100.339996        -3.09006022E-14
   100.529999        -4.74838268E-14
   100.720001        -6.08479399E-14
   100.910004        -7.06979234E-14
   101.099998        -7.72476430E-14
   101.290001        -8.11481280E-14
   101.480003        -8.33453789E-14
   101.669998        -8.48901909E-14
   101.860001        -8.67306918E-14
   102.050003        -8.95217535E-14
   102.239998        -9.34830826E-14
   102.430000        -9.83300897E-14
   102.620003        -1.03290172E-13
   102.809998        -1.07202252E-13
   103.000000        -1.08684071E-13
   103.190002        -1.06339687E-13
   103.379997        -9.89730013E-14
   103.570000        -8.57720741E-14
   103.760002        -6.64333429E-14
   103.949997        -4.12064961E-14
   104.139999        -1.08534338E-14
   104.330002         2.34687554E-14
   104.519997         6.03782839E-14
   104.709999         9.84595570E-14
   104.900002         1.36438224E-13
   105.089996         1.73305923E-13
   105.279999         2.08371474E-13
   105.470001         2.41226743E-13
   105.660004         2.71633735E-13
   105.849998         2.99354861E-13
   106.040001         3.23959907E-13
   106.230003         3.44651065E-13
   106.419998         3.60145317E-13
   106.610001         3.68646682E-13
   106.800003         3.67925390E-13
   106.989998         3.55503604E-13
   107.180000         3.28928779E-13
   107.370003         2.86098456E-13
   107.559998         2.25590949E-13
   107.750000         1.46952735E-13
   107.940002         5.08984029E-14
   108.129997        -6.06080263E-14
   108.320000        -1.84403342E-13
   108.510002        -3.16300073E-13
   108.699997        -4.51359788E-13
   108.889999        -5.84224509E-13
   109.080002        -7.09459130E-13
   109.269997        -8.21859399E-13
   109.459999        -9.16688925E-13
   109.650002        -9.89826602E-13
   109.839996        -1.03782336E-12
   110.029999        -1.05788739E-12
   110.220001        -1.04783001E-12
   110.410004        -1.00601244E-12
   110.599998        -9.31330859E-13
   110.790001        -8.23267832E-13
   110.980003        -6.82017756E-13
   111.169998        -5.08677247E-13
   111.360001        -3.05465343E-13
   111.550003        -7.59272270E-14
   111.739998         1.74932578E-13
   111.930000         4.40639712E-13
   112.120003         7.13395543E-13
   112.309998         9.84391713E-13
