  -1.50000000       0.00000000    
  -1.35000002       0.00000000    
  -1.20000005       0.00000000    
  -1.04999995       0.00000000    
 -0.899999976       0.00000000    
 -0.750000000       0.00000000    
 -0.600000024       0.00000000    
 -0.449999988       0.00000000    
 -0.300000012       0.00000000    
 -0.150000006       0.00000000    
  -5.55111512E-17   0.00000000    
  0.150000006       0.00000000    
  0.300000012       0.00000000    
  0.449999988       0.00000000    
  0.600000024       0.00000000    
  0.750000000       0.00000000    
  0.899999976       0.00000000    
   1.04999995       0.00000000    
   1.20000005       0.00000000    
   1.35000002       0.00000000    
   1.50000000       0.00000000    
   1.64999998       0.00000000    
   1.79999995       0.00000000    
   1.95000005       0.00000000    
   2.09999990       0.00000000    
   2.25000000       0.00000000    
   2.40000010       0.00000000    
   2.54999995       0.00000000    
   2.70000005       0.00000000    
   2.84999990       0.00000000    
   3.00000000       0.00000000    
   3.15000010       0.00000000    
   3.29999995       0.00000000    
   3.45000005       0.00000000    
   3.59999990       0.00000000    
   3.75000000       0.00000000    
   3.90000010      -7.95937528E-43
   4.05000019      -2.08232952E-42
   4.19999981      -6.62954303E-42
   4.34999990      -1.88698851E-41
   4.50000000      -3.73810378E-41
   4.65000010      -4.46635860E-41
   4.80000019      -2.69932123E-41
   4.94999981      -8.00141423E-42
   5.09999990       5.88335160E-41
   5.25000000       1.23080248E-40
   5.40000010       2.39865863E-40
   5.55000019       3.62919487E-40
   5.69999981       3.28381683E-40
   5.84999990      -4.56457560E-40
   6.00000000      -7.18759614E-40
   6.15000010       1.43693348E-40
   6.30000019       1.36346761E-39
   6.44999981       4.08602517E-39
   6.59999990       4.46766741E-39
   6.75000000       4.13768824E-39
   6.90000010       5.26080935E-39
   7.05000019       1.24092672E-38
   7.19999981       3.49929590E-38
   7.34999990       8.15559125E-38
   7.50000000       1.61094168E-37
   7.65000010       2.68919848E-37
   7.80000019       3.85062469E-37
   7.94999981       4.33304265E-37
   8.10000038       2.59878603E-37
   8.25000000      -3.64528469E-37
   8.39999962      -1.72871299E-36
   8.55000019      -4.11458179E-36
   8.69999981      -7.60641272E-36
   8.85000038      -1.18280151E-35
   9.00000000      -1.55777022E-35
   9.14999962      -1.64736321E-35
   9.30000019      -1.07745085E-35
   9.44999981       6.36940724E-36
   9.60000038       3.99558106E-35
   9.75000000       9.31604011E-35
   9.89999962       1.64343041E-34
   10.0500002       2.43245850E-34
   10.1999998       3.07306343E-34
   10.3500004       3.19466855E-34
   10.5000000       2.29568376E-34
   10.6499996      -1.84994256E-35
   10.8000002      -4.72159622E-34
   10.9499998      -1.14762356E-33
   11.1000004      -2.00169956E-33
   11.2500000      -2.90326809E-33
   11.3999996      -3.61342519E-33
   11.5500002      -3.78597821E-33
   11.6999998      -3.00057974E-33
   11.8500004      -8.37904404E-34
   12.0000000       3.00099832E-33
   12.1499996       8.54086277E-33
   12.3000002       1.53683147E-32
   12.4499998       2.24974205E-32
   12.6000004       2.83152227E-32
   12.7500000       3.06599460E-32
   12.8999996       2.70737243E-32
   13.0500002       1.52455666E-32
   13.1999998      -6.37994269E-33
   13.3500004      -3.79018199E-32
   13.5000000      -7.72919098E-32
   13.6499996      -1.19912661E-31
   13.8000002      -1.58394079E-31
   13.9499998      -1.83019451E-31
   14.1000004      -1.82712447E-31
   14.2500000      -1.46629837E-31
   14.3999996      -6.62571740E-32
   14.5500002       6.22028470E-32
   14.6999998       2.35450202E-31
   14.8500004       4.41075244E-31
   15.0000000       6.56296128E-31
   15.1499996       8.47818154E-31
   15.3000002       9.73155756E-31
   15.4499998       9.83717338E-31
   15.6000004       8.29899576E-31
   15.7500000       4.68353108E-31
   15.8999996      -1.28585235E-31
   16.0499992      -9.61608358E-31
   16.2000008      -1.99213811E-30
   16.3500004      -3.13059423E-30
   16.5000000      -4.22777395E-30
   16.6499996      -5.07284380E-30
   16.7999992      -5.40217895E-30
   16.9500008      -4.92333710E-30
   17.1000004      -3.35738716E-30
   17.2500000      -5.00272152E-31
   17.3999996       3.70034563E-30
   17.5499992       9.06196156E-30
   17.7000008       1.50933836E-29
   17.8500004       2.09514576E-29
   18.0000000       2.54528885E-29
   18.1499996       2.71645227E-29
   18.2999992       2.45879263E-29
   18.4500008       1.64392866E-29
   18.6000004       2.00401662E-30
   18.7500000      -1.84808852E-29
   18.8999996      -4.34898514E-29
   19.0499992      -7.00102739E-29
   19.2000008      -9.35817846E-29
   19.3500004      -1.08657754E-28
   19.5000000      -1.09333273E-28
   19.6499996      -9.04176683E-29
   19.7999992      -4.87433128E-29
   19.9500008       1.54899175E-29
   20.1000004       9.76163430E-29
   20.2500000       1.87977070E-28
   20.3999996       2.72272713E-28
   20.5499992       3.33011463E-28
   20.7000008       3.52092325E-28
   20.8500004       3.14318821E-28
   21.0000000       2.11359906E-28
   21.1499996       4.54188568E-29
   21.2999992      -1.68296449E-28
   21.4500008      -4.01216058E-28
   21.6000004      -6.13870092E-28
   21.7500000      -7.61438985E-28
   21.8999996      -8.02020929E-28
   22.0499992      -7.06493552E-28
   22.2000008      -4.68138103E-28
   22.3500004      -1.09702498E-28
   22.5000000       3.14494201E-28
   22.6499996       7.23335039E-28
   22.7999992       1.02138151E-27
   22.9500008       1.11825983E-27
   23.1000004       9.52254009E-28
   23.2500000       5.13582490E-28
   23.3999996      -1.38408111E-28
   23.5499992      -8.70116371E-28
   23.7000008      -1.48541295E-27
   23.8500004      -1.75631098E-27
   24.0000000      -1.47069836E-27
   24.1499996      -4.90592087E-28
   24.2999992       1.18996942E-27
   24.4500008       3.40122040E-27
   24.6000004       5.78236353E-27
   24.7500000       7.80599205E-27
   24.8999996       8.84718059E-27
   25.0499992       8.29304278E-27
   25.2000008       5.67811102E-27
   25.3500004       8.21518322E-28
   25.5000000      -6.06400498E-27
   25.6499996      -1.43212936E-26
   25.7999992      -2.28788768E-26
   25.9500008      -3.03706148E-26
   26.1000004      -3.53339212E-26
   26.2500000      -3.64551545E-26
   26.3999996      -3.28136862E-26
   26.5499992      -2.40686346E-26
   26.7000008      -1.05378074E-26
   26.8500004       6.86099215E-27
   27.0000000       2.68026555E-26
   27.1499996       4.78376839E-26
   27.2999992       6.86845598E-26
   27.4500008       8.84285834E-26
   27.6000004       1.06527703E-25
   27.7500000       1.22561596E-25
   27.8999996       1.35727290E-25
   28.0499992       1.44175079E-25
   28.2000008       1.44370568E-25
   28.3500004       1.30739150E-25
   28.5000000       9.58698282E-26
   28.6499996       3.15003992E-26
   28.7999992      -6.96281360E-26
   28.9500008      -2.11172863E-25
   29.1000004      -3.90222028E-25
   29.2500000      -5.94579453E-25
   29.3999996      -8.01086573E-25
   29.5499992      -9.75786920E-25
   29.7000008      -1.07656903E-24
   29.8500004      -1.05853498E-24
   30.0000000      -8.81781817E-25
   30.1499996      -5.20619453E-25
   30.2999992       2.73654492E-26
   30.4500008       7.34411458E-25
   30.6000004       1.53991851E-24
   30.7500000       2.35367064E-24
   30.8999996       3.06567677E-24
   31.0499992       3.56202095E-24
   31.2000008       3.74456573E-24
   31.3500004       3.55090314E-24
   31.5000000       2.97000767E-24
   31.6499996       2.04893367E-24
   31.7999992       8.86931797E-25
   31.9500008      -3.84456095E-25
   32.0999985      -1.63357730E-24
   32.2500000      -2.76773466E-24
   32.4000015      -3.77034926E-24
   32.5499992      -4.72519202E-24
   32.7000008      -5.81650298E-24
   32.8499985      -7.29627391E-24
   33.0000000      -9.41541620E-24
   33.1500015      -1.23234730E-23
   33.2999992      -1.59509284E-23
   33.4500008      -1.98973156E-23
   33.5999985      -2.33551327E-23
   33.7500000      -2.51018443E-23
   33.9000015      -2.35880502E-23
   34.0499992      -1.71384497E-23
   34.2000008      -4.26357231E-24
   34.3499985       1.59434911E-23
   34.5000000       4.33769747E-23
   34.6500015       7.65293339E-23
   34.7999992       1.12232629E-22
   34.9500008       1.45621628E-22
   35.0999985       1.70394826E-22
   35.2500000       1.79416454E-22
   35.4000015       1.65652245E-22
   35.5499992       1.23370424E-22
   35.7000008       4.94739386E-23
   35.8499985      -5.52264102E-23
   36.0000000      -1.85027111E-22
   36.1500015      -3.28870280E-22
   36.2999992      -4.70609576E-22
   36.4500008      -5.90133994E-22
   36.5999985      -6.65369615E-22
   36.7500000      -6.75040469E-22
   36.9000015      -6.01923792E-22
   37.0499992      -4.36200903E-22
   37.2000008      -1.78410979E-22
   37.3499985       1.58518141E-22
   37.5000000       5.48642384E-22
   37.6500015       9.54125473E-22
   37.7999992       1.32825395E-21
   37.9500008       1.62021296E-21
   38.0999985       1.78120117E-21
   38.2500000       1.77118877E-21
   38.4000015       1.56542154E-21
   38.5499992       1.15967460E-21
   38.7000008       5.73321538E-22
   38.8499985      -1.50510054E-22
   39.0000000      -9.48062780E-22
   39.1500015      -1.74124952E-21
   39.2999992      -2.44651046E-21
   39.4500008      -2.98513004E-21
   39.5999985      -3.29355229E-21
   39.7500000      -3.33208606E-21
   39.9000015      -3.09048591E-21
   40.0499992      -2.58927343E-21
   40.2000008      -1.87629827E-21
   40.3499985      -1.01882368E-21
   40.5000000      -9.22781719E-23
   40.6500015       8.32446669E-22
   40.7999992       1.70077078E-21
   40.9500008       2.48278806E-21
   41.0999985       3.17608860E-21
   41.2500000       3.80174431E-21
   41.4000015       4.39337555E-21
   41.5499992       4.98066732E-21
   41.7000008       5.57011429E-21
   41.8499985       6.12690297E-21
   42.0000000       6.56239538E-21
   42.1500015       6.73145567E-21
   42.2999992       6.44277570E-21
   42.4500008       5.48342350E-21
   42.5999985       3.65632127E-21
   42.7500000       8.26558864E-22
   42.9000015      -3.03012616E-21
   43.0499992      -7.78519047E-21
   43.2000008      -1.31306198E-20
   43.3499985      -1.85760370E-20
   43.5000000      -2.34754019E-20
   43.6500015      -2.70851357E-20
   43.7999992      -2.86505993E-20
   43.9500008      -2.75125635E-20
   44.0999985      -2.32205770E-20
   44.2500000      -1.56368704E-20
   44.4000015      -5.01326866E-21
   44.5499992       7.97479416E-21
   44.7000008       2.22487755E-20
   44.8499985       3.64068392E-20
   45.0000000       4.88594133E-20
   45.1500015       5.80080373E-20
   45.2999992       6.24470762E-20
   45.4500008       6.11623226E-20
   45.5999985       5.36981226E-20
   45.7500000       4.02667095E-20
   45.9000015       2.17794959E-20
   46.0499992      -2.10255286E-22
   46.2000008      -2.36518564E-20
   46.3499985      -4.62144516E-20
   46.5000000      -6.55514334E-20
   46.6500015      -7.95782387E-20
   46.7999992      -8.67261520E-20
   46.9500008      -8.61367147E-20
   47.0999985      -7.77692077E-20
   47.2500000      -6.24050645E-20
   47.4000015      -4.15487393E-20
   47.5499992      -1.72391888E-20
   47.7000008       8.20009910E-21
   47.8499985       3.24355904E-20
   48.0000000       5.33826792E-20
   48.1500015       6.94124281E-20
   48.2999992       7.94789383E-20
   48.4500008       8.31546640E-20
   48.5999985       8.05772855E-20
   48.7500000       7.23276259E-20
   48.9000015       5.92701922E-20
   49.0499992       4.23941211E-20
   49.2000008       2.26903768E-20
   49.3499985       1.09244386E-21
   49.5000000      -2.15082227E-20
   49.6500015      -4.41795226E-20
   49.7999992      -6.58253529E-20
   49.9500008      -8.50634026E-20
   50.0999985      -1.00153148E-19
   50.2500000      -1.09020595E-19
   50.4000015      -1.09412718E-19
   50.5499992      -9.91906394E-20
   50.7000008      -7.67412096E-20
   50.8499985      -4.14538010E-20
   51.0000000       5.81732053E-21
   51.1500015       6.24027962E-20
   51.2999992       1.23679037E-19
   51.4500008       1.83222419E-19
   51.5999985       2.33303991E-19
   51.7500000       2.65720010E-19
   51.9000015       2.72894406E-19
   52.0499992       2.49127801E-19
   52.2000008       1.91818647E-19
   52.3499985       1.02451663E-19
   52.5000000      -1.28514068E-20
   52.6500015      -1.43389549E-19
   52.7999992      -2.74652268E-19
   52.9500008      -3.89807959E-19
   53.0999985      -4.71803814E-19
   53.2500000      -5.05854239E-19
   53.4000015      -4.81995610E-19
   53.5499992      -3.97321654E-19
   53.7000008      -2.57498559E-19
   53.8499985      -7.72083469E-20
   54.0000000       1.20722616E-19
   54.1500015       3.07589463E-19
   54.2999992       4.52344183E-19
   54.4500008       5.26063812E-19
   54.5999985       5.06818214E-19
   54.7500000       3.84261635E-19
   54.9000015       1.63209624E-19
   55.0499992      -1.34499761E-19
   55.2000008      -4.70409860E-19
   55.3499985      -7.92413022E-19
   55.5000000      -1.04024652E-18
   55.6500015      -1.15310590E-18
   55.7999992      -1.07859864E-18
   55.9500008      -7.81950480E-19
   56.0999985      -2.54190431E-19
   56.2500000       4.81999694E-19
   56.4000015       1.36993393E-18
   56.5499992       2.32090481E-18
   56.7000008       3.22083968E-18
   56.8499985       3.94137045E-18
   57.0000000       4.35442061E-18
   57.1500015       4.34880736E-18
   57.2999992       3.84691966E-18
   57.4500008       2.81925921E-18
   57.5999985       1.29469089E-18
   57.7500000      -6.35449866E-19
   57.9000015      -2.82062220E-18
   58.0499992      -5.06210216E-18
   58.2000008      -7.13117369E-18
   58.3499985      -8.79288690E-18
   58.5000000      -9.83291845E-18
   58.6500015      -1.00843913E-17
   58.7999992      -9.45129206E-18
   58.9500008      -7.92522076E-18
   59.0999985      -5.59283199E-18
   59.2500000      -2.63232901E-18
   59.4000015       7.01333406E-19
   59.5499992       4.10143321E-18
   59.7000008       7.24213501E-18
   59.8499985       9.81512332E-18
   60.0000000       1.15657791E-17
   60.1500015       1.23242450E-17
   60.2999992       1.20271598E-17
   60.4500008       1.07268385E-17
   60.5999985       8.58623319E-18
   60.7500000       5.85981612E-18
   60.9000015       2.86249904E-18
   61.0499992      -6.95893995E-20
   61.2000008      -2.62132874E-18
   61.3499985      -4.53808407E-18
   61.5000000      -5.65683178E-18
   61.6500015      -5.92434696E-18
   61.7999992      -5.39958647E-18
   61.9500008      -4.23964309E-18
   62.0999985      -2.67113825E-18
   62.2500000      -9.51250570E-19
   62.4000015       6.75578155E-19
   62.5499992       2.01820510E-18
   62.7000008       2.96955214E-18
   62.8499985       3.52169540E-18
   63.0000000       3.76153270E-18
   63.1500015       3.84631457E-18
   63.2999992       3.96165168E-18
   63.4500008       4.26795542E-18
   63.5999985       4.84398580E-18
   63.7500000       5.63771440E-18
   63.9000015       6.43500567E-18
   64.0500031       6.85499049E-18
   64.1999969       6.37806214E-18
   64.3499985       4.40787922E-18
   64.5000000       3.63599207E-19
   64.6500015      -6.20690441E-18
   64.8000031      -1.55068092E-17
   64.9499969      -2.73805088E-17
   65.0999985      -4.12328856E-17
   65.2500000      -5.59952570E-17
   65.4000015      -7.01517054E-17
   65.5500031      -8.18333287E-17
   65.6999969      -8.89795736E-17
   65.8499985      -8.95569920E-17
   66.0000000      -8.18162160E-17
   66.1500015      -6.45605204E-17
   66.3000031      -3.73937418E-17
   66.4499969      -9.13576939E-19
   66.5999985       4.31816272E-17
   66.7500000       9.20980446E-17
   66.9000015       1.42078554E-16
   67.0500031       1.88663645E-16
   67.1999969       2.27067590E-16
   67.3499985       2.52641129E-16
   67.5000000       2.61378565E-16
   67.6500015       2.50417271E-16
   67.8000031       2.18472349E-16
   67.9499969       1.66151151E-16
   68.0999985       9.60992826E-17
   68.2500000       1.29445817E-17
   68.4000015      -7.69758992E-17
   68.5500031      -1.66097735E-16
   68.6999969      -2.46287879E-16
   68.8499985      -3.09626065E-16
   69.0000000      -3.49236105E-16
   69.1500015      -3.60082123E-16
   69.3000031      -3.39641551E-16
   69.4499969      -2.88372049E-16
   69.5999985      -2.09904532E-16
   69.7500000      -1.10918872E-16
   69.9000015      -6.88579522E-19
   70.0500031       1.09684639E-16
   70.1999969       2.08290749E-16
   70.3499985       2.83598569E-16
   70.5000000       3.25698674E-16
   70.6500015       3.27475193E-16
   70.8000031       2.85578349E-16
   70.9499969       2.01079454E-16
   71.0999985       7.97158853E-17
   71.2500000      -6.83316632E-17
   71.4000015      -2.29141629E-16
   71.5500031      -3.86196943E-16
   71.6999969      -5.21887068E-16
   71.8499985      -6.19237465E-16
   72.0000000      -6.63703254E-16
   72.1500015      -6.44846395E-16
   72.3000031      -5.57714021E-16
   72.4499969      -4.03755036E-16
   72.5999985      -1.91146815E-16
   72.7500000       6.55414639E-17
   72.9000015       3.46359713E-16
   73.0500031       6.27603345E-16
   73.1999969       8.83927797E-16
   73.3499985       1.09076520E-15
   73.5000000       1.22681245E-15
   73.6500015       1.27633942E-15
   73.8000031       1.23106403E-15
   73.9499969       1.09137633E-15
   74.0999985       8.66741710E-16
   74.2500000       5.75191858E-16
   74.4000015       2.41902022E-16
   74.5500031      -1.03053211E-16
   74.6999969      -4.27578605E-16
   74.8499985      -7.00807850E-16
   75.0000000      -8.96404063E-16
   75.1500015      -9.95566316E-16
   75.3000031      -9.89406586E-16
   75.4499969      -8.80409116E-16
   75.5999985      -6.82758372E-16
   75.7500000      -4.21435552E-16
   75.9000015      -1.30100026E-16
   76.0500031       1.52093448E-16
   76.1999969       3.84472861E-16
   76.3499985       5.29251755E-16
   76.5000000       5.55919370E-16
   76.6500015       4.45156471E-16
   76.8000031       1.91837345E-16
   76.9499969      -1.93253174E-16
   77.0999985      -6.83245045E-16
   77.2500000      -1.23666429E-15
   77.4000015      -1.80051824E-15
   77.5500031      -2.31476550E-15
   77.6999969      -2.71779838E-15
   77.8499985      -2.95244176E-15
   78.0000000      -2.97189535E-15
   78.1500015      -2.74502732E-15
   78.3000031      -2.26046094E-15
   78.4499969      -1.52899569E-15
   78.5999985      -5.84051981E-16
   78.7500000       5.19991250E-16
   78.9000015       1.71148587E-15
   79.0500031       2.90695567E-15
   79.1999969       4.01782794E-15
   79.3499985       4.95785833E-15
   79.5000000       5.65056907E-15
   79.6500015       6.03600337E-15
   79.8000031       6.07615739E-15
   79.9499969       5.75856112E-15
   80.0999985       5.09766281E-15
   80.2500000       4.13386807E-15
   80.4000015       2.93032170E-15
   80.5500031       1.56771833E-15
   80.6999969       1.37634000E-16
   80.8499985      -1.26500961E-15
   81.0000000      -2.54965345E-15
   81.1500015      -3.63728695E-15
   81.3000031      -4.46647546E-15
   81.4499969      -4.99772393E-15
   81.5999985      -5.21584212E-15
   81.7500000      -5.13016939E-15
   81.9000015      -4.77272996E-15
   82.0500031      -4.19456475E-15
   82.1999969      -3.46065941E-15
   82.3499985      -2.64397375E-15
   82.5000000      -1.81913327E-15
   82.6500015      -1.05633860E-15
   82.8000031      -4.15976980E-16
   82.9499969       5.56783145E-17
   83.0999985       3.29429536E-16
   83.2500000       3.94663779E-16
   83.4000015       2.59429013E-16
   83.5500031      -5.07912057E-17
   83.6999969      -4.95393254E-16
   83.8499985      -1.02180422E-15
   84.0000000      -1.56920583E-15
   84.1500015      -2.07258650E-15
   84.3000031      -2.46691443E-15
   84.4499969      -2.69127143E-15
   84.5999985      -2.69282256E-15
   84.7500000      -2.43051509E-15
   84.9000015      -1.87841753E-15
   85.0500031      -1.02857042E-15
   85.1999969       1.06804740E-16
   85.3499985       1.49392609E-15
   85.5000000       3.07714534E-15
   85.6500015       4.77994372E-15
   85.8000031       6.50745640E-15
   85.9499969       8.15066940E-15
   86.0999985       9.59231524E-15
   86.2500000       1.07143383E-14
   86.4000015       1.14065921E-14
   86.5500031       1.15762367E-14
   86.6999969       1.11571112E-14
   86.8499985       1.01182041E-14
   87.0000000       8.47027442E-15
   87.1500015       6.26970611E-15
   87.3000031       3.61880427E-15
   87.4499969       6.61997276E-16
   87.5999985      -2.42225843E-15
   87.7500000      -5.43361598E-15
   87.9000015      -8.16534594E-15
   88.0500031      -1.04220628E-14
   88.1999969      -1.20381483E-14
   88.3499985      -1.28951169E-14
   88.5000000      -1.29360100E-14
   88.6500015      -1.21750915E-14
   88.8000031      -1.07013355E-14
   88.9499969      -8.67477104E-15
   89.0999985      -6.31534425E-15
   89.2500000      -3.88477050E-15
   89.4000015      -1.66259534E-15
   89.5500031       8.15656465E-17
   89.6999969       1.11705202E-15
   89.8499985       1.27954936E-15
   90.0000000       4.93831431E-16
   90.1500015      -1.21088929E-15
   90.3000031      -3.69523798E-15
   90.4499969      -6.71493585E-15
   90.5999985      -9.93741002E-15
   90.7500000      -1.29688893E-14
   90.9000015      -1.53899940E-14
   91.0500031      -1.67967938E-14
   91.1999969      -1.68434907E-14
   91.3499985      -1.52824225E-14
   91.5000000      -1.19971163E-14
   91.6500015      -7.02450141E-15
   91.8000031      -5.63283210E-16
   91.9499969       7.03327286E-15
   92.0999985       1.52803964E-14
   92.2500000       2.35993222E-14
   92.4000015       3.13662568E-14
   92.5500031       3.79685094E-14
   92.6999969       4.28623642E-14
   92.8499985       4.56270052E-14
   93.0000000       4.60085800E-14
   93.1500015       4.39495547E-14
   93.3000031       3.95995018E-14
   93.4499969       3.33053152E-14
   93.5999985       2.55809405E-14
   93.7500000       1.70586998E-14
   93.9000015       8.42654549E-15
   94.0500031       3.57075765E-16
   94.1999969      -6.56457946E-15
   94.3499985      -1.19063813E-14
   94.5000000      -1.54412599E-14
   94.6500015      -1.71789734E-14
   94.8000031      -1.73734911E-14
   94.9499969      -1.65037678E-14
   95.0999985      -1.52283530E-14
   95.2500000      -1.43172099E-14
   95.4000015      -1.45664900E-14
   95.5500031      -1.67041724E-14
   95.6999969      -2.12958923E-14
   95.8499985      -2.86606337E-14
   96.0000000      -3.88056388E-14
   96.1500015      -5.13883403E-14
   96.3000031      -6.57108238E-14
   96.4499969      -8.07493788E-14
   96.5999985      -9.52184295E-14
   96.7500000      -1.07664535E-13
   96.9000015      -1.16583243E-13
   97.0500031      -1.20549038E-13
   97.1999969      -1.18346698E-13
   97.3499985      -1.09092368E-13
   97.5000000      -9.23326696E-14
   97.6500015      -6.81122910E-14
   97.8000031      -3.70030104E-14
   97.9499969      -9.05529837E-17
   98.0999985       4.10803864E-14
   98.2500000       8.45989538E-14
   98.4000015       1.28311099E-13
   98.5500031       1.69962351E-13
   98.6999969       2.07348312E-13
   98.8499985       2.38460022E-13
   99.0000000       2.61612184E-13
   99.1500015       2.75544046E-13
   99.3000031       2.79485067E-13
   99.4499969       2.73182139E-13
   99.5999985       2.56887258E-13
   99.7500000       2.31309980E-13
   99.9000015       1.97540823E-13
   100.050003       1.56955164E-13
   100.199997       1.11108198E-13
   100.349998       6.16313844E-14
   100.500000       1.01404125E-14
   100.650002      -4.18377796E-14
   100.800003      -9.29141136E-14
   100.949997      -1.41860888E-13
   101.099998      -1.87611875E-13
   101.250000      -2.29243219E-13
   101.400002      -2.65942731E-13
   101.550003      -2.96975254E-13
   101.699997      -3.21653376E-13
   101.849998      -3.39320369E-13
   102.000000      -3.49350919E-13
   102.150002      -3.51172921E-13
   102.300003      -3.44309054E-13
   102.449997      -3.28434898E-13
   102.599998      -3.03447073E-13
   102.750000      -2.69532064E-13
   102.900002      -2.27226780E-13
   103.050003      -1.77460639E-13
   103.199997      -1.21570966E-13
   103.349998      -6.12862829E-14
   103.500000       1.32568174E-15
   103.650002       6.39435675E-14
   103.800003       1.24106820E-13
   103.949997       1.79350932E-13
   104.099998       2.27352412E-13
   104.250000       2.66071561E-13
   104.400002       2.93881103E-13
   104.550003       3.09669445E-13
   104.699997       3.12910152E-13
   104.849998       3.03693133E-13
   105.000000       2.82715257E-13
   105.150002       2.51234119E-13
   105.300003       2.10989890E-13
   105.449997       1.64104949E-13
   105.599998       1.12970471E-13
   105.750000       6.01306860E-14
   105.900002       8.17367651E-15
   106.050003      -4.03644505E-14
   106.199997      -8.30783467E-14
   106.349998      -1.17754656E-13
   106.500000      -1.42418521E-13
   106.650002      -1.55370481E-13
   106.800003      -1.55220834E-13
   106.949997      -1.40927743E-13
   107.099998      -1.11845076E-13
   107.250000      -6.77828155E-14
   107.400002      -9.07907850E-15
   107.550003       6.33204426E-14
   107.699997       1.47785281E-13
   107.849998       2.41936543E-13
   108.000000       3.42611654E-13
   108.150002       4.45871855E-13
   108.300003       5.47065540E-13
   108.449997       6.40956743E-13
   108.599998       7.21921871E-13
   108.750000       7.84212972E-13
   108.900002       8.22274757E-13
   109.050003       8.31099133E-13
   109.199997       8.06591447E-13
   109.349998       7.45919711E-13
   109.500000       6.47815785E-13
   109.650002       5.12798842E-13
   109.800003       3.43293834E-13
   109.949997       1.43628178E-13
   110.099998      -8.01043463E-14
   110.250000      -3.20309371E-13
   110.400002      -5.68274160E-13
   110.550003      -8.14641757E-13
   110.699997      -1.04994225E-12
   110.849998      -1.26514077E-12
   111.000000      -1.45215903E-12
   111.150002      -1.60432887E-12
   111.300003      -1.71673775E-12
   111.449997      -1.78644339E-12
   111.599998      -1.81253612E-12
   111.750000      -1.79605181E-12
   111.900002      -1.73974377E-12
   112.050003      -1.64774119E-12
   112.199997      -1.52512833E-12
   112.349998      -1.37749057E-12
   112.500000      -1.21046847E-12
   112.650002      -1.02936886E-12
   112.800003      -8.38865598E-13
   112.949997      -6.42818264E-13
   113.099998      -4.44220290E-13
   113.250000      -2.45273013E-13
   113.400002      -4.75686588E-14
   113.550003       1.47650541E-13
   113.699997       3.39196824E-13
   113.849998       5.25652221E-13
   114.000000       7.05139668E-13
   114.150002       8.75190111E-13
   114.300003       1.03273531E-12
   114.449997       1.17423844E-12
   114.599998       1.29596139E-12
   114.750000       1.39434623E-12
   114.900002       1.46647137E-12
   115.050003       1.51053464E-12
   115.199997       1.52630296E-12
   115.349998       1.51546495E-12
   115.500000       1.48183852E-12
   115.650002       1.43138203E-12
   115.800003       1.37198857E-12
   115.949997       1.31305611E-12
   116.099998       1.26485573E-12
   116.250000       1.23773680E-12
   116.400002       1.24123455E-12
   116.550003       1.28315522E-12
   116.699997       1.36872458E-12
   116.849998       1.49988279E-12
   117.000000       1.67480255E-12
   117.150002       1.88768467E-12
   117.300003       2.12886913E-12
   117.449997       2.38526364E-12
   117.599998       2.64106770E-12
   117.750000       2.87874043E-12
   117.900002       3.08013294E-12
   118.050003       3.22769589E-12
   118.199997       3.30565501E-12
   118.349998       3.30105865E-12
