  -1.50000000         0.00000000    
  -1.35000002         0.00000000    
  -1.20000005         0.00000000    
  -1.04999995        -4.67494804E-27
 -0.899999976        -4.19817876E-26
 -0.750000000        -2.18772206E-25
 -0.600000024        -8.64286559E-25
 -0.449999988        -2.86104408E-24
 -0.300000012        -8.33912278E-24
 -0.150000006        -2.20290086E-23
   0.00000000        -5.37865876E-23
  0.150000006        -1.23295186E-22
  0.300000012        -2.69139197E-22
  0.449999988        -5.67140302E-22
  0.600000024        -1.16836131E-21
  0.750000000        -2.37716017E-21
  0.899999976        -4.80578123E-21
   1.04999995        -9.66497780E-21
   1.20000005        -1.92790032E-20
   1.35000002        -3.79426293E-20
   1.50000000        -7.32610798E-20
   1.64999998        -1.38113882E-19
   1.79999995        -2.53351230E-19
   1.95000005        -4.51248893E-19
   2.09999990        -7.79607026E-19
   2.25000000        -1.30619263E-18
   2.40000010        -2.12299854E-18
   2.54999995        -3.34956346E-18
   2.70000005        -5.13442049E-18
   2.84999990        -7.65362345E-18
   3.00000000        -1.11053241E-17
   3.15000010        -1.56995009E-17
   3.29999995        -2.16422411E-17
   3.45000005        -2.91143521E-17
   3.59999990        -3.82445897E-17
   3.75000000        -4.90782569E-17
   3.90000010        -6.15425420E-17
   4.05000019        -7.54104036E-17
   4.19999981        -9.02653300E-17
   4.34999990        -1.05469757E-16
   4.50000000        -1.20140242E-16
   4.65000010        -1.33132814E-16
   4.80000019        -1.43042054E-16
   4.94999981        -1.48217637E-16
   5.09999990        -1.46801040E-16
   5.25000000        -1.36785220E-16
   5.40000010        -1.16097856E-16
   5.55000019        -8.27071954E-17
   5.69999981        -3.47471543E-17
   5.84999990         2.93450793E-17
   6.00000000         1.10688069E-16
   6.15000010         2.09823322E-16
   6.30000019         3.26603834E-16
   6.44999981         4.60116026E-16
   6.59999990         6.08646112E-16
   6.75000000         7.69695822E-16
   6.90000010         9.40047541E-16
   7.05000019         1.11587189E-15
   7.19999981         1.29286450E-15
   7.34999990         1.46639138E-15
   7.50000000         1.63162464E-15
   7.65000010         1.78364556E-15
   7.80000019         1.91750260E-15
   7.94999981         2.02821531E-15
   8.10000038         2.11072775E-15
   8.25000000         2.15982157E-15
   8.39999962         2.17001138E-15
   8.55000019         2.13544269E-15
   8.69999981         2.04982121E-15
   8.85000038         1.90639122E-15
   9.00000000         1.69798522E-15
   9.14999962         1.41715039E-15
   9.30000019         1.05636454E-15
   9.44999981         6.08343668E-16
   9.60000038         6.64565176E-17
   9.75000000        -5.74739172E-16
   9.89999962        -1.31881389E-15
   10.0500002        -2.16661414E-15
   10.1999998        -3.11522243E-15
   10.3500004        -4.15673160E-15
   10.5000000        -5.27689710E-15
   10.6499996        -6.45375367E-15
   10.8000002        -7.65638756E-15
   10.9499998        -8.84410732E-15
   11.1000004        -9.96632349E-15
   11.2500000        -1.09634693E-14
   11.3999996        -1.17692873E-14
   11.5500002        -1.23147156E-14
   11.6999998        -1.25334737E-14
   11.8500004        -1.23692348E-14
   12.0000000        -1.17840020E-14
   12.1499996        -1.07670678E-14
   12.3000002        -9.34362722E-15
   12.4499998        -7.58199774E-15
   12.6000004        -5.59824446E-15
   12.7500000        -3.55710131E-15
   12.8999996        -1.66830032E-15
   13.0500002        -1.77761670E-16
   13.1999998         6.46371636E-16
   13.3500004         5.32326802E-16
   13.5000000        -7.73200367E-16
   13.6499996        -3.48110128E-15
   13.8000002        -7.73601289E-15
   13.9499998        -1.35946984E-14
   14.1000004        -2.10086533E-14
   14.2500000        -2.98125003E-14
   14.3999996        -3.97192147E-14
   14.5500002        -5.03222952E-14
   14.6999998        -6.11044621E-14
   14.8500004        -7.14515727E-14
   15.0000000        -8.06699813E-14
   15.1499996        -8.80055916E-14
   15.3000002        -9.26628227E-14
   15.4499998        -9.38225124E-14
   15.6000004        -9.06582209E-14
   15.7500000        -8.23518703E-14
   15.8999996        -6.81101565E-14
   16.0499992        -4.71838619E-14
   16.2000008        -1.88927938E-14
   16.3500004         1.73416714E-14
   16.5000000         6.19547409E-14
   16.6499996         1.15187089E-13
   16.7999992         1.77025671E-13
   16.9500008         2.47139521E-13
   17.1000004         3.24814421E-13
   17.2500000         4.08891887E-13
   17.3999996         4.97716722E-13
   17.5499992         5.89097673E-13
   17.7000008         6.80284008E-13
   17.8500004         7.67958234E-13
   18.0000000         8.48244868E-13
   18.1499996         9.16732835E-13
   18.2999992         9.68510320E-13
   18.4500008         9.98212906E-13
   18.6000004         1.00008684E-12
   18.7500000         9.68080108E-13
   18.8999996         8.95972315E-13
   19.0499992         7.77566596E-13
   19.2000008         6.06965162E-13
   19.3500004         3.78954274E-13
   19.5000000         8.95158649E-14
   19.6499996        -2.63527156E-13
   19.7999992        -6.79741853E-13
   19.9500008        -1.15522609E-12
   20.1000004        -1.68172453E-12
   20.2500000        -2.24580792E-12
   20.3999996        -2.82823396E-12
   20.5499992        -3.40362547E-12
   20.7000008        -3.94060392E-12
   20.8500004        -4.40251047E-12
   21.0000000        -4.74881115E-12
   21.1499996        -4.93723248E-12
   21.2999992        -4.92660643E-12
   21.4500008        -4.68031386E-12
   21.6000004        -4.17013386E-12
   21.7500000        -3.38021213E-12
   21.8999996        -2.31078264E-12
   22.0499992        -9.81244599E-13
   22.2000008         5.67828879E-13
   22.3500004         2.27414095E-12
   22.5000000         4.05488360E-12
   22.6499996         5.80990551E-12
   22.7999992         7.42684907E-12
   22.9500008         8.78809438E-12
   23.1000004         9.77912890E-12
   23.2500000         1.02977965E-11
   23.3999996         1.02636805E-11
   23.5499992         9.62681931E-12
   23.7000008         8.37486677E-12
   23.8500004         6.53789306E-12
   24.0000000         4.19012351E-12
   24.1499996         1.44816613E-12
   24.2999992        -1.53447806E-12
   24.4500008        -4.57645944E-12
   24.6000004        -7.48068621E-12
   24.7500000        -1.00486468E-11
   24.8999996        -1.20958287E-11
   25.0499992        -1.34669090E-11
   25.2000008        -1.40492860E-11
   25.3500004        -1.37836019E-11
   25.5000000        -1.26700447E-11
   25.6499996        -1.07695849E-11
   25.7999992        -8.19969873E-12
   25.9500008        -5.12469624E-12
   26.1000004        -1.74126328E-12
   26.2500000         1.73955078E-12
   26.3999996         5.11227302E-12
   26.5499992         8.19686680E-12
   26.7000008         1.08563523E-11
   26.8500004         1.30101173E-11
   27.0000000         1.46410887E-11
   27.1499996         1.57954379E-11
   27.2999992         1.65743062E-11
   27.4500008         1.71177118E-11
   27.6000004         1.75818613E-11
   27.7500000         1.81118818E-11
   27.8999996         1.88128037E-11
   28.0499992         1.97221076E-11
   28.2000008         2.07874152E-11
   28.3500004         2.18527644E-11
   28.5000000         2.26562970E-11
   28.6499996         2.28414301E-11
   28.7999992         2.19821470E-11
   28.9500008         1.96216914E-11
   29.1000004         1.53223389E-11
   29.2500000         8.72238826E-12
   29.3999996        -4.04707490E-13
   29.5499992        -1.20951495E-11
   29.7000008        -2.61498444E-11
   29.8500004        -4.21058084E-11
   30.0000000        -5.92291077E-11
   30.1499996        -7.65329050E-11
   30.2999992        -9.28221319E-11
   30.4500008        -1.06763764E-10
   30.6000004        -1.16979232E-10
   30.7500000        -1.22152677E-10
   30.8999996        -1.21147092E-10
   31.0499992        -1.13118286E-10
   31.2000008        -9.76164566E-11
   31.3500004        -7.46651699E-11
   31.5000000        -4.48086741E-11
   31.6499996        -9.12105374E-12
   31.7999992         3.08265392E-11
   31.9500008         7.30406916E-11
   32.0999985         1.15218897E-10
   32.2500000         1.54893556E-10
   32.4000015         1.89596422E-10
   32.5499992         2.17030574E-10
   32.7000008         2.35235803E-10
   32.8499985         2.42733250E-10
   33.0000000         2.38636777E-10
   33.1500015         2.22720994E-10
   33.2999992         1.95439637E-10
   33.4500008         1.57892477E-10
   33.5999985         1.11743538E-10
   33.7500000         5.90979279E-11
   33.9000015         2.34890991E-12
   34.0499992        -5.59908925E-11
   34.2000008        -1.13458229E-10
   34.3499985        -1.67792155E-10
   34.5000000        -2.17057330E-10
   34.6500015        -2.59726213E-10
   34.7999992        -2.94714197E-10
   34.9500008        -3.21365656E-10
   35.0999985        -3.39394596E-10
   35.2500000        -3.48788859E-10
   35.4000015        -3.49691137E-10
   35.5499992        -3.42271933E-10
   35.7000008        -3.26612598E-10
   35.8499985        -3.02614045E-10
   36.0000000        -2.69946177E-10
   36.1500015        -2.28047928E-10
   36.2999992        -1.76182527E-10
   36.4500008        -1.13548393E-10
   36.5999985        -3.94366068E-11
   36.7500000         4.65756843E-11
   36.9000015         1.44414675E-10
   37.0499992         2.53302324E-10
   37.2000008         3.71572856E-10
   37.3499985         4.96535590E-10
   37.5000000         6.24401919E-10
   37.6500015         7.50290441E-10
   37.7999992         8.68319694E-10
   37.9500008         9.71789760E-10
   38.0999985         1.05344755E-09
   38.2500000         1.10582588E-09
   38.4000015         1.12163601E-09
   38.5499992         1.09419529E-09
   38.7000008         1.01786080E-09
   38.8499985         8.88444818E-10
   39.0000000         7.03584524E-10
   39.1500015         4.63039829E-10
   39.2999992         1.68900213E-10
   39.4500008        -1.74318587E-10
   39.5999985        -5.59698121E-10
   39.7500000        -9.78066961E-10
   39.9000015        -1.41827372E-09
   40.0499992        -1.86757743E-09
   40.2000008        -2.31213892E-09
   40.3499985        -2.73759326E-09
   40.5000000        -3.12967985E-09
   40.6500015        -3.47489792E-09
   40.7999992        -3.76115850E-09
   40.9500008        -3.97839850E-09
   41.0999985        -4.11912593E-09
   41.2500000        -4.17886481E-09
   41.4000015        -4.15647339E-09
   41.5499992        -4.05431999E-09
   41.7000008        -3.87829280E-09
   41.8499985        -3.63765063E-09
   42.0000000        -3.34470407E-09
   42.1500015        -3.01434899E-09
   42.2999992        -2.66346634E-09
   42.4500008        -2.31021202E-09
   42.5999985        -1.97323580E-09
   42.7500000        -1.67085989E-09
   42.9000015        -1.42025558E-09
   43.0499992        -1.23666022E-09
   43.2000008        -1.13266674E-09
   43.3499985        -1.11761822E-09
   43.5000000        -1.19713872E-09
   43.6500015        -1.37281697E-09
   43.7999992        -1.64206004E-09
   43.9500008        -1.99812145E-09
   44.0999985        -2.43030551E-09
   44.2500000        -2.92433788E-09
   44.4000015        -3.46288997E-09
   44.5499992        -4.02623490E-09
   44.7000008        -4.59301264E-09
   44.8499985        -5.14107068E-09
   45.0000000        -5.64835023E-09
   45.1500015        -6.09378237E-09
   45.2999992        -6.45815490E-09
   45.4500008        -6.72491662E-09
   45.5999985        -6.88088253E-09
   45.7500000        -6.91680935E-09
   45.9000015        -6.82781254E-09
   46.0499992        -6.61360433E-09
   46.2000008        -6.27854702E-09
   46.3499985        -5.83150017E-09
   46.5000000        -5.28548716E-09
   46.6500015        -4.65717509E-09
   46.7999992        -3.96620736E-09
   46.9500008        -3.23440363E-09
   47.0999985        -2.48487453E-09
   47.2500000        -1.74108417E-09
   47.4000015        -1.02590514E-09
   47.5499992        -3.60703245E-10
   47.7000008         2.35504061E-10
   47.8499985         7.46786910E-10
   48.0000000         1.16090848E-09
   48.1500015         1.46977552E-09
   48.2999992         1.66972003E-09
   48.4500008         1.76160297E-09
   48.5999985         1.75074122E-09
   48.7500000         1.64666081E-09
   48.9000015         1.46268886E-09
   49.0499992         1.21539934E-09
   49.2000008         9.23931265E-10
   49.3499985         6.09206519E-10
   49.5000000         2.93073094E-10
   49.6500015        -2.59842430E-12
   49.7999992        -2.56827337E-10
   49.9500008        -4.50411153E-10
   50.0999985        -5.66758973E-10
   50.2500000        -5.92624450E-10
   50.4000015        -5.18719956E-10
   50.5499992        -3.40170225E-10
   50.7000008        -5.67895349E-11
   50.8499985         3.26832034E-10
   51.0000000         8.01444966E-10
   51.1500015         1.35345146E-09
   51.2999992         1.96540229E-09
   51.4500008         2.61665423E-09
   51.5999985         3.28416272E-09
   51.7500000         3.94337141E-09
   51.9000015         4.56916016E-09
   52.0499992         5.13681453E-09
   52.2000008         5.62297275E-09
   52.3499985         6.00652195E-09
   52.5000000         6.26940722E-09
   52.6500015         6.39733155E-09
   52.7999992         6.38033137E-09
   52.9500008         6.21320773E-09
   53.0999985         5.89581228E-09
   53.2500000         5.43317613E-09
   53.4000015         4.83549023E-09
   53.5499992         4.11792556E-09
   53.7000008         3.30029759E-09
   53.8499985         2.40658493E-09
   54.0000000         1.46429191E-09
   54.1500015         5.03673547E-10
   54.2999992        -4.43171166E-10
   54.4500008        -1.34332079E-09
   54.5999985        -2.16414442E-09
   54.7500000        -2.87447244E-09
   54.9000015        -3.44578788E-09
   55.0499992        -3.85339494E-09
   55.2000008        -4.07750322E-09
   55.3499985        -4.10418632E-09
   55.5000000        -3.92615185E-09
   55.6500015        -3.54327301E-09
   55.7999992        -2.96284264E-09
   55.9500008        -2.19951435E-09
   56.0999985        -1.27491562E-09
   56.2500000        -2.16930543E-10
   56.4000015         9.41327127E-10
   56.5499992         2.16281792E-09
   56.7000008         3.40810158E-09
   56.8499985         4.63701477E-09
   57.0000000         5.81041970E-09
   57.1500015         6.89193547E-09
   57.2999992         7.84956011E-09
   57.4500008         8.65708660E-09
   57.5999985         9.29524990E-09
   57.7500000         9.75250725E-09
   57.9000015         1.00254285E-08
   58.0499992         1.01186517E-08
   58.2000008         1.00444124E-08
   58.3499985         9.82165282E-09
   58.5000000         9.47478185E-09
   58.6500015         9.03214659E-09
   58.7999992         8.52430837E-09
   58.9500008         7.98223354E-09
   59.0999985         7.43552508E-09
   59.2500000         6.91079105E-09
   59.4000015         6.43026610E-09
   59.5499992         6.01078742E-09
   59.7000008         5.66316638E-09
   59.8499985         5.39201173E-09
   60.0000000         5.19600363E-09
   60.1500015         5.06858866E-09
   60.2999992         4.99902963E-09
   60.4500008         4.97373875E-09
   60.5999985         4.97776398E-09
   60.7500000         4.99632868E-09
   60.9000015         5.01629316E-09
   61.0499992         5.02742692E-09
   61.2000008         5.02339459E-09
   61.3499985         5.00238206E-09
   61.5000000         4.96731500E-09
   61.6500015         4.92566921E-09
   61.7999992         4.88888041E-09
   61.9500008         4.87141483E-09
   62.0999985         4.88956919E-09
   62.2500000         4.96010211E-09
   62.4000015         5.09879294E-09
   62.5499992         5.31904609E-09
   62.7000008         5.63062930E-09
   62.8499985         6.03865180E-09
   63.0000000         6.54283916E-09
   63.1500015         7.13716197E-09
   63.2999992         7.80983722E-09
   63.4500008         8.54370974E-09
   63.5999985         9.31697652E-09
   63.7500000         1.01042215E-08
   63.9000015         1.08776792E-08
   64.0500031         1.16086785E-08
   64.1999969         1.22691377E-08
   64.3499985         1.28330679E-08
   64.5000000         1.32779592E-08
   64.6500015         1.35859990E-08
   64.8000031         1.37450273E-08
   64.9499969         1.37491982E-08
   65.0999985         1.35993048E-08
   65.2500000         1.33027438E-08
   65.4000015         1.28731497E-08
   65.5500031         1.23297008E-08
   65.6999969         1.16961676E-08
   65.8499985         1.09997469E-08
   66.0000000         1.02697646E-08
   66.1500015         9.53631929E-09
   66.3000031         8.82893936E-09
   66.4499969         8.17533508E-09
   66.5999985         7.60028662E-09
   66.7500000         7.12472525E-09
   66.9000015         6.76502632E-09
   67.0500031         6.53252652E-09
   67.1999969         6.43325304E-09
   67.3499985         6.46785514E-09
   67.5000000         6.63170363E-09
   67.6500015         6.91512847E-09
   67.8000031         7.30376826E-09
   67.9499969         7.77900855E-09
   68.0999985         8.31848634E-09
   68.2500000         8.89666296E-09
   68.4000015         9.48546042E-09
   68.5500031         1.00549657E-08
   68.6999969         1.05742251E-08
   68.8499985         1.10121112E-08
   69.0000000         1.13382859E-08
   69.1500015         1.15242296E-08
   69.3000031         1.15443237E-08
   69.4499969         1.13769438E-08
   69.5999985         1.10055174E-08
   69.7500000         1.04194742E-08
   69.9000015         9.61505719E-09
   70.0500031         8.59589377E-09
   70.1999969         7.37330241E-09
   70.3499985         5.96628791E-09
   70.5000000         4.40119230E-09
   70.6500015         2.71101053E-09
   70.8000031         9.34383793E-10
   70.9499969        -8.85692020E-10
   71.0999985        -2.70338574E-09
   71.2500000        -4.47170967E-09
   71.4000015        -6.14428108E-09
   71.5500031        -7.67708830E-09
   71.6999969        -9.03018282E-09
   71.8499985        -1.01692246E-08
   72.0000000        -1.10668230E-08
   72.1500015        -1.17036114E-08
   72.3000031        -1.20690302E-08
   72.4499969        -1.21617738E-08
   72.5999985        -1.19898962E-08
   72.7500000        -1.15705650E-08
   72.9000015        -1.09294698E-08
   73.0500031        -1.00998943E-08
   73.1999969        -9.12148757E-09
   73.3499985        -8.03876965E-09
   73.5000000        -6.89940149E-09
   73.6500015        -5.75231640E-09
   73.8000031        -4.64574912E-09
   73.9499969        -3.62525965E-09
   74.0999985        -2.73184386E-09
   74.2500000        -2.00020689E-09
   74.4000015        -1.45729884E-09
   74.5500031        -1.12118448E-09
   74.6999969        -1.00031794E-09
   74.8499985        -1.09326204E-09
   75.0000000        -1.38888123E-09
   75.1500015        -1.86700033E-09
   75.3000031        -2.49950127E-09
   75.4499969        -3.25179617E-09
   75.5999985        -4.08460377E-09
   75.7500000        -4.95592900E-09
   75.9000015        -5.82313753E-09
   76.0500031        -6.64500988E-09
   76.1999969        -7.38367811E-09
   76.3499985        -8.00633071E-09
   76.5000000        -8.48662030E-09
   76.6500015        -8.80569484E-09
   76.8000031        -8.95283581E-09
   76.9499969        -8.92567265E-09
   77.0999985        -8.72998918E-09
   77.2500000        -8.37916669E-09
   77.4000015        -7.89328691E-09
   77.5500031        -7.29799110E-09
   77.6999969        -6.62313449E-09
   77.8499985        -5.90134075E-09
   78.0000000        -5.16650944E-09
   78.1500015        -4.45236203E-09
   78.3000031        -3.79108034E-09
   78.4499969        -3.21209326E-09
   78.5999985        -2.74105383E-09
   78.7500000        -2.39903097E-09
   78.9000015        -2.20193308E-09
   79.0500031        -2.16016782E-09
   79.1999969        -2.27852914E-09
   79.3499985        -2.55629740E-09
   79.5000000        -2.98752889E-09
   79.6500015        -3.56150287E-09
   79.8000031        -4.26329638E-09
   79.9499969        -5.07445819E-09
   80.0999985        -5.97373973E-09
   80.2500000        -6.93786317E-09
   80.4000015        -7.94229127E-09
   80.5500031        -8.96198671E-09
   80.6999969        -9.97212624E-09
   80.8499985        -1.09487797E-08
   81.0000000        -1.18695231E-08
   81.1500015        -1.27139907E-08
   81.3000031        -1.34643638E-08
   81.4499969        -1.41057876E-08
   81.5999985        -1.46267203E-08
   81.7500000        -1.50192090E-08
   81.9000015        -1.52790776E-08
   82.0500031        -1.54060480E-08
   82.1999969        -1.54037512E-08
   82.3499985        -1.52796389E-08
   82.5000000        -1.50447814E-08
   82.6500015        -1.47135317E-08
   82.8000031        -1.43030681E-08
   82.9499969        -1.38327882E-08
   83.0999985        -1.33235751E-08
   83.2500000        -1.27969528E-08
   83.4000015        -1.22741310E-08
   83.5500031        -1.17750032E-08
   83.6999969        -1.13171259E-08
   83.8499985        -1.09147402E-08
   84.0000000        -1.05778870E-08
   84.1500015        -1.03117062E-08
   84.3000031        -1.01159463E-08
   84.4499969        -9.98477745E-09
   84.5999985        -9.90692328E-09
   84.7500000        -9.86615145E-09
   84.9000015        -9.84211113E-09
   85.0500031        -9.81151604E-09
   85.1999969        -9.74959402E-09
   85.3499985        -9.63174429E-09
   85.5000000        -9.43530054E-09
   85.6500015        -9.14127352E-09
   85.8000031        -8.73596306E-09
   85.9499969        -8.21230373E-09
   86.0999985        -7.57084440E-09
   86.2500000        -6.82025103E-09
   86.4000015        -5.97728889E-09
   86.5500031        -5.06625142E-09
   86.6999969        -4.11784251E-09
   86.8499985        -3.16757665E-09
   87.0000000        -2.25377739E-09
   87.1500015        -1.41530909E-09
   87.3000031        -6.89168611E-10
   87.4499969        -1.08120048E-10
   87.5999985         3.01495495E-10
   87.7500000         5.21609200E-10
   87.9000015         5.43818324E-10
   88.0500031         3.70224823E-10
   88.1999969         1.36637195E-11
   88.3499985        -5.02699882E-10
   88.5000000        -1.14637810E-09
   88.6500015        -1.87711890E-09
   88.8000031        -2.64891997E-09
   88.9499969        -3.41238104E-09
   89.0999985        -4.11726386E-09
   89.2500000        -4.71511186E-09
   89.4000015        -5.16178877E-09
   89.5500031        -5.41980150E-09
   89.6999969        -5.46028200E-09
   89.8499985        -5.26452748E-09
   90.0000000        -4.82501994E-09
   90.1500015        -4.14587653E-09
   90.3000031        -3.24270033E-09
   90.4499969        -2.14184892E-09
   90.5999985        -8.79152640E-10
   90.7500000         5.01862496E-10
   90.9000015         1.95214045E-09
   91.0500031         3.41955997E-09
   91.1999969         4.85155160E-09
   91.3499985         6.19774854E-09
   91.5000000         7.41251949E-09
   91.6500015         8.45725268E-09
   91.8000031         9.30226829E-09
   91.9499969         9.92825200E-09
   92.0999985         1.03271383E-08
   92.2500000         1.05023954E-08
   92.4000015         1.04686899E-08
   92.5500031         1.02509912E-08
   92.6999969         9.88312188E-09
   92.8499985         9.40590184E-09
   93.0000000         8.86494167E-09
   93.1500015         8.30827140E-09
   93.3000031         7.78388998E-09
   93.4499969         7.33740713E-09
   93.5999985         7.00987446E-09
   93.7500000         6.83592738E-09
   93.9000015         6.84231161E-09
   94.0500031         7.04685066E-09
   94.1999969         7.45787698E-09
   94.3499985         8.07412448E-09
   94.5000000         8.88506246E-09
   94.6500015         9.87161286E-09
   94.8000031         1.10071934E-08
   94.9499969         1.22590116E-08
   95.0999985         1.35895197E-08
   95.2500000         1.49579691E-08
   95.4000015         1.63219678E-08
   95.5500031         1.76389836E-08
   95.6999969         1.88677269E-08
   95.8499985         1.99693631E-08
   96.0000000         2.09085123E-08
   96.1500015         2.16540403E-08
   96.3000031         2.21795933E-08
   96.4499969         2.24639027E-08
   96.5999985         2.24908767E-08
   96.7500000         2.22495000E-08
   96.9000015         2.17335803E-08
   97.0500031         2.09413873E-08
   97.1999969         1.98752321E-08
   97.3499985         1.85410354E-08
   97.5000000         1.69479257E-08
   97.6500015         1.51079149E-08
   97.8000031         1.30356597E-08
   97.9499969         1.07483231E-08
   98.0999985         8.26556157E-09
   98.2500000         5.60957725E-09
   98.4000015         2.80523627E-09
   98.5500031        -1.19815879E-10
   98.6999969        -3.13505577E-09
   98.8499985        -6.20708418E-09
   99.0000000        -9.29975741E-09
   99.1500015        -1.23744917E-08
   99.3000031        -1.53907536E-08
   99.4499969        -1.83067570E-08
   99.5999985        -2.10803375E-08
   99.7500000        -2.36699993E-08
   99.9000015        -2.60360604E-08
   100.050003        -2.81418515E-08
   100.199997        -2.99548972E-08
   100.349998        -3.14480282E-08
   100.500000        -3.26003438E-08
   100.650002        -3.33979280E-08
   100.800003        -3.38343860E-08
   100.949997        -3.39110535E-08
   101.099998        -3.36369190E-08
   101.250000        -3.30283214E-08
   101.400002        -3.21083036E-08
   101.550003        -3.09058201E-08
   101.699997        -2.94547213E-08
   101.849998        -2.77926109E-08
   102.000000        -2.59596415E-08
   102.150002        -2.39972557E-08
   102.300003        -2.19469527E-08
   102.449997        -1.98491055E-08
   102.599998        -1.77418613E-08
   102.750000        -1.56601647E-08
   102.900002        -1.36349128E-08
   103.050003        -1.16922747E-08
   103.199997        -9.85318316E-09
   103.349998        -8.13300449E-09
   103.500000        -6.54141497E-09
   103.650002        -5.08245179E-09
   103.800003        -3.75476761E-09
   103.949997        -2.55205590E-09
   104.099998        -1.46363333E-09
   104.250000        -4.75158968E-10
   104.400002         4.30560976E-10
   104.550003         1.27270339E-09
   104.699997         2.07155471E-09
   104.849998         2.84767099E-09
   105.000000         3.62110053E-09
   105.150002         4.41071268E-09
   105.300003         5.23364641E-09
   105.449997         6.10488415E-09
   105.599998         7.03693370E-09
   105.750000         8.03961253E-09
   105.900002         9.11988796E-09
   106.050003         1.02817443E-08
   106.199997         1.15260477E-08
   106.349998         1.28503705E-08
   106.500000         1.42487737E-08
   106.650002         1.57115547E-08
   106.800003         1.72249610E-08
   106.949997         1.87709510E-08
   107.099998         2.03270449E-08
   107.250000         2.18663061E-08
   107.400002         2.33576021E-08
   107.550003         2.47661003E-08
   107.699997         2.60541633E-08
   107.849998         2.71825478E-08
   108.000000         2.81119679E-08
   108.150002         2.88049407E-08
   108.300003         2.92278433E-08
   108.449997         2.93530125E-08
   108.599998         2.91608107E-08
   108.750000         2.86414483E-08
   108.900002         2.77964389E-08
   109.050003         2.66395332E-08
   109.199997         2.51970143E-08
   109.349998         2.35073205E-08
   109.500000         2.16199290E-08
   109.650002         1.95935446E-08
   109.800003         1.74937114E-08
   109.949997         1.53899009E-08
   110.099998         1.33523148E-08
   110.250000         1.14485248E-08
   110.400002         9.74020953E-09
   110.550003         8.28013480E-09
   110.699997         7.10959869E-09
   110.849998         6.25647667E-09
   111.000000         5.73397019E-09
   111.150002         5.54016522E-09
   111.300003         5.65839819E-09
   111.449997         6.05840933E-09
   111.599998         6.69820777E-09
   111.750000         7.52654383E-09
   111.900002         8.48582271E-09
   112.050003         9.51529167E-09
   112.199997         1.05543085E-08
   112.349998         1.15454899E-08
   112.500000         1.24375417E-08
   112.650002         1.31876297E-08
   112.800003         1.37631151E-08
   112.949997         1.41425964E-08
   113.099998         1.43161945E-08
   113.250000         1.42850860E-08
   113.400002         1.40603644E-08
   113.550003         1.36613298E-08
   113.699997         1.31133708E-08
   113.849998         1.24456268E-08
   114.000000         1.16886234E-08
   114.150002         1.08720739E-08
   114.300003         1.00230331E-08
   114.449997         9.16451182E-09
   114.599998         8.31464764E-09
   114.750000         7.48644080E-09
   114.900002         6.68801858E-09
   115.050003         5.92331650E-09
   115.199997         5.19304288E-09
   115.349998         4.49575444E-09
   115.500000         3.82886167E-09
   115.650002         3.18941673E-09
   115.800003         2.57454302E-09
   115.949997         1.98146655E-09
   116.099998         1.40711165E-09
   116.250000         8.47344417E-10
   116.400002         2.95968139E-10
   116.550003        -2.56374810E-10
   116.699997        -8.23195734E-10
   116.849998        -1.42286605E-09
   117.000000        -2.07888706E-09
   117.150002        -2.81958545E-09
   117.300003        -3.67719100E-09
   117.449997        -4.68630068E-09
   117.599998        -5.88181370E-09
   117.750000        -7.29648475E-09
   117.900002        -8.95828123E-09
   118.050003        -1.08877769E-08
   118.199997        -1.30957920E-08
   118.349998        -1.55815023E-08
