  -1.50000000         0.00000000    
  -1.30999994         0.00000000    
  -1.12000000         0.00000000    
 -0.930000007         1.44265218E-25
 -0.740000010         1.49147801E-24
 -0.550000012         8.96805713E-24
 -0.360000014         4.05767394E-23
 -0.170000002         1.51477513E-22
   1.99999996E-02     4.87538708E-22
  0.209999993         1.38780429E-21
  0.400000006         3.55572270E-21
  0.589999974         8.31446813E-21
  0.779999971         1.79575644E-20
  0.970000029         3.62116569E-20
   1.15999997         6.88497385E-20
   1.35000002         1.24525876E-19
   1.53999996         2.15926012E-19
   1.73000002         3.61314585E-19
   1.91999996         5.86469245E-19
   2.10999990         9.26824340E-19
   2.29999995         1.42939550E-18
   2.49000001         2.15377628E-18
   2.68000007         3.17124834E-18
   2.86999989         4.56089523E-18
   3.05999994         6.40162066E-18
   3.25000000         8.75916605E-18
   3.44000006         1.16676282E-17
   3.63000011         1.51055273E-17
   3.81999993         1.89671208E-17
   4.01000023         2.30303295E-17
   4.19999981         2.69233475E-17
   4.38999987         3.00925825E-17
   4.57999992         3.17753293E-17
   4.76999998         3.09812756E-17
   4.96000004         2.64878783E-17
   5.15000010         1.68553204E-17
   5.34000015         4.67489757E-19
   5.53000021        -2.43949972E-17
   5.71999979        -5.94451494E-17
   5.90999985        -1.06241688E-16
   6.09999990        -1.66005964E-16
   6.28999996        -2.39412963E-16
   6.48000002        -3.26372409E-16
   6.67000008        -4.25822044E-16
   6.86000013        -5.35559927E-16
   7.05000019        -6.52142207E-16
   7.23999977        -7.70869333E-16
   7.42999983        -8.85869673E-16
   7.61999989        -9.90273207E-16
   7.80999994        -1.07644155E-15
   8.00000000        -1.13619835E-15
   8.18999958        -1.16098116E-15
   8.38000011        -1.14183662E-15
   8.56999969        -1.06919857E-15
   8.76000023        -9.32436103E-16
   8.94999981        -7.19246751E-16
   9.14000034        -4.15059008E-16
   9.32999992        -2.70577024E-18
   9.52000046         5.37317521E-16
   9.71000004         1.22571840E-15
   9.89999962         2.08222912E-15
   10.0900002         3.12245059E-15
   10.2799997         4.35409536E-15
   10.4700003         5.77334099E-15
   10.6599998         7.36223419E-15
   10.8500004         9.08814599E-15
   11.0400000         1.09060176E-14
   11.2299995         1.27635846E-14
   11.4200001         1.46089297E-14
   11.6099997         1.63987883E-14
   11.8000002         1.81052293E-14
   11.9899998         1.97179953E-14
   12.1800003         2.12400610E-14
   12.3699999         2.26751025E-14
   12.5600004         2.40072397E-14
   12.7500000         2.51756318E-14
   12.9399996         2.60483434E-14
   13.1300001         2.64011242E-14
   13.3199997         2.59067297E-14
   13.5100002         2.41388144E-14
   13.6999998         2.05919164E-14
   13.8900003         1.47156186E-14
   14.0799999         5.95830165E-15
   14.2700005        -6.18580623E-15
   14.4600000        -2.21319765E-14
   14.6499996        -4.21661438E-14
   14.8400002        -6.64119028E-14
   15.0299997        -9.48000155E-14
   15.2200003        -1.27036334E-13
   15.4099998        -1.62566155E-13
   15.6000004        -2.00538330E-13
   15.7900000        -2.39780553E-13
   15.9799995        -2.78802914E-13
   16.1700001        -3.15848340E-13
   16.3600006        -3.49000993E-13
   16.5499992        -3.76346035E-13
   16.7399998        -3.96148311E-13
   16.9300003        -4.06989302E-13
   17.1200008        -4.07781583E-13
   17.3099995        -3.97578590E-13
   17.5000000        -3.75124465E-13
   17.6900005        -3.38150189E-13
   17.8799992        -2.82511536E-13
   18.0699997        -2.01366335E-13
   18.2600002        -8.46810889E-14
   18.4500008         8.05954221E-14
   18.6399994         3.09374623E-13
   18.8299999         6.16086771E-13
   19.0200005         1.01116218E-12
   19.2099991         1.49662541E-12
   19.3999996         2.06139858E-12
   19.5900002         2.67718400E-12
   19.7800007         3.29595878E-12
   19.9699993         3.85010426E-12
   20.1599998         4.25595757E-12
   20.3500004         4.42114227E-12
   20.5400009         4.25539942E-12
   20.7299995         3.68394551E-12
   20.9200001         2.66171742E-12
   21.1100006         1.18637890E-12
   21.2999992        -6.92227851E-13
   21.4899998        -2.86829089E-12
   21.6800003        -5.18340188E-12
   21.8700008        -7.43763731E-12
   22.0599995        -9.40771940E-12
   22.2500000        -1.08704226E-11
   22.4400005        -1.16283875E-11
   22.6299992        -1.15348729E-11
   22.8199997        -1.05139144E-11
   23.0100002        -8.57286291E-12
   23.2000008        -5.80535750E-12
   23.3899994        -2.38424992E-12
   23.5799999         1.45441634E-12
   23.7700005         5.43381529E-12
   23.9599991         9.26158022E-12
   24.1499996         1.26539898E-11
   24.3400002         1.53556456E-11
   24.5300007         1.71523334E-11
   24.7199993         1.78764625E-11
   24.9099998         1.74063489E-11
   25.1000004         1.56622770E-11
   25.2900009         1.26033706E-11
   25.4799995         8.22940414E-12
   25.6700001         2.59075964E-12
   25.8600006        -4.19231620E-12
   26.0499992        -1.19027826E-11
   26.2399998        -2.01969275E-11
   26.4300003        -2.85790159E-11
   26.6200008        -3.63897211E-11
   26.8099995        -4.28177389E-11
   27.0000000        -4.69422452E-11
   27.1900005        -4.78100302E-11
   27.3799992        -4.45456415E-11
   27.5699997        -3.64862862E-11
   27.7600002        -2.33267034E-11
   27.9500008        -5.25369245E-12
   28.1399994         1.69532097E-11
   28.3299999         4.18782301E-11
   28.5200005         6.75025522E-11
   28.7099991         9.13258150E-11
   28.8999996         1.10576499E-10
   29.0900002         1.22498692E-10
   29.2800007         1.24689148E-10
   29.4699993         1.15447318E-10
   29.6599998         9.40922756E-11
   29.8500004         6.11992679E-11
   30.0400009         1.87117700E-11
   30.2299995        -3.01031491E-11
   30.4200001        -8.08712819E-11
   30.6100006        -1.28492980E-10
   30.7999992        -1.67660094E-10
   30.9899998        -1.93456251E-10
   31.1800003        -2.01971689E-10
   31.3700008        -1.90854416E-10
   31.5599995        -1.59720570E-10
   31.7500000        -1.10358750E-10
   31.9400005        -4.66843023E-11
   32.1300011         2.55691128E-11
   32.3199997         9.94000507E-11
   32.5099983         1.67276290E-10
   32.7000008         2.21973925E-10
   32.8899994         2.57414673E-10
   33.0800018         2.69392286E-10
   33.2700005         2.56087790E-10
   33.4599991         2.18298907E-10
   33.6500015         1.59344635E-10
   33.8400002         8.46520146E-11
   34.0299988         1.07684662E-12
   34.2200012        -8.39485148E-11
   34.4099998        -1.63319774E-10
   34.5999985        -2.31085429E-10
   34.7900009        -2.83068902E-10
   34.9799995        -3.17194243E-10
   35.1699982        -3.33465977E-10
   35.3600006        -3.33609890E-10
   35.5499992        -3.20437177E-10
   35.7400017        -2.97043973E-10
   35.9300003        -2.65991618E-10
   36.1199989        -2.28622662E-10
   36.3100014        -1.84653057E-10
   36.5000000        -1.32141034E-10
   36.6899986        -6.78724785E-11
   36.8800011         1.18667506E-11
   37.0699997         1.10233267E-10
   37.2599983         2.28643646E-10
   37.4500008         3.65665276E-10
   37.6399994         5.16186149E-10
   37.8300018         6.71045164E-10
   38.0200005         8.17247936E-10
   38.2099991         9.38815137E-10
   38.4000015         1.01821707E-09
   38.5900002         1.03825593E-09
   38.7799988         9.84181847E-10
   38.9700012         8.45774117E-10
   39.1599998         6.19106266E-10
   39.3499985         3.07736531E-10
   39.5400009        -7.68772268E-11
   39.7299995        -5.15843812E-10
   39.9199982        -9.84188064E-10
   40.1100006        -1.45296786E-09
   40.2999992        -1.89194460E-09
   40.4900017        -2.27251218E-09
   40.6800003        -2.57055333E-09
   40.8699989        -2.76888290E-09
   41.0600014        -2.85899215E-09
   41.2500000        -2.84187562E-09
   41.4399986        -2.72783884E-09
   41.6300011        -2.53530730E-09
   41.8199997        -2.28877228E-09
   42.0099983        -2.01612527E-09
   42.2000008        -1.74570225E-09
   42.3899994        -1.50339274E-09
   42.5800018        -1.31016464E-09
   42.7700005        -1.18029120E-09
   42.9599991        -1.12047838E-09
   43.1500015        -1.12996057E-09
   43.3400002        -1.20150956E-09
   43.5299988        -1.32316880E-09
   43.7200012        -1.48043311E-09
   43.9099998        -1.65853209E-09
   44.0999985        -1.84447302E-09
   44.2900009        -2.02853934E-09
   44.4799995        -2.20503682E-09
   44.6699982        -2.37220110E-09
   44.8600006        -2.53131982E-09
   45.0499992        -2.68524958E-09
   45.2400017        -2.83661272E-09
   45.4300003        -2.98601099E-09
   45.6199989        -3.13059445E-09
   45.8100014        -3.26326655E-09
   46.0000000        -3.37269990E-09
   46.1899986        -3.44421114E-09
   46.3800011        -3.46139228E-09
   46.5699997        -3.40826789E-09
   46.7599983        -3.27166894E-09
   46.9500008        -3.04345149E-09
   47.1399994        -2.72222089E-09
   47.3300018        -2.31428832E-09
   47.5200005        -1.83368953E-09
   47.7099991        -1.30124644E-09
   47.9000015        -7.42771122E-10
   48.0900002        -1.86649085E-10
   48.2799988         3.38892497E-10
   48.4700012         8.08485223E-10
   48.6599998         1.20195587E-09
   48.8499985         1.50602708E-09
   49.0400009         1.71520420E-09
   49.2299995         1.83178106E-09
   49.4199982         1.86501281E-09
   49.6100006         1.82960491E-09
   49.7999992         1.74374015E-09
   49.9900017         1.62690883E-09
   50.1800003         1.49781099E-09
   50.3699989         1.37257039E-09
   50.5600014         1.26344346E-09
   50.7500000         1.17812993E-09
   50.9399986         1.11970999E-09
   51.1300011         1.08715004E-09
   51.3199997         1.07625442E-09
   51.5099983         1.08088816E-09
   51.7000008         1.09428033E-09
   51.8899994         1.11021647E-09
   52.0800018         1.12396248E-09
   52.2700005         1.13281351E-09
   52.4599991         1.13622389E-09
   52.6500015         1.13554077E-09
   52.8400002         1.13342657E-09
   53.0299988         1.13309506E-09
   53.2200012         1.13751408E-09
   53.4099998         1.14871812E-09
   53.5999985         1.16734988E-09
   53.7900009         1.19250554E-09
   53.9799995         1.22189536E-09
   54.1699982         1.25228083E-09
   54.3600006         1.28009725E-09
   54.5499992         1.30214250E-09
   54.7400017         1.31620581E-09
   54.9300003         1.32152511E-09
   55.1199989         1.31899680E-09
   55.3100014         1.31110900E-09
   55.5000000         1.30162037E-09
   55.6899986         1.29504918E-09
   55.8800011         1.29607003E-09
   56.0699997         1.30892464E-09
   56.2599983         1.33694811E-09
   56.4500008         1.38228418E-09
   56.6399994         1.44582613E-09
   56.8300018         1.52737967E-09
   57.0200005         1.62600056E-09
   57.2099991         1.74043069E-09
   57.4000015         1.86954252E-09
   57.5900002         2.01269357E-09
   57.7799988         2.16991780E-09
   57.9700012         2.34189912E-09
   58.1599998         2.52971999E-09
   58.3499985         2.73440959E-09
   58.5400009         2.95636404E-09
   58.7299995         3.19473559E-09
   58.9199982         3.44690543E-09
   59.1100006         3.70815600E-09
   59.2999992         3.97164079E-09
   59.4900017         4.22870627E-09
   59.6800003         4.46957671E-09
   59.8699989         4.68435468E-09
   60.0600014         4.86421170E-09
   60.2500000         5.00263120E-09
   60.4399986         5.09650011E-09
   60.6300011         5.14686516E-09
   60.8199997         5.15920151E-09
   61.0099983         5.14307841E-09
   61.2000008         5.11121989E-09
   61.3899994         5.07802067E-09
   61.5800018         5.05769471E-09
   61.7700005         5.06228526E-09
   61.9599991         5.09981968E-09
   62.1500015         5.17289189E-09
   62.3400002         5.27790389E-09
   62.5299988         5.40512790E-09
   62.7200012         5.53963186E-09
   62.9099998         5.66299452E-09
   63.0999985         5.75562575E-09
   63.2900009         5.79940229E-09
   63.4799995         5.78029846E-09
   63.6699982         5.69065461E-09
   63.8600006         5.53078516E-09
   64.0500031         5.30969180E-09
   64.2399979         5.04475706E-09
   64.4300003         4.76041384E-09
   64.6200027         4.48590631E-09
   64.8099976         4.25236024E-09
   65.0000000         4.08946876E-09
   65.1900024         4.02214972E-09
   65.3799973         4.06753387E-09
   65.5699997         4.23262980E-09
   65.7600021         4.51294868E-09
   65.9499969         4.89228080E-09
   66.1399994         5.34370947E-09
   66.3300018         5.83180659E-09
   66.5199966         6.31584340E-09
   66.7099991         6.75370293E-09
   66.9000015         7.10610548E-09
   67.0899963         7.34067829E-09
   67.2799988         7.43540074E-09
   67.4700012         7.38100026E-09
   67.6600037         7.18197146E-09
   67.8499985         6.85605173E-09
   68.0400009         6.43215792E-09
   68.2300034         5.94701088E-09
   68.4199982         5.44081669E-09
   68.6100006         4.95254904E-09
   68.8000031         4.51540405E-09
   68.9899979         4.15303258E-09
   69.1800003         3.87701515E-09
   69.3700027         3.68591735E-09
   69.5599976         3.56602703E-09
   69.7500000         3.49365648E-09
   69.9400024         3.43867312E-09
   70.1299973         3.36876327E-09
   70.3199997         3.25384431E-09
   70.5100021         3.07002779E-09
   70.6999969         2.80263346E-09
   70.8899994         2.44788856E-09
   71.0800018         2.01314898E-09
   71.2699966         1.51568780E-09
   71.4599991         9.80278525E-10
   71.6500015         4.35950581E-10
   71.8399963        -8.76303335E-11
   72.0299988        -5.63692426E-10
   72.2200012        -9.71384417E-10
   72.4100037        -1.29798727E-09
   72.5999985        -1.54013124E-09
   72.7900009        -1.70396885E-09
   72.9800034        -1.80438109E-09
   73.1699982        -1.86338012E-09
   73.3600006        -1.90793625E-09
   73.5500031        -1.96747374E-09
   73.7399979        -2.07127360E-09
   73.9300003        -2.24599606E-09
   74.1200027        -2.51349563E-09
   74.3099976        -2.88906010E-09
   74.5000000        -3.38016948E-09
   74.6900024        -3.98583611E-09
   74.8799973        -4.69654848E-09
   75.0699997        -5.49482104E-09
   75.2600021        -6.35629860E-09
   75.4499969        -7.25133731E-09
   75.6399994        -8.14694356E-09
   75.8300018        -9.00890385E-09
   76.0199966        -9.80393278E-09
   76.2099991        -1.05016555E-08
   76.4000015        -1.10762386E-08
   76.5899963        -1.15075700E-08
   76.7799988        -1.17818937E-08
   76.9700012        -1.18919239E-08
   77.1600037        -1.18364980E-08
   77.3499985        -1.16199095E-08
   77.5400009        -1.12510783E-08
   77.7300034        -1.07427169E-08
   77.9199982        -1.01106377E-08
   78.1100006        -9.37327815E-09
   78.3000031        -8.55143600E-09
   78.4899979        -7.66817632E-09
   78.6800003        -6.74875711E-09
   78.8700027        -5.82044324E-09
   79.0599976        -4.91203878E-09
   79.2500000        -4.05302103E-09
   79.4400024        -3.27223382E-09
   79.6299973        -2.59616129E-09
   79.8199997        -2.04691508E-09
   80.0100021        -1.64013114E-09
   80.1999969        -1.38302636E-09
   80.3899994        -1.27289235E-09
   80.5800018        -1.29626909E-09
   80.7699966        -1.42899115E-09
   80.9599991        -1.63721192E-09
   81.1500015        -1.87940041E-09
   81.3399963        -2.10920592E-09
   81.5299988        -2.27897790E-09
   81.7200012        -2.34366171E-09
   81.9100037        -2.26473351E-09
   82.0999985        -2.01383288E-09
   82.2900009        -1.57576463E-09
   82.4800034        -9.50595935E-10
   82.6699982        -1.54649793E-10
   82.8600006         7.79713794E-10
   83.0500031         1.80554460E-09
   83.2399979         2.86387980E-09
   83.4300003         3.88728472E-09
   83.6200027         4.80410245E-09
   83.8099976         5.54311530E-09
   84.0000000         6.03828321E-09
   84.1900024         6.23324192E-09
   84.3799973         6.08523676E-09
   84.5699997         5.56824009E-09
   84.7600021         4.67504346E-09
   84.9499969         3.41819328E-09
   85.1399994         1.82970850E-09
   85.3300018        -4.03937925E-11
   85.5199966        -2.12668283E-09
   85.7099991        -4.35185976E-09
   85.9000015        -6.63105437E-09
   86.0899963        -8.87663365E-09
   86.2799988        -1.10032445E-08
   86.4700012        -1.29327846E-08
   86.6600037        -1.45990011E-08
   86.8499985        -1.59514020E-08
   87.0400009        -1.69581966E-08
   87.2300034        -1.76080199E-08
   87.4199982        -1.79102422E-08
   87.6100006        -1.78937771E-08
   87.8000031        -1.76043855E-08
   87.9899979        -1.71006000E-08
   88.1800003        -1.64485332E-08
   88.3700027        -1.57159423E-08
   88.5599976        -1.49660355E-08
   88.7500000        -1.42515706E-08
   88.9400024        -1.36098075E-08
   89.1299973        -1.30588402E-08
   89.3199997        -1.25957298E-08
   89.5100021        -1.21967281E-08
   89.6999969        -1.18196208E-08
   89.8899994        -1.14080727E-08
   90.0800018        -1.08975629E-08
   90.2699966        -1.02223563E-08
   90.4599991        -9.32276478E-09
   90.6500015        -8.15194312E-09
   90.8399963        -6.68144340E-09
   91.0299988        -4.90489382E-09
   91.2200012        -2.83935719E-09
   91.4100037        -5.24208621E-10
   91.5999985         1.98236028E-09
   91.7900009         4.60880001E-09
   91.9800034         7.27696037E-09
   92.1699982         9.90934890E-09
   92.3600006         1.24359980E-08
   92.5500031         1.48001247E-08
   92.7399979         1.69619181E-08
   92.9300003         1.89000566E-08
   93.1200027         2.06108197E-08
   93.3099976         2.21050396E-08
   93.5000000         2.34033539E-08
   93.6900024         2.45304950E-08
   93.8799973         2.55094044E-08
   94.0699997         2.63560036E-08
   94.2600021         2.70753215E-08
   94.4499969         2.76594836E-08
   94.6399994         2.80877615E-08
   94.8300018         2.83286763E-08
   95.0199966         2.83437913E-08
   95.2099991         2.80926677E-08
   95.4000015         2.75382970E-08
   95.5899963         2.66522946E-08
   95.7799988         2.54191939E-08
   95.9700012         2.38392683E-08
   96.1600037         2.19295764E-08
   96.3499985         1.97230907E-08
   96.5400009         1.72660535E-08
   96.7300034         1.46138817E-08
   96.9199982         1.18261383E-08
   97.1100006         8.96120689E-09
   97.3000031         6.07130390E-09
   97.4899979         3.19844862E-09
   97.6800003         3.71914277E-10
   97.8700027        -2.39255593E-09
   98.0599976        -5.09162890E-09
   98.2500000        -7.73151232E-09
   98.4400024        -1.03237063E-08
   98.6299973        -1.28799371E-08
   98.8199997        -1.54069557E-08
   99.0100021        -1.79019501E-08
   99.1999969        -2.03492316E-08
   99.3899994        -2.27187158E-08
   99.5800018        -2.49665284E-08
   99.7699966        -2.70376841E-08
   99.9599991        -2.88706037E-08
   100.150002        -3.04029122E-08
   100.339996        -3.15777733E-08
   100.529999        -3.23499236E-08
   100.720001        -3.26906573E-08
   100.910004        -3.25910356E-08
   101.099998        -3.20629638E-08
   101.290001        -3.11379864E-08
   101.480003        -2.98640010E-08
   101.669998        -2.83003363E-08
   101.860001        -2.65119056E-08
   102.050003        -2.45631462E-08
   102.239998        -2.25125643E-08
   102.430000        -2.04085104E-08
   102.620003        -1.82865953E-08
   102.809998        -1.61690270E-08
   103.000000        -1.40657175E-08
   103.190002        -1.19769261E-08
   103.379997        -9.89692683E-09
   103.570000        -7.81811238E-09
   103.760002        -5.73494097E-09
   103.949997        -3.64713437E-09
   104.139999        -1.56170943E-09
   104.330002         5.06446163E-10
   104.519997         2.53554422E-09
   104.709999         4.49928983E-09
   104.900002         6.37039888E-09
   105.089996         8.12479328E-09
   105.279999         9.74590719E-09
   105.470001         1.12284821E-08
   105.660004         1.25812809E-08
   105.849998         1.38281964E-08
   106.040001         1.50074229E-08
   106.230003         1.61685474E-08
   106.419998         1.73676966E-08
   106.610001         1.86611224E-08
   106.800003         2.00978238E-08
   106.989998         2.17120579E-08
   107.180000         2.35165842E-08
   107.370003         2.54975632E-08
   107.559998         2.76118257E-08
   107.750000         2.97870404E-08
   107.940002         3.19249516E-08
   108.129997         3.39075612E-08
   108.320000         3.56056908E-08
   108.510002         3.68891655E-08
   108.699997         3.76376406E-08
   108.889999         3.77509366E-08
   109.080002         3.71579283E-08
   109.269997         3.58231524E-08
   109.459999         3.37504709E-08
   109.650002         3.09836281E-08
   109.839996         2.76036438E-08
   110.029999         2.37234943E-08
   110.220001         1.94805843E-08
   110.410004         1.50277941E-08
   110.599998         1.05239204E-08
   110.790001         6.12427709E-09
   110.980003         1.97219463E-09
   111.169998        -1.80801563E-09
   111.360001        -5.11625897E-09
   111.550003        -7.87981680E-09
   111.739998        -1.00544817E-08
   111.930000        -1.16238619E-08
   112.120003        -1.25972006E-08
   112.309998        -1.30061268E-08
