  -1.50000000       0.00000000    
  -1.35000002       0.00000000    
  -1.20000005       0.00000000    
  -1.04999995       2.32970250E-19
 -0.899999976       2.08049738E-18
 -0.750000000       1.07817459E-17
 -0.600000024       4.23451226E-17
 -0.449999988       1.39154808E-16
 -0.300000012       4.01297952E-16
 -0.150000006       1.04239940E-15
  -5.55111512E-17   2.47757878E-15
  0.150000006       5.44469856E-15
  0.300000012       1.11473076E-14
  0.449999988       2.13902297E-14
  0.600000024       3.86607758E-14
  0.750000000       6.60952751E-14
  0.899999976       1.07266084E-13
   1.04999995       1.65729396E-13
   1.20000005       2.44289669E-13
   1.35000002       3.43960212E-13
   1.50000000       4.62633892E-13
   1.64999998       5.93521434E-13
   1.79999995       7.23468486E-13
   1.95000005       8.31321231E-13
   2.09999990       8.86568759E-13
   2.25000000       8.48533429E-13
   2.40000010       6.66404811E-13
   2.54999995       2.80398805E-13
   2.70000005      -3.75726685E-13
   2.84999990      -1.37065999E-12
   3.00000000      -2.77001989E-12
   3.15000010      -4.62948516E-12
   3.29999995      -6.98690108E-12
   3.45000005      -9.85387379E-12
   3.59999990      -1.32075323E-11
   3.75000000      -1.69832742E-11
   3.90000010      -2.10694049E-11
   4.05000019      -2.53045397E-11
   4.19999981      -2.94786071E-11
   4.34999990      -3.33380580E-11
   4.50000000      -3.65956258E-11
   4.65000010      -3.89446426E-11
   4.80000019      -4.00774587E-11
   4.94999981      -3.97071299E-11
   5.09999990      -3.75912704E-11
   5.25000000      -3.35563521E-11
   5.40000010      -2.75207548E-11
   5.55000019      -1.95145462E-11
   5.69999981      -9.69394790E-12
   5.84999990       1.65156517E-12
   6.00000000       1.41011248E-11
   6.15000010       2.71148087E-11
   6.30000019       4.00570827E-11
   6.44999981       5.22312575E-11
   6.59999990       6.29238467E-11
   6.75000000       7.14565560E-11
   6.90000010       7.72424208E-11
   7.05000019       7.98419247E-11
   7.19999981       7.90137192E-11
   7.34999990       7.47549384E-11
   7.50000000       6.73258810E-11
   7.65000010       5.72548640E-11
   7.80000019       4.53206292E-11
   7.94999981       3.25111466E-11
   8.10000038       1.99600943E-11
   8.25000000       8.86419497E-12
   8.39999962       3.86778635E-13
   8.55000019      -4.44559623E-12
   8.69999981      -4.84550291E-12
   8.85000038      -3.57783031E-13
   9.00000000       9.06444971E-12
   9.14999962       2.30076028E-11
   9.30000019       4.05743356E-11
   9.44999981       6.03921149E-11
   9.60000038       8.06546496E-11
   9.75000000       9.91949300E-11
   9.89999962       1.13587036E-10
   10.0500002       1.21272589E-10
   10.1999998       1.19707147E-10
   10.3500004       1.06520293E-10
   10.5000000       7.96838706E-11
   10.6499996       3.76813407E-11
   10.8000002      -2.03293962E-11
   10.9499998      -9.43688114E-11
   11.1000004      -1.83514065E-10
   11.2500000      -2.85815066E-10
   11.3999996      -3.98258981E-10
   11.5500002      -5.16796661E-10
   11.6999998      -6.36438791E-10
   11.8500004      -7.51430251E-10
   12.0000000      -8.55500504E-10
   12.1499996      -9.42187217E-10
   12.3000002      -1.00521724E-09
   12.4499998      -1.03892372E-09
   12.6000004      -1.03867159E-09
   12.7500000      -1.00125708E-09
   12.8999996      -9.25246157E-10
   13.0500002      -8.11217538E-10
   13.1999998      -6.61881994E-10
   13.3500004      -4.82057949E-10
   13.5000000      -2.78496892E-10
   13.6499996      -5.95640204E-11
   13.8000002       1.65205044E-10
   13.9499998       3.85637577E-10
   14.1000004       5.91507343E-10
   14.2500000       7.73119513E-10
   14.3999996       9.21852039E-10
   14.5500002       1.03061304E-09
   14.6999998       1.09418263E-09
   14.8500004       1.10942444E-09
   15.0000000       1.07535980E-09
   15.1499996       9.93119031E-10
   15.3000002       8.65787997E-10
   15.4499998       6.98180014E-10
   15.6000004       4.96563568E-10
   15.7500000       2.68375572E-10
   15.8999996       2.19439744E-11
   16.0499992      -2.33763675E-10
   16.2000008      -4.89358332E-10
   16.3500004      -7.35214056E-10
   16.5000000      -9.61626334E-10
   16.6499996      -1.15895216E-09
   16.7999992      -1.31774502E-09
   16.9500008      -1.42888934E-09
   17.1000004      -1.48374457E-09
   17.2500000      -1.47429591E-09
   17.3999996      -1.39331646E-09
   17.5499992      -1.23453658E-09
   17.7000008      -9.92827598E-10
   17.8500004      -6.64399868E-10
   18.0000000      -2.47033560E-10
   18.1499996       2.59648719E-10
   18.2999992       8.53850879E-10
   18.4500008       1.53119828E-09
   18.6000004       2.28426789E-09
   18.7500000       3.10206483E-09
   18.8999996       3.96948385E-09
   19.0499992       4.86682161E-09
   19.2000008       5.76941872E-09
   19.3500004       6.64753452E-09
   19.5000000       7.46655360E-09
   19.6499996       8.18761681E-09
   19.7999992       8.76874751E-09
   19.9500008       9.16650134E-09
   20.1000004       9.33810984E-09
   20.2500000       9.24404464E-09
   20.3999996       8.85084184E-09
   20.5499992       8.13400192E-09
   20.7000008       7.08072401E-09
   20.8500004       5.69221736E-09
   21.0000000       3.98534317E-09
   21.1499996       1.99337902E-09
   21.2999992      -2.34246122E-10
   21.4500008      -2.63331579E-09
   21.6000004      -5.12726261E-09
   21.7500000      -7.63055308E-09
   21.8999996      -1.00528119E-08
   22.0499992      -1.23034072E-08
   22.2000008      -1.42961563E-08
   22.3500004      -1.59538303E-08
   22.5000000      -1.72121251E-08
   22.6499996      -1.80228241E-08
   22.7999992      -1.83559710E-08
   22.9500008      -1.82009057E-08
   23.1000004      -1.75662063E-08
   23.2500000      -1.64785412E-08
   23.3999996      -1.49806407E-08
   23.5499992      -1.31285480E-08
   23.7000008      -1.09884288E-08
   23.8500004      -8.63316085E-09
   24.0000000      -6.13893469E-09
   24.1499996      -3.58208774E-09
   24.2999992      -1.03629960E-09
   24.4500008       1.42973577E-09
   24.6000004       3.75411213E-09
   24.7500000       5.88297810E-09
   24.8999996       7.77131248E-09
   25.0499992       9.38325773E-09
   25.2000008       1.06920854E-08
   25.3500004       1.16798837E-08
   25.5000000       1.23370461E-08
   25.6499996       1.26616371E-08
   25.7999992       1.26586990E-08
   25.9500008       1.23395765E-08
   26.1000004       1.17212702E-08
   26.2500000       1.08258895E-08
   26.3999996       9.68016955E-09
   26.5499992       8.31508373E-09
   26.7000008       6.76549705E-09
   26.8500004       5.06982234E-09
   27.0000000       3.26961591E-09
   27.1499996       1.40903844E-09
   27.2999992      -4.65879724E-10
   27.4500008      -2.30822872E-09
   27.6000004      -4.07148448E-09
   27.7500000      -5.71104231E-09
   27.8999996      -7.18595405E-09
   28.0499992      -8.46076809E-09
   28.2000008      -9.50732826E-09
   28.3500004      -1.03063531E-08
   28.5000000      -1.08485949E-08
   28.6499996      -1.11354392E-08
   28.7999992      -1.11787664E-08
   28.9500008      -1.10000196E-08
   29.1000004      -1.06284794E-08
   29.2500000      -1.00988364E-08
   29.3999996      -9.44822887E-09
   29.5499992      -8.71301964E-09
   29.7000008      -7.92561661E-09
   29.8500004      -7.11165749E-09
   30.0000000      -6.28789110E-09
   30.1499996      -5.46100409E-09
   30.2999992      -4.62757876E-09
   30.4500008      -3.77522991E-09
   30.6000004      -2.88486990E-09
   30.7500000      -1.93390326E-09
   30.8999996      -9.00068131E-10
   31.0499992       2.34468472E-10
   31.2000008       1.47915624E-09
   31.3500004       2.83167867E-09
   31.5000000       4.27550795E-09
   31.6499996       5.77867665E-09
   31.7999992       7.29395833E-09
   31.9500008       8.76049544E-09
   32.0999985       1.01067927E-08
   32.2500000       1.12548699E-08
   32.4000015       1.21252661E-08
   32.5499992       1.26425110E-08
   32.7000008       1.27406290E-08
   32.8499985       1.23682700E-08
   33.0000000       1.14930518E-08
   33.1500015       1.01047908E-08
   33.2999992       8.21736723E-09
   33.4500008       5.86907367E-09
   33.5999985       3.12140047E-09
   33.7500000       5.63182591E-11
   33.9000015      -3.22776961E-09
   34.0499992      -6.62116273E-09
   34.2000008      -1.00087556E-08
   34.3499985      -1.32763027E-08
   34.5000000      -1.63166458E-08
   34.6500015      -1.90354896E-08
   34.7999992      -2.13563034E-08
   34.9500008      -2.32240556E-08
   35.0999985      -2.46074308E-08
   35.2500000      -2.54994390E-08
   35.4000015      -2.59163073E-08
   35.5499992      -2.58947832E-08
   35.7000008      -2.54880117E-08
   35.8499985      -2.47603733E-08
   36.0000000      -2.37816504E-08
   36.1500015      -2.26210553E-08
   36.2999992      -2.13416005E-08
   36.4500008      -1.99953245E-08
   36.5999985      -1.86197404E-08
   36.7500000      -1.72358448E-08
   36.9000015      -1.58478333E-08
   37.0499992      -1.44445007E-08
   37.2000008      -1.30021851E-08
   37.3499985      -1.14889147E-08
   37.5000000      -9.86935333E-09
   37.6500015      -8.11001666E-09
   37.7999992      -6.18425133E-09
   37.9500008      -4.07647649E-09
   38.0999985      -1.78528781E-09
   38.2500000       6.74881817E-10
   38.4000015       3.27367689E-09
   38.5499992       5.96630034E-09
   38.7000008       8.69638495E-09
   38.8499985       1.14000045E-08
   39.0000000       1.40103795E-08
   39.1500015       1.64629093E-08
   39.2999992       1.87000317E-08
   39.4500008       2.06755182E-08
   39.5999985       2.23578631E-08
   39.7500000       2.37324773E-08
   39.9000015       2.48025831E-08
   40.0499992       2.55887027E-08
   40.2000008       2.61268713E-08
   40.3499985       2.64656670E-08
   40.5000000       2.66623683E-08
   40.6500015       2.67784248E-08
   40.7999992       2.68746554E-08
   40.9500008       2.70064362E-08
   41.0999985       2.72192597E-08
   41.2500000       2.75449317E-08
   41.4000015       2.79986914E-08
   41.5499992       2.85774977E-08
   41.7000008       2.92596116E-08
   41.8499985       3.00055909E-08
   42.0000000       3.07606882E-08
   42.1500015       3.14585868E-08
   42.2999992       3.20262643E-08
   42.4500008       3.23897318E-08
   42.5999985       3.24802620E-08
   42.7500000       3.22406741E-08
   42.9000015       3.16312203E-08
   43.0499992       3.06345491E-08
   43.2000008       2.92593452E-08
   43.3499985       2.75421854E-08
   43.5000000       2.55474397E-08
   43.6500015       2.33650290E-08
   43.7999992       2.11060911E-08
   43.9500008       1.88967935E-08
   44.0999985       1.68706507E-08
   44.2500000       1.51598893E-08
   44.4000015       1.38864831E-08
   44.5499992       1.31535316E-08
   44.7000008       1.30376723E-08
   44.8499985       1.35831364E-08
   45.0000000       1.47979469E-08
   45.1500015       1.66525904E-08
   45.2999992       1.90812894E-08
   45.4500008       2.19858123E-08
   45.5999985       2.52415173E-08
   45.7500000       2.87051893E-08
   45.9000015       3.22240545E-08
   46.0499992       3.56452787E-08
   46.2000008       3.88252133E-08
   46.3499985       4.16377723E-08
   46.5000000       4.39812347E-08
   46.6500015       4.57831035E-08
   46.7999992       4.70027217E-08
   46.9500008       4.76315130E-08
   47.0999985       4.76909747E-08
   47.2500000       4.72287134E-08
   47.4000015       4.63128984E-08
   47.5499992       4.50257076E-08
   47.7000008       4.34563177E-08
   47.8499985       4.16940296E-08
   48.0000000       3.98220479E-08
   48.1500015       3.79123861E-08
   48.2999992       3.60221897E-08
   48.4500008       3.41916753E-08
   48.5999985       3.24436762E-08
   48.7500000       3.07847081E-08
   48.9000015       2.92072748E-08
   49.0499992       2.76931651E-08
   49.2000008       2.62172559E-08
   49.3499985       2.47514862E-08
   49.5000000       2.32685959E-08
   49.6500015       2.17453149E-08
   49.7999992       2.01647374E-08
   49.9500008       1.85177296E-08
   50.0999985       1.68033303E-08
   50.2500000       1.50281885E-08
   50.4000015       1.32051499E-08
   50.5499992       1.13512426E-08
   50.7000008       9.48526679E-09
   50.8499985       7.62526575E-09
   51.0000000       5.78615111E-09
   51.1500015       3.97767685E-09
   51.2999992       2.20295759E-09
   51.4500008       4.57633653E-10
   51.5999985      -1.27026467E-09
   51.7500000      -2.99975977E-09
   51.9000015      -4.75575579E-09
   52.0499992      -6.56735510E-09
   52.2000008      -8.46580495E-09
   52.3499985      -1.04822329E-08
   52.5000000      -1.26453248E-08
   52.6500015      -1.49790775E-08
   52.7999992      -1.75007759E-08
   52.9500008      -2.02192698E-08
   53.0999985      -2.31336106E-08
   53.2500000      -2.62321169E-08
   53.4000015      -2.94918561E-08
   53.5499992      -3.28785461E-08
   53.7000008      -3.63469077E-08
   53.8499985      -3.98413889E-08
   54.0000000      -4.32973550E-08
   54.1500015      -4.66426684E-08
   54.2999992      -4.97997235E-08
   54.4500008      -5.26879020E-08
   54.5999985      -5.52265078E-08
   54.7500000      -5.73380454E-08
   54.9000015      -5.89518798E-08
   55.0499992      -6.00080909E-08
   55.2000008      -6.04613746E-08
   55.3499985      -6.02847479E-08
   55.5000000      -5.94728462E-08
   55.6500015      -5.80444492E-08
   55.7999992      -5.60439624E-08
   55.9500008      -5.35415978E-08
   56.0999985      -5.06319964E-08
   56.2500000      -4.74312110E-08
   56.4000015      -4.40719994E-08
   56.5499992      -4.06975964E-08
   56.7000008      -3.74542388E-08
   56.8499985      -3.44828592E-08
   57.0000000      -3.19105524E-08
   57.1500015      -2.98423686E-08
   57.2999992      -2.83541723E-08
   57.4500008      -2.74871272E-08
   57.5999985      -2.72443721E-08
   57.7500000      -2.75902661E-08
   57.9000015      -2.84523463E-08
   58.0499992      -2.97259906E-08
   58.2000008      -3.12814414E-08
   58.3499985      -3.29727534E-08
   58.5000000      -3.46479148E-08
   58.6500015      -3.61593955E-08
   58.7999992      -3.73742388E-08
   58.9500008      -3.81829039E-08
   59.0999985      -3.85061369E-08
   59.2500000      -3.82993726E-08
   59.4000015      -3.75543188E-08
   59.5499992      -3.62977310E-08
   59.7000008      -3.45875293E-08
   59.8499985      -3.25067475E-08
   60.0000000      -3.01558742E-08
   60.1500015      -2.76443561E-08
   60.2999992      -2.50820378E-08
   60.4500008      -2.25712213E-08
   60.5999985      -2.02000656E-08
   60.7500000      -1.80377384E-08
   60.9000015      -1.61316436E-08
   61.0499992      -1.45067842E-08
   61.2000008      -1.31671580E-08
   61.3499985      -1.20988659E-08
   61.5000000      -1.12745546E-08
   61.6500015      -1.06586109E-08
   61.7999992      -1.02126023E-08
   61.9500008      -9.90042448E-09
   62.0999985      -9.69267511E-09
   62.2500000      -9.56989865E-09
   62.4000015      -9.52446655E-09
   62.5499992      -9.56097512E-09
   62.7000008      -9.69521796E-09
   62.8499985      -9.95184735E-09
   63.0000000      -1.03610258E-08
   63.1500015      -1.09543752E-08
   63.2999992      -1.17605961E-08
   63.4500008      -1.28011637E-08
   63.5999985      -1.40864582E-08
   63.7500000      -1.56126756E-08
   63.9000015      -1.73597829E-08
   64.0500031      -1.92906882E-08
   64.1999969      -2.13517346E-08
   64.3499985      -2.34745077E-08
   64.5000000      -2.55788084E-08
   64.6500015      -2.75766148E-08
   64.8000031      -2.93767304E-08
   64.9499969      -3.08897654E-08
   65.0999985      -3.20330820E-08
   65.2500000      -3.27353362E-08
   65.4000015      -3.29402638E-08
   65.5500031      -3.26094280E-08
   65.6999969      -3.17237756E-08
   65.8499985      -3.02838998E-08
   66.0000000      -2.83090120E-08
   66.1500015      -2.58347814E-08
   66.3000031      -2.29103012E-08
   66.4499969      -1.95944008E-08
   66.5999985      -1.59517004E-08
   66.7500000      -1.20487451E-08
   66.9000015      -7.95053356E-09
   67.0500031      -3.71770215E-09
   67.1999969       5.95386740E-10
   67.3499985       4.94160890E-09
   67.5000000       9.28104793E-09
   67.6500015       1.35800580E-08
   67.8000031       1.78095938E-08
   67.9499969       2.19430376E-08
   68.0999985       2.59537831E-08
   68.2500000       2.98128704E-08
   68.4000015       3.34869021E-08
   68.5500031       3.69365587E-08
   68.6999969       4.01158289E-08
   68.8499985       4.29721467E-08
   69.0000000       4.54474929E-08
   69.1500015       4.74804551E-08
   69.3000031       4.90091807E-08
   69.4499969       4.99751351E-08
   69.5999985       5.03273476E-08
   69.7500000       5.00270616E-08
   69.9000015       4.90522929E-08
   70.0500031       4.74021320E-08
   70.1999969       4.51003039E-08
   70.3499985       4.21977333E-08
   70.5000000       3.87737877E-08
   70.6500015       3.49359048E-08
   70.8000031       3.08175458E-08
   70.9499969       2.65742983E-08
   71.0999985       2.23783125E-08
   71.2500000       1.84111979E-08
   71.4000015       1.48557415E-08
   71.5500031       1.18868915E-08
   71.6999969       9.66251967E-09
   71.8499985       8.31457303E-09
   72.0000000       7.94119703E-09
   72.1500015       8.60040306E-09
   72.3000031       1.03057243E-08
   72.4499969       1.30242341E-08
   72.5999985       1.66770988E-08
   72.7500000       2.11426521E-08
   72.9000015       2.62618602E-08
   73.0500031       3.18457722E-08
   73.1999969       3.76845115E-08
   73.3499985       4.35572076E-08
   73.5000000       4.92422174E-08
   73.6500015       5.45270424E-08
   73.8000031       5.92172853E-08
   73.9499969       6.31442134E-08
   74.0999985       6.61705570E-08
   74.2500000       6.81942751E-08
   74.4000015       6.91502891E-08
   74.5500031       6.90103050E-08
   74.6999969       6.77808387E-08
   74.8499985       6.54999326E-08
   75.0000000       6.22328642E-08
   75.1500015       5.80673039E-08
   75.3000031       5.31083515E-08
   75.4499969       4.74738329E-08
   75.5999985       4.12900718E-08
   75.7500000       3.46883979E-08
   75.9000015       2.78024253E-08
   76.0500031       2.07661106E-08
   76.1999969       1.37123974E-08
   76.3499985       6.77236667E-09
   76.5000000       7.45608991E-11
   76.6500015      -6.25570307E-09
   76.8000031      -1.20972796E-08
   76.9499969      -1.73345889E-08
   77.0999985      -2.18595684E-08
   77.2500000      -2.55742041E-08
   77.4000015      -2.83935915E-08
   77.5500031      -3.02493781E-08
   77.6999969      -3.10933643E-08
   77.8499985      -3.09009920E-08
   78.0000000      -2.96743963E-08
   78.1500015      -2.74447718E-08
   78.3000031      -2.42737155E-08
   78.4499969      -2.02534078E-08
   78.5999985      -1.55054636E-08
   78.7500000      -1.01783826E-08
   78.9000015      -4.44369741E-09
   79.0500031       1.50909618E-09
   79.1999969       7.47863460E-09
   79.3499985       1.32585454E-08
   79.5000000       1.86447942E-08
   79.6500015       2.34432314E-08
   79.8000031       2.74770393E-08
   79.9499969       3.05937853E-08
   80.0999985       3.26718386E-08
   80.2500000       3.36258914E-08
   80.4000015       3.34113643E-08
   80.5500031       3.20275326E-08
   80.6999969       2.95191640E-08
   80.8499985       2.59765329E-08
   81.0000000       2.15336939E-08
   81.1500015       1.63649503E-08
   81.3000031       1.06794351E-08
   81.4499969       4.71395234E-09
   81.5999985      -1.27591560E-09
   81.7500000      -7.02605885E-09
   81.9000015      -1.22752022E-08
   82.0500031      -1.67768626E-08
   82.1999969      -2.03113686E-08
   82.3499985      -2.26973320E-08
   82.5000000      -2.38019116E-08
   82.6500015      -2.35492603E-08
   82.8000031      -2.19265761E-08
   82.9499969      -1.89873148E-08
   83.0999985      -1.48512500E-08
   83.2500000      -9.70127534E-09
   83.4000015      -3.77699783E-09
   83.5500031       2.63460631E-09
   83.6999969       9.21100796E-09
   83.8499985       1.56078670E-08
   84.0000000       2.14739480E-08
   84.1500015       2.64664806E-08
   84.3000031       3.02661718E-08
   84.4499969       3.25911458E-08
   84.5999985       3.32091794E-08
   84.7500000       3.19476499E-08
   84.9000015       2.87008675E-08
   85.0500031       2.34345059E-08
   85.1999969       1.61870233E-08
   85.3499985       7.06817183E-09
   85.5000000      -3.74525477E-09
   85.6500015      -1.60161804E-08
   85.8000031      -2.94561051E-08
   85.9499969      -4.37356569E-08
   86.0999985      -5.84963225E-08
   86.2500000      -7.33629264E-08
   86.4000015      -8.79562947E-08
   86.5500031      -1.01905584E-07
   86.6999969      -1.14859994E-07
   86.8499985      -1.26499145E-07
   87.0000000      -1.36542170E-07
   87.1500015      -1.44755006E-07
   87.3000031      -1.50955699E-07
   87.4499969      -1.55017901E-07
   87.5999985      -1.56872261E-07
   87.7500000      -1.56506090E-07
   87.9000015      -1.53961210E-07
   88.0500031      -1.49330504E-07
   88.1999969      -1.42753024E-07
   88.3499985      -1.34408410E-07
   88.5000000      -1.24510493E-07
   88.6500015      -1.13300402E-07
   88.8000031      -1.01039639E-07
   88.9499969      -8.80029205E-08
   89.0999985      -7.44711883E-08
   89.2500000      -6.07248296E-08
   89.4000015      -4.70371155E-08
   89.5500031      -3.36680870E-08
   89.6999969      -2.08588364E-08
   89.8499985      -8.82638229E-09
   90.0000000       2.24084995E-09
   90.1500015       1.21867414E-08
   90.3000031       2.08904005E-08
   90.4499969       2.82681167E-08
   90.5999985       3.42743114E-08
   90.7500000       3.89014936E-08
   90.9000015       4.21791846E-08
   91.0500031       4.41718839E-08
   91.1999969       4.49761757E-08
   91.3499985       4.47169981E-08
   91.5000000       4.35432916E-08
   91.6500015       4.16230641E-08
   91.8000031       3.91380084E-08
   91.9499969       3.62777861E-08
   92.0999985       3.32340164E-08
   92.2500000       3.01941476E-08
   92.4000015       2.73352043E-08
   92.5500031       2.48176750E-08
   92.6999969       2.27795756E-08
   92.8499985       2.13310223E-08
   93.0000000       2.05495390E-08
   93.1500015       2.04764188E-08
   93.3000031       2.11144844E-08
   93.4499969       2.24276029E-08
   93.5999985       2.43421585E-08
   93.7500000       2.67507154E-08
   93.9000015       2.95178975E-08
   94.0500031       3.24883089E-08
   94.1999969       3.54961784E-08
   94.3499985       3.83762284E-08
   94.5000000       4.09750243E-08
   94.6500015       4.31620570E-08
   94.8000031       4.48396449E-08
   94.9499969       4.59508378E-08
   95.0999985       4.64845940E-08
   95.2500000       4.64776413E-08
   95.4000015       4.60127190E-08
   95.5500031       4.52132163E-08
   95.6999969       4.42344330E-08
   95.8499985       4.32521006E-08
   96.0000000       4.24489848E-08
   96.1500015       4.20006039E-08
   96.3000031       4.20612203E-08
   96.4499969       4.27512319E-08
   96.5999985       4.41469936E-08
   96.7500000       4.62739429E-08
   96.9000015       4.91035905E-08
   97.0500031       5.25546220E-08
   97.1999969       5.64980382E-08
   97.3499985       6.07659274E-08
   97.5000000       6.51630714E-08
   97.6500015       6.94805848E-08
   97.8000031       7.35103143E-08
   97.9499969       7.70590276E-08
   98.0999985       7.99610902E-08
   98.2500000       8.20888744E-08
   98.4000015       8.33598861E-08
   98.5500031       8.37403107E-08
   98.6999969       8.32446787E-08
   98.8499985       8.19317734E-08
   99.0000000       7.98971982E-08
   99.1500015       7.72633371E-08
   99.3000031       7.41674739E-08
   99.4499969       7.07491665E-08
   99.5999985       6.71378757E-08
   99.7500000       6.34419095E-08
   99.9000015       5.97395484E-08
   100.050003       5.60729987E-08
   100.199997       5.24458095E-08
   100.349998       4.88237966E-08
   100.500000       4.51394264E-08
   100.650002       4.12993053E-08
   100.800003       3.71941269E-08
   100.949997       3.27102470E-08
   101.099998       2.77419065E-08
   101.250000       2.22031478E-08
   101.400002       1.60383191E-08
   101.550003       9.23040044E-09
   101.699997       1.80636084E-09
   101.849998      -6.16087048E-09
   102.000000      -1.45540051E-08
   102.150002      -2.32165114E-08
   102.300003      -3.19607736E-08
   102.449997      -4.05787475E-08
   102.599998      -4.88542398E-08
   102.750000      -5.65758533E-08
   102.900002      -6.35496491E-08
   103.050003      -6.96105218E-08
   103.199997      -7.46314370E-08
   103.349998      -7.85299505E-08
   103.500000      -8.12714163E-08
   103.650002      -8.28689011E-08
   103.800003      -8.33797671E-08
   103.949997      -8.28993763E-08
   104.099998      -8.15524430E-08
   104.250000      -7.94828878E-08
   104.400002      -7.68429942E-08
   104.550003      -7.37828216E-08
   104.699997      -7.04407270E-08
   104.849998      -6.69357547E-08
   105.000000      -6.33624637E-08
   105.150002      -5.97885759E-08
   105.300003      -5.62555122E-08
   105.449997      -5.27816724E-08
   105.599998      -4.93680830E-08
   105.750000      -4.60057521E-08
   105.900002      -4.26839719E-08
   106.050003      -3.93986923E-08
   106.199997      -3.61600598E-08
   106.349998      -3.29982832E-08
   106.500000      -2.99671470E-08
   106.650002      -2.71447025E-08
   106.800003      -2.46308858E-08
   106.949997      -2.25421886E-08
   107.099998      -2.10037072E-08
   107.250000      -2.01392130E-08
   107.400002      -2.00601296E-08
   107.550003      -2.08543192E-08
   107.699997      -2.25758043E-08
   107.849998      -2.52363552E-08
   108.000000      -2.87997803E-08
   108.150002      -3.31795853E-08
   108.300003      -3.82402661E-08
   108.449997      -4.38023164E-08
   108.599998      -4.96505699E-08
   108.750000      -5.55452573E-08
   108.900002      -6.12349851E-08
   109.050003      -6.64705340E-08
   109.199997      -7.10184338E-08
   109.349998      -7.46732525E-08
   109.500000      -7.72677424E-08
   109.650002      -7.86800385E-08
   109.800003      -7.88376866E-08
   109.949997      -7.77181342E-08
   110.099998      -7.53461507E-08
   110.250000      -7.17883708E-08
   110.400002      -6.71457272E-08
   110.550003      -6.15445472E-08
   110.699997      -5.51270745E-08
   110.849998      -4.80422813E-08
   111.000000      -4.04375804E-08
   111.150002      -3.24520819E-08
   111.300003      -2.42116407E-08
   111.449997      -1.58259397E-08
   111.599998      -7.38752837E-09
   111.750000       1.02737840E-09
   111.900002       9.35666922E-09
   112.050003       1.75490928E-08
   112.199997       2.55604817E-08
   112.349998       3.33498846E-08
   112.500000       4.08760243E-08
   112.650002       4.80944742E-08
   112.800003       5.49557697E-08
   112.949997       6.14046840E-08
   113.099998       6.73807321E-08
   113.250000       7.28198728E-08
   113.400002       7.76573685E-08
   113.550003       8.18314874E-08
   113.699997       8.52879154E-08
   113.849998       8.79844109E-08
   114.000000       8.98954085E-08
   114.150002       9.10160409E-08
   114.300003       9.13652869E-08
   114.449997       9.09877116E-08
   114.599998       8.99535948E-08
   114.750000       8.83572682E-08
   114.900002       8.63134204E-08
   115.050003       8.39516829E-08
   115.199997       8.14095813E-08
   115.349998       7.88244066E-08
   115.500000       7.63244330E-08
   115.650002       7.40201926E-08
   115.800003       7.19965030E-08
   115.949997       7.03059229E-08
   116.099998       6.89641482E-08
   116.250000       6.79479868E-08
   116.400002       6.71959768E-08
   116.550003       6.66118751E-08
   116.699997       6.60706760E-08
   116.849998       6.54269314E-08
   117.000000       6.45246203E-08
   117.150002       6.32079136E-08
   117.300003       6.13320097E-08
   117.449997       5.87732849E-08
   117.599998       5.54379511E-08
   117.750000       5.12686746E-08
   117.900002       4.62487009E-08
   118.050003       4.04032861E-08
   118.199997       3.37984396E-08
   118.349998       2.65371050E-08
