  -1.50000000         0.00000000    
  -1.35000002         0.00000000    
  -1.20000005         0.00000000    
  -1.04999995         0.00000000    
 -0.899999976         0.00000000    
 -0.750000000         0.00000000    
 -0.600000024         0.00000000    
 -0.449999988         0.00000000    
 -0.300000012         0.00000000    
 -0.150000006         0.00000000    
   0.00000000         0.00000000    
  0.150000006         0.00000000    
  0.300000012         0.00000000    
  0.449999988         0.00000000    
  0.600000024         0.00000000    
  0.750000000         0.00000000    
  0.899999976         0.00000000    
   1.04999995         0.00000000    
   1.20000005         0.00000000    
   1.35000002         0.00000000    
   1.50000000         0.00000000    
   1.64999998         0.00000000    
   1.79999995         0.00000000    
   1.95000005         0.00000000    
   2.09999990         0.00000000    
   2.25000000         0.00000000    
   2.40000010         0.00000000    
   2.54999995         0.00000000    
   2.70000005         0.00000000    
   2.84999990         0.00000000    
   3.00000000         0.00000000    
   3.15000010         0.00000000    
   3.29999995         0.00000000    
   3.45000005         0.00000000    
   3.59999990         0.00000000    
   3.75000000         0.00000000    
   3.90000010         0.00000000    
   4.05000019         0.00000000    
   4.19999981         0.00000000    
   4.34999990         0.00000000    
   4.50000000         0.00000000    
   4.65000010         0.00000000    
   4.80000019         0.00000000    
   4.94999981         0.00000000    
   5.09999990         0.00000000    
   5.25000000         0.00000000    
   5.40000010         0.00000000    
   5.55000019         0.00000000    
   5.69999981         0.00000000    
   5.84999990         0.00000000    
   6.00000000         0.00000000    
   6.15000010         0.00000000    
   6.30000019         0.00000000    
   6.44999981         0.00000000    
   6.59999990         0.00000000    
   6.75000000         0.00000000    
   6.90000010         0.00000000    
   7.05000019         0.00000000    
   7.19999981         0.00000000    
   7.34999990         0.00000000    
   7.50000000         0.00000000    
   7.65000010         0.00000000    
   7.80000019         0.00000000    
   7.94999981         0.00000000    
   8.10000038         0.00000000    
   8.25000000         0.00000000    
   8.39999962         0.00000000    
   8.55000019         0.00000000    
   8.69999981         0.00000000    
   8.85000038         0.00000000    
   9.00000000         0.00000000    
   9.14999962         0.00000000    
   9.30000019         0.00000000    
   9.44999981         0.00000000    
   9.60000038         0.00000000    
   9.75000000         0.00000000    
   9.89999962         0.00000000    
   10.0500002         0.00000000    
   10.1999998         0.00000000    
   10.3500004         0.00000000    
   10.5000000         0.00000000    
   10.6499996         0.00000000    
   10.8000002         0.00000000    
   10.9499998         0.00000000    
   11.1000004         0.00000000    
   11.2500000         0.00000000    
   11.3999996         2.47202358E-36
   11.5500002         4.55680270E-36
   11.6999998        -1.76361479E-36
   11.8500004        -3.49531982E-35
   12.0000000        -2.95488486E-35
   12.1499996         1.30710552E-34
   12.3000002         3.75944147E-34
   12.4499998         7.13936264E-34
   12.6000004         1.03377097E-33
   12.7500000         5.91783254E-34
   12.8999996        -5.72138769E-34
   13.0500002        -1.97530934E-33
   13.1999998        -3.62052076E-33
   13.3500004        -4.75684874E-33
   13.5000000        -3.46775352E-33
   13.6499996         3.36026517E-34
   13.8000002         8.30294051E-33
   13.9499998         1.92091029E-32
   14.1000004         3.31957812E-32
   14.2500000         4.29245839E-32
   14.3999996         2.46952085E-32
   14.5500002        -2.31748520E-32
   14.6999998        -9.09352673E-32
   14.8500004        -1.76742064E-31
   15.0000000        -2.53570965E-31
   15.1499996        -3.19619100E-31
   15.3000002        -3.71010162E-31
   15.4499998        -3.88486989E-31
   15.6000004        -3.34411333E-31
   15.7500000        -2.05714333E-31
   15.8999996         2.06789778E-32
   16.0499992         3.79576130E-31
   16.2000008         8.57189665E-31
   16.3500004         1.38172129E-30
   16.5000000         1.86735534E-30
   16.6499996         2.19499552E-30
   16.7999992         2.21556197E-30
   16.9500008         1.85896607E-30
   17.1000004         1.08973273E-30
   17.2500000        -5.43447495E-32
   17.3999996        -1.44368301E-30
   17.5499992        -2.86962997E-30
   17.7000008        -4.02504350E-30
   17.8500004        -4.58650210E-30
   18.0000000        -4.26195094E-30
   18.1499996        -2.83749177E-30
   18.2999992        -2.89870324E-31
   18.4500008         3.15674701E-30
   18.6000004         6.97948736E-30
   18.7500000         1.03986758E-29
   18.8999996         1.25047261E-29
   19.0499992         1.23333018E-29
   19.2000008         9.21877439E-30
   19.3500004         2.99758808E-30
   19.5000000        -5.81701034E-30
   19.6499996        -1.59317243E-29
   19.7999992        -2.52307295E-29
   19.9500008        -3.11786301E-29
   20.1000004        -3.11503219E-29
   20.2500000        -2.31365214E-29
   20.3999996        -6.34460305E-30
   20.5499992         1.80587921E-29
   20.7000008         4.66389394E-29
   20.8500004         7.37769595E-29
   21.0000000         9.21579205E-29
   21.1499996         9.40700500E-29
   21.2999992         7.30072315E-29
   21.4500008         2.54990266E-29
   21.6000004        -4.69780325E-29
   21.7500000        -1.36646234E-28
   21.8999996        -2.29111371E-28
   22.0499992        -3.04319079E-28
   22.2000008        -3.39085774E-28
   22.3500004        -3.10975984E-28
   22.5000000        -2.03408656E-28
   22.6499996        -1.10076376E-29
   22.7999992         2.55790411E-28
   22.9500008         5.67893907E-28
   23.1000004         8.77615461E-28
   23.2500000         1.12237352E-27
   23.3999996         1.23250407E-27
   23.5499992         1.14248851E-27
   23.7000008         8.04614723E-28
   23.8500004         2.03104142E-28
   24.0000000        -6.33865963E-28
   24.1499996        -1.62685421E-27
   24.2999992        -2.64515230E-27
   24.4500008        -3.51592994E-27
   24.6000004        -4.04322067E-27
   24.7500000        -4.03592371E-27
   24.8999996        -3.34225536E-27
   25.0499992        -1.88640428E-27
   25.2000008         2.98419763E-28
   25.3500004         3.04688723E-27
   25.5000000         6.05501859E-27
   25.6499996         8.89551065E-27
   25.7999992         1.10579386E-26
   25.9500008         1.20135966E-26
   26.1000004         1.13003608E-26
   26.2500000         8.61831463E-27
   26.3999996         3.92244484E-27
   26.5499992        -2.50463010E-27
   26.7000008        -1.00182423E-26
   26.8500004        -1.76323200E-26
   27.0000000        -2.41065909E-26
   27.1499996        -2.81029417E-26
   27.2999992        -2.84011897E-26
   27.4500008        -2.41503372E-26
   27.6000004        -1.51174115E-26
   27.7500000        -1.88526413E-27
   27.8999996         1.40536233E-26
   28.0499992         3.03549917E-26
   28.2000008         4.40633789E-26
   28.3500004         5.20383189E-26
   28.5000000         5.15315621E-26
   28.6499996         4.08396557E-26
   28.7999992         1.99185622E-26
   28.9500008        -9.17723876E-27
   29.1000004        -4.21707907E-26
   29.2500000        -7.28661327E-26
   29.3999996        -9.39322133E-26
   29.5499992        -9.81329346E-26
   29.7000008        -7.98653258E-26
   29.8500004        -3.67653185E-26
   30.0000000         2.89368386E-26
   30.1499996         1.09659074E-25
   30.2999992         1.92617166E-25
   30.4500008         2.61076450E-25
   30.6000004         2.96715288E-25
   30.7500000         2.82878199E-25
   30.8999996         2.08256937E-25
   31.0499992         7.03435897E-26
   31.2000008        -1.22097734E-25
   31.3500004        -3.48248686E-25
   31.5000000        -5.76643566E-25
   31.6499996        -7.68902231E-25
   31.7999992        -8.85460769E-25
   31.9500008        -8.92484983E-25
   32.0999985        -7.68751904E-25
   32.2500000        -5.11082026E-25
   32.4000015        -1.36991169E-25
   32.5499992         3.16366577E-25
   32.7000008         7.97187233E-25
   32.8499985         1.24728040E-24
   33.0000000         1.61206339E-24
   33.1500015         1.85007426E-24
   33.2999992         1.93956284E-24
   33.4500008         1.88008470E-24
   33.5999985         1.68801975E-24
   33.7500000         1.38648881E-24
   33.9000015         9.91899404E-25
   34.0499992         5.01007927E-25
   34.2000008        -1.16667326E-25
   34.3499985        -9.16346251E-25
   34.5000000        -1.96218875E-24
   34.6500015        -3.29789297E-24
   34.7999992        -4.90735420E-24
   34.9500008        -6.67337119E-24
   35.0999985        -8.34604740E-24
   35.2500000        -9.53432909E-24
   35.4000015        -9.73313151E-24
   35.5499992        -8.39389655E-24
   35.7000008        -5.03836270E-24
   35.8499985         5.95436501E-25
   36.0000000         8.39773594E-24
   36.1500015         1.77551417E-23
   36.2999992         2.74812444E-23
   36.4500008         3.58477549E-23
   36.5999985         4.07441987E-23
   36.7500000         3.99753844E-23
   36.9000015         3.16787512E-23
   37.0499992         1.48129303E-23
   37.2000008        -1.03610995E-23
   37.3499985        -4.19067020E-23
   37.5000000        -7.60540168E-23
   37.6500015        -1.07353392E-22
   37.7999992        -1.29199715E-22
   37.9500008        -1.34731132E-22
   38.0999985        -1.18032676E-22
   38.2500000        -7.54986966E-23
   38.4000015        -7.13823273E-24
   38.5499992         8.24362107E-23
   38.7000008         1.83602314E-22
   38.8499985         2.82126801E-22
   39.0000000         3.60496761E-22
   39.1500015         4.00169195E-22
   39.2999992         3.84553611E-22
   39.4500008         3.02365059E-22
   39.5999985         1.50835834E-22
   39.7500000        -6.18167246E-23
   39.9000015        -3.15269182E-22
   40.0499992        -5.77814183E-22
   40.2000008        -8.09203217E-22
   40.3499985        -9.65572816E-22
   40.5000000        -1.00604529E-21
   40.6500015        -9.00216965E-22
   40.7999992        -6.35427737E-22
   40.9500008        -2.22522010E-22
   41.0999985         3.01194742E-22
   41.2500000         8.72875980E-22
   41.4000015         1.40955262E-21
   41.5499992         1.81802889E-21
   41.7000008         2.00846703E-21
   41.8499985         1.91009292E-21
   42.0000000         1.48679424E-21
   42.1500015         7.49962818E-22
   42.2999992        -2.34106477E-22
   42.4500008        -1.34456098E-21
   42.5999985        -2.41552753E-21
   42.7500000        -3.25503487E-21
   42.9000015        -3.67200862E-21
   43.0499992        -3.50843487E-21
   43.2000008        -2.67240165E-21
   43.3499985        -1.16677460E-21
   43.5000000         8.92016043E-22
   43.6500015         3.27002086E-21
   43.7999992         5.63012770E-21
   43.9500008         7.56591329E-21
   44.0999985         8.65327371E-21
   44.2500000         8.51498915E-21
   44.4000015         6.89043066E-21
   44.5499992         3.70041509E-21
   44.7000008        -9.03837597E-22
   44.8499985        -6.51819332E-21
   45.0000000        -1.24978590E-20
   45.1500015        -1.80088270E-20
   45.2999992        -2.21176964E-20
   45.4500008        -2.39130516E-20
   45.5999985        -2.26456461E-20
   45.7500000        -1.78695440E-20
   45.9000015        -9.56333152E-21
   46.0499992         1.79009700E-21
   46.2000008         1.51839713E-20
   46.3499985         2.91412434E-20
   46.5000000         4.18455518E-20
   46.6500015         5.13430069E-20
   46.7999992         5.57968026E-20
   46.9500008         5.37660613E-20
   47.0999985         4.44723317E-20
   47.2500000         2.80133115E-20
   47.4000015         5.48481856E-21
   47.5499992        -2.10205334E-20
   47.7000008        -4.85563970E-20
   47.8499985        -7.36082759E-20
   48.0000000        -9.25018437E-20
   48.1500015        -1.01893691E-19
   48.2999992        -9.92864502E-20
   48.4500008        -8.34980667E-20
   48.5999985        -5.50116854E-20
   48.7500000        -1.61388624E-20
   48.9000015         2.90539985E-20
   49.0499992         7.50793714E-20
   49.2000008         1.15611881E-19
   49.3499985         1.44273275E-19
   49.5000000         1.55535456E-19
   49.6500015         1.45629205E-19
   49.7999992         1.13329198E-19
   49.9500008         6.04849586E-20
   50.0999985        -7.81418299E-21
   50.2500000        -8.35165620E-20
   50.4000015        -1.56351443E-19
   50.5499992        -2.14998407E-19
   50.7000008        -2.48576744E-19
   50.8499985        -2.48287050E-19
   51.0000000        -2.08992507E-19
   51.1500015        -1.30504091E-19
   51.2999992        -1.83437495E-20
   51.4500008         1.16199579E-19
   51.5999985         2.56831024E-19
   51.7500000         3.83838119E-19
   51.9000015         4.76399681E-19
   52.0499992         5.15390907E-19
   52.2000008         4.86358729E-19
   52.3499985         3.82270069E-19
   52.5000000         2.05611522E-19
   52.6500015        -3.05475700E-20
   52.7999992        -3.02826505E-19
   52.9500008        -5.79288697E-19
   53.0999985        -8.22644044E-19
   53.2500000        -9.94649635E-19
   53.4000015        -1.06126073E-18
   53.5499992        -9.97914103E-19
   53.7000008        -7.94223721E-19
   53.8499985        -4.57356174E-19
   54.0000000        -1.34350683E-20
   54.1500015         4.93482512E-19
   54.2999992         1.00503778E-18
   54.4500008         1.45464788E-18
   54.5999985         1.77550472E-18
   54.7500000         1.90963020E-18
   54.9000015         1.81686685E-18
   55.0499992         1.48254485E-18
   55.2000008         9.22591450E-19
   55.3499985         1.85050617E-19
   55.5000000        -6.52647933E-19
   55.6500015        -1.49081645E-18
   55.7999992        -2.21858360E-18
   55.9500008        -2.72785327E-18
   56.0999985        -2.92854528E-18
   56.2500000        -2.76314245E-18
   56.4000015        -2.21841134E-18
   56.5499992        -1.33230745E-18
   56.7000008        -1.94499540E-19
   56.8499985         1.06033574E-18
   57.0000000         2.26638989E-18
   57.1500015         3.24668701E-18
   57.2999992         3.83704932E-18
   57.4500008         3.91116843E-18
   57.5999985         3.40335150E-18
   57.7500000         2.32542225E-18
   57.9000015         7.74640633E-19
   58.0499992        -1.06962404E-18
   58.2000008        -2.96141537E-18
   58.3499985        -4.61526746E-18
   58.5000000        -5.74247972E-18
   58.6500015        -6.09263561E-18
   58.7999992        -5.49517546E-18
   58.9500008        -3.89515421E-18
   59.0999985        -1.37740441E-18
   59.2500000         1.82583184E-18
   59.4000015         5.34703114E-18
   59.5499992         8.71619402E-18
   59.7000008         1.14124976E-17
   59.8499985         1.29301300E-17
   60.0000000         1.28510904E-17
   60.1500015         1.09158774E-17
   60.2999992         7.08212271E-18
   60.4500008         1.56160864E-18
   60.5999985        -5.17216433E-18
   60.7500000        -1.24107028E-17
   60.9000015        -1.92723719E-17
   61.0499992        -2.47956190E-17
   61.2000008        -2.80551407E-17
   61.3499985        -2.82885380E-17
   61.5000000        -2.50180330E-17
   61.6500015        -1.81506654E-17
   61.7999992        -8.04120471E-18
   61.9500008         4.49502808E-18
   62.0999985         1.82271283E-17
   62.2500000         3.16125765E-17
   62.4000015         4.29538183E-17
   62.5499992         5.05936220E-17
   62.7000008         5.31287652E-17
   62.8499985         4.96169269E-17
   63.0000000         3.97497772E-17
   63.1500015         2.39663985E-17
   63.2999992         3.48604309E-18
   63.4500008        -1.97529903E-17
   63.5999985        -4.32510408E-17
   63.7500000        -6.41922397E-17
   63.9000015        -7.97560135E-17
   64.0500031        -8.74633185E-17
   64.1999969        -8.55181007E-17
   64.3499985        -7.31013587E-17
   64.5000000        -5.05761586E-17
   64.6500015        -1.95691097E-17
   64.8000031         1.70945592E-17
   64.9499969         5.56093673E-17
   65.0999985         9.15501532E-17
   65.2500000         1.20344919E-16
   65.4000015         1.37813333E-16
   65.5500031         1.40711588E-16
   65.6999969         1.27217453E-16
   65.8499985         9.72908859E-17
   66.0000000         5.28538798E-17
   66.1500015        -2.24961756E-18
   66.3000031        -6.25298648E-17
   66.4499969        -1.21352663E-16
   66.5999985        -1.71626173E-16
   66.7500000        -2.06607562E-16
   66.9000015        -2.20743165E-16
   67.0500031        -2.10443509E-16
   67.1999969        -1.74693968E-16
   67.3499985        -1.15412117E-16
   67.5000000        -3.74856979E-17
   67.6500015         5.15420078E-17
   67.8000031         1.42133637E-16
   67.9499969         2.23717283E-16
   68.0999985         2.85855647E-16
   68.2500000         3.19502786E-16
   68.4000015         3.18205794E-16
   68.5500031         2.79102518E-16
   68.6999969         2.03577751E-16
   68.8499985         9.74702915E-17
   69.0000000        -2.92334926E-17
   69.1500015        -1.63226849E-16
   69.3000031        -2.89176810E-16
   69.4499969        -3.91370991E-16
   69.5999985        -4.55550995E-16
   69.7500000        -4.70730143E-16
   69.9000015        -4.30777743E-16
   70.0500031        -3.35562743E-16
   70.1999969        -1.91483206E-16
   70.3499985        -1.12676889E-17
   70.5000000         1.86988174E-16
   70.6500015         3.81500198E-16
   70.8000031         5.49049562E-16
   70.9499969         6.67593729E-16
   71.0999985         7.18955266E-16
   71.2500000         6.91278570E-16
   71.4000015         5.80946335E-16
   71.5500031         3.93685932E-16
   71.6999969         1.44670633E-16
   71.8499985        -1.42477149E-16
   72.0000000        -4.37752053E-16
   72.1500015        -7.07744891E-16
   72.3000031        -9.19258494E-16
   72.4499969        -1.04318788E-15
   72.5999985        -1.05823246E-15
   72.7500000        -9.53992986E-16
   72.9000015        -7.33044388E-16
   73.0500031        -4.11661956E-16
   73.1999969        -1.90122550E-17
   73.3499985         4.05217227E-16
   73.5000000         8.14593491E-16
   73.6500015         1.16078856E-15
   73.8000031         1.39902335E-15
   73.9499969         1.49351835E-15
   74.0999985         1.42231951E-15
   74.2500000         1.18089077E-15
   74.4000015         7.83964833E-16
   74.5500031         2.65307422E-16
   74.6999969        -3.24736471E-16
   74.8499985        -9.23791602E-16
   75.0000000        -1.46372915E-15
   75.1500015        -1.87807004E-15
   75.3000031        -2.10974265E-15
   75.4499969        -2.11832246E-15
   75.5999985        -1.88588307E-15
   75.7500000        -1.42067691E-15
   75.9000015        -7.58069606E-16
   76.0500031         4.15781806E-17
   76.1999969         8.98051647E-16
   76.3499985         1.71906501E-15
   76.5000000         2.40997137E-15
   76.6500015         2.88441231E-15
   76.8000031         3.07473934E-15
   76.9499969         2.94098924E-15
   77.0999985         2.47727385E-15
   77.2500000         1.71467241E-15
   77.4000015         7.20057626E-16
   77.5500031        -4.09281741E-16
   77.6999969        -1.55487424E-15
   77.8499985        -2.58933694E-15
   78.0000000        -3.39045795E-15
   78.1500015        -3.85556946E-15
   78.3000031        -3.91455684E-15
   78.4499969        -3.53990019E-15
   78.5999985        -2.75238274E-15
   78.7500000        -1.62152737E-15
   78.9000015        -2.60369484E-16
   79.0500031         1.18517517E-15
   79.1999969         2.55144408E-15
   79.3499985         3.67516754E-15
   79.5000000         4.41266642E-15
   79.6500015         4.65790872E-15
   79.8000031         4.35721837E-15
   79.9499969         3.51868709E-15
   80.0999985         2.21482810E-15
   80.2500000         5.77735021E-16
   80.4000015        -1.21315955E-15
   80.5500031        -2.94974417E-15
   80.6999969        -4.41848638E-15
   80.8499985        -5.42581227E-15
   81.0000000        -5.82270014E-15
   81.1500015        -5.52548984E-15
   81.3000031        -4.53015921E-15
   81.4499969        -2.91791818E-15
   81.5999985        -8.50856719E-16
   81.7500000         1.44249404E-15
   81.9000015         3.69064156E-15
   82.0500031         5.60944012E-15
   82.1999969         6.93604364E-15
   82.3499985         7.46266689E-15
   82.5000000         7.06605515E-15
   82.6500015         5.72881882E-15
   82.8000031         3.54945747E-15
   82.9499969         7.39066263E-16
   83.0999985        -2.39585133E-15
   83.2500000        -5.48341136E-15
   83.4000015        -8.12653828E-15
   83.5500031        -9.94925493E-15
   83.6999969        -1.06439541E-14
   83.8499985        -1.00140987E-14
   84.0000000        -8.00689657E-15
   84.1500015        -4.73133165E-15
   84.3000031        -4.58340327E-16
   84.4499969         4.39820037E-15
   84.5999985         9.31879814E-15
   84.7500000         1.37309030E-14
   84.9000015         1.70715882E-14
   85.0500031         1.88536998E-14
   85.1999969         1.87279425E-14
   85.3499985         1.65333665E-14
   85.5000000         1.23295344E-14
   85.6500015         6.40539952E-15
   85.8000031        -7.37707146E-16
   85.9499969        -8.42867917E-15
   86.0999985        -1.58915189E-14
   86.2500000        -2.23263672E-14
   86.4000015        -2.69982452E-14
   86.5500031        -2.93236877E-14
   86.6999969        -2.89450098E-14
   86.8499985        -2.57828596E-14
   87.0000000        -2.00596325E-14
   87.1500015        -1.22893249E-14
   87.3000031        -3.23308558E-15
   87.4499969         6.17626737E-15
   87.5999985         1.49336788E-14
   87.7500000         2.20748814E-14
   87.9000015         2.67904307E-14
   88.0500031         2.85274056E-14
   88.1999969         2.70659942E-14
   88.3499985         2.25604939E-14
   88.5000000         1.55378826E-14
   88.6500015         6.85172617E-15
   88.8000031        -2.40562227E-15
   88.9499969        -1.10244015E-14
   89.0999985        -1.78198114E-14
   89.2500000        -2.17795210E-14
   89.4000015        -2.21989141E-14
   89.5500031        -1.87870688E-14
   89.6999969        -1.17289279E-14
   89.8499985        -1.69355227E-15
   90.0000000         1.02160305E-14
   90.1500015         2.25688896E-14
   90.3000031         3.37591249E-14
   90.4499969         4.21902571E-14
   90.5999985         4.64711108E-14
   90.7500000         4.56004253E-14
   90.9000015         3.91175231E-14
   91.0500031         2.71987480E-14
   91.1999969         1.06846862E-14
   91.3499985        -8.96964777E-15
   91.5000000        -2.98209062E-14
   91.6500015        -4.96299203E-14
   91.8000031        -6.61023292E-14
   91.9499969        -7.71522806E-14
   92.0999985        -8.11597154E-14
   92.2500000        -7.71907698E-14
   92.4000015        -6.51531712E-14
   92.5500031        -4.58643438E-14
   92.6999969        -2.10185974E-14
   92.8499985         6.94907990E-15
   93.0000000         3.50935406E-14
   93.1500015         6.02635075E-14
   93.3000031         7.94487021E-14
   93.4499969         9.01327217E-14
   93.5999985         9.06114647E-14
   93.7500000         8.02384282E-14
   93.9000015         5.95644478E-14
   94.0500031         3.03493904E-14
   94.1999969        -4.56299063E-15
   94.3499985        -4.15009146E-14
   94.5000000        -7.63296015E-14
   94.6500015        -1.04890333E-13
   94.8000031        -1.23467819E-13
   94.9499969        -1.29234622E-13
   95.0999985        -1.20620799E-13
   95.2500000        -9.75630099E-14
   95.4000015        -6.15981943E-14
   95.5500031        -1.57827293E-14
   95.6999969         3.55630645E-14
   95.8499985         8.72657795E-14
   96.0000000         1.33826964E-13
   96.1500015         1.70015247E-13
   96.3000031         1.91459126E-13
   96.4499969         1.95174199E-13
   96.5999985         1.79962138E-13
   96.7500000         1.46630416E-13
   96.9000015         9.79991573E-14
   97.0500031         3.86842014E-14
   97.1999969        -2.53304745E-14
   97.3499985        -8.72931013E-14
   97.5000000        -1.40398232E-13
   97.6500015        -1.78540125E-13
   97.8000031        -1.97022981E-13
   97.9499969        -1.93146551E-13
   98.0999985        -1.66595890E-13
   98.2500000        -1.19582621E-13
   98.4000015        -5.67108447E-14
   98.5500031         1.54302162E-14
   98.6999969         8.89130891E-14
   98.8499985         1.55297230E-13
   99.0000000         2.06548008E-13
   99.1500015         2.35951260E-13
   99.3000031         2.38920591E-13
   99.4499969         2.13603183E-13
   99.5999985         1.61207311E-13
   99.7500000         8.60031379E-14
   99.9000015        -5.01742211E-15
   100.050003        -1.02798222E-13
   100.199997        -1.97134179E-13
   100.349998        -2.77753135E-13
   100.500000        -3.35450634E-13
   100.650002        -3.63153735E-13
   100.800003        -3.56791934E-13
   100.949997        -3.15871298E-13
   101.099998        -2.43674438E-13
   101.250000        -1.47050259E-13
   101.400002        -3.57994613E-14
   101.550003         7.82920549E-14
   101.699997         1.82678295E-13
   101.849998         2.65411309E-13
   102.000000         3.16487017E-13
   102.150002         3.29029095E-13
   102.300003         3.00173731E-13
   102.449997         2.31546417E-13
   102.599998         1.29262473E-13
   102.750000         3.43426883E-15
   102.900002        -1.32778147E-13
   103.050003        -2.64484615E-13
   103.199997        -3.76617737E-13
   103.349998        -4.55557629E-13
   103.500000        -4.90652170E-13
   103.650002        -4.75460871E-13
   103.800003        -4.08577062E-13
   103.949997        -2.93923848E-13
   104.099998        -1.40475468E-13
   104.250000         3.85820153E-14
   104.400002         2.27174060E-13
   104.550003         4.08011515E-13
   104.699997         5.64438470E-13
   104.849998         6.82252215E-13
   105.000000         7.51291336E-13
   105.150002         7.66605583E-13
   105.300003         7.29065950E-13
   105.449997         6.45328626E-13
   105.599998         5.27138663E-13
   105.750000         3.90034169E-13
   105.900002         2.51578760E-13
   106.050003         1.29311275E-13
   106.199997         3.86371097E-14
   106.349998        -9.09875931E-15
   106.500000        -8.13074719E-15
   106.650002         4.08052938E-14
   106.800003         1.30273098E-13
   106.949997         2.46709418E-13
   107.099998         3.71733216E-13
   107.250000         4.84067810E-13
   107.400002         5.61881867E-13
   107.550003         5.85297869E-13
   107.699997         5.38791342E-13
   107.849998         4.13205738E-13
   108.000000         2.07141013E-13
   108.150002        -7.24621575E-14
   108.300003        -4.10637507E-13
   108.449997        -7.85602269E-13
   108.599998        -1.17075707E-12
   108.750000        -1.53727725E-12
   108.900002        -1.85702603E-12
   109.050003        -2.10547096E-12
   109.199997        -2.26428143E-12
   109.349998        -2.32329911E-12
   109.500000        -2.28164861E-12
   109.650002        -2.14783334E-12
   109.800003        -1.93877683E-12
   109.949997        -1.67789155E-12
   110.099998        -1.39236376E-12
   110.250000        -1.10994265E-12
   110.400002        -8.55589959E-13
   110.550003        -6.48368837E-13
   110.699997        -4.98942630E-13
   110.849998        -4.07993572E-13
   111.000000        -3.65779266E-13
   111.150002        -3.52923447E-13
   111.300003        -3.42399503E-13
   111.449997        -3.02527453E-13
   111.599998        -2.00684914E-13
   111.750000        -7.33827587E-15
   111.900002         3.00051054E-13
   112.050003         7.33692241E-13
   112.199997         1.29310451E-12
   112.349998         1.96403657E-12
   112.500000         2.71884273E-12
   112.650002         3.51833168E-12
   112.800003         4.31494944E-12
   112.949997         5.05699042E-12
   113.099998         5.69342403E-12
   113.250000         6.17881787E-12
   113.400002         6.47783823E-12
   113.550003         6.56880800E-12
   113.699997         6.44591411E-12
   113.849998         6.11978307E-12
   114.000000         5.61630733E-12
   114.150002         4.97381346E-12
   114.300003         4.23883541E-12
   114.449997         3.46092599E-12
   114.599998         2.68706238E-12
   114.750000         1.95625720E-12
   114.900002         1.29499417E-12
   115.050003         7.14025031E-13
   115.199997         2.06937969E-13
   115.349998        -2.49282745E-13
   115.500000        -6.91693447E-13
   115.650002        -1.16704259E-12
   115.800003        -1.72605582E-12
   115.949997        -2.41694447E-12
   116.099998        -3.27883098E-12
   116.250000        -4.33581903E-12
   116.400002        -5.59239330E-12
   116.550003        -7.03070978E-12
   116.699997        -8.61014472E-12
   116.849998        -1.02692473E-11
   117.000000        -1.19299692E-11
   117.150002        -1.35038100E-11
   117.300003        -1.48992797E-11
   117.449997        -1.60299309E-11
   117.599998        -1.68221288E-11
   117.750000        -1.72217327E-11
   117.900002        -1.71989558E-11
   118.050003        -1.67508524E-11
   118.199997        -1.59011172E-11
   118.349998        -1.46971810E-11
