  -30.00000        9.8404830E-18
  -29.85750        9.8404830E-18
  -29.71500        9.8404838E-18
  -29.57250        9.8404838E-18
  -29.43000        9.8404838E-18
  -29.28750        9.8404830E-18
  -29.14500        9.8404830E-18
  -29.00250        9.8404847E-18
  -28.86000        9.8404863E-18
  -28.71750        9.8404896E-18
  -28.57500        9.8404929E-18
  -28.43250        9.8404954E-18
  -28.29000        9.8404954E-18
  -28.14750        9.8404954E-18
  -28.00500        9.8404946E-18
  -27.86250        9.8404954E-18
  -27.72000        9.8404996E-18
  -27.57750        9.8405045E-18
  -27.43500        9.8405111E-18
  -27.29250        9.8405161E-18
  -27.15000        9.8405186E-18
  -27.00750        9.8405194E-18
  -26.86500        9.8405202E-18
  -26.72250        9.8405252E-18
  -26.58000        9.8405327E-18
  -26.43750        9.8405426E-18
  -26.29500        9.8405517E-18
  -26.15250        9.8405591E-18
  -26.01000        9.8405624E-18
  -25.86750        9.8405641E-18
  -25.72500        9.8405666E-18
  -25.58250        9.8405707E-18
  -25.44000        9.8405773E-18
  -25.29750        9.8405872E-18
  -25.15500        9.8405980E-18
  -25.01250        9.8406079E-18
  -24.87000        9.8406145E-18
  -24.72750        9.8406195E-18
  -24.58500        9.8406245E-18
  -24.44250        9.8406311E-18
  -24.30000        9.8406418E-18
  -24.15750        9.8406551E-18
  -24.01500        9.8406700E-18
  -23.87250        9.8406807E-18
  -23.73000        9.8406873E-18
  -23.58750        9.8406906E-18
  -23.44500        9.8406940E-18
  -23.30250        9.8406997E-18
  -23.16000        9.8407113E-18
  -23.01750        9.8407270E-18
  -22.87500        9.8407428E-18
  -22.73250        9.8407560E-18
  -22.59000        9.8407667E-18
  -22.44750        9.8407725E-18
  -22.30500        9.8407775E-18
  -22.16250        9.8407849E-18
  -22.02000        9.8407957E-18
  -21.87750        9.8408098E-18
  -21.73500        9.8408238E-18
  -21.59250        9.8408346E-18
  -21.45000        9.8408404E-18
  -21.30750        9.8408437E-18
  -21.16500        9.8408478E-18
  -21.02250        9.8408561E-18
  -20.88000        9.8408693E-18
  -20.73750        9.8408867E-18
  -20.59500        9.8409041E-18
  -20.45250        9.8409189E-18
  -20.31000        9.8409289E-18
  -20.16750        9.8409355E-18
  -20.02500        9.8409405E-18
  -19.88250        9.8409479E-18
  -19.74000        9.8409586E-18
  -19.59750        9.8409711E-18
  -19.45500        9.8409843E-18
  -19.31250        9.8409950E-18
  -19.17000        9.8410008E-18
  -19.02750        9.8410066E-18
  -18.88500        9.8410149E-18
  -18.74250        9.8410273E-18
  -18.60000        9.8410438E-18
  -18.45750        9.8410629E-18
  -18.31500        9.8410802E-18
  -18.17250        9.8410935E-18
  -18.03000        9.8411034E-18
  -17.88750        9.8411100E-18
  -17.74500        9.8411166E-18
  -17.60250        9.8411266E-18
  -17.46000        9.8411390E-18
  -17.31750        9.8411530E-18
  -17.17500        9.8411654E-18
  -17.03250        9.8411737E-18
  -16.89000        9.8411803E-18
  -16.74750        9.8411878E-18
  -16.60500        9.8411985E-18
  -16.46250        9.8412142E-18
  -16.32000        9.8412333E-18
  -16.17750        9.8412531E-18
  -16.03500        9.8412697E-18
  -15.89250        9.8412829E-18
  -15.75000        9.8412928E-18
  -15.60750        9.8413036E-18
  -15.46500        9.8413160E-18
  -15.32250        9.8413334E-18
  -15.18000        9.8413524E-18
  -15.03750        9.8413722E-18
  -14.89500        9.8413880E-18
  -14.75250        9.8413995E-18
  -14.61000        9.8414095E-18
  -14.46750        9.8414202E-18
  -14.32500        9.8414351E-18
  -14.18250        9.8414541E-18
  -14.04000        9.8414756E-18
  -13.89750        9.8414971E-18
  -13.75500        9.8415137E-18
  -13.61250        9.8415261E-18
  -13.47000        9.8415360E-18
  -13.32750        9.8415468E-18
  -13.18500        9.8415608E-18
  -13.04250        9.8415807E-18
  -12.90000        9.8416038E-18
  -12.75750        9.8416262E-18
  -12.61500        9.8416460E-18
  -12.47250        9.8416618E-18
  -12.33000        9.8416758E-18
  -12.18750        9.8416907E-18
  -12.04500        9.8417089E-18
  -11.90250        9.8417321E-18
  -11.76000        9.8417569E-18
  -11.61750        9.8417800E-18
  -11.47500        9.8417991E-18
  -11.33250        9.8418140E-18
  -11.19000        9.8418264E-18
  -11.04750        9.8418396E-18
  -10.90500        9.8418561E-18
  -10.76250        9.8418776E-18
  -10.62000        9.8419000E-18
  -10.47750        9.8419207E-18
  -10.33500        9.8419380E-18
  -10.19250        9.8419513E-18
  -10.05000        9.8419637E-18
  -9.907500        9.8419777E-18
  -9.765000        9.8419951E-18
  -9.622500        9.8420158E-18
  -9.480000        9.8420381E-18
  -9.337500        9.8420571E-18
  -9.195000        9.8420720E-18
  -9.052500        9.8420836E-18
  -8.910000        9.8420935E-18
  -8.767500        9.8421068E-18
  -8.625000        9.8421241E-18
  -8.482500        9.8421440E-18
  -8.340000        9.8421630E-18
  -8.197500        9.8421787E-18
  -8.055000        9.8421887E-18
  -7.912500        9.8421969E-18
  -7.770000        9.8422060E-18
  -7.627500        9.8422201E-18
  -7.485000        9.8422400E-18
  -7.342500        9.8422615E-18
  -7.200000        9.8422821E-18
  -7.057500        9.8422970E-18
  -6.915000        9.8423086E-18
  -6.772500        9.8423169E-18
  -6.630000        9.8423268E-18
  -6.487500        9.8423409E-18
  -6.345000        9.8423582E-18
  -6.202500        9.8423781E-18
  -6.060000        9.8423955E-18
  -5.917500        9.8424070E-18
  -5.775000        9.8424145E-18
  -5.632500        9.8424194E-18
  -5.490000        9.8424277E-18
  -5.347500        9.8424418E-18
  -5.205000        9.8424608E-18
  -5.062500        9.8424807E-18
  -4.920000        9.8424989E-18
  -4.777500        9.8425121E-18
  -4.635000        9.8425195E-18
  -4.492500        9.8425253E-18
  -4.350000        9.8425344E-18
  -4.207500        9.8425485E-18
  -4.065000        9.8425683E-18
  -3.922500        9.8425890E-18
  -3.780000        9.8426072E-18
  -3.637500        9.8426205E-18
  -3.495000        9.8426287E-18
  -3.352500        9.8426370E-18
  -3.210000        9.8426469E-18
  -3.067500        9.8426618E-18
  -2.925000        9.8426808E-18
  -2.782500        9.8426999E-18
  -2.640000        9.8427172E-18
  -2.497500        9.8427288E-18
  -2.355000        9.8427371E-18
  -2.212500        9.8427445E-18
  -2.070000        9.8427553E-18
  -1.927500        9.8427718E-18
  -1.785000        9.8427925E-18
  -1.642500        9.8428132E-18
  -1.500000        9.8428314E-18
  -1.357500        9.8428454E-18
  -1.215000        9.8428562E-18
  -1.072500        9.8428678E-18
 -0.9300000        9.8428827E-18
 -0.7875000        9.8429034E-18
 -0.6450000        9.8429249E-18
 -0.5025000        9.8429455E-18
 -0.3600000        9.8429613E-18
 -0.2175000        9.8429712E-18
 -7.5000003E-02    9.8429786E-18
  6.7500003E-02    9.8429877E-18
  0.2100000        9.8430001E-18
  0.3525000        9.8430167E-18
  0.4950000        9.8430349E-18
  0.6375000        9.8430506E-18
  0.7800000        9.8430622E-18
  0.9225000        9.8430688E-18
   1.065000        9.8430737E-18
   1.207500        9.8430812E-18
   1.350000        9.8430928E-18
   1.492500        9.8431077E-18
   1.635000        9.8431234E-18
   1.777500        9.8431366E-18
   1.920000        9.8431457E-18
   2.062500        9.8431515E-18
   2.205000        9.8431573E-18
   2.347500        9.8431672E-18
   2.490000        9.8431838E-18
   2.632500        9.8432053E-18
   2.775000        9.8432276E-18
   2.917500        9.8432466E-18
   3.060000        9.8432599E-18
   3.202500        9.8432690E-18
   3.345000        9.8432772E-18
   3.487500        9.8432880E-18
   3.630000        9.8433029E-18
   3.772500        9.8433202E-18
   3.915000        9.8433376E-18
   4.057500        9.8433509E-18
   4.200000        9.8433591E-18
   4.342500        9.8433649E-18
   4.485000        9.8433732E-18
   4.627500        9.8433856E-18
   4.770000        9.8434038E-18
   4.912500        9.8434261E-18
   5.055000        9.8434476E-18
   5.197500        9.8434634E-18
   5.340000        9.8434725E-18
   5.482500        9.8434782E-18
   5.625000        9.8434840E-18
   5.767500        9.8434964E-18
   5.910000        9.8435130E-18
   6.052500        9.8435337E-18
   6.195000        9.8435543E-18
   6.337500        9.8435701E-18
   6.480000        9.8435841E-18
   6.622500        9.8435957E-18
   6.765000        9.8436114E-18
   6.907500        9.8436321E-18
   7.050000        9.8436577E-18
   7.192500        9.8436842E-18
   7.335000        9.8437074E-18
   7.477500        9.8437256E-18
   7.620000        9.8437380E-18
   7.762500        9.8437487E-18
   7.905000        9.8437603E-18
   8.047500        9.8437752E-18
   8.190000        9.8437942E-18
   8.332500        9.8438132E-18
   8.475000        9.8438323E-18
   8.617500        9.8438480E-18
   8.760000        9.8438621E-18
   8.902500        9.8438736E-18
   9.045000        9.8438869E-18
   9.187500        9.8439034E-18
   9.330000        9.8439216E-18
   9.472500        9.8439415E-18
   9.615000        9.8439588E-18
   9.757500        9.8439729E-18
   9.900000        9.8439836E-18
   10.04250        9.8439936E-18
   10.18500        9.8440043E-18
   10.32750        9.8440192E-18
   10.47000        9.8440366E-18
   10.61250        9.8440531E-18
   10.75500        9.8440680E-18
   10.89750        9.8440788E-18
   11.04000        9.8440887E-18
   11.18250        9.8440986E-18
   11.32500        9.8441102E-18
   11.46750        9.8441251E-18
   11.61000        9.8441408E-18
   11.75250        9.8441540E-18
   11.89500        9.8441648E-18
   12.03750        9.8441747E-18
   12.18000        9.8441847E-18
   12.32250        9.8441979E-18
   12.46500        9.8442144E-18
   12.60750        9.8442335E-18
   12.75000        9.8442517E-18
   12.89250        9.8442699E-18
   13.03500        9.8442856E-18
   13.17750        9.8442988E-18
   13.32000        9.8443104E-18
   13.46250        9.8443211E-18
   13.60500        9.8443344E-18
   13.74750        9.8443484E-18
   13.89000        9.8443625E-18
   14.03250        9.8443733E-18
   14.17500        9.8443815E-18
   14.31750        9.8443865E-18
   14.46000        9.8443914E-18
   14.60250        9.8443989E-18
   14.74500        9.8444096E-18
   14.88750        9.8444245E-18
   15.03000        9.8444403E-18
   15.17250        9.8444543E-18
   15.31500        9.8444667E-18
   15.45750        9.8444775E-18
   15.60000        9.8444882E-18
   15.74250        9.8445006E-18
   15.88500        9.8445164E-18
   16.02750        9.8445321E-18
   16.17000        9.8445478E-18
   16.31250        9.8445627E-18
   16.45500        9.8445767E-18
   16.59750        9.8445900E-18
   16.74000        9.8446024E-18
   16.88250        9.8446173E-18
   17.02500        9.8446330E-18
   17.16750        9.8446512E-18
   17.31000        9.8446686E-18
   17.45250        9.8446843E-18
   17.59500        9.8446983E-18
   17.73750        9.8447107E-18
   17.88000        9.8447223E-18
   18.02250        9.8447347E-18
   18.16500        9.8447471E-18
   18.30750        9.8447620E-18
   18.45000        9.8447777E-18
   18.59250        9.8447943E-18
   18.73500        9.8448117E-18
   18.87750        9.8448282E-18
   19.02000        9.8448464E-18
   19.16250        9.8448654E-18
   19.30500        9.8448861E-18
   19.44750        9.8449084E-18
   19.59000        9.8449316E-18
   19.73250        9.8449556E-18
   19.87500        9.8449804E-18
   20.01750        9.8450060E-18
   20.16000        9.8450325E-18
   20.30250        9.8450598E-18
   20.44500        9.8450871E-18
   20.58750        9.8451127E-18
   20.73000        9.8451400E-18
   20.87250        9.8451665E-18
   21.01500        9.8451938E-18
   21.15750        9.8452219E-18
   21.30000        9.8452509E-18
   21.44250        9.8452807E-18
   21.58500        9.8453096E-18
   21.72750        9.8453386E-18
   21.87000        9.8453667E-18
   22.01250        9.8453948E-18
   22.15500        9.8454238E-18
   22.29750        9.8454552E-18
   22.44000        9.8454883E-18
   22.58250        9.8455214E-18
   22.72500        9.8455528E-18
   22.86750        9.8455826E-18
   23.01000        9.8456124E-18
   23.15250        9.8456421E-18
   23.29500        9.8456736E-18
   23.43750        9.8457075E-18
   23.58000        9.8457422E-18
   23.72250        9.8457770E-18
   23.86500        9.8458101E-18
   24.00750        9.8458415E-18
   24.15000        9.8458713E-18
   24.29250        9.8458994E-18
   24.43500        9.8459275E-18
   24.57750        9.8459565E-18
   24.72000        9.8459846E-18
   24.86250        9.8460119E-18
   25.00500        9.8460375E-18
   25.14750        9.8460599E-18
   25.29000        9.8460797E-18
   25.43250        9.8460987E-18
   25.57500        9.8461169E-18
   25.71750        9.8461360E-18
   25.86000        9.8461575E-18
   26.00250        9.8461806E-18
   26.14500        9.8462038E-18
   26.28750        9.8462261E-18
   26.43000        9.8462485E-18
   26.57250        9.8462700E-18
   26.71500        9.8462923E-18
   26.85750        9.8463171E-18
   27.00000        9.8463436E-18
   27.14250        9.8463709E-18
   27.28500        9.8463998E-18
   27.42750        9.8464280E-18
   27.57000        9.8464561E-18
   27.71250        9.8464850E-18
   27.85500        9.8465148E-18
   27.99750        9.8465446E-18
   28.14000        9.8465744E-18
   28.28250        9.8466042E-18
   28.42500        9.8466331E-18
   28.56750        9.8466604E-18
   28.71000        9.8466877E-18
   28.85250        9.8467142E-18
   28.99500        9.8467406E-18
   29.13750        9.8467671E-18
   29.28000        9.8467928E-18
   29.42250        9.8468184E-18
   29.56500        9.8468440E-18
   29.70750        9.8468713E-18
   29.85000        9.8469003E-18
   29.99250        9.8469317E-18
   30.13500        9.8469640E-18
   30.27750        9.8469946E-18
   30.42000        9.8470252E-18
   30.56250        9.8470508E-18
   30.70500        9.8470756E-18
   30.84750        9.8470988E-18
   30.99000        9.8471236E-18
   31.13250        9.8471493E-18
   31.27500        9.8471741E-18
   31.41750        9.8471972E-18
   31.56000        9.8472179E-18
   31.70250        9.8472361E-18
   31.84500        9.8472527E-18
   31.98750        9.8472717E-18
   32.13000        9.8472949E-18
   32.27250        9.8473230E-18
   32.41500        9.8473536E-18
   32.55750        9.8473842E-18
   32.70000        9.8474115E-18
   32.84250        9.8474363E-18
   32.98500        9.8474586E-18
   33.12750        9.8474834E-18
   33.27000        9.8475107E-18
   33.41250        9.8475422E-18
   33.55500        9.8475761E-18
   33.69750        9.8476084E-18
   33.84000        9.8476381E-18
   33.98250        9.8476654E-18
   34.12500        9.8476911E-18
   34.26750        9.8477184E-18
   34.41000        9.8477498E-18
   34.55250        9.8477837E-18
   34.69500        9.8478201E-18
   34.83750        9.8478565E-18
   34.98000        9.8478888E-18
   35.12250        9.8479152E-18
   35.26500        9.8479384E-18
   35.40750        9.8479591E-18
   35.55000        9.8479822E-18
   35.69250        9.8480087E-18
   35.83500        9.8480360E-18
   35.97750        9.8480633E-18
   36.12000        9.8480881E-18
   36.26250        9.8481105E-18
   36.40500        9.8481295E-18
   36.54750        9.8481485E-18
   36.69000        9.8481684E-18
   36.83250        9.8481899E-18
   36.97500        9.8482122E-18
   37.11750        9.8482345E-18
   37.26000        9.8482552E-18
   37.40250        9.8482742E-18
   37.54500        9.8482924E-18
   37.68750        9.8483131E-18
   37.83000        9.8483379E-18
   37.97250        9.8483669E-18
   38.11500        9.8484008E-18
   38.25750        9.8484364E-18
   38.40000        9.8484728E-18
   38.54250        9.8485075E-18
   38.68500        9.8485398E-18
   38.82750        9.8485720E-18
   38.97000        9.8486018E-18
   39.11250        9.8486307E-18
   39.25500        9.8486564E-18
   39.39750        9.8486796E-18
   39.54000        9.8486986E-18
   39.68250        9.8487159E-18
   39.82500        9.8487325E-18
   39.96750        9.8487515E-18
   40.11000        9.8487722E-18
   40.25250        9.8487954E-18
   40.39500        9.8488193E-18
   40.53750        9.8488425E-18
   40.68000        9.8488657E-18
   40.82250        9.8488888E-18
   40.96500        9.8489136E-18
   41.10750        9.8489409E-18
   41.25000        9.8489691E-18
   41.39250        9.8489980E-18
   41.53500        9.8490253E-18
   41.67750        9.8490518E-18
   41.82000        9.8490766E-18
   41.96250        9.8491031E-18
   42.10500        9.8491337E-18
   42.24750        9.8491676E-18
   42.39000        9.8492056E-18
   42.53250        9.8492445E-18
   42.67500        9.8492817E-18
   42.81750        9.8493157E-18
   42.96000        9.8493463E-18
   43.10250        9.8493760E-18
   43.24500        9.8494091E-18
   43.38750        9.8494455E-18
   43.53000        9.8494844E-18
   43.67250        9.8495233E-18
   43.81500        9.8495580E-18
   43.95750        9.8495886E-18
   44.10000        9.8496143E-18
   44.24250        9.8496399E-18
   44.38500        9.8496680E-18
   44.52750        9.8497011E-18
   44.67000        9.8497375E-18
   44.81250        9.8497739E-18
   44.95500        9.8498053E-18
   45.09750        9.8498302E-18
   45.24000        9.8498500E-18
   45.38250        9.8498682E-18
   45.52500        9.8498889E-18
   45.66750        9.8499137E-18
   45.81000        9.8499427E-18
   45.95250        9.8499716E-18
   46.09500        9.8499948E-18
   46.23750        9.8500121E-18
   46.38000        9.8500254E-18
   46.52250        9.8500386E-18
   46.66500        9.8500568E-18
   46.80750        9.8500816E-18
   46.95000        9.8501097E-18
   47.09250        9.8501370E-18
   47.23500        9.8501610E-18
   47.37750        9.8501801E-18
   47.52000        9.8501966E-18
   47.66250        9.8502140E-18
   47.80500        9.8502355E-18
   47.94750        9.8502628E-18
   48.09000        9.8502934E-18
   48.23250        9.8503232E-18
   48.37500        9.8503488E-18
   48.51750        9.8503720E-18
   48.66000        9.8503935E-18
   48.80250        9.8504166E-18
   48.94500        9.8504439E-18
   49.08750        9.8504745E-18
   49.23000        9.8505051E-18
   49.37250        9.8505316E-18
   49.51500        9.8505531E-18
   49.65750        9.8505697E-18
   49.80000        9.8505829E-18
   49.94250        9.8505970E-18
   50.08500        9.8506127E-18
   50.22750        9.8506284E-18
   50.37000        9.8506425E-18
   50.51250        9.8506507E-18
   50.65500        9.8506565E-18
   50.79750        9.8506598E-18
   50.94000        9.8506648E-18
   51.08250        9.8506764E-18
   51.22500        9.8506937E-18
   51.36750        9.8507144E-18
   51.51000        9.8507351E-18
   51.65250        9.8507533E-18
   51.79500        9.8507674E-18
   51.93750        9.8507814E-18
   52.08000        9.8507988E-18
   52.22250        9.8508211E-18
   52.36500        9.8508476E-18
   52.50750        9.8508741E-18
   52.65000        9.8508956E-18
   52.79250        9.8509113E-18
   52.93500        9.8509229E-18
   53.07750        9.8509336E-18
   53.22000        9.8509502E-18
   53.36250        9.8509733E-18
   53.50500        9.8510031E-18
   53.64750        9.8510329E-18
   53.79000        9.8510585E-18
   53.93250        9.8510767E-18
   54.07500        9.8510883E-18
   54.21750        9.8510982E-18
   54.36000        9.8511115E-18
   54.50250        9.8511297E-18
   54.64500        9.8511528E-18
   54.78750        9.8511752E-18
   54.93000        9.8511925E-18
   55.07250        9.8512025E-18
   55.21500        9.8512049E-18
   55.35750        9.8512066E-18
   55.50000        9.8512116E-18
   55.64250        9.8512240E-18
   55.78500        9.8512422E-18
   55.92750        9.8512604E-18
   56.07000        9.8512711E-18
   56.21250        9.8512728E-18
   56.35500        9.8512661E-18
   56.49750        9.8512587E-18
   56.64000        9.8512562E-18
   56.78250        9.8512628E-18
   56.92500        9.8512777E-18
   57.06750        9.8512934E-18
   57.21000        9.8513059E-18
   57.35250        9.8513108E-18
   57.49500        9.8513092E-18
   57.63750        9.8513083E-18
   57.78000        9.8513141E-18
   57.92250        9.8513290E-18
   58.06500        9.8513513E-18
   58.20750        9.8513745E-18
   58.35000        9.8513935E-18
   58.49250        9.8514059E-18
   58.63500        9.8514126E-18
   58.77750        9.8514208E-18
   58.92000        9.8514357E-18
   59.06250        9.8514581E-18
   59.20500        9.8514862E-18
   59.34750        9.8515151E-18
   59.49000        9.8515366E-18
   59.63250        9.8515490E-18
   59.77500        9.8515524E-18
   59.91750        9.8515557E-18
   60.06000        9.8515606E-18
   60.20250        9.8515697E-18
   60.34500        9.8515813E-18
   60.48750        9.8515887E-18
   60.63000        9.8515879E-18
   60.77250        9.8515796E-18
   60.91500        9.8515664E-18
   61.05750        9.8515557E-18
   61.20000        9.8515507E-18
   61.34250        9.8515540E-18
   61.48500        9.8515614E-18
   61.62750        9.8515672E-18
   61.77000        9.8515681E-18
   61.91250        9.8515656E-18
   62.05500        9.8515631E-18
   62.19750        9.8515648E-18
   62.34000        9.8515730E-18
   62.48250        9.8515871E-18
   62.62500        9.8516012E-18
   62.76750        9.8516111E-18
   62.91000        9.8516152E-18
   63.05250        9.8516152E-18
   63.19500        9.8516169E-18
   63.33750        9.8516260E-18
   63.48000        9.8516433E-18
   63.62250        9.8516665E-18
   63.76500        9.8516905E-18
   63.90750        9.8517103E-18
   64.05000        9.8517244E-18
   64.19250        9.8517352E-18
   64.33500        9.8517492E-18
   64.47750        9.8517724E-18
   64.62000        9.8518038E-18
   64.76250        9.8518394E-18
   64.90500        9.8518733E-18
   65.04750        9.8518998E-18
   65.19000        9.8519171E-18
   65.33250        9.8519320E-18
   65.47500        9.8519486E-18
   65.61750        9.8519717E-18
   65.76000        9.8520015E-18
   65.90250        9.8520321E-18
   66.04500        9.8520553E-18
   66.18750        9.8520669E-18
   66.33000        9.8520669E-18
   66.47250        9.8520594E-18
   66.61500        9.8520544E-18
   66.75750        9.8520569E-18
   66.90000        9.8520669E-18
   67.04250        9.8520801E-18
   67.18500        9.8520900E-18
   67.32750        9.8520925E-18
   67.47000        9.8520875E-18
   67.61250        9.8520817E-18
   67.75500        9.8520834E-18
   67.89750        9.8520942E-18
   68.04000        9.8521132E-18
   68.18250        9.8521347E-18
   68.32500        9.8521521E-18
   68.46750        9.8521612E-18
   68.61000        9.8521612E-18
   68.75250        9.8521603E-18
   68.89500        9.8521645E-18
   69.03750        9.8521777E-18
   69.18000        9.8521984E-18
   69.32250        9.8522232E-18
   69.46500        9.8522430E-18
   69.60750        9.8522546E-18
   69.75000        9.8522579E-18
   69.89250        9.8522588E-18
   70.03500        9.8522646E-18
   70.17750        9.8522753E-18
   70.32000        9.8522919E-18
   70.46250        9.8523067E-18
   70.60500        9.8523134E-18
   70.74750        9.8523100E-18
   70.89000        9.8522985E-18
   71.03250        9.8522852E-18
   71.17500        9.8522770E-18
   71.31750        9.8522778E-18
   71.46000        9.8522844E-18
   71.60250        9.8522935E-18
   71.74500        9.8522976E-18
   71.88750        9.8522935E-18
   72.03000        9.8522869E-18
   72.17250        9.8522828E-18
   72.31500        9.8522852E-18
   72.45750        9.8522960E-18
   72.60000        9.8523117E-18
   72.74250        9.8523241E-18
   72.88500        9.8523299E-18
   73.02750        9.8523274E-18
   73.17000        9.8523225E-18
   73.31250        9.8523208E-18
   73.45500        9.8523258E-18
   73.59750        9.8523373E-18
   73.74000        9.8523514E-18
   73.88250        9.8523638E-18
   74.02500        9.8523704E-18
   74.16750        9.8523729E-18
   74.31000        9.8523746E-18
   74.45250        9.8523820E-18
   74.59500        9.8523969E-18
   74.73750        9.8524168E-18
   74.88000        9.8524374E-18
   75.02250        9.8524515E-18
   75.16500        9.8524581E-18
   75.30750        9.8524581E-18
   75.45000        9.8524565E-18
   75.59250        9.8524598E-18
   75.73500        9.8524697E-18
   75.87750        9.8524838E-18
   76.02000        9.8524978E-18
   76.16250        9.8525053E-18
   76.30500        9.8525044E-18
   76.44750        9.8525003E-18
   76.59000        9.8524978E-18
   76.73250        9.8525028E-18
   76.87500        9.8525152E-18
   77.01750        9.8525334E-18
   77.16000        9.8525499E-18
   77.30250        9.8525607E-18
   77.44500        9.8525648E-18
   77.58750        9.8525665E-18
   77.73000        9.8525690E-18
   77.87250        9.8525789E-18
   78.01500        9.8525971E-18
   78.15750        9.8526194E-18
   78.30000        9.8526384E-18
   78.44250        9.8526500E-18
   78.58500        9.8526533E-18
   78.72750        9.8526517E-18
   78.87000        9.8526508E-18
   79.01250        9.8526566E-18
   79.15500        9.8526690E-18
   79.29750        9.8526831E-18
   79.44000        9.8526939E-18
   79.58250        9.8526963E-18
   79.72500        9.8526897E-18
   79.86750        9.8526798E-18
   80.01000        9.8526724E-18
   80.15250        9.8526724E-18
   80.29500        9.8526806E-18
   80.43750        9.8526939E-18
   80.58000        9.8527038E-18
   80.72250        9.8527071E-18
   80.86500        9.8527021E-18
   81.00750        9.8526922E-18
   81.15000        9.8526856E-18
   81.29250        9.8526848E-18
   81.43500        9.8526914E-18
   81.57750        9.8527005E-18
   81.72000        9.8527079E-18
   81.86250        9.8527071E-18
   82.00500        9.8526997E-18
   82.14750        9.8526889E-18
   82.29000        9.8526831E-18
   82.43250        9.8526864E-18
   82.57500        9.8526988E-18
   82.71750        9.8527137E-18
   82.86000        9.8527253E-18
   83.00250        9.8527286E-18
   83.14500        9.8527236E-18
   83.28750        9.8527154E-18
   83.43000        9.8527096E-18
   83.57250        9.8527096E-18
   83.71500        9.8527137E-18
   83.85750        9.8527170E-18
   84.00000        9.8527137E-18
   84.14250        9.8527021E-18
   84.28500        9.8526839E-18
   84.42750        9.8526633E-18
   84.57000        9.8526475E-18
   84.71250        9.8526401E-18
   84.85500        9.8526376E-18
   84.99750        9.8526351E-18
   85.14000        9.8526285E-18
   85.28250        9.8526136E-18
   85.42500        9.8525929E-18
   85.56750        9.8525731E-18
   85.71000        9.8525582E-18
   85.85250        9.8525508E-18
   85.99500        9.8525491E-18
   86.13750        9.8525474E-18
   86.28000        9.8525408E-18
   86.42250        9.8525259E-18
   86.56500        9.8525069E-18
   86.70750        9.8524904E-18
   86.85000        9.8524804E-18
   86.99250        9.8524780E-18
   87.13500        9.8524813E-18
   87.27750        9.8524813E-18
   87.42000        9.8524755E-18
   87.56250        9.8524614E-18
   87.70500        9.8524441E-18
   87.84750        9.8524292E-18
   87.99000        9.8524225E-18
   88.13250        9.8524234E-18
   88.27500        9.8524300E-18
   88.41750        9.8524374E-18
   88.56000        9.8524391E-18
   88.70250        9.8524374E-18
   88.84500        9.8524341E-18
   88.98750        9.8524358E-18
   89.13000        9.8524432E-18
   89.27250        9.8524573E-18
   89.41500        9.8524722E-18
   89.55750        9.8524838E-18
   89.70000        9.8524879E-18
   89.84250        9.8524871E-18
   89.98500        9.8524854E-18
   90.12750        9.8524887E-18
   90.27000        9.8524978E-18
   90.41250        9.8525119E-18
   90.55500        9.8525268E-18
   90.69750        9.8525359E-18
   90.84000        9.8525383E-18
   90.98250        9.8525342E-18
   91.12500        9.8525293E-18
   91.26750        9.8525259E-18
   91.41000        9.8525268E-18
   91.55250        9.8525301E-18
   91.69500        9.8525317E-18
   91.83750        9.8525293E-18
   91.98000        9.8525210E-18
   92.12250        9.8525094E-18
   92.26500        9.8524986E-18
   92.40750        9.8524953E-18
   92.55000        9.8524995E-18
   92.69250        9.8525077E-18
   92.83500        9.8525144E-18
   92.97750        9.8525135E-18
   93.12000        9.8525053E-18
   93.26250        9.8524920E-18
   93.40500        9.8524796E-18
   93.54750        9.8524730E-18
   93.69000        9.8524730E-18
   93.83250        9.8524755E-18
   93.97500        9.8524763E-18
   94.11750        9.8524705E-18
   94.26000        9.8524573E-18
   94.40250        9.8524407E-18
   94.54500        9.8524250E-18
   94.68750        9.8524151E-18
   94.83000        9.8524085E-18
   94.97250        9.8524019E-18
   95.11500        9.8523895E-18
   95.25750        9.8523671E-18
   95.40000        9.8523365E-18
   95.54250        9.8523026E-18
   95.68500        9.8522728E-18
   95.82750        9.8522505E-18
   95.97000        9.8522356E-18
   96.11250        9.8522232E-18
   96.25500        9.8522083E-18
   96.39750        9.8521851E-18
   96.54000        9.8521554E-18
   96.68250        9.8521223E-18
   96.82500        9.8520933E-18
   96.96750        9.8520718E-18
   97.11000        9.8520561E-18
   97.25250        9.8520437E-18
   97.39500        9.8520263E-18
   97.53750        9.8520023E-18
   97.68000        9.8519717E-18
   97.82250        9.8519411E-18
   97.96500        9.8519138E-18
   98.10750        9.8518940E-18
   98.25000        9.8518783E-18
   98.39250        9.8518634E-18
   98.53500        9.8518427E-18
   98.67750        9.8518146E-18
   98.82000        9.8517798E-18
   98.96250        9.8517451E-18
   99.10500        9.8517153E-18
   99.24750        9.8516946E-18
   99.39000        9.8516814E-18