  -30.000000        9.84048302E-18
  -29.857500        9.85754445E-18
  -29.715000        9.88336985E-18
  -29.572500        9.90642586E-18
  -29.430000        9.91860857E-18
  -29.287500        9.91977738E-18
  -29.145000        9.91744887E-18
  -29.002501        9.92188917E-18
  -28.860001        9.93958836E-18
  -28.717501        9.96907900E-18
  -28.575001        1.00016062E-17
  -28.432501        1.00262678E-17
  -28.290001        1.00364992E-17
  -28.147499        1.00340069E-17
  -28.004999        1.00277741E-17
  -27.862499        1.00287253E-17
  -27.719999        1.00432639E-17
  -27.577499        1.00695417E-17
  -27.434999        1.00986891E-17
  -27.292500        1.01202256E-17
  -27.150000        1.01283832E-17
  -27.007500        1.01255228E-17
  -26.865000        1.01206243E-17
  -26.722500        1.01237808E-17
  -26.580000        1.01400597E-17
  -26.437500        1.01664368E-17
  -26.295000        1.01936552E-17
  -26.152500        1.02118532E-17
  -26.010000        1.02165565E-17
  -25.867500        1.02113858E-17
  -25.725000        1.02058644E-17
  -25.582500        1.02096463E-17
  -25.440001        1.02266804E-17
  -25.297501        1.02528301E-17
  -25.155001        1.02783941E-17
  -25.012501        1.02939831E-17
  -24.870001        1.02961917E-17
  -24.727501        1.02896346E-17
  -24.584999        1.02841198E-17
  -24.442499        1.02886859E-17
  -24.299999        1.03061253E-17
  -24.157499        1.03313320E-17
  -24.014999        1.03544459E-17
  -23.872499        1.03669032E-17
  -23.730000        1.03666964E-17
  -23.587500        1.03596356E-17
  -23.445000        1.03558372E-17
  -23.302500        1.03635581E-17
  -23.160000        1.03841127E-17
  -23.017500        1.04109820E-17
  -22.875000        1.04336700E-17
  -22.732500        1.04439923E-17
  -22.590000        1.04410054E-17
  -22.447500        1.04315805E-17
  -22.305000        1.04262642E-17
  -22.162500        1.04329180E-17
  -22.020000        1.04519738E-17
  -21.877501        1.04761903E-17
  -21.735001        1.04950501E-17
  -21.592501        1.05011596E-17
  -21.450001        1.04947597E-17
  -21.307501        1.04836159E-17
  -21.165001        1.04783187E-17
  -21.022499        1.04858353E-17
  -20.879999        1.05052029E-17
  -20.737499        1.05279967E-17
  -20.594999        1.05433136E-17
  -20.452499        1.05443145E-17
  -20.309999        1.05323782E-17
  -20.167500        1.05163715E-17
  -20.025000        1.05074487E-17
  -19.882500        1.05125003E-17
  -19.740000        1.05301647E-17
  -19.597500        1.05517938E-17
  -19.455000        1.05667749E-17
  -19.312500        1.05689934E-17
  -19.170000        1.05605355E-17
  -19.027500        1.05503951E-17
  -18.885000        1.05489599E-17
  -18.742500        1.05615976E-17
  -18.600000        1.05852268E-17
  -18.457500        1.06099380E-17
  -18.315001        1.06247305E-17
  -18.172501        1.06239364E-17
  -18.030001        1.06104930E-17
  -17.887501        1.05941223E-17
  -17.745001        1.05855362E-17
  -17.602501        1.05901361E-17
  -17.459999        1.06049923E-17
  -17.317499        1.06208750E-17
  -17.174999        1.06280789E-17
  -17.032499        1.06224880E-17
  -16.889999        1.06082175E-17
  -16.747499        1.05952307E-17
  -16.605000        1.05933853E-17
  -16.462500        1.06064870E-17
  -16.320000        1.06299616E-17
  -16.177500        1.06535213E-17
  -16.035000        1.06672343E-17
  -15.892500        1.06673369E-17
  -15.750000        1.06583016E-17
  -15.607500        1.06499620E-17
  -15.465000        1.06514525E-17
  -15.322500        1.06656403E-17
  -15.180000        1.06874159E-17
  -15.037500        1.07068414E-17
  -14.895000        1.07152257E-17
  -14.752500        1.07104355E-17
  -14.610000        1.06981990E-17
  -14.467500        1.06886418E-17
  -14.325000        1.06901481E-17
  -14.182500        1.07042804E-17
  -14.040000        1.07248425E-17
  -13.897500        1.07416508E-17
  -13.755000        1.07467189E-17
  -13.612500        1.07391205E-17
  -13.470000        1.07255605E-17
  -13.327500        1.07163349E-17
  -13.185000        1.07191076E-17
  -13.042500        1.07342963E-17
  -12.900000        1.07548510E-17
  -12.757500        1.07705732E-17
  -12.615000        1.07743327E-17
  -12.472500        1.07664166E-17
  -12.330000        1.07543546E-17
  -12.187500        1.07483319E-17
  -12.045000        1.07549502E-17
  -11.902500        1.07731490E-17
  -11.760000        1.07947781E-17
  -11.617500        1.08094854E-17
  -11.475000        1.08109983E-17
  -11.332500        1.08009712E-17
  -11.190000        1.07880672E-17
  -11.047500        1.07827981E-17
  -10.905000        1.07912188E-17
  -10.762500        1.08112804E-17
  -10.620000        1.08340568E-17
  -10.477500        1.08491098E-17
  -10.335000        1.08507667E-17
  -10.192500        1.08415196E-17
  -10.050000        1.08304867E-17
  -9.9075003        1.08278546E-17
  -9.7650003        1.08386592E-17
  -9.6225004        1.08596614E-17
  -9.4799995        1.08812384E-17
  -9.3374996        1.08931572E-17
  -9.1949997        1.08907749E-17
  -9.0524998        1.08779189E-17
  -8.9099998        1.08646914E-17
  -8.7674999        1.08614952E-17
  -8.6250000        1.08728557E-17
  -8.4825001        1.08947346E-17
  -8.3400002        1.09169461E-17
  -8.1975002        1.09292289E-17
  -8.0550003        1.09273256E-17
  -7.9124999        1.09154315E-17
  -7.7700000        1.09035491E-17
  -7.6275001        1.09013744E-17
  -7.4850001        1.09123941E-17
  -7.3425002        1.09317692E-17
  -7.1999998        1.09492698E-17
  -7.0574999        1.09554993E-17
  -6.9150000        1.09476543E-17
  -6.7725000        1.09313457E-17
  -6.6300001        1.09173870E-17
  -6.4875002        1.09154654E-17
  -6.3449998        1.09284820E-17
  -6.2024999        1.09509498E-17
  -6.0599999        1.09723738E-17
  -5.9175000        1.09835565E-17
  -5.7750001        1.09820295E-17
  -5.6325002        1.09733615E-17
  -5.4899998        1.09675828E-17
  -5.3474998        1.09729363E-17
  -5.2049999        1.09907480E-17
  -5.0625000        1.10145211E-17
  -4.9200001        1.10338002E-17
  -4.7775002        1.10404541E-17
  -4.6350002        1.10335852E-17
  -4.4924998        1.10200881E-17
  -4.3499999        1.10105374E-17
  -4.2075000        1.10128933E-17
  -4.0650001        1.10278057E-17
  -3.9224999        1.10483619E-17
  -3.7800000        1.10643753E-17
  -3.6375000        1.10686097E-17
  -3.4949999        1.10611584E-17
  -3.3525000        1.10493363E-17
  -3.2100000        1.10431714E-17
  -3.0675001        1.10492429E-17
  -2.9250000        1.10666360E-17
  -2.7825000        1.10874561E-17
  -2.6400001        1.11016100E-17
  -2.4974999        1.11029360E-17
  -2.3550000        1.10929676E-17
  -2.2125001        1.10800338E-17
  -2.0699999        1.10742279E-17
  -1.9275000        1.10813102E-17
  -1.7850000        1.10992153E-17
  -1.6425000        1.11193059E-17
  -1.5000000        1.11316135E-17
  -1.3575000        1.11308906E-17
  -1.2150000        1.11198014E-17
  -1.0725000        1.11073143E-17
 -0.93000001        1.11032669E-17
 -0.78750002        1.11123799E-17
 -0.64499998        1.11313778E-17
 -0.50250000        1.11509513E-17
 -0.36000001        1.11614127E-17
 -0.21750000        1.11586028E-17
 -7.50000030E-02    1.11464788E-17
  6.75000027E-02    1.11347816E-17
  0.20999999        1.11331785E-17
  0.35249999        1.11453993E-17
  0.49500000        1.11669209E-17
  0.63749999        1.11876136E-17
  0.77999997        1.11977838E-17
  0.92250001        1.11939805E-17
   1.0650001        1.11810624E-17
   1.2075000        1.11692792E-17
   1.3500000        1.11681096E-17
   1.4924999        1.11805669E-17
   1.6350000        1.12014027E-17
   1.7775000        1.12202997E-17
   1.9200000        1.12281339E-17
   2.0625000        1.12225281E-17
   2.2049999        1.12093478E-17
   2.3475001        1.11992223E-17
   2.4900000        1.12011562E-17
   2.6324999        1.12170927E-17
   2.7750001        1.12406723E-17
   2.9175000        1.12609622E-17
   3.0599999        1.12689139E-17
   3.2025001        1.12626853E-17
   3.3450000        1.12486455E-17
   3.4875000        1.12374778E-17
   3.6300001        1.12377358E-17
   3.7725000        1.12507350E-17
   3.9150000        1.12698395E-17
   4.0574999        1.12845576E-17
   4.1999998        1.12869671E-17
   4.3425002        1.12765811E-17
   4.4850001        1.12607257E-17
   4.6275001        1.12502163E-17
   4.7700000        1.12529113E-17
   4.9124999        1.12690521E-17
   5.0549998        1.12911560E-17
   5.1975002        1.13085251E-17
   5.3400002        1.13136338E-17
   5.4825001        1.13065630E-17
   5.6250000        1.12948220E-17
   5.7674999        1.12887067E-17
   5.9099998        1.12950222E-17
   6.0524998        1.13129654E-17
   6.1950002        1.13346400E-17
   6.3375001        1.13498775E-17
   6.4800000        1.13524145E-17
   6.6224999        1.13436952E-17
   6.7649999        1.13319831E-17
   6.9074998        1.13273551E-17
   7.0500002        1.13355971E-17
   7.1925001        1.13547108E-17
   7.3350000        1.13761356E-17
   7.4775000        1.13899288E-17
   7.6199999        1.13907642E-17
   7.7624998        1.13811135E-17
   7.9050002        1.13696926E-17
   8.0474997        1.13661292E-17
   8.1899996        1.13750917E-17
   8.3325005        1.13934542E-17
   8.4750004        1.14122064E-17
   8.6175003        1.14219456E-17
   8.7600002        1.14186113E-17
   8.9025002        1.14059728E-17
   9.0450001        1.13933517E-17
   9.1875000        1.13899577E-17
   9.3299999        1.13992792E-17
   9.4724998        1.14169313E-17
   9.6149998        1.14333020E-17
   9.7574997        1.14393901E-17
   9.8999996        1.14323102E-17
   10.042500        1.14171240E-17
   10.185000        1.14038693E-17
   10.327500        1.14015681E-17
   10.470000        1.14128309E-17
   10.612500        1.14323292E-17
   10.755000        1.14500516E-17
   10.897500        1.14573994E-17
   11.040000        1.14524231E-17
   11.182500        1.14410213E-17
   11.325000        1.14333616E-17
   11.467500        1.14376761E-17
   11.610000        1.14551760E-17
   11.752500        1.14791824E-17
   11.895000        1.14990199E-17
   12.037500        1.15063627E-17
   12.180000        1.15002093E-17
   12.322500        1.14874947E-17
   12.465000        1.14789434E-17
   12.607500        1.14826590E-17
   12.750000        1.14992837E-17
   12.892500        1.15216350E-17
   13.035000        1.15390479E-17
   13.177500        1.15437918E-17
   13.320000        1.15357086E-17
   13.462500        1.15222818E-17
   13.605000        1.15140886E-17
   13.747500        1.15183817E-17
   13.890000        1.15346713E-17
   14.032500        1.15549646E-17
   14.175000        1.15685402E-17
   14.317500        1.15683889E-17
   14.460000        1.15554526E-17
   14.602500        1.15381207E-17
   14.745000        1.15272921E-17
   14.887500        1.15299622E-17
   15.030000        1.15451774E-17
   15.172500        1.15647526E-17
   15.315000        1.15783093E-17
   15.457500        1.15795542E-17
   15.600000        1.15700374E-17
   15.742500        1.15581343E-17
   15.885000        1.15538867E-17
   16.027500        1.15628435E-17
   16.170000        1.15826180E-17
   16.312500        1.16042455E-17
   16.455000        1.16175019E-17
   16.597500        1.16169857E-17
   16.740000        1.16052935E-17
   16.882500        1.15914027E-17
   17.025000        1.15852468E-17
   17.167500        1.15917848E-17
   17.309999        1.16081175E-17
   17.452499        1.16253824E-17
   17.594999        1.16342407E-17
   17.737499        1.16306127E-17
   17.879999        1.16181926E-17
   18.022499        1.16062175E-17
   18.165001        1.16038749E-17
   18.307501        1.16147325E-17
   18.450001        1.16345857E-17
   18.592501        1.16539988E-17
   18.735001        1.16640192E-17
   18.877501        1.16615683E-17
   19.020000        1.16512567E-17
   19.162500        1.16425225E-17
   19.305000        1.16438435E-17
   19.447500        1.16575308E-17
   19.590000        1.16782806E-17
   19.732500        1.16963554E-17
   19.875000        1.17034716E-17
   20.017500        1.16978269E-17
   20.160000        1.16851984E-17
   20.302500        1.16754542E-17
   20.445000        1.16765833E-17
   20.587500        1.16898645E-17
   20.730000        1.17091097E-17
   20.872499        1.17244448E-17
   21.014999        1.17283507E-17
   21.157499        1.17202865E-17
   21.299999        1.17070839E-17
   21.442499        1.16988493E-17
   21.584999        1.17028429E-17
   21.727501        1.17190259E-17
   21.870001        1.17399966E-17
   22.012501        1.17553706E-17
   22.155001        1.17579828E-17
   22.297501        1.17481741E-17
   22.440001        1.17335785E-17
   22.582500        1.17245126E-17
   22.725000        1.17277626E-17
   22.867500        1.17424938E-17
   23.010000        1.17607745E-17
   23.152500        1.17724014E-17
   23.295000        1.17711135E-17
   23.437500        1.17584651E-17
   23.580000        1.17429852E-17
   23.722500        1.17351253E-17
   23.865000        1.17410157E-17
   24.007500        1.17587843E-17
   24.150000        1.17796591E-17
   24.292500        1.17931975E-17
   24.434999        1.17935102E-17
   24.577499        1.17827486E-17
   24.719999        1.17697701E-17
   24.862499        1.17647897E-17
   25.004999        1.17732311E-17
   25.147499        1.17924920E-17
   25.290001        1.18135313E-17
   25.432501        1.18263377E-17
   25.575001        1.18259688E-17
   25.717501        1.18155289E-17
   25.860001        1.18042975E-17
   26.002501        1.18021418E-17
   26.145000        1.18135743E-17
   26.287500        1.18350198E-17
   26.430000        1.18569326E-17
   26.572500        1.18694603E-17
   26.715000        1.18682634E-17
   26.857500        1.18569930E-17
   27.000000        1.18449625E-17
   27.142500        1.18414569E-17
   27.285000        1.18501208E-17
   27.427500        1.18668116E-17
   27.570000        1.18821840E-17
   27.712500        1.18874382E-17
   27.855000        1.18797181E-17
   27.997499        1.18639240E-17
   28.139999        1.18498280E-17
   28.282499        1.18462670E-17
   28.424999        1.18558995E-17
   28.567499        1.18737062E-17
   28.709999        1.18901017E-17
   28.852501        1.18967539E-17
   28.995001        1.18915956E-17
   29.137501        1.18799853E-17
   29.280001        1.18713487E-17
   29.422501        1.18733513E-17
   29.565001        1.18871586E-17
   29.707500        1.19066561E-17
   29.850000        1.19221021E-17
   29.992500        1.19259972E-17
   30.135000        1.19176014E-17
   30.277500        1.19033631E-17
   30.420000        1.18930035E-17
   30.562500        1.18936231E-17
   30.705000        1.19054162E-17
   30.847500        1.19215867E-17
   30.990000        1.19325245E-17
   31.132500        1.19316965E-17
   31.275000        1.19196826E-17
   31.417500        1.19038884E-17
   31.559999        1.18941078E-17
   31.702499        1.18966009E-17
   31.844999        1.19102858E-17
   31.987499        1.19273580E-17
   32.130001        1.19379748E-17
   32.272499        1.19361782E-17
   32.415001        1.19234777E-17
   32.557499        1.19079093E-17
   32.700001        1.18991362E-17
   32.842499        1.19025483E-17
   32.985001        1.19159404E-17
   33.127499        1.19307966E-17
   33.270000        1.19374264E-17
   33.412498        1.19308751E-17
   33.555000        1.19140329E-17
   33.697498        1.18960442E-17
   33.840000        1.18869659E-17
   33.982498        1.18918521E-17
   34.125000        1.19078299E-17
   34.267502        1.19259121E-17
   34.410000        1.19364660E-17
   34.552502        1.19350334E-17
   34.695000        1.19250005E-17
   34.837502        1.19155185E-17
   34.980000        1.19159048E-17
   35.122501        1.19299214E-17
   35.264999        1.19533678E-17
   35.407501        1.19764702E-17
   35.549999        1.19896314E-17
   35.692501        1.19891070E-17
   35.834999        1.19792007E-17
   35.977501        1.19696600E-17
   36.119999        1.19698386E-17
   36.262501        1.19831199E-17
   36.404999        1.20049318E-17
   36.547501        1.20255294E-17
   36.689999        1.20358477E-17
   36.832500        1.20329012E-17
   36.974998        1.20214886E-17
   37.117500        1.20111993E-17
   37.259998        1.20105434E-17
   37.402500        1.20217583E-17
   37.544998        1.20394178E-17
   37.687500        1.20536784E-17
   37.830002        1.20561947E-17
   37.972500        1.20451468E-17
   38.115002        1.20263549E-17
   38.257500        1.20098229E-17
   38.400002        1.20038134E-17
   38.542500        1.20100090E-17
   38.685001        1.20226707E-17
   38.827499        1.20322552E-17
   38.970001        1.20312841E-17
   39.112499        1.20189161E-17
   39.255001        1.20014551E-17
   39.397499        1.19885255E-17
   39.540001        1.19872359E-17
   39.682499        1.19978850E-17
   39.825001        1.20138025E-17
   39.967499        1.20254004E-17
   40.110001        1.20259852E-17
   40.252499        1.20157927E-17
   40.395000        1.20018125E-17
   40.537498        1.19935117E-17
   40.680000        1.19970628E-17
   40.822498        1.20115740E-17
   40.965000        1.20296099E-17
   41.107498        1.20416785E-17
   41.250000        1.20419754E-17
   41.392502        1.20318871E-17
   41.535000        1.20191502E-17
   41.677502        1.20131680E-17
   41.820000        1.20193305E-17
   41.962502        1.20357865E-17
   42.105000        1.20546214E-17
   42.247501        1.20667222E-17
   42.389999        1.20673773E-17
   42.532501        1.20591890E-17
   42.674999        1.20505218E-17
   42.817501        1.20503994E-17
   42.959999        1.20629362E-17
   43.102501        1.20846811E-17
   43.244999        1.21065145E-17
   43.387501        1.21189768E-17
   43.529999        1.21178295E-17
   43.672501        1.21065220E-17
   43.814999        1.20940522E-17
   43.957500        1.20895176E-17
   44.099998        1.20966529E-17
   44.242500        1.21116290E-17
   44.384998        1.21254702E-17
   44.527500        1.21296111E-17
   44.669998        1.21212367E-17
   44.812500        1.21051604E-17
   44.955002        1.20910769E-17
   45.097500        1.20878169E-17
   45.240002        1.20980475E-17
   45.382500        1.21166285E-17
   45.525002        1.21336097E-17
   45.667500        1.21401096E-17
   45.810001        1.21335567E-17
   45.952499        1.21191538E-17
   46.095001        1.21066990E-17
   46.237499        1.21046732E-17
   46.380001        1.21151561E-17
   46.522499        1.21326146E-17
   46.665001        1.21472813E-17
   46.807499        1.21510863E-17
   46.950001        1.21425614E-17
   47.092499        1.21277689E-17
   47.235001        1.21166822E-17
   47.377499        1.21172067E-17
   47.520000        1.21304258E-17
   47.662498        1.21499316E-17
   47.805000        1.21656397E-17
   47.947498        1.21697881E-17
   48.090000        1.21615320E-17
   48.232498        1.21473855E-17
   48.375000        1.21372666E-17
   48.517502        1.21385372E-17
   48.660000        1.21516306E-17
   48.802502        1.21698766E-17
   48.945000        1.21835970E-17
   49.087502        1.21859843E-17
   49.230000        1.21772062E-17
   49.372501        1.21642675E-17
   49.514999        1.21567318E-17
   49.657501        1.21609000E-17
   49.799999        1.21759721E-17
   49.942501        1.21945034E-17
   50.084999        1.22068681E-17
   50.227501        1.22070335E-17
   50.369999        1.21961561E-17
   50.512501        1.21818442E-17
   50.654999        1.21735426E-17
   50.797501        1.21768580E-17
   50.939999        1.21902335E-17
   51.082500        1.22059789E-17
   51.224998        1.22150166E-17
   51.367500        1.22124243E-17
   51.509998        1.22004359E-17
   51.652500        1.21870579E-17
   51.794998        1.21811742E-17
   51.937500        1.21870935E-17
   52.080002        1.22018835E-17
   52.222500        1.22171053E-17
   52.365002        1.22239088E-17
   52.507500        1.22184130E-17
   52.650002        1.22041003E-17
   52.792500        1.21897678E-17
   52.935001        1.21842703E-17
   53.077499        1.21912228E-17
   53.220001        1.22068755E-17
   53.362499        1.22224323E-17
   53.505001        1.22294195E-17
   53.647499        1.22248394E-17
   53.790001        1.22129834E-17
   53.932499        1.22027876E-17
   54.075001        1.22023451E-17
   54.217499        1.22138768E-17
   54.360001        1.22322609E-17
   54.502499        1.22480187E-17
   54.645000        1.22529884E-17
   54.787498        1.22452865E-17
   54.930000        1.22305304E-17
   55.072498        1.22185801E-17
   55.215000        1.22177223E-17
   55.357498        1.22297909E-17
   55.500000        1.22491453E-17
   55.642502        1.22661273E-17
   55.785000        1.22729019E-17
   55.927502        1.22681655E-17
   56.070000        1.22578803E-17
   56.212502        1.22515797E-17
   56.355000        1.22564791E-17
   56.497501        1.22729524E-17
   56.639999        1.22941141E-17
   56.782501        1.23098082E-17
   56.924999        1.23126066E-17
   57.067501        1.23022420E-17
   57.209999        1.22858059E-17
   57.352501        1.22735794E-17
   57.494999        1.22729888E-17
   57.637501        1.22842963E-17
   57.779999        1.23005868E-17
   57.922501        1.23120424E-17
   58.064999        1.23119175E-17
   58.207500        1.23006067E-17
   58.349998        1.22853849E-17
   58.492500        1.22759782E-17
   58.634998        1.22786516E-17
   58.777500        1.22923895E-17
   58.919998        1.23094649E-17
   59.062500        1.23200620E-17
   59.205002        1.23181760E-17
   59.347500        1.23052256E-17
   59.490002        1.22892321E-17
   59.632500        1.22800479E-17
   59.775002        1.22835080E-17
   59.917500        1.22980209E-17
   60.060001        1.23156026E-17
   60.202499        1.23267282E-17
   60.345001        1.23260375E-17
   60.487499        1.23154711E-17
   60.630001        1.23029691E-17
   60.772499        1.22975478E-17
   60.915001        1.23037665E-17
   61.057499        1.23189337E-17
   61.200001        1.23347543E-17
   61.342499        1.23423925E-17
   61.485001        1.23378902E-17
   61.627499        1.23246363E-17
   61.770000        1.23113939E-17
   61.912498        1.23070719E-17
   62.055000        1.23153942E-17
   62.197498        1.23326798E-17
   62.340000        1.23500746E-17
   62.482498        1.23588584E-17
   62.625000        1.23556291E-17
   62.767502        1.23442256E-17
   62.910000        1.23332555E-17
   63.052502        1.23307458E-17
   63.195000        1.23391814E-17
   63.337502        1.23539739E-17
   63.480000        1.23662765E-17
   63.622501        1.23684553E-17
   63.764999        1.23588724E-17
   63.907501        1.23430559E-17
   64.050003        1.23305175E-17
   64.192497        1.23291047E-17
   64.334999        1.23403006E-17
   64.477501        1.23583075E-17
   64.620003        1.23734953E-17
   64.762497        1.23781367E-17
   64.904999        1.23709791E-17
   65.047501        1.23579088E-17
   65.190002        1.23482986E-17
   65.332497        1.23492681E-17
   65.474998        1.23613308E-17
   65.617500        1.23780862E-17
   65.760002        1.23901457E-17
   65.902496        1.23909273E-17
   66.044998        1.23807993E-17
   66.187500        1.23670351E-17
   66.330002        1.23595549E-17
   66.472504        1.23650010E-17
   66.614998        1.23826903E-17
   66.757500        1.24049059E-17
   66.900002        1.24213659E-17
   67.042503        1.24252140E-17
   67.184998        1.24169571E-17
   67.327499        1.24039976E-17
   67.470001        1.23960517E-17
   67.612503        1.23992331E-17
   67.754997        1.24123613E-17
   67.897499        1.24277261E-17
   68.040001        1.24358308E-17
   68.182503        1.24312656E-17
   68.324997        1.24161299E-17
   68.467499        1.23989502E-17
   68.610001        1.23896891E-17
   68.752502        1.23938589E-17
   68.894997        1.24092436E-17
   69.037498        1.24272149E-17
   69.180000        1.24378492E-17
   69.322502        1.24357862E-17
   69.464996        1.24233264E-17
   69.607498        1.24089384E-17
   69.750000        1.24020992E-17
   69.892502        1.24075801E-17
   70.035004        1.24226274E-17
   70.177498        1.24386995E-17
   70.320000        1.24467017E-17
   70.462502        1.24425285E-17
   70.605003        1.24295641E-17
   70.747498        1.24166394E-17
   70.889999        1.24126756E-17
   71.032501        1.24212584E-17
   71.175003        1.24384183E-17
   71.317497        1.24549536E-17
   71.459999        1.24618920E-17
   71.602501        1.24558064E-17
   71.745003        1.24407890E-17
   71.887497        1.24259262E-17
   72.029999        1.24198059E-17
   72.172501        1.24254067E-17
   72.315002        1.24384265E-17
   72.457497        1.24500418E-17
   72.599998        1.24523960E-17
   72.742500        1.24434533E-17
   72.885002        1.24282803E-17
   73.027496        1.24159603E-17
   73.169998        1.24140371E-17
   73.312500        1.24238483E-17
   73.455002        1.24396169E-17
   73.597504        1.24518442E-17
   73.739998        1.24529924E-17
   73.882500        1.24419967E-17
   74.025002        1.24249063E-17
   74.167503        1.24112537E-17
   74.309998        1.24083618E-17
   74.452499        1.24170166E-17
   74.595001        1.24311374E-17
   74.737503        1.24416095E-17
   74.879997        1.24419478E-17
   75.022499        1.24323286E-17
   75.165001        1.24195230E-17
   75.307503        1.24127558E-17
   75.449997        1.24180051E-17
   75.592499        1.24341881E-17
   75.735001        1.24536185E-17
   75.877502        1.24664597E-17
   76.019997        1.24665548E-17
   76.162498        1.24551008E-17
   76.305000        1.24399535E-17
   76.447502        1.24309703E-17
   76.589996        1.24341740E-17
   76.732498        1.24482501E-17
   76.875000        1.24654820E-17
   77.017502        1.24765356E-17
   77.160004        1.24762022E-17
   77.302498        1.24666053E-17
   77.445000        1.24559156E-17
   77.587502        1.24533356E-17
   77.730003        1.24633735E-17
   77.872498        1.24828941E-17
   78.014999        1.25027531E-17
   78.157501        1.25130738E-17
   78.300003        1.25090347E-17
   78.442497        1.24936963E-17
   78.584999        1.24761807E-17
   78.727501        1.24662785E-17
   78.870003        1.24687204E-17
   79.012497        1.24805358E-17
   79.154999        1.24930494E-17
   79.297501        1.24972986E-17
   79.440002        1.24895819E-17
   79.582497        1.24737778E-17
   79.724998        1.24590482E-17
   79.867500        1.24542927E-17
   80.010002        1.24627184E-17
   80.152496        1.24797938E-17
   80.294998        1.24958469E-17
   80.437500        1.25017398E-17
   80.580002        1.24942480E-17
   80.722504        1.24778996E-17
   80.864998        1.24622138E-17
   81.007500        1.24559851E-17
   81.150002        1.24620806E-17
   81.292503        1.24758341E-17
   81.434998        1.24879970E-17
   81.577499        1.24904198E-17
   81.720001        1.24810255E-17
   81.862503        1.24650684E-17
   82.004997        1.24519452E-17
   82.147499        1.24494984E-17
   82.290001        1.24592690E-17
   82.432503        1.24755777E-17
   82.574997        1.24889731E-17
   82.717499        1.24919608E-17
   82.860001        1.24835451E-17
   83.002502        1.24698305E-17
   83.144997        1.24603328E-17
   83.287498        1.24622245E-17
   83.430000        1.24760070E-17
   83.572502        1.24951918E-17
   83.714996        1.25101894E-17
   83.857498        1.25140284E-17
   84.000000        1.25064456E-17
   84.142502        1.24938857E-17
   84.285004        1.24854360E-17
   84.427498        1.24871888E-17
   84.570000        1.24984799E-17
   84.712502        1.25122946E-17
   84.855003        1.25196069E-17
   84.997498        1.25150020E-17
   85.139999        1.25001615E-17
   85.282501        1.24830620E-17
   85.425003        1.24733360E-17
   85.567497        1.24765819E-17
   85.709999        1.24910468E-17
   85.852501        1.25086889E-17
   85.995003        1.25199857E-17
   86.137497        1.25195754E-17
   86.279999        1.25093465E-17
   86.422501        1.24971076E-17
   86.565002        1.24916697E-17
   86.707497        1.24973392E-17
   86.849998        1.25111928E-17
   86.992500        1.25248049E-17
   87.135002        1.25294156E-17
   87.277496        1.25213928E-17
   87.419998        1.25046804E-17
   87.562500        1.24886844E-17
   87.705002        1.24828354E-17
   87.847504        1.24910584E-17
   87.989998        1.25094615E-17
   88.132500        1.25286471E-17
   88.275002        1.25392474E-17
   88.417503        1.25373846E-17
   88.559998        1.25267769E-17
   88.702499        1.25162502E-17
   88.845001        1.25141806E-17
   88.987503        1.25232432E-17
   89.129997        1.25386734E-17
   89.272499        1.25510844E-17
   89.415001        1.25521895E-17
   89.557503        1.25399456E-17
   89.699997        1.25200263E-17
   89.842499        1.25026852E-17
   89.985001        1.24968644E-17
   90.127502        1.25050592E-17
   90.269997        1.25219916E-17
   90.412498        1.25378694E-17
   90.555000        1.25442635E-17
   90.697502        1.25390696E-17
   90.839996        1.25276057E-17
   90.982498        1.25191966E-17
   91.125000        1.25213613E-17
   91.267502        1.25351099E-17
   91.410004        1.25542095E-17
   91.552498        1.25688506E-17
   91.695000        1.25715083E-17
   91.837502        1.25614597E-17
   91.980003        1.25452296E-17