  -30.000000        4.89657587E-18
  -29.857500        4.90192318E-18
  -29.715000        4.91169756E-18
  -29.572500        4.92430958E-18
  -29.430000        4.93780793E-18
  -29.287500        4.95025907E-18
  -29.145000        4.96012196E-18
  -29.002501        4.96653302E-18
  -28.860001        4.96946248E-18
  -28.717501        4.96969326E-18
  -28.575001        4.96863861E-18
  -28.432501        4.96803849E-18
  -28.290001        4.96958242E-18
  -28.147499        4.97455295E-18
  -28.004999        4.98354812E-18
  -27.862499        4.99634378E-18
  -27.719999        5.01192786E-18
  -27.577499        5.02869192E-18
  -27.434999        5.04474998E-18
  -27.292500        5.05831367E-18
  -27.150000        5.06805207E-18
  -27.007500        5.07335843E-18
  -26.865000        5.07447513E-18
  -26.722500        5.07244440E-18
  -26.580000        5.06890365E-18
  -26.437500        5.06575954E-18
  -26.295000        5.06480869E-18
  -26.152500        5.06738495E-18
  -26.010000        5.07409628E-18
  -25.867500        5.08471314E-18
  -25.725000        5.09822141E-18
  -25.582500        5.11303043E-18
  -25.440001        5.12729929E-18
  -25.297501        5.13930954E-18
  -25.155001        5.14781130E-18
  -25.012501        5.15227725E-18
  -24.870001        5.15300558E-18
  -24.727501        5.15105633E-18
  -24.584999        5.14803216E-18
  -24.442499        5.14574790E-18
  -24.299999        5.14585957E-18
  -24.157499        5.14952481E-18
  -24.014999        5.15716754E-18
  -23.872499        5.16839156E-18
  -23.730000        5.18206237E-18
  -23.587500        5.19653803E-18
  -23.445000        5.21000205E-18
  -23.302500        5.22083315E-18
  -23.160000        5.22793285E-18
  -23.017500        5.23094957E-18
  -22.875000        5.23034987E-18
  -22.732500        5.22732735E-18
  -22.590000        5.22355954E-18
  -22.447500        5.22087079E-18
  -22.305000        5.22086169E-18
  -22.162500        5.22458318E-18
  -22.020000        5.23232311E-18
  -21.877501        5.24354671E-18
  -21.735001        5.25700742E-18
  -21.592501        5.27100042E-18
  -21.450001        5.28371046E-18
  -21.307501        5.29358038E-18
  -21.165001        5.29962624E-18
  -21.022499        5.30163298E-18
  -20.879999        5.30019700E-18
  -20.737499        5.29659876E-18
  -20.594999        5.29254144E-18
  -20.452499        5.28980554E-18
  -20.309999        5.28988206E-18
  -20.167500        5.29367302E-18
  -20.025000        5.30130542E-18
  -19.882500        5.31210633E-18
  -19.740000        5.32474276E-18
  -19.597500        5.33749747E-18
  -19.455000        5.34862760E-18
  -19.312500        5.35672652E-18
  -19.170000        5.36102414E-18
  -19.027500        5.36155022E-18
  -18.885000        5.35913651E-18
  -18.742500        5.35525042E-18
  -18.600000        5.35169644E-18
  -18.457500        5.35024928E-18
  -18.315001        5.35228291E-18
  -18.172501        5.35848759E-18
  -18.030001        5.36871361E-18
  -17.887501        5.38198903E-18
  -17.745001        5.39669796E-18
  -17.602501        5.41089279E-18
  -17.459999        5.42267598E-18
  -17.317499        5.43057431E-18
  -17.174999        5.43383464E-18
  -17.032499        5.43257857E-18
  -16.889999        5.42778423E-18
  -16.747499        5.42109482E-18
  -16.605000        5.41449475E-18
  -16.462500        5.40992002E-18
  -16.320000        5.40887488E-18
  -16.177500        5.41214142E-18
  -16.035000        5.41962988E-18
  -15.892500        5.43040763E-18
  -15.750000        5.44289310E-18
  -15.607500        5.45518169E-18
  -15.465000        5.46542715E-18
  -15.322500        5.47221458E-18
  -15.180000        5.47484171E-18
  -15.037500        5.47345535E-18
  -14.895000        5.46902249E-18
  -14.752500        5.46313007E-18
  -14.610000        5.45766075E-18
  -14.467500        5.45440414E-18
  -14.325000        5.45469118E-18
  -14.182500        5.45911659E-18
  -14.040000        5.46741073E-18
  -13.897500        5.47848958E-18
  -13.755000        5.49067064E-18
  -13.612500        5.50200963E-18
  -13.470000        5.51069006E-18
  -13.327500        5.51538638E-18
  -13.185000        5.51552824E-18
  -13.042500        5.51141509E-18
  -12.900000        5.50415947E-18
  -12.757500        5.49546828E-18
  -12.615000        5.48731022E-18
  -12.472500        5.48153236E-18
  -12.330000        5.47950370E-18
  -12.187500        5.48185206E-18
  -12.045000        5.48835577E-18
  -11.902500        5.49800111E-18
  -11.760000        5.50920486E-18
  -11.617500        5.52014970E-18
  -11.475000        5.52916349E-18
  -11.332500        5.53506749E-18
  -11.190000        5.53741544E-18
  -11.047500        5.53658123E-18
  -10.905000        5.53367038E-18
  -10.762500        5.53028018E-18
  -10.620000        5.52816301E-18
  -10.477500        5.52885123E-18
  -10.335000        5.53332503E-18
  -10.192500        5.54179743E-18
  -10.050000        5.55364142E-18
  -9.9075003        5.56749421E-18
  -9.7650003        5.58150789E-18
  -9.6225004        5.59370177E-18
  -9.4799995        5.60234871E-18
  -9.3374996        5.60631793E-18
  -9.1949997        5.60530050E-18
  -9.0524998        5.59987626E-18
  -8.9099998        5.59140221E-18
  -8.7674999        5.58174570E-18
  -8.6250000        5.57292093E-18
  -8.4825001        5.56669557E-18
  -8.3400002        5.56425414E-18
  -8.1975002        5.56598212E-18
  -8.0550003        5.57141050E-18
  -7.9124999        5.57933034E-18
  -7.7700000        5.58805213E-18
  -7.6275001        5.59575608E-18
  -7.4850001        5.60086764E-18
  -7.3425002        5.60237600E-18
  -7.1999998        5.60004542E-18
  -7.0574999        5.59446485E-18
  -6.9150000        5.58693213E-18
  -6.7725000        5.57919178E-18
  -6.6300001        5.57308099E-18
  -6.4875002        5.57015814E-18
  -6.3449998        5.57138030E-18
  -6.2024999        5.57691290E-18
  -6.0599999        5.58609709E-18
  -5.9175000        5.59758828E-18
  -5.7750001        5.60962955E-18
  -5.6325002        5.62040606E-18
  -5.4899998        5.62840903E-18
  -5.3474998        5.63272485E-18
  -5.2049999        5.63321330E-18
  -5.0625000        5.63051586E-18
  -4.9200001        5.62592087E-18
  -4.7775002        5.62108972E-18
  -4.6350002        5.61771110E-18
  -4.4924998        5.61715400E-18
  -4.3499999        5.62017941E-18
  -4.2075000        5.62678321E-18
  -4.0650001        5.63619569E-18
  -3.9224999        5.64704127E-18
  -3.7800000        5.65762712E-18
  -3.6375000        5.66630466E-18
  -3.4949999        5.67181326E-18
  -3.3525000        5.67355117E-18
  -3.2100000        5.67170284E-18
  -3.0675001        5.66720835E-18
  -2.9250000        5.66157029E-18
  -2.7825000        5.65655509E-18
  -2.6400001        5.65382953E-18
  -2.4974999        5.65462528E-18
  -2.3550000        5.65947793E-18
  -2.2125001        5.66811370E-18
  -2.0699999        5.67948661E-18
  -1.9275000        5.69198034E-18
  -1.7850000        5.70372217E-18
  -1.6425000        5.71295682E-18
  -1.5000000        5.71840297E-18
  -1.3575000        5.71951305E-18
  -1.2150000        5.71659186E-18
  -1.0725000        5.71073459E-18
 -0.93000001        5.70360719E-18
 -0.78750002        5.69711176E-18
 -0.64499998        5.69300398E-18
 -0.50250000        5.69254241E-18
 -0.36000001        5.69623867E-18
 -0.21750000        5.70376188E-18
 -7.50000030E-02    5.71400030E-18
  6.75000027E-02    5.72528553E-18
  0.20999999        5.73572041E-18
  0.35249999        5.74355464E-18
  0.49500000        5.74753131E-18
  0.63749999        5.74714502E-18
  0.77999997        5.74274442E-18
  0.92250001        5.73547143E-18
   1.0650001        5.72703419E-18
   1.2075000        5.71936912E-18
   1.3500000        5.71424887E-18
   1.4924999        5.71293407E-18
   1.6350000        5.71591936E-18
   1.7775000        5.72284452E-18
   1.9200000        5.73257588E-18
   2.0625000        5.74344132E-18
   2.2049999        5.75356601E-18
   2.3475001        5.76124679E-18
   2.4900000        5.76528178E-18
   2.6324999        5.76520775E-18
   2.7750001        5.76138245E-18
   2.9175000        5.75491266E-18
   3.0599999        5.74743205E-18
   3.2025001        5.74077531E-18
   3.3450000        5.73661501E-18
   3.4875000        5.73612284E-18
   3.6300001        5.73974134E-18
   3.7725000        5.74709911E-18
   3.9150000        5.75710014E-18
   4.0574999        5.76815747E-18
   4.1999998        5.77853197E-18
   4.3425002        5.78669418E-18
   4.4850001        5.79163575E-18
   4.6275001        5.79306636E-18
   4.7700000        5.79146370E-18
   4.9124999        5.78795728E-18
   5.0549998        5.78408814E-18
   5.1975002        5.78148335E-18
   5.3400002        5.78151106E-18
   5.4825001        5.78498977E-18
   5.6250000        5.79200674E-18
   5.7674999        5.80187790E-18
   5.9099998        5.81327273E-18
   6.0524998        5.82447482E-18
   6.1950002        5.83372725E-18
   6.3375001        5.83959775E-18
   6.4800000        5.84128148E-18
   6.6224999        5.83877802E-18
   6.7649999        5.83290421E-18
   6.9074998        5.82513988E-18
   7.0500002        5.81733667E-18
   7.1925001        5.81135615E-18
   7.3350000        5.80870628E-18
   7.4775000        5.81025104E-18
   7.6199999        5.81605123E-18
   7.7624998        5.82535536E-18
   7.9050002        5.83675597E-18
   8.0474997        5.84846554E-18
   8.1899996        5.85867088E-18
   8.3325005        5.86589382E-18
   8.4750004        5.86928444E-18
   8.6175003        5.86878772E-18
   8.7600002        5.86515184E-18
   8.9025002        5.85976648E-18
   9.0450001        5.85436830E-18
   9.1875000        5.85067494E-18
   9.3299999        5.85002106E-18
   9.4724998        5.85308452E-18
   9.6149998        5.85974208E-18
   9.7574997        5.86910039E-18
   9.8999996        5.87967589E-18
   10.042500        5.88969967E-18
   10.185000        5.89746855E-18
   10.327500        5.90168552E-18
   10.470000        5.90172233E-18
   10.612500        5.89774814E-18
   10.755000        5.89070304E-18
   10.897500        5.88211939E-18
   11.040000        5.87382235E-18
   11.182500        5.86756804E-18
   11.325000        5.86469317E-18
   11.467500        5.86584668E-18
   11.610000        5.87086808E-18
   11.752500        5.87883052E-18
   11.895000        5.88824631E-18
   12.037500        5.89738459E-18
   12.180000        5.90463648E-18
   12.322500        5.90884559E-18
   12.465000        5.90954125E-18
   12.607500        5.90702621E-18
   12.750000        5.90230797E-18
   12.892500        5.89689035E-18
   13.035000        5.89246617E-18
   13.177500        5.89056655E-18
   13.320000        5.89224573E-18
   13.462500        5.89784781E-18
   13.605000        5.90692529E-18
   13.747500        5.91830606E-18
   13.890000        5.93032251E-18
   14.032500        5.94114327E-18
   14.175000        5.94915286E-18
   14.317500        5.95328670E-18
   14.460000        5.95325361E-18
   14.602500        5.94960161E-18
   14.745000        5.94360868E-18
   14.887500        5.93702722E-18
   15.030000        5.93173368E-18
   15.172500        5.92935719E-18
   15.315000        5.93095944E-18
   15.457500        5.93683077E-18
   15.600000        5.94642647E-18
   15.742500        5.95847147E-18
   15.885000        5.97120095E-18
   16.027500        5.98270496E-18
   16.170000        5.99130144E-18
   16.312500        5.99587202E-18
   16.455000        5.99609205E-18
   16.597500        5.99249671E-18
   16.740000        5.98637558E-18
   16.882500        5.97950625E-18
   17.025000        5.97379292E-18
   17.167500        5.97087463E-18
   17.309999        5.97179735E-18
   17.452499        5.97680758E-18
   17.594999        5.98531099E-18
   17.737499        5.99599982E-18
   17.879999        6.00711341E-18
   18.022499        6.01678894E-18
   18.165001        6.02342582E-18
   18.307501        6.02600208E-18
   18.450001        6.02427741E-18
   18.592501        6.01884738E-18
   18.735001        6.01103300E-18
   18.877501        6.00262430E-18
   19.020000        5.99552750E-18
   19.162500        5.99137919E-18
   19.305000        5.99122451E-18
   19.447500        5.99530913E-18
   19.590000        6.00303913E-18
   19.732500        6.01312081E-18
   19.875000        6.02383321E-18
   20.017500        6.03338549E-18
   20.160000        6.04027756E-18
   20.302500        6.04359497E-18
   20.445000        6.04317641E-18
   20.587500        6.03963525E-18
   20.730000        6.03422301E-18
   20.872499        6.02857420E-18
   21.014999        6.02437088E-18
   21.157499        6.02299693E-18
   21.299999        6.02524893E-18
   21.442499        6.03116658E-18
   21.584999        6.04001286E-18
   21.727501        6.05042376E-18
   21.870001        6.06069114E-18
   22.012501        6.06911969E-18
   22.155001        6.07438594E-18
   22.297501        6.07581117E-18
   22.440001        6.07350334E-18
   22.582500        6.06832643E-18
   22.725000        6.06172098E-18
   22.867500        6.05540711E-18
   23.010000        6.05103959E-18
   23.152500        6.04987782E-18
   23.295000        6.05253679E-18
   23.437500        6.05886389E-18
   23.580000        6.06796454E-18
   23.722500        6.07837212E-18
   23.865000        6.08834006E-18
   24.007500        6.09619249E-18
   24.150000        6.10067002E-18
   24.292500        6.10119404E-18
   24.434999        6.09799285E-18
   24.577499        6.09205534E-18
   24.719999        6.08492753E-18
   24.862499        6.07838908E-18
   25.004999        6.07408485E-18
   25.147499        6.07319066E-18
   25.290001        6.07618258E-18
   25.432501        6.08274708E-18
   25.575001        6.09185599E-18
   25.717501        6.10197572E-18
   25.860001        6.11137373E-18
   26.002501        6.11846060E-18
   26.145000        6.12210888E-18
   26.287500        6.12188224E-18
   26.430000        6.11813304E-18
   26.572500        6.11194325E-18
   26.715000        6.10491718E-18
   26.857500        6.09885808E-18
   27.000000        6.09540336E-18
   27.142500        6.09568377E-18
   27.285000        6.10009430E-18
   27.427500        6.10821597E-18
   27.570000        6.11890521E-18
   27.712500        6.13054075E-18
   27.855000        6.14134910E-18
   27.997499        6.14976319E-18
   28.139999        6.15472296E-18
   28.282499        6.15587771E-18
   28.424999        6.15364349E-18
   28.567499        6.14911095E-18
   28.709999        6.14383065E-18
   28.852501        6.13949663E-18
   28.995001        6.13760694E-18
   29.137501        6.13915005E-18
   29.280001        6.14439396E-18
   29.422501        6.15281796E-18
   29.565001        6.16321025E-18
   29.707500        6.17391272E-18
   29.850000        6.18316474E-18
   29.992500        6.18946496E-18
   30.135000        6.19187950E-18
   30.277500        6.19022762E-18
   30.420000        6.18510944E-18
   30.562500        6.17777690E-18
   30.705000        6.16987815E-18
   30.847500        6.16313415E-18
   30.990000        6.15899990E-18
   31.132500        6.15838944E-18
   31.275000        6.16149633E-18
   31.417500        6.16776346E-18
   31.559999        6.17599060E-18
   31.702499        6.18458418E-18
   31.844999        6.19188653E-18
   31.987499        6.19652701E-18
   32.130001        6.19771981E-18
   32.272499        6.19543927E-18
   32.415001        6.19043028E-18
   32.557499        6.18405354E-18
   32.700001        6.17799941E-18
   32.842499        6.17393009E-18
   32.985001        6.17313517E-18
   33.127499        6.17626523E-18
   33.270000        6.18319989E-18
   33.412498        6.19306609E-18
   33.555000        6.20440095E-18
   33.697498        6.21543140E-18
   33.840000        6.22441045E-18
   33.982498        6.22995421E-18
   34.125000        6.23131616E-18
   34.267502        6.22854511E-18
   34.410000        6.22248312E-18
   34.552502        6.21460753E-18
   34.695000        6.20673566E-18
   34.837502        6.20065713E-18
   34.980000        6.19776820E-18
   35.122501        6.19879432E-18
   35.264999        6.20365318E-18
   35.407501        6.21149154E-18
   35.549999        6.22087549E-18
   35.692501        6.23009938E-18
   35.834999        6.23753201E-18
   35.977501        6.24193964E-18
   36.119999        6.24272753E-18
   36.262501        6.24005078E-18
   36.404999        6.23478453E-18
   36.547501        6.22835362E-18
   36.689999        6.22245375E-18
   36.832500        6.21871779E-18
   36.974998        6.21837906E-18
   37.117500        6.22201617E-18
   37.259998        6.22942564E-18
   37.402500        6.23965828E-18
   37.544998        6.25121192E-18
   37.687500        6.26234495E-18
   37.830002        6.27143525E-18
   37.972500        6.27730534E-18
   38.115002        6.27944898E-18
   38.257500        6.27811267E-18
   38.400002        6.27422492E-18
   38.542500        6.26919525E-18
   38.685001        6.26462631E-18
   38.827499        6.26199919E-18
   38.970001        6.26238300E-18
   39.112499        6.26622815E-18
   39.255001        6.27327283E-18
   39.397499        6.28259640E-18
   39.540001        6.29280050E-18
   39.682499        6.30229736E-18
   39.825001        6.30963817E-18
   39.967499        6.31382247E-18
   40.110001        6.31450654E-18
   40.252499        6.31207215E-18
   40.395000        6.30753507E-18
   40.537498        6.30231308E-18
   40.680000        6.29791826E-18
   40.822498        6.29563194E-18
   40.965000        6.29623992E-18
   41.107498        6.29987000E-18
   41.250000        6.30596797E-18
   41.392502        6.31340515E-18
   41.535000        6.32070006E-18
   41.677502        6.32630876E-18
   41.820000        6.32894333E-18
   41.962502        6.32784566E-18
   42.105000        6.32296653E-18
   42.247501        6.31501526E-18
   42.389999        6.30534593E-18
   42.532501        6.29570556E-18
   42.674999        6.28789366E-18
   42.817501        6.28340290E-18
   42.959999        6.28312166E-18
   43.102501        6.28716285E-18
   43.244999        6.29485480E-18
   43.387501        6.30488892E-18
   43.529999        6.31558850E-18
   43.672501        6.32523839E-18
   43.814999        6.33241749E-18
   43.957500        6.33626098E-18
   44.099998        6.33662039E-18
   44.242500        6.33408756E-18
   44.384998        6.32987391E-18
   44.527500        6.32557050E-18
   44.669998        6.32282095E-18
   44.812500        6.32297605E-18
   44.955002        6.32679473E-18
   45.097500        6.33426582E-18
   45.240002        6.34458945E-18
   45.382500        6.35633211E-18
   45.525002        6.36771080E-18
   45.667500        6.37695868E-18
   45.810001        6.38267905E-18
   45.952499        6.38411503E-18
   46.095001        6.38129104E-18
   46.237499        6.37499454E-18
   46.380001        6.36662058E-18
   46.522499        6.35790664E-18
   46.665001        6.35061339E-18
   46.807499        6.34620121E-18
   46.950001        6.34556552E-18
   47.092499        6.34887300E-18
   47.235001        6.35553967E-18
   47.377499        6.36435658E-18
   47.520000        6.37374384E-18
   47.662498        6.38208803E-18
   47.805000        6.38808509E-18
   47.947498        6.39101165E-18
   48.090000        6.39086317E-18
   48.232498        6.38833531E-18
   48.375000        6.38464360E-18
   48.517502        6.38124761E-18
   48.660000        6.37952708E-18
   48.802502        6.38048991E-18
   48.945000        6.38456295E-18
   49.087502        6.39150258E-18
   49.230000        6.40043407E-18
   49.372501        6.41001282E-18
   49.514999        6.41867547E-18
   49.657501        6.42494963E-18
   49.799999        6.42774922E-18
   49.942501        6.42661351E-18
   50.084999        6.42182206E-18
   50.227501        6.41436792E-18
   50.369999        6.40576814E-18
   50.512501        6.39776641E-18
   50.654999        6.39197987E-18
   50.797501        6.38958022E-18
   50.939999        6.39106749E-18
   51.082500        6.39619394E-18
   51.224998        6.40403520E-18
   51.367500        6.41319498E-18
   51.509998        6.42208966E-18
   51.652500        6.42925759E-18
   51.794998        6.43363916E-18
   51.937500        6.43477819E-18
   52.080002        6.43291580E-18
   52.222500        6.42894367E-18
   52.365002        6.42423950E-18
   52.507500        6.42038525E-18
   52.650002        6.41884463E-18
   52.792500        6.42064043E-18
   52.935001        6.42612961E-18
   53.077499        6.43490847E-18
   53.220001        6.44588640E-18
   53.362499        6.45750746E-18
   53.505001        6.46806518E-18
   53.647499        6.47604044E-18
   53.790001        6.48039679E-18
   53.932499        6.48076075E-18
   54.075001        6.47748222E-18
   54.217499        6.47155092E-18
   54.360001        6.46440367E-18
   54.502499        6.45765346E-18
   54.645000        6.45278674E-18
   54.787498        6.45087802E-18
   54.930000        6.45238390E-18
   55.072498        6.45704920E-18
   55.215000        6.46396361E-18
   55.357498        6.47175482E-18
   55.500000        6.47888925E-18
   55.642502        6.48400578E-18
   55.785000        6.48621146E-18
   55.927502        6.48526475E-18
   56.070000        6.48161274E-18
   56.212502        6.47627495E-18
   56.355000        6.47061000E-18
   56.497501        6.46602535E-18
   56.639999        6.46368898E-18
   56.782501        6.46429985E-18
   56.924999        6.46795351E-18
   57.067501        6.47412635E-18
   57.209999        6.48177239E-18
   57.352501        6.48952845E-18
   57.494999        6.49598873E-18
   57.637501        6.49999890E-18
   57.779999        6.50091376E-18
   57.922501        6.49875979E-18
   58.064999        6.49424669E-18
   58.207500        6.48862972E-18
   58.349998        6.48344495E-18
   58.492500        6.48017552E-18
   58.634998        6.47993522E-18
   58.777500        6.48323278E-18
   58.919998        6.48987338E-18
   59.062500        6.49900794E-18
   59.205002        6.50930551E-18
   59.347500        6.51921803E-18
   59.490002        6.52727063E-18
   59.632500        6.53233877E-18
   59.775002        6.53385995E-18
   59.917500        6.53194627E-18
   60.060001        6.52737320E-18
   60.202499        6.52143942E-18
   60.345001        6.51571202E-18
   60.487499        6.51170847E-18
   60.630001        6.51057027E-18
   60.772499        6.51281937E-18
   60.915001        6.51823865E-18
   61.057499        6.52592233E-18
   61.200001        6.53447744E-18
   61.342499        6.54232408E-18
   61.485001        6.54802749E-18
   61.627499        6.55059423E-18
   61.770000        6.54966076E-18
   61.912498        6.54556580E-18
   62.055000        6.53928336E-18
   62.197498        6.53224654E-18
   62.340000        6.52608776E-18
   62.482498        6.52233733E-18
   62.625000        6.52213136E-18
   62.767502        6.52597982E-18
   62.910000        6.53364737E-18
   63.052502        6.54417945E-18
   63.195000        6.55608340E-18
   63.337502        6.56761844E-18
   63.480000        6.57715666E-18
   63.622501        6.58350237E-18
   63.764999        6.58612536E-18
   63.907501        6.58523821E-18
   64.050003        6.58171856E-18
   64.192497        6.57689982E-18
   64.334999        6.57228497E-18
   64.477501        6.56924302E-18
   64.620003        6.56874547E-18
   64.762497        6.57117697E-18
   64.904999        6.57626537E-18
   65.047501        6.58312642E-18
   65.190002        6.59043373E-18
   65.332497        6.59668432E-18
   65.474998        6.60051251E-18
   65.617500        6.60099807E-18
   65.760002        6.59788952E-18
   65.902496        6.59168401E-18
   66.044998        6.58354414E-18
   66.187500        6.57506306E-18
   66.330002        6.56793276E-18
   66.472504        6.56359296E-18
   66.614998        6.56294486E-18
   66.757500        6.56618162E-18
   66.900002        6.57276681E-18
   67.042503        6.58155229E-18
   67.184998        6.59100283E-18
   67.327499        6.59948929E-18
   67.470001        6.60559058E-18
   67.612503        6.60836825E-18
   67.754997        6.60755099E-18
   67.897499        6.60360121E-18
   68.040001        6.59763806E-18
   68.182503        6.59121418E-18
   68.324997        6.58599425E-18
   68.467499        6.58339856E-18
   68.610001        6.58429274E-18
   68.752502        6.58880046E-18
   68.894997        6.59628479E-18
   69.037498        6.60549669E-18
   69.180000        6.61484921E-18
   69.322502        6.62275292E-18
   69.464996        6.62793024E-18
   69.607498        6.62966194E-18
   69.750000        6.62791204E-18
   69.892502        6.62332491E-18
   70.035004        6.61710700E-18
   70.177498        6.61079478E-18
   70.320000        6.60596818E-18
   70.462502        6.60393539E-18
   70.605003        6.60546402E-18
   70.747498        6.61060784E-18
   70.889999        6.61867823E-18
   71.032501        6.62838354E-18
   71.175003        6.63809629E-18
   71.317497        6.64620721E-18
   71.459999        6.65146394E-18
   71.602501        6.65322749E-18
   71.745003        6.65158926E-18
   71.887497        6.64732597E-18
   72.029999        6.64172431E-18
   72.172501        6.63631206E-18
   72.315002        6.63256287E-18
   72.457497        6.63161781E-18
   72.599998        6.63407454E-18
   72.742500        6.63987142E-18
   72.885002        6.64828798E-18
   73.027496        6.65807105E-18
   73.169998        6.66767379E-18
   73.312500        6.67556096E-18
   73.455002        6.68053024E-18
   73.597504        6.68197161E-18
   73.739998        6.67999795E-18
   73.882500        6.67541744E-18
   74.025002        6.66954818E-18
   74.167503        6.66392583E-18
   74.309998        6.65997563E-18
   74.452499        6.65872369E-18
   74.595001        6.66060346E-18
   74.737503        6.66539367E-18
   74.879997        6.67227415E-18
   75.022499        6.67999464E-18
   75.165001        6.68711212E-18
   75.307503        6.69226132E-18
   75.449997        6.69442440E-18
   75.592499        6.69313937E-18
   75.735001        6.68861883E-18
   75.877502        6.68172883E-18
   76.019997        6.67383339E-18
   76.162498        6.66651863E-18
   76.305000        6.66126314E-18
   76.447502        6.65912322E-18
   76.589996        6.66051661E-18
   76.732498        6.66515461E-18
   76.875000        6.67212692E-18
   77.017502        6.68011045E-18
   77.160004        6.68765599E-18
   77.302498        6.69347355E-18
   77.445000        6.69667515E-18
   77.587502        6.69693199E-18
   77.730003        6.69452779E-18
   77.872498        6.69030586E-18
   78.014999        6.68550987E-18
   78.157501        6.68155057E-18
   78.300003        6.67971837E-18
   78.442497        6.68090909E-18
   78.584999        6.68541723E-18
   78.727501        6.69285151E-18
   78.870003        6.70220527E-18
   79.012497        6.71206899E-18
   79.154999        6.72093305E-18
   79.297501        6.72750873E-18
   79.440002        6.73099074E-18
   79.582497        6.73120415E-18
   79.724998        6.72861301E-18
   79.867500        6.72420207E-18
   80.010002        6.71926794E-18
   80.152496        6.71516760E-18
   80.294998        6.71306078E-18
   80.437500        6.71369067E-18
   80.580002        6.71723680E-18
   80.722504        6.72326488E-18
   80.864998        6.73079139E-18
   81.007500        6.73847052E-18
   81.150002        6.74486256E-18
   81.292503        6.74874493E-18
   81.434998        6.74938352E-18
   81.577499        6.74669932E-18
   81.720001        6.74129121E-18
   81.862503        6.73430401E-18
   82.004997        6.72718323E-18
   82.147499        6.72137435E-18
   82.290001        6.71804288E-18
   82.432503        6.71786132E-18
   82.574997        6.72090410E-18
   82.717499        6.72664928E-18
   82.860001        6.73408440E-18
   83.002502        6.74189050E-18
   83.144997        6.74868579E-18
   83.287498        6.75328243E-18
   83.430000        6.75491984E-18
   83.572502        6.75342843E-18
   83.714996        6.74927102E-18
   83.857498        6.74344974E-18
   84.000000        6.73728724E-18
   84.142502        6.73213101E-18
   84.285004        6.72905390E-18
   84.427498        6.72862418E-18
   84.570000        6.73079842E-18
   84.712502        6.73495128E-18
   84.855003        6.74003183E-18
   84.997498        6.74479018E-18
   85.139999        6.74803232E-18
   85.282501        6.74884874E-18
   85.425003        6.74678989E-18
   85.567497        6.74195419E-18
   85.709999        6.73498851E-18
   85.852501        6.72698429E-18
   85.995003        6.71928200E-18
   86.137497        6.71321050E-18
   86.279999        6.70981161E-18
   86.422501        6.70960936E-18
   86.565002        6.71248547E-18
   86.707497        6.71770581E-18
   86.849998        6.72408006E-18
   86.992500        6.73023387E-18
   87.135002        6.73491075E-18
   87.277496        6.73723554E-18
   87.419998        6.73688275E-18
   87.562500        6.73412038E-18
   87.705002        6.72973798E-18
   87.847504        6.72488325E-18
   87.989998        6.72083917E-18
   88.132500        6.71878321E-18
   88.275002        6.71956035E-18
   88.417503        6.72350931E-18
   88.559998        6.73036788E-18
   88.702499        6.73929853E-18
   88.845001        6.74902824E-18
   88.987503        6.75810159E-18
   89.129997        6.76518225E-18
   89.272499        6.76933966E-18
   89.415001        6.77024915E-18
   89.557503        6.76825316E-18
   89.699997        6.76427153E-18
   89.842499        6.75959093E-18
   89.985001        6.75559192E-18
   90.127502        6.75347351E-18
   90.269997        6.75403103E-18
   90.412498        6.75753083E-18
   90.555000        6.76367306E-18
   90.697502        6.77166156E-18
   90.839996        6.78035150E-18
   90.982498        6.78846118E-18
   91.125000        6.79482013E-18
   91.267502        6.79860614E-18
   91.410004        6.79952721E-18
   91.552498        6.79789807E-18
   91.695000        6.79458149E-18
   91.837502        6.79080252E-18
   91.980003        6.78787843E-18