  -30.000000        9.78447028E-19
  -29.857500        9.80199307E-19
  -29.715000        9.83396670E-19
  -29.572500        9.87510342E-19
  -29.430000        9.91898225E-19
  -29.287500        9.95933212E-19
  -29.145000        9.99124372E-19
  -29.002501        1.00120421E-18
  -28.860001        1.00217015E-18
  -28.717501        1.00227417E-18
  -28.575001        1.00196491E-18
  -28.432501        1.00179368E-18
  -28.290001        1.00230033E-18
  -28.147499        1.00390268E-18
  -28.004999        1.00680402E-18
  -27.862499        1.01094334E-18
  -27.719999        1.01599710E-18
  -27.577499        1.02144108E-18
  -27.434999        1.02665346E-18
  -27.292500        1.03104248E-18
  -27.150000        1.03417222E-18
  -27.007500        1.03585140E-18
  -26.865000        1.03617152E-18
  -26.722500        1.03548589E-18
  -26.580000        1.03433218E-18
  -26.437500        1.03332415E-18
  -26.295000        1.03303361E-18
  -26.152500        1.03387733E-18
  -26.010000        1.03604403E-18
  -25.867500        1.03945966E-18
  -25.725000        1.04380226E-18
  -25.582500        1.04856589E-18
  -25.440001        1.05315922E-18
  -25.297501        1.05702309E-18
  -25.155001        1.05974658E-18
  -25.012501        1.06115341E-18
  -24.870001        1.06134221E-18
  -24.727501        1.06066516E-18
  -24.584999        1.05965362E-18
  -24.442499        1.05890306E-18
  -24.299999        1.05894742E-18
  -24.157499        1.06014838E-18
  -24.014999        1.06262289E-18
  -23.872499        1.06622702E-18
  -23.730000        1.07058781E-18
  -23.587500        1.07518353E-18
  -23.445000        1.07944630E-18
  -23.302500        1.08287475E-18
  -23.160000        1.08513223E-18
  -23.017500        1.08611410E-18
  -22.875000        1.08597141E-18
  -22.732500        1.08508343E-18
  -22.590000        1.08398318E-18
  -22.447500        1.08324688E-18
  -22.305000        1.08337354E-18
  -22.162500        1.08467635E-18
  -22.020000        1.08721445E-18
  -21.877501        1.09078136E-18
  -21.735001        1.09495004E-18
  -21.592501        1.09916856E-18
  -21.450001        1.10287888E-18
  -21.307501        1.10563256E-18
  -21.165001        1.10718218E-18
  -21.022499        1.10753022E-18
  -20.879999        1.10692710E-18
  -20.737499        1.10582095E-18
  -20.594999        1.10477198E-18
  -20.452499        1.10434268E-18
  -20.309999        1.10498364E-18
  -20.167500        1.10694157E-18
  -20.025000        1.11020387E-18
  -19.882500        1.11449218E-18
  -19.740000        1.11931713E-18
  -19.597500        1.12407662E-18
  -19.455000        1.12818605E-18
  -19.312500        1.13120268E-18
  -19.170000        1.13292332E-18
  -19.027500        1.13342872E-18
  -18.885000        1.13306621E-18
  -18.742500        1.13237893E-18
  -18.600000        1.13199108E-18
  -18.457500        1.13248564E-18
  -18.315001        1.13428506E-18
  -18.172501        1.13756711E-18
  -18.030001        1.14222238E-18
  -17.887501        1.14786665E-18
  -17.745001        1.15390434E-18
  -17.602501        1.15962853E-18
  -17.459999        1.16435690E-18
  -17.317499        1.16755871E-18
  -17.174999        1.16896513E-18
  -17.032499        1.16862516E-18
  -16.889999        1.16689904E-18
  -16.747499        1.16438937E-18
  -16.605000        1.16182036E-18
  -16.462500        1.15989571E-18
  -16.320000        1.15916542E-18
  -16.177500        1.15992539E-18
  -16.035000        1.16216974E-18
  -15.892500        1.16560864E-18
  -15.750000        1.16973037E-18
  -15.607500        1.17390898E-18
  -15.465000        1.17752397E-18
  -15.322500        1.18007882E-18
  -15.180000        1.18129446E-18
  -15.037500        1.18116346E-18
  -14.895000        1.17994750E-18
  -14.752500        1.17812398E-18
  -14.610000        1.17628640E-18
  -14.467500        1.17501399E-18
  -14.325000        1.17474867E-18
  -14.182500        1.17569672E-18
  -14.040000        1.17778494E-18
  -13.897500        1.18067925E-18
  -13.755000        1.18385769E-18
  -13.612500        1.18672428E-18
  -13.470000        1.18873371E-18
  -13.327500        1.18950475E-18
  -13.185000        1.18889873E-18
  -13.042500        1.18704616E-18
  -12.900000        1.18432846E-18
  -12.757500        1.18130780E-18
  -12.615000        1.17862608E-18
  -12.472500        1.17688507E-18
  -12.330000        1.17653031E-18
  -12.187500        1.17776333E-18
  -12.045000        1.18050037E-18
  -11.902500        1.18438543E-18
  -11.760000        1.18886358E-18
  -11.617500        1.19329354E-18
  -11.475000        1.19707883E-18
  -11.332500        1.19978536E-18
  -11.190000        1.20122590E-18
  -11.047500        1.20148408E-18
  -10.905000        1.20088892E-18
  -10.762500        1.19993539E-18
  -10.620000        1.19918007E-18
  -10.477500        1.19912765E-18
  -10.335000        1.20012781E-18
  -10.192500        1.20230568E-18
  -10.050000        1.20553354E-18
  -9.9075003        1.20944931E-18
  -9.7650003        1.21352328E-18
  -9.6225004        1.21716205E-18
  -9.4799995        1.21982515E-18
  -9.3374996        1.22113737E-18
  -9.1949997        1.22096770E-18
  -9.0524998        1.21945541E-18
  -8.9099998        1.21698162E-18
  -8.7674999        1.21408649E-18
  -8.6250000        1.21135762E-18
  -8.4825001        1.20931024E-18
  -8.3400002        1.20829157E-18
  -8.1975002        1.20842040E-18
  -8.0550003        1.20957566E-18
  -7.9124999        1.21143155E-18
  -7.7700000        1.21353062E-18
  -7.6275001        1.21537699E-18
  -7.4850001        1.21654083E-18
  -7.3425002        1.21674649E-18
  -7.1999998        1.21593399E-18
  -7.0574999        1.21427829E-18
  -6.9150000        1.21215864E-18
  -6.7725000        1.21008428E-18
  -6.6300001        1.20858553E-18
  -6.4875002        1.20809904E-18
  -6.3449998        1.20887204E-18
  -6.2024999        1.21090897E-18
  -6.0599999        1.21397037E-18
  -5.9175000        1.21762754E-18
  -5.7750001        1.22135472E-18
  -5.6325002        1.22463966E-18
  -5.4899998        1.22708449E-18
  -5.3474998        1.22848274E-18
  -5.2049999        1.22885435E-18
  -5.0625000        1.22843673E-18
  -4.9200001        1.22763798E-18
  -4.7775002        1.22695007E-18
  -4.6350002        1.22684916E-18
  -4.4924998        1.22769102E-18
  -4.3499999        1.22962859E-18
  -4.2075000        1.23256591E-18
  -4.0650001        1.23616476E-18
  -3.9224999        1.23990600E-18
  -3.7800000        1.24319135E-18
  -3.6375000        1.24546993E-18
  -3.4949999        1.24635646E-18
  -3.3525000        1.24571291E-18
  -3.2100000        1.24368073E-18
  -3.0675001        1.24065387E-18
  -2.9250000        1.23720122E-18
  -2.7825000        1.23396146E-18
  -2.6400001        1.23152480E-18
  -2.4974999        1.23032756E-18
  -2.3550000        1.23057519E-18
  -2.2125001        1.23221343E-18
  -2.0699999        1.23493899E-18
  -1.9275000        1.23826394E-18
  -1.7850000        1.24161299E-18
  -1.6425000        1.24444257E-18
  -1.5000000        1.24635253E-18
  -1.3575000        1.24717185E-18
  -1.2150000        1.24699401E-18
  -1.0725000        1.24615359E-18
 -0.93000001        1.24515032E-18
 -0.78750002        1.24453800E-18
 -0.64499998        1.24480125E-18
 -0.50250000        1.24625161E-18
 -0.36000001        1.24896145E-18
 -0.21750000        1.25274922E-18
 -7.50000030E-02    1.25721144E-18
  6.75000027E-02    1.26180178E-18
  0.20999999        1.26593437E-18
  0.35249999        1.26909431E-18
  0.49500000        1.27093737E-18
  0.63749999        1.27136275E-18
  0.77999997        1.27053391E-18
  0.92250001        1.26885504E-18
   1.0650001        1.26689008E-18
   1.2075000        1.26525071E-18
   1.3500000        1.26446696E-18
   1.4924999        1.26487775E-18
   1.6350000        1.26655796E-18
   1.7775000        1.26930389E-18
   1.9200000        1.27267569E-18
   2.0625000        1.27609143E-18
   2.2049999        1.27894169E-18
   2.3475001        1.28070854E-18
   2.4900000        1.28106620E-18
   2.6324999        1.27994309E-18
   2.7750001        1.27753610E-18
   2.9175000        1.27428042E-18
   3.0599999        1.27077493E-18
   3.2025001        1.26767476E-18
   3.3450000        1.26557041E-18
   3.4875000        1.26487713E-18
   3.6300001        1.26575250E-18
   3.7725000        1.26806871E-18
   3.9150000        1.27144164E-18
   4.0574999        1.27531212E-18
   4.1999998        1.27906431E-18
   4.3425002        1.28215042E-18
   4.4850001        1.28419542E-18
   4.6275001        1.28505920E-18
   4.7700000        1.28484672E-18
   4.9124999        1.28386910E-18
   5.0549998        1.28256691E-18
   5.1975002        1.28141196E-18
   5.3400002        1.28081018E-18
   5.4825001        1.28102122E-18
   5.6250000        1.28210089E-18
   5.7674999        1.28389122E-18
   5.9099998        1.28604696E-18
   6.0524998        1.28810767E-18
   6.1950002        1.28959525E-18
   6.3375001        1.29012630E-18
   6.4800000        1.28950230E-18
   6.6224999        1.28776894E-18
   6.7649999        1.28521523E-18
   6.9074998        1.28232237E-18
   7.0500002        1.27966454E-18
   7.1925001        1.27779501E-18
   7.3350000        1.27713750E-18
   7.4775000        1.27790647E-18
   7.6199999        1.28007348E-18
   7.7624998        1.28337765E-18
   7.9050002        1.28737965E-18
   8.0474997        1.29154926E-18
   8.1899996        1.29536205E-18
   8.3325005        1.29839987E-18
   8.4750004        1.30042677E-18
   8.6175003        1.30143686E-18
   8.7600002        1.30165131E-18
   8.9025002        1.30147067E-18
   9.0450001        1.30138413E-18
   9.1875000        1.30185645E-18
   9.3299999        1.30321954E-18
   9.4724998        1.30558900E-18
   9.6149998        1.30883093E-18
   9.7574997        1.31258529E-18
   9.8999996        1.31633645E-18
   10.042500        1.31951510E-18
   10.185000        1.32161459E-18
   10.327500        1.32228833E-18
   10.470000        1.32142113E-18
   10.612500        1.31915311E-18
   10.755000        1.31586206E-18
   10.897500        1.31210160E-18
   11.040000        1.30850378E-18
   11.182500        1.30566448E-18
   11.325000        1.30403369E-18
   11.467500        1.30382834E-18
   11.610000        1.30499136E-18
   11.752500        1.30720820E-18
   11.895000        1.30997471E-18
   12.037500        1.31270761E-18
   12.180000        1.31486500E-18
   12.322500        1.31606028E-18
   12.465000        1.31613276E-18
   12.607500        1.31517850E-18
   12.750000        1.31352156E-18
   12.892500        1.31164727E-18
   13.035000        1.31010592E-18
   13.177500        1.30940478E-18
   13.320000        1.30991102E-18
   13.462500        1.31177455E-18
   13.605000        1.31489323E-18
   13.747500        1.31892315E-18
   13.890000        1.32334102E-18
   14.032500        1.32754485E-18
   14.175000        1.33097279E-18
   14.317500        1.33321931E-18
   14.460000        1.33411825E-18
   14.602500        1.33377001E-18
   14.745000        1.33251549E-18
   14.887500        1.33085606E-18
   15.030000        1.32934604E-18
   15.172500        1.32847822E-18
   15.315000        1.32859103E-18
   15.457500        1.32980761E-18
   15.600000        1.33201773E-18
   15.742500        1.33490624E-18
   15.885000        1.33801427E-18
   16.027500        1.34083103E-18
   16.170000        1.34289536E-18
   16.312500        1.34389377E-18
   16.455000        1.34373423E-18
   16.597500        1.34257514E-18
   16.740000        1.34080425E-18
   16.882500        1.33896222E-18
   17.025000        1.33763149E-18
   17.167500        1.33730951E-18
   17.309999        1.33830048E-18
   17.452499        1.34064895E-18
   17.594999        1.34413055E-18
   17.737499        1.34829427E-18
   17.879999        1.35255094E-18
   18.022499        1.35628555E-18
   18.165001        1.35896407E-18
   18.307501        1.36022738E-18
   18.450001        1.35995255E-18
   18.592501        1.35827327E-18
   18.735001        1.35555371E-18
   18.877501        1.35232646E-18
   19.020000        1.34919258E-18
   19.162500        1.34670866E-18
   19.305000        1.34527930E-18
   19.447500        1.34507995E-18
   19.590000        1.34602779E-18
   19.732500        1.34780768E-18
   19.875000        1.34994821E-18
   20.017500        1.35192962E-18
   20.160000        1.35329426E-18
   20.302500        1.35374073E-18
   20.445000        1.35317763E-18
   20.587500        1.35173399E-18
   20.730000        1.34972374E-18
   20.872499        1.34758093E-18
   21.014999        1.34577147E-18
   21.157499        1.34470337E-18
   21.299999        1.34464950E-18
   21.442499        1.34569351E-18
   21.584999        1.34771638E-18
   21.727501        1.35042084E-18
   21.870001        1.35339807E-18
   22.012501        1.35621969E-18
   22.155001        1.35853352E-18
   22.297501        1.36014342E-18
   22.440001        1.36105229E-18
   22.582500        1.36145481E-18
   22.725000        1.36168942E-18
   22.867500        1.36215657E-18
   23.010000        1.36322756E-18
   23.152500        1.36516141E-18
   23.295000        1.36804403E-18
   23.437500        1.37176645E-18
   23.580000        1.37603377E-18
   23.722500        1.38041410E-18
   23.865000        1.38441290E-18
   24.007500        1.38756136E-18
   24.150000        1.38950792E-18
   24.292500        1.39008953E-18
   24.434999        1.38936864E-18
   24.577499        1.38762308E-18
   24.719999        1.38528775E-18
   24.862499        1.38286556E-18
   25.004999        1.38081766E-18
   25.147499        1.37947008E-18
   25.290001        1.37895537E-18
   25.432501        1.37919267E-18
   25.575001        1.37992255E-18
   25.717501        1.38077269E-18
   25.860001        1.38134241E-18
   26.002501        1.38129371E-18
   26.145000        1.38042372E-18
   26.287500        1.37871735E-18
   26.430000        1.37636330E-18
   26.572500        1.37373390E-18
   26.715000        1.37132814E-18
   26.857500        1.36968061E-18
   27.000000        1.36925854E-18
   27.142500        1.37036231E-18
   27.285000        1.37305457E-18
   27.427500        1.37713557E-18
   27.570000        1.38217620E-18
   27.712500        1.38759951E-18
   27.855000        1.39279059E-18
   27.997499        1.39721135E-18
   28.139999        1.40049339E-18
   28.282499        1.40249248E-18
   28.424999        1.40329650E-18
   28.567499        1.40319093E-18
   28.709999        1.40259050E-18
   28.852501        1.40195130E-18
   28.995001        1.40168185E-18
   29.137501        1.40205687E-18
   29.280001        1.40316219E-18
   29.422501        1.40486959E-18
   29.565001        1.40685938E-18
   29.707500        1.40868538E-18
   29.850000        1.40987352E-18
   29.992500        1.41003223E-18
   30.135000        1.40895111E-18
   30.277500        1.40665972E-18
   30.420000        1.40343423E-18
   30.562500        1.39975038E-18
   30.705000        1.39619133E-18
   30.847500        1.39333725E-18
   30.990000        1.39165414E-18
   31.132500        1.39140888E-18
   31.275000        1.39262091E-18
   31.417500        1.39506285E-18
   31.559999        1.39829971E-18
   31.702499        1.40177201E-18
   31.844999        1.40489741E-18
   31.987499        1.40718591E-18
   32.130001        1.40833589E-18
   32.272499        1.40829888E-18
   32.415001        1.40729758E-18
   32.557499        1.40577980E-18
   32.700001        1.40432986E-18
   32.842499        1.40354404E-18
   32.985001        1.40390800E-18
   33.127499        1.40569429E-18
   33.270000        1.40890551E-18
   33.412498        1.41327499E-18
   33.555000        1.41831624E-18
   33.697498        1.42341343E-18
   33.840000        1.42793232E-18
   33.982498        1.43133431E-18
   34.125000        1.43327063E-18
   34.267502        1.43364193E-18
   34.410000        1.43261396E-18
   34.552502        1.43058333E-18
   34.695000        1.42809610E-18
   34.837502        1.42573502E-18
   34.980000        1.42399897E-18
   35.122501        1.42320209E-18
   35.264999        1.42341167E-18
   35.407501        1.42444699E-18
   35.549999        1.42592972E-18
   35.692501        1.42737790E-18
   35.834999        1.42831789E-18
   35.977501        1.42838954E-18
   36.119999        1.42742578E-18
   36.262501        1.42548893E-18
   36.404999        1.42286294E-18
   36.547501        1.42000783E-18
   36.689999        1.41747769E-18
   36.832500        1.41582322E-18
   36.974998        1.41548801E-18
   37.117500        1.41672051E-18
   37.259998        1.41951886E-18
   37.402500        1.42362250E-18
   37.544998        1.42855457E-18
   37.687500        1.43370997E-18
   37.830002        1.43847546E-18
   37.972500        1.44234232E-18
   38.115002        1.44500088E-18
   38.257500        1.44638145E-18
   38.400002        1.44664790E-18
   38.542500        1.44614322E-18
   38.685001        1.44530353E-18
   38.827499        1.44456516E-18
   38.970001        1.44427999E-18
   39.112499        1.44465212E-18
   39.255001        1.44570636E-18
   39.397499        1.44728907E-18
   39.540001        1.44910256E-18
   39.682499        1.45076726E-18
   39.825001        1.45190515E-18
   39.967499        1.45222703E-18
   40.110001        1.45160633E-18
   40.252499        1.45011999E-18
   40.395000        1.44804429E-18
   40.537498        1.44580263E-18
   40.680000        1.44388026E-18
   40.822498        1.44271941E-18
   40.965000        1.44262811E-18
   41.107498        1.44371958E-18
   41.250000        1.44589072E-18
   41.392502        1.44884748E-18
   41.535000        1.45216302E-18
   41.677502        1.45535718E-18
   41.820000        1.45798079E-18
   41.962502        1.45969430E-18
   42.105000        1.46032492E-18
   42.247501        1.45989892E-18
   42.389999        1.45863302E-18
   42.532501        1.45689439E-18
   42.674999        1.45512599E-18
   42.817501        1.45375607E-18
   42.959999        1.45310601E-18
   43.102501        1.45332335E-18
   43.244999        1.45435443E-18
   43.387501        1.45596030E-18
   43.529999        1.45777679E-18
   43.672501        1.45939765E-18
   43.814999        1.46046347E-18
   43.957500        1.46073717E-18
   44.099998        1.46015173E-18
   44.242500        1.45882193E-18
   44.384998        1.45702323E-18
   44.527500        1.45513777E-18
   44.669998        1.45358247E-18
   44.812500        1.45272685E-18
   44.955002        1.45281598E-18
   45.097500        1.45391706E-18
   45.240002        1.45589609E-18
   45.382500        1.45844226E-18
   45.525002        1.46113204E-18
   45.667500        1.46352073E-18
   45.810001        1.46523879E-18
   45.952499        1.46607455E-18
   46.095001        1.46602006E-18
   46.237499        1.46526929E-18
   46.380001        1.46417669E-18
   46.522499        1.46318397E-18
   46.665001        1.46273398E-18
   46.807499        1.46318841E-18
   46.950001        1.46475902E-18
   47.092499        1.46746618E-18
   47.235001        1.47113100E-18
   47.377499        1.47539718E-18
   47.520000        1.47979034E-18
   47.662498        1.48380134E-18
   47.805000        1.48698185E-18
   47.947498        1.48903181E-18
   48.090000        1.48985723E-18
   48.232498        1.48958219E-18
   48.375000        1.48851317E-18
   48.517502        1.48706157E-18
   48.660000        1.48564626E-18
   48.802502        1.48460339E-18
   48.945000        1.48411991E-18
   49.087502        1.48420790E-18
   49.230000        1.48471496E-18
   49.372501        1.48536874E-18
   49.514999        1.48583962E-18
   49.657501        1.48580849E-18
   49.799999        1.48503611E-18
   49.942501        1.48341908E-18
   50.084999        1.48102439E-18
   50.227501        1.47809493E-18
   50.369999        1.47502164E-18
   50.512501        1.47227820E-18
   50.654999        1.47033225E-18
   50.797501        1.46955098E-18
   50.939999        1.47012422E-18
   51.082500        1.47202218E-18
   51.224998        1.47500479E-18
   51.367500        1.47867582E-18
   51.509998        1.48256419E-18
   51.652500        1.48621712E-18
   51.794998        1.48927821E-18
   51.937500        1.49154199E-18
   52.080002        1.49297188E-18
   52.222500        1.49369204E-18
   52.365002        1.49394826E-18
   52.507500        1.49405321E-18
   52.650002        1.49431811E-18
   52.792500        1.49498389E-18
   52.935001        1.49616304E-18
   53.077499        1.49780478E-18
   53.220001        1.49969644E-18
   53.362499        1.50150683E-18
   53.505001        1.50285927E-18
   53.647499        1.50342206E-18
   53.790001        1.50299327E-18
   53.932499        1.50155522E-18
   54.075001        1.49928854E-18
   54.217499        1.49654116E-18
   54.360001        1.49376463E-18
   54.502499        1.49143001E-18
   54.645000        1.48994367E-18
   54.787498        1.48957609E-18
   54.930000        1.49041165E-18
   55.072498        1.49233402E-18
   55.215000        1.49504045E-18
   55.357498        1.49809657E-18
   55.500000        1.50101228E-18
   55.642502        1.50333955E-18
   55.785000        1.50476282E-18
   55.927502        1.50516741E-18
   56.070000        1.50466407E-18
   56.212502        1.50356444E-18
   56.355000        1.50230940E-18
   56.497501        1.50137210E-18
   56.639999        1.50115548E-18
   56.782501        1.50191091E-18
   56.924999        1.50369141E-18
   57.067501        1.50634315E-18
   57.209999        1.50953586E-18
   57.352501        1.51282307E-18
   57.494999        1.51572017E-18
   57.637501        1.51779164E-18
   57.779999        1.51873142E-18
   57.922501        1.51842857E-18
   58.064999        1.51699713E-18
   58.207500        1.51476312E-18
   58.349998        1.51220558E-18
   58.492500        1.50985991E-18
   58.634998        1.50820606E-18
   58.777500        1.50756862E-18
   58.919998        1.50805562E-18
   59.062500        1.50954630E-18
   59.205002        1.51173161E-18
   59.347500        1.51418978E-18
   59.490002        1.51647808E-18
   59.632500        1.51821950E-18
   59.775002        1.51916993E-18
   59.917500        1.51925647E-18
   60.060001        1.51858656E-18
   60.202499        1.51742861E-18
   60.345001        1.51616292E-18
   60.487499        1.51521311E-18
   60.630001        1.51495627E-18
   60.772499        1.51563880E-18
   60.915001        1.51730960E-18
   61.057499        1.51979590E-18
   61.200001        1.52272970E-18
   61.342499        1.52562380E-18
   61.485001        1.52797878E-18
   61.627499        1.52939347E-18
   61.770000        1.52965268E-18
   61.912498        1.52877008E-18
   62.055000        1.52698058E-18
   62.197498        1.52469281E-18
   62.340000        1.52240834E-18
   62.482498        1.52063435E-18
   62.625000        1.51979476E-18
   62.767502        1.52015613E-18
   62.910000        1.52177524E-18
   63.052502        1.52448084E-18
   63.195000        1.52789120E-18
   63.337502        1.53147548E-18
   63.480000        1.53465113E-18
   63.622501        1.53690023E-18
   63.764999        1.53787548E-18
   63.907501        1.53747936E-18
   64.050003        1.53588580E-18
   64.192497        1.53350466E-18
   64.334999        1.53089852E-18
   64.477501        1.52867144E-18
   64.620003        1.52735478E-18
   64.762497        1.52731652E-18
   64.904999        1.52869915E-18
   65.047501        1.53140114E-18
   65.190002        1.53509688E-18
   65.332497        1.53929306E-18
   65.474998        1.54341211E-18
   65.617500        1.54689320E-18
   65.760002        1.54929709E-18
   65.902496        1.55038927E-18
   66.044998        1.55018382E-18
   66.187500        1.54893457E-18
   66.330002        1.54707414E-18
   66.472504        1.54511517E-18
   66.614998        1.54353681E-18
   66.757500        1.54268616E-18
   66.900002        1.54271438E-18
   67.042503        1.54356038E-18
   67.184998        1.54497858E-18
   67.327499        1.54659758E-18
   67.470001        1.54799738E-18
   67.612503        1.54879313E-18
   67.754997        1.54871041E-18
   67.897499        1.54764169E-18
   68.040001        1.54567745E-18
   68.182503        1.54310037E-18
   68.324997        1.54033696E-18
   68.467499        1.53787445E-18
   68.610001        1.53615670E-18
   68.752502        1.53548431E-18
   68.894997        1.53594670E-18
   69.037498        1.53740419E-18
   69.180000        1.53952384E-18
   69.322502        1.54186156E-18
   69.464996        1.54395919E-18
   69.607498        1.54544139E-18
   69.750000        1.54608380E-18
   69.892502        1.54584692E-18
   70.035004        1.54487591E-18
   70.177498        1.54346857E-18
   70.320000        1.54202420E-18
   70.462502        1.54097224E-18
   70.605003        1.54069379E-18
   70.747498        1.54144249E-18
   70.889999        1.54328307E-18
   71.032501        1.54606178E-18
   71.175003        1.54942427E-18
   71.317497        1.55288260E-18
   71.459999        1.55591980E-18
   71.602501        1.55810025E-18
   71.745003        1.55916618E-18
   71.887497        1.55908739E-18
   72.029999        1.55805641E-18
   72.172501        1.55644227E-18
   72.315002        1.55470468E-18
   72.457497        1.55330767E-18
   72.599998        1.55263569E-18
   72.742500        1.55293492E-18
   72.885002        1.55427537E-18
   73.027496        1.55654267E-18
   73.169998        1.55945652E-18
   73.312500        1.56261821E-18
   73.455002        1.56558489E-18
   73.597504        1.56795797E-18
   73.739998        1.56946882E-18
   73.882500        1.57003843E-18
   74.025002        1.56979224E-18
   74.167503        1.56902545E-18
   74.309998        1.56812754E-18
   74.452499        1.56748358E-18
   74.595001        1.56738205E-18
   74.737503        1.56795280E-18
   74.879997        1.56914446E-18
   75.022499        1.57074309E-18
   75.165001        1.57241937E-18
   75.307503        1.57379735E-18
   75.449997        1.57452620E-18
   75.592499        1.57434794E-18
   75.735001        1.57315360E-18
   75.877502        1.57101751E-18
   76.019997        1.56819496E-18
   76.162498        1.56508693E-18
   76.305000        1.56216574E-18
   76.447502        1.55987859E-18
   76.589996        1.55855210E-18
   76.732498        1.55832039E-18
   76.875000        1.55909918E-18
   77.017502        1.56061095E-18
   77.160004        1.56245205E-18
   77.302498        1.56418458E-18
   77.445000        1.56542835E-18
   77.587502        1.56593127E-18
   77.730003        1.56561519E-18
   77.872498        1.56458628E-18
   78.014999        1.56311824E-18
   78.157501        1.56160688E-18
   78.300003        1.56050445E-18
   78.442497        1.56023717E-18
   78.584999        1.56111894E-18
   78.727501        1.56327871E-18
   78.870003        1.56662114E-18
   79.012497        1.57083439E-18
   79.154999        1.57545078E-18
   79.297501        1.57994144E-18
   79.440002        1.58382629E-18
   79.582497        1.58676847E-18
   79.724998        1.58862477E-18
   79.867500        1.58945567E-18
   80.010002        1.58948566E-18
   80.152496        1.58904156E-18
   80.294998        1.58848032E-18
   80.437500        1.58811895E-18
   80.580002        1.58818305E-18
   80.722504        1.58876291E-18
   80.864998        1.58979471E-18
   81.007500        1.59106661E-18
   81.150002        1.59225289E-18
   81.292503        1.59298080E-18
   81.434998        1.59291825E-18
   81.577499        1.59186091E-18
   81.720001        1.58979699E-18
   81.862503        1.58692553E-18
   82.004997        1.58362477E-18
   82.147499        1.58036858E-18
   82.290001        1.57762595E-18
   82.432503        1.57576376E-18
   82.574997        1.57497815E-18
   82.717499        1.57526611E-18
   82.860001        1.57643885E-18
   83.002502        1.57816362E-18
   83.144997        1.58002695E-18
   83.287498        1.58160480E-18
   83.430000        1.58253486E-18
   83.572502        1.58258304E-18
   83.714996        1.58169082E-18
   83.857498        1.57999655E-18
   84.000000        1.57781672E-18
   84.142502        1.57558209E-18
   84.285004        1.57374679E-18
   84.427498        1.57268159E-18
   84.570000        1.57258884E-18
   84.712502        1.57345717E-18
   84.855003        1.57506542E-18
   84.997498        1.57704021E-18
   85.139999        1.57894065E-18
   85.282501        1.58035555E-18
   85.425003        1.58098555E-18
   85.567497        1.58069893E-18
   85.709999        1.57955701E-18
   85.852501        1.57780721E-18
   85.995003        1.57584224E-18
   86.137497        1.57413246E-18
   86.279999        1.57313984E-18
   86.422501        1.57322246E-18
   86.565002        1.57455546E-18
   86.707497        1.57708198E-18
   86.849998        1.58051499E-18
   86.992500        1.58439333E-18
   87.135002        1.58817778E-18
   87.277496        1.59136129E-18
   87.419998        1.59357451E-18
   87.562500        1.59464768E-18
   87.705002        1.59463206E-18
   87.847504        1.59377335E-18
   87.989998        1.59245255E-18
   88.132500        1.59110662E-18
   88.275002        1.59014957E-18
   88.417503        1.58989439E-18
   88.559998        1.59049389E-18
   88.702499        1.59190857E-18
   88.845001        1.59390383E-18
   88.987503        1.59609224E-18
   89.129997        1.59801482E-18
   89.272499        1.59924556E-18
   89.415001        1.59949537E-18
   89.557503        1.59868990E-18
   89.699997        1.59699201E-18
   89.842499        1.59476762E-18
   89.985001        1.59250197E-18
   90.127502        1.59069169E-18
   90.269997        1.58974177E-18
   90.412498        1.58989046E-18
   90.555000        1.59117228E-18
   90.697502        1.59342138E-18
   90.839996        1.59630545E-18
   90.982498        1.59938515E-18
   91.125000        1.60218536E-18
   91.267502        1.60427885E-18
   91.410004        1.60536825E-18
   91.552498        1.60535274E-18
   91.695000        1.60436508E-18
   91.837502        1.60275705E-18
   91.980003        1.60103475E-18