 608.266602   -5.824573462E-11
 608.097534   -6.04327352E-11
 607.928528   -6.229216448E-11
 607.75946   -6.380359435E-11
 607.590393   -6.494663835E-11
 607.421326   -6.570317901E-11
 607.252258   -6.605945652E-11
 607.083191   -6.60076438E-11
 606.914185   -6.554656817E-11
 606.745117   -6.46816975E-11
 606.57605   -6.342415482E-11
 606.406982   -6.17889559E-11
 606.237915   -5.979275408E-11
 606.068848   -5.745152964E-11
 605.899841   -5.477895568E-11
 605.730774   -5.178608584E-11
 605.561707   -4.848259641E-11
 605.392639   -4.487930166E-11
 605.223572   -4.09909641E-11
 605.054565   -3.683840039E-11
 604.885498   -3.244891855E-11
 604.716431   -2.785491282E-11
 604.547363   -2.309113664E-11
 604.378296   -1.819165825E-11
 604.209229   -1.318761333E-11
 604.040222   -8.106422651E-12
 603.871155   -2.97254105E-12
 603.702087   2.190775556E-12
 603.53302   7.35940562E-12
 603.363953   1.25066936E-11
 603.194885   1.760248197E-11
 603.025879   2.261299481E-11
 602.856812   2.750147679E-11
 602.687744   3.22295593E-11
 602.518677   3.67591825E-11
 602.349609   4.105488866E-11
 602.180542   4.508590029E-11
 602.011536   4.882745597E-11
 601.842468   5.226084843E-11
 601.673401   5.537200906E-11
 601.504333   5.814915563E-11
 601.335266   6.058031854E-11
 601.166199   6.265191144E-11
 600.997192   6.434886651E-11
 600.828125   6.565638311E-11
 600.659058   6.656256796E-11
 600.48999   6.706078054E-11
 600.320923   6.715086126E-11
 600.151917   6.683880532E-11
 599.982849   6.613513903E-11
 599.813782   6.505279648E-11
 599.644714   6.36051975E-11
 599.475647   6.180514434E-11
 599.30658   5.966449557E-11
 599.137573   5.719455812E-11
 598.968506   5.440681239E-11
 598.799438   5.131391492E-11
 598.630371   4.793080169E-11
 598.461304   4.427585382E-11
 598.292236   4.037180659E-11
 598.12323   3.624599926E-11
 597.954163   3.192970888E-11
 597.785095   2.745641388E-11
 597.616028   2.285957361E-11
 597.44696   1.817053799E-11
 597.277893   1.34174824E-11
 597.108887   8.625601101E-12
 596.939819   3.818374002E-12
 596.770752   -9.808670803E-13
 596.601685   -5.747993661E-12
 596.432617   -1.045821329E-11
 596.26355   -1.508720926E-11
 596.094543   -1.961255984E-11
 595.925476   -2.401460281E-11
 595.756409   -2.827623552E-11
 595.587341   -3.238167373E-11
 595.418274   -3.631482615E-11
 595.249268   -4.005805757E-11
 595.0802   -4.359190439E-11
 594.911133   -4.689574076E-11
 594.742065   -4.994887143E-11
 594.572998   -5.273153789E-11
 594.403931   -5.522535554E-11
 594.234924   -5.741338654E-11
 594.065857   -5.928026819E-11
 593.89679   -6.081279924E-11
 593.727722   -6.200107094E-11
 593.558655   -6.283969872E-11
 593.389587   -6.332851604E-11
 593.220581   -6.347219278E-11
 593.051514   -6.327872254E-11
 592.882446   -6.27573965E-11
 592.713379   -6.191717278E-11
 592.544312   -6.076597558E-11
 592.375244   -5.931138913E-11
 592.206238   -5.756193092E-11
 592.03717   -5.552833887E-11
 591.868103   -5.322397731E-11
 591.699036   -5.066413261E-11
 591.529968   -4.78645977E-11
 591.360901   -4.484027039E-11
 591.191895   -4.160449762E-11
 591.022827   -3.816947453E-11
 590.85376   -3.454747599E-11
 590.684692   -3.075237287E-11
 590.515625   -2.680086535E-11
 590.346619   -2.271308142E-11
 590.177551   -1.851253525E-11
 590.008484   -1.422567619E-11
 589.839417   -9.881208698E-12
 589.670349   -5.509347752E-12
 589.501282   -1.140903886E-12
 589.332275   3.193815655E-12
 589.163208   7.466195197E-12
 588.994141   1.16503595E-11
 588.825073   1.572375737E-11
 588.656006   1.96671221E-11
 588.486938   2.34637882E-11
 588.317932   2.709866012E-11
 588.148865   3.05572026E-11
 587.979797   3.382484917E-11
 587.81073   3.68868755E-11
 587.641663   3.972872725E-11
 587.472595   4.233653705E-11
 587.303589   4.469764489E-11
 587.134521   4.680101098E-11
 586.965454   4.863741701E-11
 586.796387   5.019949387E-11
 586.627319   5.148162452E-11
 586.458252   5.247974971E-11
 586.289246   5.319112512E-11
 586.120178   5.361406111E-11
 585.951111   5.374782217E-11
 585.782043   5.359266503E-11
 585.612976   5.315007809E-11
 585.44397   5.242315956E-11
 585.274902   5.141697138E-11
 585.105835   5.013886181E-11
 584.936768   4.85986841E-11
 584.7677   4.68088554E-11
 584.598633   4.478420759E-11
 584.429626   4.254168198E-11
 584.260559   4.009969093E-11
 584.091492   3.747725741E-11
 583.922424   3.469299847E-11
 583.753357   3.17642336E-11
 583.58429   2.870657531E-11
 583.415283   2.553412863E-11
 583.246216   2.226019022E-11
 583.077148   1.889817122E-11
 582.908081   1.54623328E-11
 582.739014   1.196802293E-11
 582.569946   8.431412686E-12
 582.40094   4.869050042E-12
 582.231873   1.297651439E-12
 582.062805   -2.265601769E-12
 581.893738   -5.802357726E-12
 581.72467   -9.292436612E-12
 581.555603   -1.271383953E-11
 581.386597   -1.604374272E-11
 581.217529   -1.926037801E-11
 581.048462   -2.234516912E-11
 580.879395   -2.52842209E-11
 580.710327   -2.806839657E-11
 580.541321   -3.069183449E-11
 580.372253   -3.314946234E-11
 580.203186   -3.543446786E-11
 580.034119   -3.753669597E-11
 579.865051   -3.944263319E-11
 579.695984   -4.113674679E-11
 579.526978   -4.260365671E-11
 579.35791   -4.383019295E-11
 579.188843   -4.480674165E-11
 579.019775   -4.552765109E-11
 578.850708   -4.599094369E-11
 578.681641   -4.619774702E-11
 578.512634   -4.615169358E-11
 578.343567   -4.585828592E-11
 578.1745   -4.532418538E-11
 578.005432   -4.455630656E-11
 577.836365   -4.356101244E-11
 577.667297   -4.234376391E-11
 577.498291   -4.090971659E-11
 577.329224   -3.926527159E-11
 577.160156   -3.742008439E-11
 576.991089   -3.538859136E-11
 576.822021   -3.319009304E-11
 576.652954   -3.084712694E-11
 576.483948   -2.838250815E-11
 576.31488   -2.581615477E-11
 576.145813   -2.31630045E-11
 575.976746   -2.043286894E-11
 575.807678   -1.763219952E-11
 575.638611   -1.476692553E-11
 575.469604   -1.184518282E-11
 575.300537   -8.879006037E-12
 575.13147   -5.884674692E-12
 574.962402   -2.882008E-12
 574.793335   1.068243259E-13
 574.624329   3.05861933E-12
 574.455261   5.950462779E-12
 574.286194   8.761305917E-12
 574.117126   1.147379674E-11
 573.948059   1.407596435E-11
 573.778992   1.656190983E-11
 573.609985   1.893076321E-11
 573.440918   2.1183744E-11
 573.271851   2.332010626E-11
 573.102783   2.533345408E-11
 572.933716   2.721001029E-11
 572.764648   2.892970412E-11
 572.595642   3.046978989E-11
 572.426575   3.180957234E-11
 572.257507   3.293445378E-11
 572.08844   3.383790817E-11
 571.919373   3.452105962E-11
 571.750305   3.499050008E-11
 571.581299   3.52555693E-11
 571.412231   3.532603723E-11
 571.243164   3.521069547E-11
 571.074097   3.491669801E-11
 570.905029   3.444922819E-11
 570.735962   3.381142935E-11
 570.566956   3.300478987E-11
 570.397888   3.20304408E-11
 570.228821   3.089137279E-11
 570.059753   2.959505904E-11
 569.890686   2.815532182E-11
 569.72168   2.659244352E-11
 569.552612   2.493096701E-11
 569.383545   2.319580465E-11
 569.214478   2.140799864E-11
 569.04541   1.958180666E-11
 568.876343   1.77241815E-11
 568.707336   1.58366549E-11
 568.538269   1.391861799E-11
 568.369202   1.197062241E-11
 568.200134   9.996572146E-12
 568.031067   8.004517188E-12
 567.862   6.006344727E-12
 567.692993   4.017129077E-12
 567.523926   2.054484404E-12
 567.354858   1.379138909E-13
 567.185791   -1.712416558E-12
 567.016724   -3.477719631E-12
 566.847656   -5.143243036E-12
 566.67865   -6.7006279E-12
 566.509583   -8.148847049E-12
 566.340515   -9.492994932E-12
 566.171448   -1.074112674E-11
 566.00238   -1.190024468E-11
 565.833313   -1.297300722E-11
 565.664307   -1.395646879E-11
 565.495239   -1.484323948E-11
 565.326172   -1.562429526E-11
 565.157104   -1.629215339E-11
 564.988037   -1.684312585E-11
 564.819031   -1.727808521E-11
 564.649963   -1.760196329E-11
 564.480896   -1.782262532E-11
 564.311829   -1.794980831E-11
 564.142761   -1.799425539E-11
 563.973694   -1.796678605E-11
 563.804688   -1.787691002E-11
 563.63562   -1.773103019E-11
 563.466553   -1.75308882E-11
 563.297485   -1.727326268E-11
 563.128418   -1.695156342E-11
 562.959351   -1.655927478E-11
 562.790344   -1.609409307E-11
 562.621277   -1.556113398E-11
 562.452209   -1.497371845E-11
 562.283142   -1.435124849E-11
 562.114075   -1.371494845E-11
 561.945007   -1.308315001E-11
 561.776001   -1.246789564E-11
 561.606934   -1.187388469E-11
 561.437866   -1.129973285E-11
 561.268799   -1.074063928E-11
 561.099731   -1.019123067E-11
 560.930664   -9.647648999E-12
 560.761658   -9.108650466E-12
 560.59259   -8.575964591E-12
 560.423523   -8.054234363E-12
 560.254456   -7.550683169E-12
 560.085388   -7.07422879E-12
 559.916382   -6.633850587E-12
 559.747314   -6.236297503E-12
 559.578247   -5.883775238E-12
 559.40918   -5.572548499E-12
 559.240112   -5.293273632E-12
 559.071045   -5.033266772E-12
 558.902039   -4.780017094E-12
 558.732971   -4.524662329E-12
 558.563904   -4.264083878E-12
 558.394836   -4.000779742E-12
 558.225769   -3.740679207E-12
 558.056702   -3.489721533E-12
 557.887695   -3.250456111E-12
 557.718628   -3.019858452E-12
 557.549561   -2.788881756E-12
 557.380493   -2.543715889E-12
 557.211426   -2.268204938E-12
 557.042358   -1.946590025E-12
 556.873352   -1.565974238E-12
 556.704285   -1.117964228E-12
 556.535217   -5.99272151E-13
 556.36615   -1.121675588E-14
 556.197083   6.416694433E-13
 556.028015   1.353580659E-12
 555.859009   2.119505743E-12
 555.689941   2.936984423E-12
 555.520874   3.807099601E-12
 555.351807   4.734466725E-12
 555.182739   5.726195559E-12
 555.013733   6.790059834E-12
 554.844666   7.932336211E-12
 554.675598   9.155847087E-12
 554.506531   1.045873284E-11
 554.337463   1.183440845E-11
 554.168396   1.327271366E-11
 553.99939   1.476191565E-11
 553.830322   1.629088184E-11
 553.661255   1.785061161E-11
 553.492188   1.943457895E-11
 553.32312   2.103770456E-11
 553.154053   2.265443735E-11
 552.985046   2.427668309E-11
 552.815979   2.589251383E-11
 552.646912   2.748611061E-11
 552.477844   2.903881996E-11
 552.308777   3.053082787E-11
 552.139709   3.194272624E-11
 551.970703   3.325644621E-11
 551.801636   3.445546973E-11
 551.632568   3.55245347E-11
 551.463501   3.644934007E-11
 551.294434   3.721641398E-11
 551.125366   3.781332539E-11
 550.95636   3.82288784E-11
 550.787292   3.845321631E-11
 550.618225   3.847770713E-11
 550.449158   3.829483605E-11
 550.28009   3.789817765E-11
 550.111084   3.728262837E-11
 549.942017   3.644476387E-11
 549.772949   3.538299861E-11
 549.603882   3.409745403E-11
 549.434814   3.258947279E-11
 549.265747   3.086103595E-11
 549.096741   2.891455131E-11
 548.927673   2.675314484E-11
 548.758606   2.438137886E-11
 548.589539   2.180600665E-11
 548.420471   1.903628297E-11
 548.251404   1.608350259E-11
 548.082397   1.29598875E-11
 547.91333   9.677250321E-12
 547.744263   6.246101292E-12
 547.575195   2.675718805E-12
 547.406128   -1.024689231E-12
 547.237061   -4.844083901E-12
 547.068054   -8.767539646E-12
 546.898987   -1.277478123E-11
 546.729919   -1.683988886E-11
 546.560852   -2.093239818E-11
 546.391785   -2.501960791E-11
 546.222717   -2.906950028E-11
 546.053711   -3.305354601E-11
 545.884644   -3.694854839E-11
 545.715576   -4.073709425E-11
 545.546509   -4.440637788E-11
 545.377441   -4.794580358E-11
 545.208435   -5.134407829E-11
 545.039368   -5.458666852E-11
 544.8703   -5.765429106E-11
 544.701233   -6.052272572E-11
 544.532166   -6.316388385E-11
 544.363098   -6.554772697E-11
 544.194092   -6.764449417E-11
 544.025024   -6.942673519E-11
 543.855957   -7.087080228E-11
 543.68689   -7.19576343E-11
 543.517822   -7.267258323E-11
 543.348755   -7.300459542E-11
 543.179749   -7.294467114E-11
 543.010681   -7.248435185E-11
 542.841614   -7.161473498E-11
 542.672546   -7.032652238E-11
 542.503479   -6.861126944E-11
 542.334412   -6.646339729E-11
 542.165405   -6.388214263E-11
 541.996338   -6.087261945E-11
 541.827271   -5.744537485E-11
 541.658203   -5.361467867E-11
 541.489136   -4.939632384E-11
 541.320068   -4.48059298E-11
 541.151062   -3.985859212E-11
 540.981995   -3.45699025E-11
 540.812927   -2.895778756E-11
 540.64386   -2.30442488E-11
 540.474792   -1.685613628E-11
 540.305725   -1.042470971E-11
 540.136719   -3.784217731E-12
 539.967651   3.029723174E-12
 539.798584   9.981408061E-12
 539.629517   1.703560383E-11
 539.460449   2.415748677E-11
 539.291443   3.131215773E-11
 539.122375   3.846396812E-11
 538.953308   4.55758313E-11
 538.784241   5.260845232E-11
 538.615173   5.951977106E-11
 538.446106   6.626482696E-11
 538.2771   7.279640779E-11
 538.108032   7.906671845E-11
 537.938965   8.502973325E-11
 537.769897   9.064348577E-11
 537.60083   9.587158845E-11
 537.431763   1.006831354E-10
 537.262756   1.0505119E-10
 537.093689   1.089504112E-10
 536.924622   1.123549517E-10
 536.755554   1.152374654E-10
 536.586487   1.175697456E-10
 536.417419   1.19324356E-10
 536.248413   1.204766426E-10
 536.079346   1.210062051E-10
 535.910278   1.208971395E-10
 535.741211   1.201376082E-10
 535.572144   1.187188681E-10
 535.403076   1.166345492E-10
 535.23407   1.138806272E-10
 535.065002   1.104558112E-10
 534.895935   1.063624397E-10
 534.726868   1.016073475E-10
 534.5578   9.620255981E-11
 534.388794   9.016590252E-11
 534.219727   8.352132874E-11
 534.050659   7.629891857E-11
 533.881592   6.853428242E-11
 533.712524   6.026723565E-11
 533.543457   5.153984184E-11
 533.374451   4.239433457E-11
 533.205383   3.287158393E-11
 533.036316   2.301093691E-11
 532.867249   1.285152193E-11
 532.698181   2.434760943E-12
 532.529114   -8.192823156E-12
 532.360107   -1.897766666E-11
 532.19104   -2.985880293E-11
 532.021973   -4.076934623E-11
 531.852905   -5.163932823E-11
 531.683838   -6.239889161E-11
 531.514771   -7.298091992E-11
 531.345764   -8.332244616E-11
 531.176697   -9.336453138E-11
 531.007629   -1.030512134E-10
 530.838562   -1.123277305E-10
 530.669495   -1.211390294E-10
 530.500427   -1.294285651E-10
 530.331421   -1.371380093E-10
 530.162354   -1.44207743E-10
 529.993286   -1.505783831E-10
 529.824219   -1.561927393E-10
 529.655151   -1.609985339E-10
 529.486145   -1.649509834E-10
 529.317078   -1.680148382E-10
 529.14801   -1.701653402E-10
 528.978943   -1.713877235E-10
 528.809875   -1.716752296E-10
 528.640808   -1.710263597E-10
 528.471802   -1.694419466E-10
 528.302734   -1.669231559E-10
 528.133667   -1.634707369E-10
 527.9646   -1.590860499E-10
 527.795532   -1.537731331E-10
 527.626465   -1.475413403E-10
 527.457458   -1.404076716E-10
 527.288391   -1.323981202E-10
 527.119324   -1.23548019E-10
 526.950256   -1.139013189E-10
 526.781189   -1.035090416E-10
 526.612122   -9.242751009E-11
 526.443115   -8.071636415E-11
 526.274048   -6.843673545E-11
 526.10498   -5.564976605E-11
 525.935913   -4.241594229E-11
 525.766846   -2.879542958E-11
 525.597778   -1.484978807E-11
 525.428772   -6.447214724E-13
 525.259705   1.374700093E-11
 525.090637   2.824358282E-11
 524.92157   4.275429663E-11
 524.752502   5.718239077E-11
 524.583496   7.143027142E-11
 524.414429   8.54054813E-11
 524.245361   9.902577369E-11
 524.076294   1.122212323E-10
 523.907227   1.249327447E-10
 523.738159   1.371074781E-10
 523.569153   1.486927387E-10
 523.400085   1.596307531E-10
 523.231018   1.6985581E-10
 523.061951   1.792949955E-10
 522.892883   1.878717321E-10
 522.723816   1.955110518E-10
 522.55481   2.021450923E-10
 522.385742   2.077173988E-10
 522.216675   2.121853249E-10
 522.047607   2.155204348E-10
 521.87854   2.177072134E-10
 521.709473   2.187402898E-10
 521.540466   2.186208437E-10
 521.371399   2.173526359E-10
 521.202332   2.149387335E-10
 521.033264   2.113797054E-10
 520.864197   2.066746357E-10
 520.695129   2.008243988E-10
 520.526123   1.938368771E-10
 520.357056   1.8573236E-10
 520.187988   1.765468743E-10
 520.018921   1.663325588E-10
 519.849854   1.551541812E-10
 519.680847   1.430836144E-10
 519.51178   1.30193481E-10
 519.342712   1.165524899E-10
 519.173645   1.022234936E-10
 519.004578   8.726473016E-11
 518.83551   7.173313332E-11
 518.666504   5.568866202E-11
 518.497437   3.91981031E-11
 518.328369   2.233776185E-11
 518.159302   5.194431257E-12
 517.990234   -1.213524507E-11
 517.821167   -2.954700373E-11
 517.652161   -4.693286731E-11
 517.483093   -6.41859968E-11
 517.314026   -8.120552841E-11
 517.144958   -9.79006598E-11
 516.975891   -1.141917741E-10
 516.806824   -1.300087954E-10
 516.637817   -1.452865744E-10
 516.46875   -1.599593513E-10
 516.299683   -1.739558497E-10
 516.130615   -1.871977157E-10
 515.961548   -1.996010163E-10
 515.79248   -2.110809444E-10
 515.623474   -2.215579803E-10
 515.454407   -2.309628877E-10
 515.285339   -2.392400722E-10
 515.116272   -2.463480253E-10
 514.947205   -2.522575482E-10
 514.778198   -2.569488511E-10
 514.609131   -2.60408195E-10
 514.440063   -2.626248941E-10
 514.270996   -2.635885399E-10
 514.101929   -2.632874474E-10
 513.932861   -2.617079609E-10
 513.763855   -2.588356474E-10
 513.594788   -2.546584055E-10
 513.42572   -2.491711282E-10
 513.256653   -2.423810042E-10
 513.087585   -2.343112371E-10
 512.918518   -2.250025721E-10
 512.749512   -2.145113115E-10
 512.580444   -2.029047486E-10
 512.411377   -1.902552976E-10
 512.24231   -1.766349844E-10
 512.073242   -1.62112157E-10
 511.904205   -1.467505145E-10
 511.735138   -1.306103975E-10
 511.566101   -1.137515429E-10
 511.397034   -9.623603997E-11
 511.227966   -7.813125841E-11
 511.058929   -5.951187459E-11
 510.889862   -4.04612524E-11
 510.720795   -2.107150392E-11
 510.551758   -1.442220367E-12
 510.38269   1.832239568E-11
 510.213623   3.811785956E-11
 510.044586   5.784392756E-11
 509.875519   7.740813546E-11
 509.706451   9.672734141E-11
 509.537415   1.157264076E-10
 509.368347   1.34334488E-10
 509.19928   1.524800147E-10
 509.030243   1.700865837E-10
 508.861176   1.870706229E-10
 508.692108   2.033418572E-10
 508.523071   2.188062093E-10
 508.354004   2.3336999E-10
 508.184937   2.469443816E-10
 508.0159   2.594490456E-10
 507.846832   2.708143709E-10
 507.677765   2.809826816E-10
 507.508728   2.899074592E-10
 507.339661   2.975520108E-10
 507.170624   3.038863883E-10
 507.001556   3.088838352E-10
 506.832489   3.125167625E-10
 506.663452   3.147540562E-10
 506.494385   3.155604944E-10
 506.325317   3.148992733E-10
 506.156281   3.127369752E-10
 505.987213   3.090500633E-10
 505.818146   3.038303775E-10
 505.649109   2.970877988E-10
 505.480042   2.888493333E-10
 505.310974   2.791545883E-10
 505.141937   2.680498046E-10
 504.97287   2.555822776E-10
 504.803802   2.417968326E-10
 504.634766   2.267355054E-10
 504.465698   2.104395685E-10
 504.296631   1.929530147E-10
 504.127594   1.743260536E-10
 503.958527   1.546180683E-10
 503.789459   1.338992667E-10
 503.620422   1.122513332E-10
 503.451355   8.976736021E-11
 503.282288   6.655043183E-11
 503.113251   4.271114712E-11
 502.944183   1.836402731E-11
 502.775116   -6.376782349E-12
 502.606079   -3.140086802E-11
 502.437012   -5.66031666E-11
 502.267975   -8.188297262E-11
 502.098907   -1.071405326E-10
 501.92984   -1.322725957E-10
 501.760803   -1.571683478E-10
 501.591736   -1.817077738E-10
 501.422668   -2.057626153E-10
 501.253632   -2.291997286E-10
 501.084564   -2.518854292E-10
 500.915497   -2.736896543E-10
 500.74646   -2.944886834E-10
 500.577393   -3.141663596E-10
 500.408325   -3.326142695E-10
 500.239288   -3.497311607E-10
 500.070221   -3.654224145E-10
 499.901154   -3.79599352E-10
 499.732117   -3.921782066E-10
 499.563049   -4.030787926E-10
 499.393982   -4.122232833E-10
 499.224945   -4.195355452E-10
 499.055878   -4.249423313E-10
 498.88681   -4.283759181E-10
 498.717773   -4.297783518E-10
 498.548706   -4.291055289E-10
 498.379639   -4.263299158E-10
 498.210602   -4.214409099E-10
 498.041534   -4.144422305E-10
 497.872467   -4.053477831E-10
 497.70343   -3.941772186E-10
 497.534363   -3.809528804E-10
 497.365295   -3.656991376E-10
 497.196259   -3.484441069E-10
 497.027191   -3.292230655E-10
 496.858154   -3.080823652E-10
 496.689087   -2.850826242E-10
 496.52002   -2.603012805E-10
 496.350983   -2.338337024E-10
 496.181915   -2.057931603E-10
 496.012848   -1.763098556E-10
 495.843811   -1.455281728E-10
 495.674744   -1.136028008E-10
 495.505676   -8.069391683E-11
 495.336639   -4.696226741E-11
 495.167572   -1.256539837E-11
 494.998505   2.234323317E-11
 494.829468   5.761285546E-11
 494.6604   9.309113896E-11
 494.491333   1.286195594E-10
 494.322296   1.640295816E-10
 494.153229   1.991411758E-10
 493.984161   2.337642024E-10
 493.815125   2.677024158E-10
 493.646057   3.007579741E-10
 493.47699   3.327359777E-10
 493.307953   3.634477996E-10
 493.138885   3.927129455E-10
 492.969818   4.203601633E-10
 492.800781   4.462274994E-10
 492.631714   4.701615763E-10
 492.462646   4.920168162E-10
 492.29361   5.11654108E-10
 492.124542   5.289396143E-10
 491.955505   5.437445494E-10
 491.786438   5.559459559E-10
 491.617371   5.654295365E-10
 491.448334   5.720935392E-10
 491.279266   5.758528654E-10
 491.110199   5.76642567E-10
 490.941162   5.744197895E-10
 490.772095   5.6916305E-10
 490.603027   5.608710163E-10
 490.43399   5.49559287E-10
 490.264923   5.352583377E-10
 490.095856   5.180115226E-10
 489.926819   4.978746304E-10
 489.757751   4.749157734E-10
 489.588684   4.492165528E-10
 489.419647   4.208730586E-10
 489.25058   3.899975343E-10
 489.081512   3.567197093E-10
 488.912476   3.211879374E-10
 488.743408   2.835693624E-10
 488.574341   2.440491143E-10
 488.405304   2.028274354E-10
 488.236237   1.601166699E-10
 488.067169   1.161366905E-10
 487.898132   7.111184558E-11
 487.729065   2.526836032E-11
 487.559998   -2.116641411E-11
 487.390961   -6.796242735E-11
 487.221893   -1.148855247E-10
 487.052856   -1.616951156E-10
 486.883789   -2.081423783E-10
 486.714722   -2.539707888E-10
 486.545685   -2.989181402E-10
 486.376617   -3.427204076E-10
 486.20755   -3.851164943E-10
 486.038513   -4.258534358E-10
 485.869446   -4.646906471E-10
 485.700378   -5.014028637E-10
 485.531342   -5.357808641E-10
 485.362274   -5.676310533E-10
 485.193207   -5.967727978E-10
 485.02417   -6.230366778E-10
 484.855103   -6.462621549E-10
 484.686035   -6.662975172E-10
 484.516998   -6.830009891E-10
 484.347931   -6.96244562E-10
 484.178864   -7.059179352E-10
 484.009827   -7.119336787E-10
 483.840759   -7.142308411E-10
 483.671692   -7.127766155E-10
 483.502655   -7.075662833E-10
 483.333588   -6.986204948E-10
 483.16452   -6.859816049E-10
 482.995483   -6.697090105E-10
 482.826416   -6.498765415E-10
 482.657349   -6.26569685E-10
 482.488312   -5.998860297E-10
 482.319244   -5.699363204E-10
 482.150208   -5.368469558E-10
 481.98114   -5.007634307E-10
 481.812073   -4.61852917E-10
 481.643036   -4.203063175E-10
 481.473969   -3.763379608E-10
 481.304901   -3.301836304E-10
 481.135864   -2.820958189E-10
 480.966797   -2.32338454E-10
 480.797729   -1.811807648E-10
 480.628693   -1.288933127E-10
 480.459625   -7.574576383E-11
 480.290558   -2.200762142E-11
 480.121521   3.204973439E-11
 479.952454   8.615032993E-11
 479.783386   1.4001246E-10
 479.614349   1.933484345E-10
 479.445282   2.458669102E-10
 479.276215   2.972759539E-10
 479.107178   3.472874488E-10
 478.93811   3.956208972E-10
 478.769043   4.420075972E-10
 478.600006   4.861938074E-10
 478.430939   5.279441329E-10
 478.261871   5.670425796E-10
 478.092834   6.032934152E-10
 477.923767   6.365188376E-10
 477.7547   6.665564212E-10
 477.585663   6.93255453E-10
 477.416595   7.164752125E-10
 477.247528   7.360846377E-10
 477.078491   7.519657119E-10
 476.909424   7.640181265E-10
 476.740387   7.7216461E-10
 476.57132   7.763552023E-10
 476.402252   7.765693089E-10
 476.233215   7.728149232E-10
 476.064148   7.65125685E-10
 475.895081   7.535572166E-10
 475.726044   7.381833478E-10
 475.556976   7.19093618E-10
 475.387909   6.963917221E-10
 475.218872   6.701954547E-10
 475.049805   6.406378206E-10
 474.880737   6.078683668E-10
 474.7117   5.720551255E-10
 474.542633   5.33385669E-10
 474.373566   4.920674423E-10
 474.204529   4.483265148E-10
 474.035461   4.024042211E-10
 473.866394   3.545536087E-10
 473.697357   3.050347197E-10
 473.52829   2.541109545E-10
 473.359222   2.020469347E-10
 473.190186   1.491077678E-10
 473.021118   9.5559817E-11
 472.852051   4.167208245E-11
 472.683014   -1.228309208E-11
 472.513947   -6.602992458E-11
 472.344879   -1.192902443E-10
 472.175842   -1.717861825E-10
 472.006775   -2.232427854E-10
 471.837738   -2.733917259E-10
 471.668671   -3.219742806E-10
 471.499603   -3.68744868E-10
 471.330566   -4.134729226E-10
 471.161499   -4.559443656E-10
 470.992432   -4.959617161E-10
 470.823395   -5.333438691E-10
 470.654327   -5.679245962E-10
 470.48526   -5.995514085E-10
 470.316223   -6.280847509E-10
 470.147156   -6.533981689E-10
 469.978088   -6.753796966E-10
 469.809052   -6.939343544E-10
 469.639984   -7.089866472E-10
 469.470917   -7.204833397E-10
 469.30188   -7.283953996E-10
 469.132813   -7.327181639E-10
 468.963745   -7.33470118E-10
 468.794708   -7.306897309E-10
 468.625641   -7.244316258E-10
 468.456573   -7.147623049E-10
 468.287537   -7.017574855E-10
 468.118469   -6.855007673E-10
 467.949402   -6.660844099E-10
 467.780365   -6.436121081E-10
 467.611298   -6.182023227E-10
 467.44223   -5.899907785E-10
 467.273193   -5.591319074E-10
 467.104126   -5.257981273E-10
 466.935089   -4.901775652E-10
 466.766022   -4.524710051E-10
 466.596954   -4.128878628E-10
 466.427917   -3.716427721E-10
 466.25885   -3.289525596E-10
 466.089783   -2.850340797E-10
 465.920746   -2.401029375E-10
 465.751678   -1.943735728E-10
 465.582611   -1.480600503E-10
 465.413574   -1.013778922E-10
 465.244507   -5.454541679E-11
 465.075439   -7.784267154E-12
 464.906403   3.868153714E-11
 464.737335   8.462896356E-11
 464.568268   1.298396529E-10
 464.399231   1.741045502E-10
 464.230164   2.172268615E-10
 464.061096   2.590231363E-10
 463.892059   2.993227333E-10
 463.722992   3.379656E-10
 463.553925   3.748003852E-10
 463.384888   4.096826489E-10
 463.21582   4.424742794E-10
 463.046753   4.730444925E-10
 462.877716   5.012709137E-10
 462.708649   5.27041466E-10
 462.539581   5.50256618E-10
 462.370544   5.708315487E-10
 462.201477   5.886982013E-10
 462.03241   6.038067824E-10
 461.863373   6.161265942E-10
 461.694305   6.256444252E-10
 461.525269   6.323624957E-10
 461.356201   6.362945726E-10
 461.187134   6.374629713E-10
 461.018097   6.358961691E-10
 460.84903   6.316283607E-10
 460.679962   6.247006246E-10
 460.510925   6.151632537E-10
 460.341858   6.030778654E-10
 460.172791   5.885189558E-10
 460.003754   5.71574621E-10
 459.834686   5.523452806E-10
 459.665619   5.309427897E-10
 459.496582   5.074883846E-10
 459.327515   4.821109068E-10
 459.158447   4.549446375E-10
 458.98941   4.261284381E-10
 458.820343   3.958037231E-10
 458.651276   3.64114322E-10
 458.482239   3.312062014E-10
 458.313171   2.972281588E-10
 458.144104   2.623329054E-10
 457.975067   2.266774962E-10
 457.806   1.904232605E-10
 457.636932   1.53734539E-10
 457.467896   1.167763525E-10
 457.298828   7.971164701E-11
 457.129761   4.26989763E-11
 456.960724   5.890535889E-12
 456.791656   -3.056829442E-11
 456.62262   -6.653843448E-11
 456.453552   -1.0188618E-10
 456.284485   -1.364815344E-10
 456.115448   -1.701974117E-10
 455.946381   -2.029088425E-10
 455.777313   -2.344934524E-10
 455.608276   -2.648317676E-10
 455.439209   -2.938085608E-10
 455.270142   -3.213142807E-10
 455.101105   -3.472465371E-10
 454.932037   -3.715115715E-10
 454.76297   -3.940253956E-10
 454.593933   -4.14714707E-10
 454.424866   -4.33516778E-10
 454.255798   -4.503787898E-10
 454.086761   -4.652561669E-10
 453.917694   -4.781109952E-10
 453.748627   -4.889102456E-10
 453.57959   -4.976253853E-10
 453.410522   -5.042328777E-10
 453.241455   -5.087156807E-10
 453.072418   -5.110659673E-10
 452.903351   -5.112870682E-10
 452.734283   -5.093951372E-10
 452.565247   -5.05419484E-10
 452.396179   -4.99401076E-10
 452.227112   -4.913905394E-10
 452.058075   -4.814451615E-10
 451.889008   -4.696264488E-10
 451.719971   -4.559983224E-10
 451.550903   -4.406265075E-10
 451.381836   -4.235794493E-10
 451.212799   -4.049299784E-10
 451.043732   -3.847578089E-10
 450.874664   -3.631520362E-10
 450.705627   -3.402124971E-10
 450.53656   -3.160501305E-10
 450.367493   -2.90785479E-10
 450.198456   -2.645455799E-10
 450.029388   -2.374601904E-10
 449.860321   -2.09658152E-10
 449.691284   -1.812647116E-10
 449.522217   -1.524005921E-10
 449.353149   -1.231823532E-10
 449.184113   -9.372450732E-11
 449.015045   -6.41416642E-11
 448.845978   -3.455071992E-11
 448.676941   -5.072261621E-12
 448.507874   2.416909901E-11
 448.338806   5.304588713E-11
 448.169769   8.142979346E-11
 448.000702   1.091949031E-10
 447.831635   1.362211594E-10
 447.662598   1.623978452E-10
 447.49353   1.876256372E-10
 447.324463   2.118168835E-10
 447.155426   2.348941042E-10
 446.986359   2.567870638E-10
 446.817322   2.77429052E-10
 446.648254   2.967543433E-10
 446.479187   3.146971017E-10
 446.31015   3.311925456E-10
 446.141083   3.46179696E-10
 445.972015   3.596043741E-10
 445.802979   3.714225871E-10
 445.633911   3.816020833E-10
 445.464844   3.901229062E-10
 445.295807   3.96976424E-10
 445.12674   4.021633859E-10
 444.957672   4.056912861E-10
 444.788635   4.075717264E-10
 444.619568   4.078177795E-10
 444.4505   4.064426296E-10
 444.281464   4.034592105E-10
 444.112396   3.988815667E-10
 443.943329   3.927278502E-10
 443.774292   3.850238739E-10
 443.605225   3.758065525E-10
 443.436157   3.651256242E-10
 443.26712   3.530440662E-10
 443.098053   3.396360138E-10
 442.928986   3.249838454E-10
 442.759949   3.091746026E-10
 442.590881   2.922969089E-10
 442.421814   2.744390548E-10
 442.252777   2.55687721E-10
 442.08371   2.361281171E-10
 441.914642   2.15844384E-10
 441.745605   1.94921343E-10
 441.576538   1.734463406E-10
 441.407501   1.51511248E-10
 441.238434   1.292139173E-10
 441.069366   1.066585223E-10
 440.90033   8.39540798E-11