   494.670013         1.00002513E-10
   494.505005         1.03657173E-10
   494.339996         1.06022177E-10
   494.174988         1.07067806E-10
   494.010010         1.06785934E-10
   493.845001         1.05188629E-10
   493.679993         1.02305331E-10
   493.515015         9.81800960E-11
   493.350006         9.28700172E-11
   493.184998         8.64456631E-11
   493.019989         7.89930066E-11
   492.855011         7.06153330E-11
   492.690002         6.14335874E-11
   492.524994         5.15841397E-11
   492.359985         4.12142612E-11
   492.195007         3.04764027E-11
   492.029999         1.95228538E-11
   491.864990         8.50185027E-12
   491.700012        -2.44454912E-12
   491.535004        -1.31814542E-11
   491.369995        -2.35817997E-11
   491.204987        -3.35271845E-11
   491.040009        -4.29088015E-11
   490.875000        -5.16278582E-11
   490.709991        -5.95951968E-11
   490.545013        -6.67302880E-11
   490.380005        -7.29602975E-11
   490.214996        -7.82203885E-11
   490.049988        -8.24556950E-11
   489.885010        -8.56250904E-11
   489.720001        -8.77053985E-11
   489.554993        -8.86949056E-11
   489.390015        -8.86145740E-11
   489.225006        -8.75069045E-11
   489.059998        -8.54328344E-11
   488.894989        -8.24678728E-11
   488.730011        -7.86984783E-11
   488.565002        -7.42193459E-11
   488.399994        -6.91315130E-11
   488.234985        -6.35408323E-11
   488.070007        -5.75565255E-11
   487.904999        -5.12896774E-11
   487.739990        -4.48519971E-11
   487.575012        -3.83552287E-11
   487.410004        -3.19110814E-11
   487.244995        -2.56311725E-11
   487.079987        -1.96261271E-11
   486.915009        -1.40032170E-11
   486.750000        -8.86239693E-12
   486.584991        -4.29137541E-12
   486.420013        -3.60891059E-13
   486.255005         2.87851145E-12
   486.089996         5.39735184E-12
   485.924988         7.18567653E-12
   485.760010         8.24982617E-12
   485.595001         8.60859214E-12
   485.429993         8.28978639E-12
   485.265015         7.32790651E-12
   485.100006         5.76321543E-12
   484.934998         3.64216166E-12
   484.769989         1.01877751E-12
   484.605011        -2.04324968E-12
   484.440002        -5.46833672E-12
   484.274994        -9.16716789E-12
   484.109985        -1.30359655E-11
   483.945007        -1.69576436E-11
   483.779999        -2.08052603E-11
   483.614990        -2.44475204E-11
   483.450012        -2.77555236E-11
   483.285004        -3.06093866E-11
   483.119995        -3.29032843E-11
   482.954987        -3.45477813E-11
   482.790009        -3.54692421E-11
   482.625000        -3.56070208E-11
   482.459991        -3.49099569E-11
   482.295013        -3.33338426E-11
   482.130005        -3.08409999E-11
   481.964996        -2.74023373E-11
   481.799988        -2.30012016E-11
   481.635010        -1.76377610E-11
   481.470001        -1.13324428E-11
   481.304993        -4.12730830E-12
   481.140015         3.91483981E-12
   480.975006         1.27131786E-11
   480.809998         2.21724115E-11
   480.644989         3.21862051E-11
   480.480011         4.26399471E-11
   480.315002         5.34124169E-11
   480.149994         6.43767747E-11
   479.984985         7.54010951E-11
   479.820007         8.63488864E-11
   479.654999         9.70796707E-11
   479.489990         1.07449646E-10
   479.325012         1.17312549E-10
   479.160004         1.26520919E-10
   478.994995         1.34927916E-10
   478.829987         1.42390058E-10
   478.665009         1.48770690E-10
   478.500000         1.53943899E-10
   478.334991         1.57798399E-10
   478.170013         1.60240599E-10
   478.005005         1.61196501E-10
   477.839996         1.60612093E-10
   477.674988         1.58452959E-10
   477.510010         1.54703222E-10
   477.345001         1.49364576E-10
   477.179993         1.42455867E-10
   477.015015         1.34013203E-10
   476.850006         1.24090446E-10
   476.684998         1.12759621E-10
   476.519989         1.00110704E-10
   476.355011         8.62507635E-11
   476.190002         7.13022211E-11
   476.024994         5.54006112E-11
   475.859985         3.86923688E-11
   475.695007         2.13327949E-11
   475.529999         3.48465094E-12
   475.364990        -1.46828157E-11
   475.200012        -3.29947666E-11
   475.035004        -5.12721324E-11
   474.869995        -6.93338789E-11
   474.704987        -8.70001640E-11
   474.540009        -1.04096197E-10
   474.375000        -1.20456048E-10
   474.209991        -1.35925632E-10
   474.045013        -1.50364318E-10
   473.880005        -1.63645181E-10
   473.714996        -1.75653880E-10
   473.549988        -1.86287541E-10
   473.385010        -1.95453792E-10
   473.220001        -2.03070893E-10
   473.054993        -2.09069193E-10
   472.890015        -2.13393733E-10
   472.725006        -2.16007434E-10
   472.559998        -2.16894280E-10
   472.394989        -2.16061544E-10
   472.230011        -2.13540519E-10
   472.065002        -2.09385329E-10
   471.899994        -2.03669720E-10
   471.734985        -1.96482552E-10
   471.570007        -1.87922719E-10
   471.404999        -1.78095011E-10
   471.239990        -1.67107772E-10
   471.075012        -1.55072774E-10
   470.910004        -1.42106979E-10
   470.744995        -1.28334898E-10
   470.579987        -1.13890342E-10
   470.415009        -9.89162155E-11
   470.250000        -8.35619213E-11
   470.084991        -6.79788933E-11
   469.920013        -5.23153951E-11
   469.755005        -3.67118384E-11
   469.589996        -2.12974586E-11
   469.424988        -6.18872922E-12
   469.260010         8.51081618E-12
   469.095001         2.27098236E-11
   468.929993         3.63280100E-11
   468.765015         4.92950056E-11
   468.600006         6.15491477E-11
   468.434998         7.30362645E-11
   468.269989         8.37089772E-11
   468.105011         9.35267627E-11
   467.940002         1.02457320E-10
   467.774994         1.10478862E-10
   467.609985         1.17582902E-10
   467.445007         1.23776170E-10
   467.279999         1.29080913E-10
   467.114990         1.33532893E-10
   466.950012         1.37177603E-10
   466.785004         1.40065681E-10
   466.619995         1.42249199E-10
   466.454987         1.43779613E-10
   466.290009         1.44707607E-10
   466.125000         1.45084195E-10
   465.959991         1.44961973E-10
   465.795013         1.44395537E-10
   465.630005         1.43440315E-10
   465.464996         1.42150680E-10
   465.299988         1.40577480E-10
   465.135010         1.38766193E-10
   464.970001         1.36756023E-10
   464.804993         1.34579584E-10
   464.640015         1.32262923E-10
   464.475006         1.29825428E-10
   464.309998         1.27279381E-10
   464.144989         1.24629501E-10
   463.980011         1.21872970E-10
   463.815002         1.18999741E-10
   463.649994         1.15993583E-10
   463.484985         1.12832958E-10
   463.320007         1.09491527E-10
   463.154999         1.05938175E-10
   462.989990         1.02136938E-10
   462.825012         9.80474452E-11
   462.660004         9.36264677E-11
   462.494995         8.88304499E-11
   462.329987         8.36185149E-11
   462.165009         7.79548370E-11
   462.000000         7.18093154E-11
   461.834991         6.51564636E-11
   461.670013         5.79729598E-11
   461.505005         5.02355171E-11
   461.339996         4.19203422E-11
   461.174988         3.30052999E-11
   461.010010         2.34743058E-11
   460.845001         1.33228697E-11
   460.679993         2.56298390E-12
   460.515015        -8.77449675E-12
   460.350006        -2.06404373E-11
   460.184998        -3.29710426E-11
   460.019989        -4.56927308E-11
   459.855011        -5.87272522E-11
   459.690002        -7.19951182E-11
   459.524994        -8.54174648E-11
   459.359985        -9.89157228E-11
   459.195007        -1.12410178E-10
   459.029999        -1.25818245E-10
   458.864990        -1.39052644E-10
   458.700012        -1.52020396E-10
   458.535004        -1.64622149E-10
   458.369995        -1.76752418E-10
   458.204987        -1.88300667E-10
   458.040009        -1.99153360E-10
   457.875000        -2.09196632E-10
   457.709991        -2.18319862E-10
   457.545013        -2.26418884E-10
   457.380005        -2.33398828E-10
   457.214996        -2.39175707E-10
   457.049988        -2.43676468E-10
   456.885010        -2.46837717E-10
   456.720001        -2.48603638E-10
   456.554993        -2.48924131E-10
   456.390015        -2.47753762E-10
   456.225006        -2.45052506E-10
   456.059998        -2.40788139E-10
   455.894989        -2.34940234E-10
   455.730011        -2.27504154E-10
   455.565002        -2.18494584E-10
   455.399994        -2.07946951E-10
   455.234985        -1.95916741E-10
   455.070007        -1.82476742E-10
   454.904999        -1.67713080E-10
   454.739990        -1.51721122E-10
   454.575012        -1.34602593E-10
   454.410004        -1.16463811E-10
   454.244995        -9.74155479E-11
   454.079987        -7.75732464E-11
   453.915009        -5.70574143E-11
   453.750000        -3.59936872E-11
   453.584991        -1.45123271E-11
   453.420013         7.25203057E-12
   453.255005         2.91607016E-11
   453.089996         5.10713381E-11
   452.924988         7.28384922E-11
   452.760010         9.43152431E-11
   452.595001         1.15356037E-10
   452.429993         1.35820952E-10
   452.265015         1.55579563E-10
   452.100006         1.74514098E-10
   451.934998         1.92520569E-10
   451.769989         2.09507356E-10
   451.605011         2.25392413E-10
   451.440002         2.40099551E-10
   451.274994         2.53555871E-10
   451.109985         2.65691025E-10
   450.945007         2.76438428E-10
   450.779999         2.85737933E-10
   450.614990         2.93539193E-10
   450.450012         2.99804293E-10
   450.285004         3.04509612E-10
   450.119995         3.07646242E-10
   449.954987         3.09219039E-10
   449.790009         3.09244852E-10
   449.625000         3.07749631E-10
   449.459991         3.04765185E-10
   449.295013         3.00325848E-10
   449.130005         2.94465868E-10
   448.964996         2.87218610E-10
   448.799988         2.78617657E-10
   448.635010         2.68700645E-10
   448.470001         2.57513955E-10
   448.304993         2.45117260E-10
   448.140015         2.31586125E-10
   447.975006         2.17011242E-10
   447.809998         2.01493808E-10
   447.644989         1.85138807E-10
   447.480011         1.68047395E-10
   447.315002         1.50311166E-10
   447.149994         1.32009459E-10
   446.984985         1.13210351E-10
   446.820007         9.39745573E-11
   446.654999         7.43605594E-11
   446.489990         5.44291626E-11
   446.325012         3.42463870E-11
   446.160004         1.38841109E-11
   445.994995        -6.58108117E-12
   445.829987        -2.70699990E-11
   445.665009        -4.75031542E-11
   445.500000        -6.78028675E-11
   445.334991        -8.78951217E-11
   445.170013        -1.07710903E-10
   445.005005        -1.27187053E-10
   444.839996        -1.46266457E-10
   444.674988        -1.64896680E-10
   444.510010        -1.83027787E-10
   444.345001        -2.00608849E-10
   444.179993        -2.17584839E-10
   444.015015        -2.33894487E-10
   443.850006        -2.49470000E-10
   443.684998        -2.64238936E-10
   443.519989        -2.78127354E-10
   443.355011        -2.91063257E-10
   443.190002        -3.02979197E-10
   443.024994        -3.13813336E-10
   442.859985        -3.23509358E-10
   442.695007        -3.32015748E-10
   442.529999        -3.39285350E-10
   442.364990        -3.45275114E-10
   442.200012        -3.49946239E-10
   442.035004        -3.53263696E-10
   441.869995        -3.55194818E-10
   441.704987        -3.55707547E-10
   441.540009        -3.54768381E-10
   441.375000        -3.52341600E-10
   441.209991        -3.48391010E-10
   441.045013        -3.42883388E-10
   440.880005        -3.35793698E-10
   440.714996        -3.27109673E-10
   440.549988        -3.16834697E-10
   440.385010        -3.04988312E-10
   440.220001        -2.91603658E-10
   440.054993        -2.76723616E-10
   439.890015        -2.60396288E-10
   439.725006        -2.42671550E-10
   439.559998        -2.23599195E-10
   439.394989        -2.03228503E-10
   439.230011        -1.81609963E-10
   439.065002        -1.58798044E-10
   438.899994        -1.34855113E-10
   438.734985        -1.09855632E-10
   438.570007        -8.38898950E-11
   438.404999        -5.70656335E-11
   438.239990        -2.95074486E-11
   438.075012        -1.35271037E-12
   437.910004         2.72546031E-11
   437.744995         5.61713939E-11
   437.579987         8.52611939E-11
   437.415009         1.14396805E-10
   437.250000         1.43458967E-10
   437.084991         1.72331330E-10
   436.920013         2.00893774E-10
   436.755005         2.29016070E-10
   436.589996         2.56554195E-10
   436.424988         2.83350343E-10
   436.260010         3.09236831E-10
   436.095001         3.34042127E-10
   435.929993         3.57598284E-10
   435.765015         3.79747511E-10
   435.600006         4.00347006E-10
   435.434998         4.19270729E-10
   435.269989         4.36408770E-10
   435.105011         4.51664317E-10
   434.940002         4.64948968E-10
   434.774994         4.76178208E-10
   434.609985         4.85267826E-10
   434.445007         4.92132723E-10
   434.279999         4.96688413E-10
   434.114990         4.98855068E-10
   433.950012         4.98563579E-10
   433.785004         4.95760932E-10
   433.619995         4.90414764E-10
   433.454987         4.82514695E-10
   433.290009         4.72071882E-10
   433.125000         4.59115274E-10
   432.959991         4.43687476E-10
   432.795013         4.25840335E-10
   432.630005         4.05631806E-10
   432.464996         3.83124948E-10
   432.299988         3.58388375E-10
   432.135010         3.31499161E-10
   431.970001         3.02546516E-10
   431.804993         2.71635936E-10
   431.640015         2.38892600E-10
   431.475006         2.04462974E-10
   431.309998         1.68514161E-10
   431.144989         1.31230554E-10
   430.980011         9.28087052E-11
   430.815002         5.34511324E-11
   430.649994         1.33613251E-11
   430.484985        -2.72593684E-11
   430.320007        -6.82121304E-11
   430.154999        -1.09298272E-10
   429.989990        -1.50315954E-10
   429.825012        -1.91056435E-10
   429.660004        -2.31302130E-10
   429.494995        -2.70827194E-10
   429.329987        -3.09400200E-10
   429.165009        -3.46788237E-10
   429.000000        -3.82762072E-10
   428.834991        -4.17100188E-10
   428.670013        -4.49592336E-10
   428.505005        -4.80041784E-10
   428.339996        -5.08266262E-10
   428.174988        -5.34098543E-10
   428.010010        -5.57385804E-10
   427.845001        -5.77988324E-10
   427.679993        -5.95777760E-10
   427.515015        -6.10635098E-10
   427.350006        -6.22449259E-10
   427.184998        -6.31117214E-10
   427.019989        -6.36546371E-10
   426.855011        -6.38658182E-10
   426.690002        -6.37393471E-10
   426.524994        -6.32716379E-10
   426.359985        -6.24617913E-10
   426.195007        -6.13116224E-10
   426.029999        -5.98254890E-10
   425.864990        -5.80100024E-10
   425.700012        -5.58737112E-10
   425.535004        -5.34268463E-10
   425.369995        -5.06811870E-10
   425.204987        -4.76500728E-10
   425.040009        -4.43483972E-10
   424.875000        -4.07925638E-10
   424.709991        -3.70004416E-10
   424.545013        -3.29912764E-10
   424.380005        -2.87856100E-10
   424.214996        -2.44053000E-10
   424.049988        -1.98735930E-10
   423.885010        -1.52152221E-10
   423.720001        -1.04563871E-10
   423.554993        -5.62457442E-11
   423.390015        -7.48155791E-12
   423.225006         4.14415446E-11
   423.059998         9.02393368E-11
   422.894989         1.38635353E-10
   422.730011         1.86364271E-10
   422.565002         2.33172148E-10
   422.399994         2.78814638E-10
   422.234985         3.23054167E-10
   422.070007         3.65656672E-10
   421.904999         4.06389977E-10
   421.739990         4.45024240E-10
   421.575012         4.81334472E-10
   421.410004         5.15104681E-10
   421.244995         5.46133694E-10
   421.079987         5.74240488E-10
   420.915009         5.99269412E-10
   420.750000         6.21093288E-10
   420.584991         6.39614584E-10
   420.420013         6.54764409E-10
   420.255005         6.66498190E-10
   420.089996         6.74790945E-10
   419.924988         6.79631573E-10
   419.760010         6.81018353E-10
   419.595001         6.78957279E-10
   419.429993         6.73463452E-10
   419.265015         6.64565958E-10
   419.100006         6.52313759E-10
   418.934998         6.36781905E-10
   418.769989         6.18074980E-10
   418.605011         5.96326932E-10
   418.440002         5.71696634E-10
   418.274994         5.44360612E-10
   418.109985         5.14505105E-10
   417.945007         4.82318852E-10
   417.779999         4.47989701E-10
   417.614990         4.11704060E-10
   417.450012         3.73649334E-10
   417.285004         3.34017730E-10
   417.119995         2.93009839E-10
   416.954987         2.50837212E-10
   416.790009         2.07722631E-10
   416.625000         1.63899103E-10
   416.459991         1.19607560E-10
   416.295013         7.50931609E-11
   416.130005         3.06008899E-11
   415.964996        -1.36300892E-11
   415.799988        -5.73718816E-11
   415.635010        -1.00412768E-10
   415.470001        -1.42559409E-10
   415.304993        -1.83636495E-10
   415.140015        -2.23482302E-10
   414.975006        -2.61942357E-10
   414.809998        -2.98863378E-10
   414.644989        -3.34089367E-10
   414.480011        -3.67462588E-10
   414.315002        -3.98828970E-10
   414.149994        -4.28045849E-10
   413.984985        -4.54989907E-10
   413.820007        -4.79562501E-10
   413.654999        -5.01689745E-10
   413.489990        -5.21319321E-10
   413.325012        -5.38414036E-10
   413.160004        -5.52946300E-10
   412.994995        -5.64894298E-10
   412.829987        -5.74241266E-10
   412.665009        -5.80977488E-10
   412.500000        -5.85102577E-10
   412.334991        -5.86627968E-10
   412.170013        -5.85577975E-10
   412.005005        -5.81990289E-10
   411.839996        -5.75915426E-10
   411.674988        -5.67417002E-10
   411.510010        -5.56571345E-10
   411.345001        -5.43466605E-10
   411.179993        -5.28200206E-10
   411.015015        -5.10875398E-10
   410.850006        -4.91596541E-10
   410.684998        -4.70466222E-10
   410.519989        -4.47583942E-10
   410.355011        -4.23048208E-10
   410.190002        -3.96960020E-10
   410.024994        -3.69427128E-10
   409.859985        -3.40566741E-10
   409.695007        -3.10506010E-10
   409.529999        -2.79379991E-10
   409.364990        -2.47328935E-10
   409.200012        -2.14495366E-10
   409.035004        -1.81022489E-10
   408.869995        -1.47053300E-10
   408.704987        -1.12729812E-10
   408.540009        -7.81919113E-11
   408.375000        -4.35755633E-11
   408.209991        -9.01120498E-12
   408.045013         2.53767476E-11
   407.880005         5.94676183E-11
   407.714996         9.31409602E-11
   407.549988         1.26272284E-10
   407.385010         1.58730251E-10
   407.220001         1.90376923E-10
   407.054993         2.21071120E-10
   406.890015         2.50674009E-10
   406.725006         2.79054557E-10
   406.559998         3.06093206E-10
   406.394989         3.31682848E-10
   406.230011         3.55727225E-10
   406.065002         3.78138798E-10
   405.899994         3.98836575E-10
   405.734985         4.17745089E-10
   405.570007         4.34794256E-10
   405.404999         4.49919130E-10
   405.239990         4.63059480E-10
   405.075012         4.74159212E-10
   404.910004         4.83166562E-10
   404.744995         4.90036178E-10
   404.579987         4.94732699E-10
   404.415009         4.97236030E-10
   404.250000         4.97545061E-10
   404.084991         4.95678998E-10
   403.920013         4.91674756E-10
   403.755005         4.85581908E-10
   403.589996         4.77455797E-10
   403.424988         4.67352490E-10
   403.260010         4.55326499E-10
   403.095001         4.41431947E-10
   402.929993         4.25725954E-10
   402.765015         4.08272555E-10
   402.600006         3.89145910E-10
   402.434998         3.68431813E-10
   402.269989         3.46227880E-10
   402.105011         3.22643023E-10
   401.940002         2.97796759E-10
   401.774994         2.71817929E-10
   401.609985         2.44842924E-10
   401.445007         2.17012491E-10
   401.279999         1.88468047E-10
   401.114990         1.59347785E-10
   400.950012         1.29784780E-10
   400.785004         9.99074226E-11
   400.619995         6.98420349E-11
   400.454987         3.97168548E-11
   400.290009         9.66488001E-12
   400.125000        -2.01754446E-11
   399.959991        -4.96623714E-11
   399.795013        -7.86552906E-11
   399.630005        -1.07019539E-10
   399.464996        -1.34629918E-10
   399.299988        -1.61371985E-10
   399.135010        -1.87141400E-10
   398.970001        -2.11841683E-10
   398.804993        -2.35382380E-10
   398.640015        -2.57677768E-10
   398.475006        -2.78646523E-10
   398.309998        -2.98211955E-10
   398.144989        -3.16302262E-10
   397.980011        -3.32850608E-10
   397.815002        -3.47795515E-10
   397.649994        -3.61081998E-10
   397.484985        -3.72663983E-10
   397.320007        -3.82507082E-10
   397.154999        -3.90591254E-10
   396.989990        -3.96911504E-10
   396.825012        -4.01476047E-10
   396.660004        -4.04302675E-10
   396.494995        -4.05413536E-10
   396.329987        -4.04831418E-10
   396.165009        -4.02577777E-10
   396.000000        -3.98674677E-10
   395.834991        -3.93148264E-10
   395.670013        -3.86033566E-10
   395.505005        -3.77377823E-10
   395.339996        -3.67241820E-10
   395.174988        -3.55698471E-10
   395.010010        -3.42829737E-10
   394.845001        -3.28723215E-10
   394.679993        -3.13469306E-10
   394.515015        -2.97159131E-10
   394.350006        -2.79883616E-10
   394.184998        -2.61732275E-10
   394.019989        -2.42792758E-10
   393.855011        -2.23149957E-10
   393.690002        -2.02886555E-10
   393.524994        -1.82084584E-10
   393.359985        -1.60828156E-10
   393.195007        -1.39206494E-10
   393.029999        -1.17315380E-10
   392.864990        -9.52564902E-11
   392.700012        -7.31340336E-11
   392.535004        -5.10497720E-11
   392.369995        -2.90983678E-11
   392.204987        -7.36471734E-12
   392.040009         1.40755749E-11
   391.875000         3.51532935E-11
   391.709991         5.58016411E-11
   391.545013         7.59533478E-11
   391.380005         9.55401869E-11
   391.214996         1.14494338E-10
   391.049988         1.32751130E-10
   390.885010         1.50251034E-10
   390.720001         1.66940017E-10
   390.554993         1.82768148E-10
   390.390015         1.97687769E-10
   390.225006         2.11652182E-10
   390.059998         2.24616603E-10
   389.894989         2.36540537E-10
   389.730011         2.47390664E-10
   389.565002         2.57142724E-10
   389.399994         2.65781064E-10
   389.234985         2.73296163E-10
   389.070007         2.79681750E-10
   388.904999         2.84932605E-10
   388.739990         2.89044400E-10
   388.575012         2.92015689E-10
   388.410004         2.93850722E-10
   388.244995         2.94561348E-10
   388.079987         2.94166913E-10
   387.915009         2.92692787E-10
   387.750000         2.90167418E-10
   387.584991         2.86620533E-10
   387.420013         2.82082607E-10
   387.255005         2.76585838E-10
   387.089996         2.70165668E-10
   386.924988         2.62861288E-10
   386.760010         2.54714888E-10
   386.595001         2.45769655E-10
   386.429993         2.36067693E-10
   386.265015         2.25649388E-10
   386.100006         2.14554888E-10
   385.934998         2.02826686E-10
   385.769989         1.90512231E-10
   385.605011         1.77665160E-10
   385.440002         1.64343913E-10
   385.274994         1.50608734E-10
   385.109985         1.36518005E-10
   384.945007         1.22125920E-10
   384.779999         1.07482391E-10
   384.614990         9.26347193E-11
   384.450012         7.76304437E-11
   384.285004         6.25191218E-11
   384.119995         4.73527051E-11
   383.954987         3.21842310E-11
   383.790009         1.70657741E-11
   383.625000         2.04683796E-12
   383.459991        -1.28259868E-11
   383.295013        -2.75081902E-11
   383.130005        -4.19559699E-11
   382.964996        -5.61253925E-11
   382.799988        -6.99723404E-11
   382.635010        -8.34531472E-11
   382.470001        -9.65253433E-11
   382.304993        -1.09147663E-10
   382.140015        -1.21279251E-10
   381.975006        -1.32878444E-10
   381.809998        -1.43901724E-10
   381.644989        -1.54303834E-10
   381.480011        -1.64039171E-10
   381.315002        -1.73063883E-10
   381.149994        -1.81337792E-10
   380.984985        -1.88825622E-10
   380.820007        -1.95496910E-10
   380.654999        -2.01325137E-10
   380.489990        -2.06286765E-10
   380.325012        -2.10360798E-10
   380.160004        -2.13529125E-10
   379.994995        -2.15777646E-10
   379.829987        -2.17097312E-10
   379.665009        -2.17484614E-10
   379.500000        -2.16941395E-10
   379.334991        -2.15474152E-10
   379.170013        -2.13093279E-10
   379.005005        -2.09812973E-10
   378.839996        -2.05651537E-10
   378.674988        -2.00632178E-10
   378.510010        -1.94783578E-10
   378.345001        -1.88139754E-10
   378.179993        -1.80739021E-10
   378.015015        -1.72622472E-10
   377.850006        -1.63832517E-10
   377.684998        -1.54412164E-10
   377.519989        -1.44405390E-10
   377.355011        -1.33858549E-10
   377.190002        -1.22822044E-10
   377.024994        -1.11351789E-10
   376.859985        -9.95092411E-11
   376.695007        -8.73603481E-11
   376.529999        -7.49734719E-11
   376.364990        -6.24170576E-11
   376.200012        -4.97579755E-11
   376.035004        -3.70607989E-11
   375.869995        -2.43880350E-11
   375.704987        -1.18008416E-11
   375.540009         6.40395343E-13
   375.375000         1.28760561E-11
   375.209991         2.48477298E-11
   375.045013         3.64985923E-11
   374.880005         4.77734102E-11
   374.714996         5.86179577E-11
   374.549988         6.89783439E-11
   374.385010         7.88010351E-11
   374.220001         8.80341910E-11
   374.054993         9.66304398E-11
   373.890015         1.04550181E-10
   373.725006         1.11764258E-10
   373.559998         1.18254545E-10
   373.394989         1.24011940E-10
   373.230011         1.29032326E-10
   373.065002         1.33312278E-10
   372.899994         1.36845937E-10
   372.734985         1.39624826E-10
   372.570007         1.41640158E-10
   372.404999         1.42886675E-10
   372.239990         1.43366430E-10
   372.075012         1.43090678E-10
   371.910004         1.42079695E-10
   371.744995         1.40360820E-10
   371.579987         1.37966152E-10
   371.415009         1.34930705E-10
   371.250000         1.31291700E-10
   371.084991         1.27088243E-10
   370.920013         1.22361080E-10
   370.755005         1.17151525E-10
   370.589996         1.11500101E-10
   370.424988         1.05445465E-10
   370.260010         9.90244761E-11
   370.095001         9.22738899E-11
   369.929993         8.52329457E-11
   369.765015         7.79455597E-11
   369.600006         7.04608732E-11
   369.434998         6.28313929E-11
   369.269989         5.51093962E-11
   369.105011         4.73428796E-11
   368.940002         3.95729491E-11
   368.774994         3.18336572E-11
   368.609985         2.41543209E-11
   368.445007         1.65630270E-11
   368.279999         9.08975499E-12
   368.114990         1.76760646E-12
   367.950012        -5.36818116E-12
   367.785004        -1.22827833E-11
   367.619995        -1.89446306E-11
   367.454987        -2.53273201E-11
   367.290009        -3.14098643E-11
   367.125000        -3.71755370E-11
   366.959991        -4.26101203E-11
   366.795013        -4.77003680E-11
   366.630005        -5.24333112E-11
   366.464996        -5.67964356E-11
   366.299988        -6.07782713E-11
   366.135010        -6.43691767E-11
   365.970001        -6.75618519E-11
   365.804993        -7.03519673E-11
   365.640015        -7.27386762E-11
   365.475006        -7.47253717E-11
   365.309998        -7.63204291E-11
   365.144989        -7.75373585E-11
   364.980011        -7.83941453E-11
   364.815002        -7.89116411E-11
   364.649994        -7.91113425E-11
   364.484985        -7.90132820E-11
   364.320007        -7.86346405E-11
   364.154999        -7.79896703E-11
   363.989990        -7.70907019E-11
   363.825012        -7.59496424E-11
   363.660004        -7.45792386E-11
   363.494995        -7.29933405E-11
   363.329987        -7.12061521E-11
   363.165009        -6.92309057E-11
   363.000000        -6.70786829E-11
   362.834991        -6.47582127E-11
   362.670013        -6.22768018E-11
   362.505005        -5.96421246E-11
   362.339996        -5.68640551E-11
   362.174988        -5.39555935E-11
   362.010010        -5.09323694E-11
   361.845001        -4.78107935E-11
   361.679993        -4.46055970E-11
   361.515015        -4.13275386E-11
   361.350006        -3.79822805E-11
   361.184998        -3.45706797E-11