 608.266602   3.843243432E-11
 608.097534   3.784855762E-11
 607.928528   3.704605719E-11
 607.75946   3.601410489E-11
 607.590393   3.474432894E-11
 607.421326   3.323443257E-11
 607.252258   3.149025485E-11
 607.083191   2.952551051E-11
 606.914185   2.735950876E-11
 606.745117   2.501378271E-11
 606.57605   2.250890273E-11
 606.406982   1.986250053E-11
 606.237915   1.708894311E-11
 606.068848   1.420045592E-11
 605.899841   1.120902676E-11
 605.730774   8.12829231E-12
 605.561707   4.974959247E-12
 605.392639   1.769533196E-12
 605.223572   -1.463589775E-12
 605.054565   -4.696605518E-12
 604.885498   -7.899351312E-12
 604.716431   -1.104083925E-11
 604.547363   -1.409105384E-11
 604.378296   -1.702264024E-11
 604.209229   -1.981205998E-11
 604.040222   -2.24399041E-11
 603.871155   -2.48903554E-11
 603.702087   -2.715019529E-11
 603.53302   -2.920793121E-11
 603.363953   -3.105344107E-11
 603.194885   -3.267815532E-11
 603.025879   -3.407544732E-11
 602.856812   -3.524082068E-11
 602.687744   -3.617166636E-11
 602.518677   -3.686665903E-11
 602.349609   -3.732524706E-11
 602.180542   -3.754752065E-11
 602.011536   -3.753461084E-11
 601.842468   -3.728929665E-11
 601.673401   -3.681622021E-11
 601.504333   -3.612138366E-11
 601.335266   -3.52109765E-11
 601.166199   -3.409018901E-11
 600.997192   -3.276261901E-11
 600.828125   -3.123085818E-11
 600.659058   -2.949799086E-11
 600.48999   -2.756947448E-11
 600.320923   -2.545441115E-11
 600.151917   -2.316569679E-11
 599.982849   -2.071911392E-11
 599.813782   -1.813206182E-11
 599.644714   -1.542270478E-11
 599.475647   -1.260996169E-11
 599.30658   -9.714125337E-12
 599.137573   -6.757505146E-12
 598.968506   -3.764302672E-12
 598.799438   -7.594376517E-13
 598.630371   2.23337104E-12
 598.461304   5.193335779E-12
 598.292236   8.103295812E-12
 598.12323   1.094892926E-11
 597.954163   1.371686705E-11
 597.785095   1.639249674E-11
 597.616028   1.895848409E-11
 597.44696   2.139459963E-11
 597.277893   2.367888004E-11
 597.108887   2.57896083E-11
 596.939819   2.770735204E-11
 596.770752   2.941644844E-11
 596.601685   3.0905771E-11
 596.432617   3.216880928E-11
 596.26355   3.320330816E-11
 596.094543   3.401059642E-11
 595.925476   3.459465006E-11
 595.756409   3.496089876E-11
 595.587341   3.511482771E-11
 595.418274   3.506062801E-11
 595.249268   3.480023214E-11
 595.0802   3.433318213E-11
 594.911133   3.365741713E-11
 594.742065   3.277093874E-11
 594.572998   3.167381288E-11
 594.403931   3.037005369E-11
 594.234924   2.886878583E-11
 594.065857   2.718437628E-11
 593.89679   2.533541085E-11
 593.727722   2.334286583E-11
 593.558655   2.12279222E-11
 593.389587   1.90101216E-11
 593.220581   1.670635331E-11
 593.051514   1.433102855E-11
 592.882446   1.189741881E-11
 592.713379   9.419658629E-12
 592.544312   6.914750456E-12
 592.375244   4.403768582E-12
 592.206238   1.911849585E-12
 592.03717   -5.331435705E-13
 591.868103   -2.902911201E-12
 591.699036   -5.171310428E-12
 591.529968   -7.316576164E-12
 591.360901   -9.322662434E-12
 591.191895   -1.117960325E-11
 591.022827   -1.288302971E-11
 590.85376   -1.44330806E-11
 590.684692   -1.583293739E-11
 590.515625   -1.708707308E-11
 590.346619   -1.819939338E-11
 590.177551   -1.917141099E-11
 590.008484   -2.000083432E-11
 589.839417   -2.068093266E-11
 589.670349   -2.120116062E-11
 589.501282   -2.154903339E-11
 589.332275   -2.171294915E-11
 589.163208   -2.168507561E-11
 588.994141   -2.146349244E-11
 588.825073   -2.105282615E-11
 588.656006   -2.04632665E-11
 588.486938   -1.970835647E-11
 588.317932   -1.880240408E-11
 588.148865   -1.775846484E-11
 587.979797   -1.658746578E-11
 587.81073   -1.529855929E-11
 587.641663   -1.390031146E-11
 587.472595   -1.240211753E-11
 587.303589   -1.081533127E-11
 587.134521   -9.153908534E-12
 586.965454   -7.434567718E-12
 586.796387   -5.6767052E-12
 586.627319   -3.902152906E-12
 586.458252   -2.134675683E-12
 586.289246   -3.989556352E-13
 586.120178   1.281051979E-12
 585.951111   2.884248829E-12
 585.782043   4.394415821E-12
 585.612976   5.801442226E-12
 585.44397   7.101155167E-12
 585.274902   8.293527323E-12
 585.105835   9.379777337E-12
 584.936768   1.035929589E-11
 584.7677   1.122747468E-11
 584.598633   1.197525586E-11
 584.429626   1.259052758E-11
 584.260559   1.306084321E-11
 584.091492   1.337647007E-11
 583.922424   1.353274957E-11
 583.753357   1.353110159E-11
 583.58429   1.337856041E-11
 583.415283   1.308624389E-11
 583.246216   1.266742961E-11
 583.077148   1.213577069E-11
 582.908081   1.150393669E-11
 582.739014   1.078268117E-11
 582.569946   9.980231919E-12
 582.40094   9.102012546E-12
 582.231873   8.150905298E-12
 582.062805   7.128357366E-12
 581.893738   6.036490752E-12
 581.72467   4.880864376E-12
 581.555603   3.673052747E-12
 581.386597   2.431911226E-12
 581.217529   1.182638948E-12
 581.048462   -4.64936317E-14
 580.879395   -1.228921804E-12
 580.710327   -2.344496125E-12
 580.541321   -3.382359713E-12
 580.372253   -4.340885724E-12
 580.203186   -5.224631925E-12
 580.034119   -6.039501364E-12
 579.865051   -6.787888827E-12
 579.695984   -7.465488297E-12
 579.526978   -8.060676258E-12
 579.35791   -8.556283286E-12
 579.188843   -8.932866599E-12
 579.019775   -9.172243694E-12
 578.850708   -9.260377187E-12
 578.681641   -9.189211024E-12
 578.512634   -8.95747105E-12
 578.343567   -8.570568734E-12
 578.1745   -8.039654879E-12
 578.005432   -7.379740048E-12
 577.836365   -6.606958036E-12
 577.667297   -5.735382221E-12
 577.498291   -4.774211408E-12
 577.329224   -3.726348657E-12
 577.160156   -2.589070234E-12
 576.991089   -1.356886391E-12
 576.822021   -2.576482627E-14
 576.652954   1.402599174E-12
 576.483948   2.917900513E-12
 576.31488   4.500617327E-12
 576.145813   6.123851426E-12
 575.976746   7.756966944E-12
 575.807678   9.369924975E-12
 575.638611   1.093716957E-11
 575.469604   1.244013052E-11
 575.300537   1.38679181E-11
 575.13147   1.521614258E-11
 574.962402   1.648430524E-11
 574.793335   1.767233061E-11
 574.624329   1.877705109E-11
 574.455261   1.978946521E-11
 574.286194   2.069346951E-11
 574.117126   2.146642412E-11
 573.948059   2.20815484E-11
 573.778992   2.251165226E-11
 573.609985   2.273337421E-11
 573.440918   2.273098723E-11
 573.271851   2.249873204E-11
 573.102783   2.204113454E-11
 572.933716   2.137107331E-11
 572.764648   2.050603437E-11
 572.595642   1.946342046E-11
 572.426575   1.825614833E-11
 572.257507   1.688976216E-11
 572.08844   1.536197038E-11
 571.919373   1.366473254E-11
 571.750305   1.178836282E-11
 571.581299   9.726417588E-12
 571.412231   7.480083393E-12
 571.243164   5.060927805E-12
 571.074097   2.491465367E-12
 570.905029   -1.964425801E-13
 570.735962   -2.964852973E-12
 570.566956   -5.774014079E-12
 570.397888   -8.58686993E-12
 570.228821   -1.137301538E-11
 570.059753   -1.411128332E-11
 569.890686   -1.679020117E-11
 569.72168   -1.940591611E-11
 569.552612   -2.195776026E-11
 569.383545   -2.444246021E-11
 569.214478   -2.684871422E-11
 569.04541   -2.915389458E-11
 568.876343   -3.132421406E-11
 568.707336   -3.331843135E-11
 568.538269   -3.509405266E-11
 568.369202   -3.661400003E-11
 568.200134   -3.785178074E-11
 568.031067   -3.87938015E-11
 567.862   -3.943854618E-11
 567.692993   -3.979321039E-11
 567.523926   -3.986903516E-11
 567.354858   -3.967651555E-11
 567.185791   -3.922142125E-11
 567.016724   -3.850230204E-11
 566.847656   -3.750992572E-11
 566.67865   -3.622900591E-11
 566.509583   -3.464216761E-11
 566.340515   -3.273565446E-11
 566.171448   -3.050546621E-11
 566.00238   -2.796211353E-11
 565.833313   -2.513241004E-11
 565.664307   -2.20572241E-11
 565.495239   -1.878564665E-11
 565.326172   -1.536718669E-11
 565.157104   -1.184434061E-11
 564.988037   -8.247787869E-12
 564.819031   -4.595424302E-12
 564.649963   -8.950770897E-13
 564.480896   2.850314386E-12
 564.311829   6.636858164E-12
 564.142761   1.045479068E-11
 563.973694   1.428549813E-11
 563.804688   1.810065466E-11
 563.63562   2.186325426E-11
 563.466553   2.553013356E-11
 563.297485   2.905556351E-11
 563.128418   3.239554805E-11
 562.959351   3.551223898E-11
 562.790344   3.837761706E-11
 562.621277   4.09753724E-11
 562.452209   4.330021064E-11
 562.283142   4.535423426E-11
 562.114075   4.714124924E-11
 561.945007   4.866054434E-11
 561.776001   4.990216226E-11
 561.606934   5.084545979E-11
 561.437866   5.146157805E-11
 561.268799   5.171913245E-11
 561.099731   5.159133884E-11
 560.930664   5.106228981E-11
 560.761658   5.013034432E-11
 560.59259   4.880788829E-11
 560.423523   4.711790333E-11
 560.254456   4.508878687E-11
 560.085388   4.274921042E-11
 559.916382   4.012440727E-11
 559.747314   3.723446898E-11
 559.578247   3.409458479E-11
 559.40918   3.071654736E-11
 559.240112   2.711094543E-11
 559.071045   2.328970523E-11
 558.902039   1.926876193E-11
 558.732971   1.507059408E-11
 558.563904   1.072602597E-11
 558.394836   6.274565069E-12
 558.225769   1.762590399E-12
 558.056702   -2.760700739E-12
 557.887695   -7.248750645E-12
 557.718628   -1.166299696E-11
 557.549561   -1.597627239E-11
 557.380493   -2.017291369E-11
 557.211426   -2.424529674E-11
 557.042358   -2.818788605E-11
 556.873352   -3.199078849E-11
 556.704285   -3.563495679E-11
 556.535217   -3.909052942E-11
 556.36615   -4.231874226E-11
 556.197083   -4.527649089E-11
 556.028015   -4.792207603E-11
 555.859009   -5.022036259E-11
 555.689941   -5.214624565E-11
 555.520874   -5.368595152E-11
 555.351807   -5.483633686E-11
 555.182739   -5.560268218E-11
 555.013733   -5.599555888E-11
 554.844666   -5.602732514E-11
 554.675598   -5.570872583E-11
 554.506531   -5.504630432E-11
 554.337463   -5.404131309E-11
 554.168396   -5.269076842E-11
 553.99939   -5.099082268E-11
 553.830322   -4.894177424E-11
 553.661255   -4.655323349E-11
 553.492188   -4.384772406E-11
 553.32312   -4.086110617E-11
 553.154053   -3.763935691E-11
 552.985046   -3.423240511E-11
 552.815979   -3.068698073E-11
 552.646912   -2.704077587E-11
 552.477844   -2.331979401E-11
 552.308777   -1.953953319E-11
 552.139709   -1.570933661E-11
 551.970703   -1.183820316E-11
 551.801636   -7.940126855E-12
 551.632568   -4.037388913E-12
 551.463501   -1.611520569E-13
 551.294434   3.650354758E-12
 551.125366   7.355287386E-12
 550.95636   1.09122494E-11
 550.787292   1.42842474E-11
 550.618225   1.744186739E-11
 550.449158   2.036522513E-11
 550.28009   2.304430084E-11
 550.111084   2.54773893E-11
 549.942017   2.766781422E-11
 549.772949   2.961949783E-11
 549.603882   3.133249563E-11
 549.434814   3.279989821E-11
 549.265747   3.400724841E-11
 549.096741   3.493485709E-11
 548.927673   3.556248351E-11
 548.758606   3.587498354E-11
 548.589539   3.586710096E-11
 548.420471   3.554596548E-11
 548.251404   3.493049253E-11
 548.082397   3.404812543E-11
 547.91333   3.293011003E-11
 547.744263   3.16069601E-11
 547.575195   3.010538346E-11
 547.406128   2.844736773E-11
 547.237061   2.665113442E-11
 547.068054   2.473318945E-11
 546.898987   2.271043249E-11
 546.729919   2.060156559E-11
 546.560852   1.842760666E-11
 546.391785   1.621175416E-11
 546.222717   1.397899765E-11
 546.053711   1.175567369E-11
 545.884644   9.568881278E-12
 545.715576   7.445499078E-12
 545.546509   5.410651528E-12
 545.377441   3.485806912E-12
 545.208435   1.687140119E-12
 545.039368   2.492863365E-14
 544.8703   -1.495480823E-12
 544.701233   -2.871369592E-12
 544.532166   -4.099834187E-12
 544.363098   -5.175605604E-12
 544.194092   -6.090346109E-12
 544.025024   -6.833610934E-12
 543.855957   -7.394888521E-12
 543.68689   -7.765716022E-12
 543.517822   -7.941038452E-12
 543.348755   -7.919542626E-12
 543.179749   -7.703401285E-12
 543.010681   -7.298158605E-12
 542.841614   -6.713187731E-12
 542.672546   -5.962529082E-12
 542.503479   -5.065465842E-12
 542.334412   -4.046017427E-12
 542.165405   -2.931123226E-12
 541.996338   -1.747876908E-12
 541.827271   -5.209484103E-13
 541.658203   7.287739748E-13
 541.489136   1.983672991E-12
 541.320068   3.227483818E-12
 541.151062   4.442838892E-12
 540.981995   5.60944997E-12
 540.812927   6.703566955E-12
 540.64386   7.698663755E-12
 540.474792   8.566879844E-12
 540.305725   9.280476561E-12
 540.136719   9.813010647E-12
 539.967651   1.0140307E-11
 539.798584   1.024149862E-11
 539.629517   1.010038581E-11
 539.460449   9.706636536E-12
 539.291443   9.056286103E-12
 539.122375   8.150888818E-12
 538.953308   6.995340505E-12
 538.784241   5.594930769E-12
 538.615173   3.9528502E-12
 538.446106   2.069257743E-12
 538.2771   -5.745650131E-14
 538.108032   -2.427661371E-12
 537.938965   -5.036846808E-12
 537.769897   -7.872730245E-12
 537.60083   -1.091414112E-11
 537.431763   -1.413191786E-11
 537.262756   -1.749135038E-11
 537.093689   -2.09551751E-11
 536.924622   -2.448617871E-11
 536.755554   -2.804878552E-11
 536.586487   -3.160958995E-11
 536.417419   -3.513706687E-11
 536.248413   -3.860080658E-11
 536.079346   -4.19705902E-11
 535.910278   -4.52154425E-11
 535.741211   -4.830277844E-11
 535.572144   -5.11979209E-11
 535.403076   -5.386407292E-11
 535.23407   -5.626318508E-11
 535.065002   -5.835759653E-11
 534.895935   -6.011215831E-11
 534.726868   -6.149622478E-11
 534.5578   -6.248474654E-11
 534.388794   -6.305786449E-11
 534.219727   -6.319925139E-11
 534.050659   -6.289365556E-11
 533.881592   -6.212475673E-11
 533.712524   -6.087441662E-11
 533.543457   -5.912395573E-11
 533.374451   -5.68572793E-11
 533.205383   -5.406481859E-11
 533.036316   -5.074694831E-11
 532.867249   -4.691560335E-11
 532.698181   -4.25934947E-11
 532.529114   -3.78111778E-11
 532.360107   -3.260307649E-11
 532.19104   -2.700371003E-11
 532.021973   -2.104546919E-11
 531.852905   -1.475816518E-11
 531.683838   -8.170313384E-12
 531.514771   -1.311384269E-12
 531.345764   5.785683998E-12
 531.176697   1.308255674E-11
 531.007629   2.053441618E-11
 530.838562   2.808996959E-11
 530.669495   3.569258084E-11
 530.500427   4.32823638E-11
 530.331421   5.079890328E-11
 530.162354   5.818419704E-11
 529.993286   6.53847948E-11
 529.824219   7.235245736E-11
 529.655151   7.904311233E-11
 529.486145   8.541431451E-11
 529.317078   9.142230029E-11
 529.14801   9.701982273E-11
 528.978943   1.021558255E-10
 528.809875   1.067769553E-10
 528.640808   1.108306086E-10
 528.471802   1.142679631E-10
 528.302734   1.170460256E-10
 528.133667   1.191282906E-10
 527.9646   1.204839145E-10
 527.795532   1.21086724E-10
 527.626465   1.209141953E-10
 527.457458   1.199476213E-10
 527.288391   1.181728604E-10
 527.119324   1.155812737E-10
 526.950256   1.121705298E-10
 526.781189   1.079451251E-10
 526.612122   1.029166266E-10
 526.443115   9.710413029E-11
 526.274048   9.053472555E-11
 526.10498   8.32436689E-11
 525.935913   7.527365536E-11
 525.766846   6.66730629E-11
 525.597778   5.749343016E-11
 525.428772   4.778696883E-11
 525.259705   3.760529041E-11
 525.090637   2.699987456E-11
 524.92157   1.602416984E-11
 524.752502   4.736218796E-12
 524.583496   -6.799484586E-12
 524.414429   -1.851185177E-11
 524.245361   -3.032495088E-11
 524.076294   -4.216065691E-11
 523.907227   -5.394123342E-11
 523.738159   -6.55906926E-11
 523.569153   -7.703469113E-11
 523.400085   -8.81996004E-11
 523.231018   -9.901150039E-11
 523.061951   -1.093959714E-10
 522.892883   -1.192787535E-10
 522.723816   -1.285869605E-10
 522.55481   -1.37250239E-10
 522.385742   -1.452014342E-10
 522.216675   -1.523769028E-10
 522.047607   -1.587169701E-10
 521.87854   -1.641669023E-10
 521.709473   -1.686782797E-10
 521.540466   -1.722106208E-10
 521.371399   -1.747322981E-10
 521.202332   -1.762203578E-10
 521.033264   -1.766593399E-10
 520.864197   -1.760396273E-10
 520.695129   -1.743563349E-10
 520.526123   -1.716091019E-10
 520.357056   -1.678031325E-10
 520.187988   -1.629505003E-10
 520.018921   -1.570713698E-10
 519.849854   -1.501940516E-10
 519.680847   -1.42353962E-10
 519.51178   -1.335921929E-10
 519.342712   -1.239539582E-10
 519.173645   -1.134882188E-10
 519.004578   -1.022479601E-10
 518.83551   -9.029139242E-11
 518.666504   -7.768292259E-11
 518.497437   -6.449349388E-11
 518.328369   -5.080004126E-11
 518.159302   -3.668394755E-11
 517.990234   -2.222918724E-11
 517.821167   -7.520403571E-12
 517.652161   7.358470604E-12
 517.483093   2.232499081E-11
 517.314026   3.729833456E-11
 517.144958   5.219881472E-11
 516.975891   6.694701737E-11
 516.806824   8.146285035E-11
 516.637817   9.566471226E-11
 516.46875   1.094690588E-10
 516.299683   1.227907914E-10
 516.130615   1.355444368E-10
 515.961548   1.476459649E-10
 515.79248   1.590152732E-10
 515.623474   1.695784069E-10
 515.454407   1.792694188E-10
 515.285339   1.880314932E-10
 515.116272   1.958169044E-10
 514.947205   2.025858925E-10
 514.778198   2.083049566E-10
 514.609131   2.129448007E-10
 514.440063   2.164784185E-10
 514.270996   2.188804277E-10
 514.101929   2.201273747E-10
 513.932861   2.201997751E-10
 513.763855   2.190846393E-10
 513.594788   2.167780955E-10
 513.42572   2.13286902E-10
 513.256653   2.086282813E-10
 513.087585   2.028282403E-10
 512.918518   1.959185592E-10
 512.749512   1.879340711E-10
 512.580444   1.789112053E-10
 512.411377   1.688876816E-10
 512.24231   1.579040787E-10
 512.073242   1.460057769E-10
 511.904205   1.332448041E-10
 511.735138   1.196809873E-10
 511.566101   1.053819323E-10
 511.397034   9.042231547E-11
 511.227966   7.48832385E-11
 511.058929   5.885108373E-11
 510.889862   4.241630311E-11
 510.720795   2.567182925E-11
 510.551758   8.710716176E-12
 510.38269   -8.376208581E-12
 510.213623   -2.550220972E-11
 510.044586   -4.258529293E-11
 509.875519   -5.954713805E-11
 509.706451   -7.631093674E-11
 509.537415   -9.279894908E-11
 509.368347   -1.089308782E-10
 509.19928   -1.246239084E-10
 509.030243   -1.397943566E-10
 508.861176   -1.543600803E-10
 508.692108   -1.682427253E-10
 508.523071   -1.813689893E-10
 508.354004   -1.936706351E-10
 508.184937   -2.050839082E-10
 508.0159   -2.155487178E-10
 507.846832   -2.250086228E-10
 507.677765   -2.334111238E-10
 507.508728   -2.407083421E-10
 507.339661   -2.468574234E-10
 507.170624   -2.518203424E-10
 507.001556   -2.555636536E-10
 506.832489   -2.580582414E-10
 506.663452   -2.592797643E-10
 506.494385   -2.59209848E-10
 506.325317   -2.578374736E-10
 506.156281   -2.551603095E-10
 505.987213   -2.511847119E-10
 505.818146   -2.459250859E-10
 505.649109   -2.394022203E-10
 505.480042   -2.316418585E-10
 505.310974   -2.226735324E-10
 505.141937   -2.125302989E-10
 504.97287   -2.012490868E-10
 504.803802   -1.888711548E-10
 504.634766   -1.754427159E-10
 504.465698   -1.610147987E-10
 504.296631   -1.456434834E-10
 504.127594   -1.293899154E-10
 503.958527   -1.123209928E-10
 503.789459   -9.451005256E-11
 503.620422   -7.603746105E-11
 503.451355   -5.699055117E-11
 503.282288   -3.746221389E-11
 503.113251   -1.754866218E-11
 502.944183   2.653515211E-12
 502.775116   2.304975481E-11
 502.606079   4.354884856E-11
 502.437012   6.406238734E-11
 502.267975   8.450313366E-11
 502.098907   1.047825438E-10
 501.92984   1.248087744E-10
 501.760803   1.444858122E-10
 501.591736   1.637138758E-10
 501.422668   1.823910328E-10
 501.253632   2.00415351E-10
 501.084564   2.176868685E-10
 500.915497   2.34109232E-10
 500.74646   2.495909868E-10
 500.577393   2.640463126E-10
 500.408325   2.773951624E-10
 500.239288   2.895631512E-10
 500.070221   3.004801408E-10
 499.901154   3.10078796E-10
 499.732117   3.182926422E-10
 499.563049   3.250553993E-10
 499.393982   3.3030223E-10
 499.224945   3.339726828E-10
 499.055878   3.360149659E-10
 498.88681   3.363900825E-10
 498.717773   3.350740241E-10
 498.548706   3.320576591E-10
 498.379639   3.273441795E-10
 498.210602   3.209453259E-10
 498.041534   3.128783066E-10
 497.872467   3.031644935E-10
 497.70343   2.918301711E-10
 497.534363   2.789082576E-10
 497.365295   2.64440303E-10
 497.196259   2.484773776E-10
 497.027191   2.310803215E-10
 496.858154   2.123188292E-10
 496.689087   1.92271421E-10
 496.52002   1.71025305E-10
 496.350983   1.486765988E-10
 496.181915   1.253297049E-10
 496.012848   1.010954515E-10
 495.843811   7.608867703E-11
 495.674744   5.042538262E-11
 495.505676   2.422124307E-11
 495.336639   -2.407882053E-12
 495.167572   -2.934365251E-11
 494.998505   -5.646258114E-11
 494.829468   -8.36340025E-11
 494.6604   -1.107202177E-10
 494.491333   -1.375786568E-10
 494.322296   -1.640651781E-10
 494.153229   -1.90036889E-10
 493.984161   -2.153536932E-10
 493.815125   -2.398782284E-10
 493.646057   -2.634747143E-10
 493.47699   -2.860082449E-10
 493.307953   -3.073451216E-10
 493.138885   -3.273543658E-10
 492.969818   -3.459104669E-10
 492.800781   -3.628952416E-10
 492.631714   -3.781994717E-10
 492.462646   -3.917228764E-10
 492.29361   -4.033737233E-10
 492.124542   -4.130680242E-10
 491.955505   -4.207295901E-10
 491.786438   -4.262904751E-10
 491.617371   -4.296920875E-10
 491.448334   -4.308865487E-10
 491.279266   -4.298378875E-10
 491.110199   -4.265229003E-10
 490.941162   -4.209324E-10
 490.772095   -4.130718267E-10
 490.603027   -4.029619416E-10
 490.43399   -3.906385493E-10
 490.264923   -3.761520817E-10
 490.095856   -3.595653497E-10
 489.926819   -3.409514893E-10
 489.757751   -3.203913801E-10
 489.588684   -2.979718972E-10
 489.419647   -2.737856886E-10
 489.25058   -2.479324523E-10
 489.081512   -2.205214344E-10
 488.912476   -1.916744541E-10
 488.743408   -1.615277218E-10
 488.574341   -1.302326164E-10
 488.405304   -9.795413786E-11
 488.236237   -6.486717413E-11
 488.067169   -3.115204275E-11
 487.898132   3.010033629E-12
 487.729065   3.744025923E-11
 487.559998   7.196377522E-11
 487.390961   1.064086458E-10
 487.221893   1.406035705E-10
 487.052856   1.743747924E-10
 486.883789   2.075439126E-10
 486.714722   2.399267729E-10
 486.545685   2.713345104E-10
 486.376617   3.015768468E-10
 486.20755   3.304662655E-10
 486.038513   3.578229935E-10
 485.869446   3.834795537E-10
 485.700378   4.07283901E-10
 485.531342   4.291009492E-10
 485.362274   4.488125427E-10
 485.193207   4.663150976E-10
 485.02417   4.815169929E-10
 484.855103   4.943350174E-10
 484.686035   5.046918994E-10
 484.516998   5.125157521E-10
 484.347931   5.177409612E-10
 484.178864   5.203120157E-10
 484.009827   5.201876152E-10
 483.840759   5.173452777E-10
 483.671692   5.117836155E-10
 483.502655   5.035230566E-10
 483.333588   4.92603125E-10
 483.16452   4.790791652E-10
 482.995483   4.630179018E-10
 482.826416   4.44494247E-10
 482.657349   4.235909123E-10
 482.488312   4.003988252E-10
 482.319244   3.750192379E-10
 482.150208   3.475663923E-10
 481.98114   3.181688801E-10
 481.812073   2.869705029E-10
 481.643036   2.541302724E-10
 481.473969   2.19821425E-10
 481.304901   1.842294095E-10
 481.135864   1.475495975E-10
 480.966797   1.099829255E-10
 480.797729   7.173192595E-11
 480.628693   3.299660545E-11
 480.459625   -6.027898233E-12
 480.290558   -4.515094895E-11
 480.121521   -8.418388903E-11
 479.952454   -1.229356617E-10
 479.783386   -1.6120906E-10
 479.614349   -1.987992965E-10
 479.445282   -2.35495512E-10
 479.276215   -2.710857649E-10
 479.107178   -3.053630682E-10
 478.93811   -3.381313562E-10
 478.769043   -3.692094686E-10
 478.600006   -3.98432759E-10
 478.430939   -4.256524577E-10
 478.261871   -4.507339502E-10
 478.092834   -4.735544179E-10
 477.923767   -4.940010068E-10
 477.7547   -5.119691338E-10
 477.585663   -5.273615988E-10
 477.416595   -5.400887515E-10
 477.247528   -5.50069712E-10
 477.078491   -5.5723548E-10
 476.909424   -5.61533986E-10
 476.740387   -5.629346433E-10
 476.57132   -5.614320675E-10
 476.402252   -5.570469086E-10
 476.233215   -5.49823298E-10
 476.064148   -5.398231862E-10
 475.895081   -5.271201808E-10
 475.726044   -5.117943291E-10
 475.556976   -4.939290643E-10
 475.387909   -4.736120385E-10
 475.218872   -4.509379259E-10
 475.049805   -4.260123643E-10
 474.880737   -3.989550912E-10
 474.7117   -3.699018036E-10
 474.542633   -3.390042969E-10
 474.373566   -3.064297427E-10
 474.204529   -2.723580528E-10
 474.035461   -2.369801022E-10
 473.866394   -2.004940935E-10
 473.697357   -1.631016294E-10
 473.52829   -1.250039794E-10
 473.359222   -8.639806925E-11
 473.190186   -4.747412879E-11
 473.021118   -8.416348347E-12
 472.852051   3.059491896E-11
 472.683014   6.937873887E-11
 472.513947   1.077500172E-10
 472.344879   1.455174731E-10
 472.175842   1.824850826E-10
 472.006775   2.184562531E-10
 471.837738   2.532397625E-10
 471.668671   2.866549498E-10
 471.499603   3.185355035E-10
 471.330566   3.487301559E-10
 471.161499   3.771018497E-10
 470.992432   4.035257961E-10
 470.823395   4.27887864E-10
 470.654327   4.500840811E-10
 470.48526   4.70020467E-10
 470.316223   4.876131721E-10
 470.147156   5.027875338E-10
 469.978088   5.154776606E-10
 469.809052   5.256257096E-10
 469.639984   5.331828867E-10
 469.470917   5.381122214E-10
 469.30188   5.403922865E-10
 469.132813   5.400206393E-10
 468.963745   5.370154321E-10
 468.794708   5.314139684E-10
 468.625641   5.232695943E-10
 468.456573   5.126466474E-10
 468.287537   4.996169034E-10
 468.118469   4.842574675E-10
 467.949402   4.666509956E-10
 467.780365   4.468868053E-10
 467.611298   4.250628738E-10
 467.44223   4.012870591E-10
 467.273193   3.756776279E-10
 467.104126   3.483642541E-10
 466.935089   3.194880749E-10
 466.766022   2.892022732E-10
 466.596954   2.576709124E-10
 466.427917   2.250668402E-10
 466.25885   1.915669984E-10
 466.089783   1.573477043E-10
 465.920746   1.225801544E-10
 465.751678   8.742834234E-11
 465.582611   5.205027728E-11
 465.413574   1.660136958E-11
 465.244507   -1.876124082E-11
 465.075439   -5.38759766E-11
 464.906403   -8.857631295E-11
 464.737335   -1.226929253E-10
 464.568268   -1.56057528E-10
 464.399231   -1.885066964E-10
 464.230164   -2.198853322E-10
 464.061096   -2.500483987E-10
 463.892059   -2.788622111E-10
 463.722992   -3.062050336E-10
 463.553925   -3.319671205E-10
 463.384888   -3.56049884E-10
 463.21582   -3.783641733E-10
 463.046753   -3.988275821E-10
 462.877716   -4.173619783E-10
 462.708649   -4.338920057E-10
 462.539581   -4.483464433E-10
 462.370544   -4.606617032E-10
 462.201477   -4.707867429E-10
 462.03241   -4.78687312E-10
 461.863373   -4.843483947E-10
 461.694305   -4.877727111E-10
 461.525269   -4.889774696E-10
 461.356201   -4.87988927E-10
 461.187134   -4.848387247E-10
 461.018097   -4.795612241E-10
 460.84903   -4.721935065E-10
 460.679962   -4.627769834E-10
 460.510925   -4.513598106E-10
 460.341858   -4.379992202E-10
 460.172791   -4.227637129E-10
 460.003754   -4.05734446E-10
 459.834686   -3.870060106E-10
 459.665619   -3.666864035E-10
 459.496582   -3.448946684E-10
 459.327515   -3.217574263E-10
 459.158447   -2.974037128E-10
 458.98941   -2.719595937E-10
 458.820343   -2.455450288E-10
 458.651276   -2.182732328E-10
 458.482239   -1.90253327E-10
 458.313171   -1.615955147E-10
 458.144104   -1.324161891E-10
 457.975067   -1.028419155E-10
 457.806   -7.301023675E-11
 457.636932   -4.306736912E-11
 457.467896   -1.316383894E-11
 457.298828   1.655067576E-11
 457.129761   4.593251127E-11
 456.960724   7.484678155E-11
 456.791656   1.031692023E-10
 456.62262   1.307859515E-10
 456.453552   1.57592106E-10
 456.284485   1.834894042E-10
 456.115448   2.083829082E-10
 455.946381   2.321780962E-10
 455.777313   2.547780875E-10
 455.608276   2.760828233E-10
 455.439209   2.959904821E-10
 455.270142   3.144008387E-10
 455.101105   3.31220773E-10
 454.932037   3.463697662E-10
 454.76297   3.597844245E-10
 454.593933   3.714204222E-10
 454.424866   3.812513916E-10
 454.255798   3.892649814E-10
 454.086761   3.954576666E-10
 453.917694   3.998297526E-10
 453.748627   4.023817668E-10
 453.57959   4.031137368E-10
 453.410522   4.020274946E-10
 453.241455   3.991303399E-10
 453.072418   3.944400639E-10
 452.903351   3.879885857E-10
 452.734283   3.798240056E-10
 452.565247   3.700104112E-10
 452.396179   3.586249908E-10
 452.227112   3.457536757E-10
 452.058075   3.314865049E-10
 451.889008   3.159133788E-10
 451.719971   2.991212833E-10
 451.550903   2.811936517E-10
 451.381836   2.622113915E-10
 451.212799   2.42255771E-10
 451.043732   2.214119582E-10
 450.874664   1.997727123E-10
 450.705627   1.774405761E-10
 450.53656   1.545285011E-10
 450.367493   1.311577791E-10
 450.198456   1.074545314E-10
 450.029388   8.354448383E-11
 449.860321   5.9548734E-11
 449.691284   3.558049688E-11
 449.522217   1.174450034E-11
 449.353149   -1.186142851E-11
 449.184113   -3.514323901E-11
 449.015045   -5.800730382E-11
 448.845978   -8.035798416E-11
 448.676941   -1.020971224E-10
 448.507874   -1.231254682E-10
 448.338806   -1.433454327E-10
 448.169769   -1.626643681E-10
 448.000702   -1.809976197E-10
 447.831635   -1.982704834E-10
 447.662598   -2.14419052E-10
 447.49353   -2.293899792E-10
 447.324463   -2.43139231E-10
 447.155426   -2.556302947E-10
 446.986359   -2.668319177E-10
 446.817322   -2.767163165E-10
 446.648254   -2.852579839E-10
 446.479187   -2.924337439E-10
 446.31015   -2.982240566E-10
 446.141083   -3.026155715E-10
 445.972015   -3.056035147E-10
 445.802979   -3.071939925E-10
 445.633911   -3.074044352E-10
 445.464844   -3.062623766E-10
 445.295807   -3.038031215E-10
 445.12674   -3.000664717E-10
 444.957672   -2.950942546E-10
 444.788635   -2.889285478E-10
 444.619568   -2.816116507E-10
 444.4505   -2.731868343E-10
 444.281464   -2.637000895E-10
 444.112396   -2.532016818E-10
 443.943329   -2.417476497E-10
 443.774292   -2.294010121E-10
 443.605225   -2.162323376E-10
 443.436157   -2.023198553E-10
 443.26712   -1.877483169E-10
 443.098053   -1.726070675E-10
 442.928986   -1.569871455E-10
 442.759949   -1.409778544E-10
 442.590881   -1.246638487E-10
 442.421814   -1.081236073E-10
 442.252777   -9.142946122E-11
 442.08371   -7.464958512E-11
 441.914642   -5.785102605E-11
 441.745605   -4.110255192E-11
 441.576538   -2.447667416E-11
 441.407501   -8.049947861E-12
 441.238434   8.098245165E-12
 441.069366   2.388833749E-11