 609.417969   -4.887229857E-11
 609.248596   -5.185091245E-11
 609.079163   -5.45377285E-11
 608.90979   -5.691747421E-11
 608.740417   -5.897848876E-11
 608.571045   -6.071171343E-11
 608.401672   -6.210914422E-11
 608.2323   -6.316233647E-11
 608.062927   -6.386166596E-11
 607.893555   -6.419667575E-11
 607.724182   -6.415735304E-11
 607.55481   -6.373581524E-11
 607.385437   -6.292778104E-11
 607.216064   -6.17334725E-11
 607.046692   -6.015784398E-11
 606.877319   -5.821044341E-11
 606.707886   -5.590497856E-11
 606.538513   -5.325866484E-11
 606.369141   -5.029129543E-11
 606.199768   -4.702395071E-11
 606.030396   -4.347759652E-11
 605.861023   -3.967198098E-11
 605.69165   -3.562540887E-11
 605.522278   -3.135575827E-11
 605.352905   -2.688242337E-11
 605.183533   -2.222847774E-11
 605.01416   -1.742196838E-11
 604.844788   -1.249571713E-11
 604.675415   -7.485493995E-12
 604.506042   -2.427237231E-12
 604.336609   2.645611161E-12
 604.167236   7.70361986E-12
 603.997864   1.272124767E-11
 603.828491   1.767534209E-11
 603.659119   2.254300045E-11
 603.489746   2.729965039E-11
 603.320374   3.191787806E-11
 603.151001   3.636719051E-11
 602.981628   4.061461237E-11
 602.812256   4.462590367E-11
 602.642883   4.836725118E-11
 602.473511   5.180725987E-11
 602.304138   5.491907623E-11
 602.134766   5.768207439E-11
 601.965332   6.008256392E-11
 601.795959   6.211297449E-11
 601.626587   6.376960071E-11
 601.457214   6.504962541E-11
 601.287842   6.594859381E-11
 601.118469   6.645946987E-11
 600.949097   6.657367713E-11
 600.779724   6.628401994E-11
 600.610352   6.558804888E-11
 600.440979   6.449059342E-11
 600.271606   6.30043448E-11
 600.102234   6.114834333E-11
 599.932861   5.894511268E-11
 599.763489   5.641749221E-11
 599.594055   5.358627084E-11
 599.424683   5.046925031E-11
 599.25531   4.70816372E-11
 599.085938   4.343735094E-11
 598.916565   3.955074809E-11
 598.747192   3.543833629E-11
 598.57782   3.112035629E-11
 598.408447   2.662201709E-11
 598.239075   2.197406666E-11
 598.069702   1.721220562E-11
 597.90033   1.237526921E-11
 597.730957   7.502314742E-12
 597.561584   2.629403422E-12
 597.392212   -2.212866175E-12
 597.222778   -7.000127908E-12
 597.053406   -1.171303072E-11
 596.884033   -1.633461769E-11
 596.714661   -2.084750428E-11
 596.545288   -2.523207338E-11
 596.375916   -2.946638419E-11
 596.206543   -3.352757655E-11
 596.03717   -3.739395252E-11
 595.867798   -4.104663831E-11
 595.698425   -4.447005611E-11
 595.529053   -4.765124406E-11
 595.35968   -5.057851707E-11
 595.190308   -5.324037738E-11
 595.020935   -5.562506705E-11
 594.851563   -5.77207275E-11
 594.682129   -5.951573956E-11
 594.512756   -6.099880323E-11
 594.343384   -6.215877812E-11
 594.174011   -6.298443017E-11
 594.004639   -6.346499021E-11
 593.835266   -6.359154869E-11
 593.665894   -6.335926228E-11
 593.496521   -6.276952569E-11
 593.327148   -6.183092233E-11
 593.157776   -6.05585096E-11
 592.988403   -5.897150823E-11
 592.819031   -5.709018674E-11
 592.649658   -5.493327668E-11
 592.480286   -5.251676177E-11
 592.310852   -4.985431512E-11
 592.141479   -4.695884306E-11
 591.972107   -4.384407074E-11
 591.802734   -4.052540595E-11
 591.633362   -3.701973797E-11
 591.463989   -3.334458751E-11
 591.294617   -2.951727751E-11
 591.125244   -2.555471633E-11
 590.955872   -2.147394242E-11
 590.786499   -1.729314782E-11
 590.617126   -1.303254379E-11
 590.447754   -8.714675682E-12
 590.278381   -4.364076808E-12
 590.109009   -6.57930936E-15
 589.939575   4.331364694E-12
 589.770203   8.623114375E-12
 589.60083   1.284204427E-11
 589.431458   1.69617688E-11
 589.262085   2.095656981E-11
 589.092712   2.480208747E-11
 588.92334   2.847613638E-11
 588.753967   3.195922346E-11
 588.584595   3.52346069E-11
 588.415222   3.828792491E-11
 588.24585   4.11066528E-11
 588.076477   4.367967446E-11
 587.907104   4.599711237E-11
 587.737732   4.805037618E-11
 587.568298   4.983228066E-11
 587.398926   5.133699715E-11
 587.229553   5.255980026E-11
 587.060181   5.349668972E-11
 586.890808   5.414420648E-11
 586.721436   5.449948479E-11
 586.552063   5.456059562E-11
 586.38269   5.432705674E-11
 586.213318   5.380022816E-11
 586.043945   5.298359321E-11
 585.874573   5.188284524E-11
 585.7052   5.050585991E-11
 585.535828   4.886261534E-11
 585.366455   4.696514358E-11
 585.197021   4.482741262E-11
 585.027649   4.246505231E-11
 584.858276   3.989498315E-11
 584.688904   3.713501381E-11
 584.519531   3.420354971E-11
 584.350159   3.111941607E-11
 584.180786   2.790177638E-11
 584.011414   2.457003698E-11
 583.842041   2.114363198E-11
 583.672668   1.764171621E-11
 583.503296   1.408285034E-11
 583.333923   1.048480833E-11
 583.164551   6.864594396E-12
 582.995178   3.238602745E-12
 582.825806   -3.772795607E-13
 582.656372   -3.967708974E-12
 582.487   -7.517980162E-12
 582.317627   -1.101396405E-11
 582.148254   -1.44416536E-11
 581.978882   -1.778625684E-11
 581.809509   -2.103110915E-11
 581.640137   -2.415694207E-11
 581.470764   -2.714213229E-11
 581.301392   -2.996426024E-11
 581.132019   -3.260266015E-11
 580.962646   -3.504107074E-11
 580.793274   -3.726941325E-11
 580.623901   -3.928373252E-11
 580.454529   -4.10843165E-11
 580.285095   -4.26724836E-11
 580.115723   -4.404733869E-11
 579.94635   -4.520365679E-11
 579.776978   -4.613173385E-11
 579.607605   -4.681900007E-11
 579.438232   -4.725277114E-11
 579.26886   -4.742298568E-11
 579.099487   -4.732418624E-11
 578.930115   -4.695632772E-11
 578.760742   -4.63245102E-11
 578.59137   -4.54380665E-11
 578.421997   -4.430940684E-11
 578.252625   -4.2952749E-11
 578.083252   -4.138281037E-11
 577.913818   -3.961347222E-11
 577.744446   -3.765680129E-11
 577.575073   -3.552282427E-11
 577.405701   -3.322038131E-11
 577.236328   -3.075896482E-11
 577.066956   -2.815096246E-11
 576.897583   -2.541332943E-11
 576.72821   -2.256774108E-11
 576.558838   -1.963890855E-11
 576.389465   -1.665151524E-11
 576.220093   -1.362698236E-11
 576.05072   -1.058134396E-11
 575.881348   -7.525097732E-12
 575.711975   -4.464987841E-12
 575.542542   -1.407001902E-12
 575.373169   1.640653867E-12
 575.203796   4.665566544E-12
 575.034424   7.650604976E-12
 574.865051   1.057468783E-11
 574.695679   1.34143625E-11
 574.526306   1.614574967E-11
 574.356934   1.874667088E-11
 574.187561   2.119873894E-11
 574.018188   2.348918456E-11
 573.848816   2.561186332E-11
 573.679443   2.756685158E-11
 573.510071   2.935825541E-11
 573.340698   3.099054693E-11
 573.171265   3.24644929E-11
 573.001892   3.377424382E-11
 572.83252   3.490681702E-11
 572.663147   3.584442118E-11
 572.493774   3.656880701E-11
 572.324402   3.70659857E-11
 572.155029   3.732968448E-11
 571.985657   3.736232157E-11
 571.816284   3.717358019E-11
 571.646912   3.677746649E-11
 571.477539   3.618916972E-11
 571.308167   3.542271337E-11
 571.138794   3.448981031E-11
 570.969421   3.339956783E-11
 570.800049   3.215883462E-11
 570.630615   3.077284608E-11
 570.461243   2.92463033E-11
 570.29187   2.758497944E-11
 570.122498   2.579769037E-11
 569.953125   2.389806408E-11
 569.783752   2.19051912E-11
 569.61438   1.98424957E-11
 569.445007   1.773485178E-11
 569.275635   1.560483687E-11
 569.106262   1.346953191E-11
 568.93689   1.133907985E-11
 568.767517   9.21754513E-12
 568.598145   7.105588253E-12
 568.428772   5.003784279E-12
 568.259338   2.915281298E-12
 568.089966   8.471052635E-13
 567.920593   -1.189896597E-12
 567.751221   -3.181827414E-12
 567.581848   -5.112635575E-12
 567.412476   -6.964935573E-12
 567.243103   -8.720955381E-12
 567.07373   -1.03640178E-11
 566.904358   -1.188066572E-11
 566.734985   -1.326287084E-11
 566.565613   -1.450945787E-11
 566.39624   -1.562572294E-11
 566.226868   -1.662110033E-11
 566.057495   -1.75055144E-11
 565.888062   -1.828584853E-11
 565.718689   -1.8963945E-11
 565.549316   -1.953686518E-11
 565.379944   -1.999909439E-11
 565.210571   -2.034561235E-11
 565.041199   -2.057440329E-11
 564.871826   -2.068759053E-11
 564.702454   -2.069105824E-11
 564.533081   -2.059333953E-11
 564.363708   -2.040442641E-11
 564.194336   -2.013496488E-11
 564.024963   -1.979564429E-11
 563.855591   -1.939635084E-11
 563.686218   -1.894481447E-11
 563.516785   -1.844511176E-11
 563.347412   -1.789683679E-11
 563.17804   -1.72958696E-11
 563.008667   -1.663703203E-11
 562.839294   -1.591791803E-11
 562.669922   -1.514240643E-11
 562.500549   -1.432220835E-11
 562.331177   -1.34756338E-11
 562.161804   -1.262387677E-11
 561.992432   -1.178628029E-11
 561.823059   -1.097639601E-11
 561.653687   -1.020023389E-11
 561.484314   -9.45704192E-12
 561.314941   -8.74182584E-12
 561.145508   -8.048374467E-12
 560.976135   -7.371632818E-12
 560.806763   -6.709013119E-12
 560.63739   -6.060725272E-12
 560.468018   -5.429615525E-12
 560.298645   -4.820728886E-12
 560.129272   -4.240608732E-12
 559.9599   -3.696059951E-12
 559.790527   -3.192293652E-12
 559.621155   -2.730864796E-12
 559.451782   -2.308227394E-12
 559.28241   -1.915721271E-12
 559.113037   -1.541364475E-12
 558.943665   -1.172953878E-12
 558.774292   -8.013532329E-13
 558.604858   -4.227171185E-13
 558.435486   -3.873376975E-14
 558.266113   3.452119504E-13
 558.096741   7.231934235E-13
 557.927368   1.092030763E-12
 557.757996   1.453579336E-12
 557.588623   1.815390937E-12
 557.41925   2.189792401E-12
 557.249878   2.591753635E-12
 557.080505   3.036292138E-12
 556.911133   3.536001136E-12
 556.74176   4.09920058E-12
 556.572388   4.729006249E-12
 556.403015   5.423439475E-12
 556.233582   6.176542784E-12
 556.064209   6.980303922E-12
 555.894836   7.826960434E-12
 555.725464   8.711097815E-12
 555.556091   9.631006929E-12
 555.386719   1.058893164E-11
 555.217346   1.159015765E-11
 555.047974   1.264116156E-11
 554.878601   1.374730885E-11
 554.709229   1.491071676E-11
 554.539856   1.61288656E-11
 554.370483   1.739432903E-11
 554.201111   1.869569777E-11
 554.031738   2.00194479E-11
 553.862305   2.135213881E-11
 553.692932   2.268225018E-11
 553.52356   2.400094533E-11
 553.354187   2.530153344E-11
 553.184814   2.65777695E-11
 553.015442   2.782174317E-11
 552.846069   2.902214233E-11
 552.676697   3.016359384E-11
 552.507324   3.12273124E-11
 552.337952   3.219274153E-11
 552.168579   3.303956414E-11
 551.999207   3.374940258E-11
 551.829834   3.430676576E-11
 551.660461   3.469926776E-11
 551.491028   3.491735026E-11
 551.321655   3.495375517E-11
 551.152283   3.480299382E-11
 550.98291   3.446078839E-11
 550.813538   3.392355841E-11
 550.644165   3.318793504E-11
 550.474792   3.225050435E-11
 550.30542   3.110790098E-11
 550.136047   2.975736324E-11
 549.966675   2.81975155E-11
 549.797302   2.642908808E-11
 549.62793   2.445523124E-11
 549.458557   2.228132956E-11
 549.289185   1.991446071E-11
 549.119751   1.736284554E-11
 548.950378   1.463553237E-11
 548.781006   1.174248199E-11
 548.611633   8.694783608E-12
 548.442261   5.504758541E-12
 548.272888   2.185685877E-12
 548.103516   -1.248757933E-12
 547.934143   -4.785062103E-12
 547.764771   -8.410043495E-12
 547.595398   -1.211038908E-11
 547.426025   -1.587160958E-11
 547.256653   -1.967673073E-11
 547.08728   -2.350520646E-11
 546.917908   -2.733245401E-11
 546.748474   -3.113030667E-11
 546.579102   -3.486830963E-11
 546.409729   -3.851565247E-11
 546.240356   -4.204334103E-11
 546.070984   -4.542619059E-11
 545.901611   -4.864403325E-11
 545.732239   -5.168187406E-11
 545.562866   -5.452868712E-11
 545.393494   -5.717522289E-11
 545.224121   -5.961130894E-11
 545.054749   -6.182349077E-11
 544.885376   -6.379373418E-11
 544.716003   -6.549969594E-11
 544.546631   -6.691636828E-11
 544.377258   -6.801841729E-11
 544.207825   -6.878259767E-11
 544.038452   -6.918939727E-11
 543.86908   -6.922369622E-11
 543.699707   -6.887453802E-11
 543.530334   -6.813422743E-11
 543.360962   -6.69972966E-11
 543.191589   -6.545959608E-11
 543.022217   -6.351774662E-11
 542.852844   -6.116920165E-11
 542.683472   -5.841279543E-11
 542.514099   -5.524999902E-11
 542.344727   -5.16863323E-11
 542.175354   -4.773260953E-11
 542.005981   -4.340527243E-11
 541.836548   -3.872552279E-11
 541.667175   -3.371731713E-11
 541.497803   -2.840491731E-11
 541.32843   -2.28109788E-11
 541.159058   -1.695605115E-11
 540.989685   -1.085980958E-11
 540.820313   -4.543561274E-12
 540.65094   1.967082313E-12
 540.481567   8.640532734E-12
 540.312195   1.543922282E-11
 540.142822   2.232128544E-11
 539.97345   2.924321896E-11
 539.804077   3.616244457E-11
 539.634705   4.303897863E-11
 539.465271   4.983576399E-11
 539.295898   5.651791882E-11
 539.126526   6.305124478E-11
 538.957153   6.940063801E-11
 538.787781   7.552879849E-11
 538.618408   8.139545982E-11
 538.449036   8.6957469E-11
 538.279663   9.216978569E-11
 538.110291   9.698743197E-11
 537.940918   1.01368039E-10
 537.771545   1.052743448E-10
 537.602173   1.08675853E-10
 537.4328   1.115490478E-10
 537.263428   1.138760336E-10
 537.093994   1.156420376E-10
 536.924622   1.168329877E-10
 536.755249   1.174339376E-10
 536.585876   1.174289554E-10
 536.416504   1.168024705E-10
 536.247131   1.155409934E-10
 536.077759   1.136348723E-10
 535.908386   1.110789793E-10
 535.739014   1.078725859E-10
 535.569641   1.040188491E-10
 535.400269   9.952432628E-11
 535.230896   9.439907883E-11
 535.061523   8.865705392E-11
 534.892151   8.231675758E-11
 534.722717   7.540160163E-11
 534.553345   6.794000779E-11
 534.383972   5.996517172E-11
 534.2146   5.151478549E-11
 534.045227   4.263080514E-11
 533.875854   3.335900653E-11
 533.706482   2.374821E-11
 533.537109   1.384899227E-11
 533.367737   3.712194614E-12
 533.198364   -6.612278433E-12
 533.028992   -1.707572972E-11
 532.859619   -2.762969194E-11
 532.690247   -3.822396566E-11
 532.520874   -4.880448823E-11
 532.351501   -5.931204139E-11
 532.182068   -6.968232935E-11
 532.012695   -7.984791994E-11
 531.843323   -8.974099935E-11
 531.67395   -9.929623096E-11
 531.504578   -1.084526635E-10
 531.335205   -1.171541752E-10
 531.165833   -1.253487453E-10
 530.99646   -1.329868715E-10
 530.827087   -1.400199123E-10
 530.657715   -1.463990734E-10
 530.488342   -1.520751025E-10
 530.31897   -1.569987335E-10
 530.149597   -1.611218936E-10
 529.980225   -1.643993969E-10
 529.810791   -1.667909838E-10
 529.641418   -1.682636391E-10
 529.472046   -1.687934376E-10
 529.302673   -1.683667927E-10
 529.133301   -1.669804295E-10
 528.963928   -1.646399961E-10
 528.794556   -1.61357705E-10
 528.625183   -1.57149585E-10
 528.455811   -1.520331361E-10
 528.286438   -1.460262328E-10
 528.117065   -1.391475268E-10
 527.947693   -1.314178905E-10
 527.77832   -1.228626784E-10
 527.608948   -1.135137678E-10
 527.439514   -1.034108979E-10
 527.270142   -9.260198858E-11
 527.100769   -8.114252326E-11
 526.931396   -6.90941887E-11
 526.762024   -5.652324095E-11
 526.592651   -4.349883995E-11
 526.423279   -3.009149527E-11
 526.253906   -1.637190557E-11
 526.084534   -2.410264046E-12
 525.915161   1.172381289E-11
 525.745789   2.59605705E-11
 525.576416   4.022867803E-11
 525.407043   5.4453244E-11
 525.237671   6.855420398E-11
 525.068237   8.244573774E-11
 524.898865   9.603736556E-11
 524.729492   1.092370638E-10
 524.56012   1.219558066E-10
 524.390747   1.341122352E-10
 524.221375   1.456362253E-10
 524.052002   1.564696428E-10
 523.882629   1.665643456E-10
 523.713257   1.75877507E-10
 523.543884   1.843662306E-10
 523.374512   1.919831516E-10
 523.205139   1.986745768E-10
 523.035767   2.043819697E-10
 522.866394   2.090461831E-10
 522.69696   2.126129967E-10
 522.527588   2.150383482E-10
 522.358215   2.162919704E-10
 522.188843   2.163585838E-10
 522.01947   2.152369533E-10
 521.850098   2.129372095E-10
 521.680725   2.094774909E-10
 521.511353   2.048803488E-10
 521.34198   1.991697779E-10
 521.172607   1.923692178E-10
 521.003235   1.845013309E-10
 520.833862   1.755893625E-10
 520.66449   1.656604021E-10
 520.495117   1.547494771E-10
 520.325745   1.429032864E-10
 520.156311   1.301822261E-10
 519.986938   1.166596403E-10
 519.817566   1.024182059E-10
 519.648193   8.754459657E-11
 519.478821   7.212384162E-11
 519.309448   5.62354191E-11
 519.140076   3.995210066E-11
 518.970703   2.334174867E-11
 518.801331   6.471117045E-12
 518.631958   -1.05896741E-11
 518.462585   -2.776344953E-11
 518.293213   -4.496390413E-11
 518.12384   -6.209566888E-11
 517.954468   -7.905624766E-11
 517.785034   -9.573956211E-11
 517.615662   -1.120405019E-10
 517.446289   -1.278596395E-10
 517.276917   -1.431073454E-10
 517.107544   -1.577058761E-10
 516.938171   -1.715893261E-10
 516.768799   -1.847004633E-10
 516.599426   -1.969860247E-10
 516.430054   -2.083915124E-10
 516.260681   -2.188575154E-10
 516.091309   -2.283190165E-10
 515.921936   -2.367079865E-10
 515.752563   -2.439584923E-10
 515.583191   -2.500123164E-10
 515.413757   -2.548238842E-10
 515.244385   -2.583627756E-10
 515.075012   -2.606133642E-10
 514.90564   -2.615727357E-10
 514.736267   -2.612469963E-10
 514.566895   -2.596474702E-10
 514.397522   -2.567872581E-10
 514.228149   -2.526785448E-10
 514.058777   -2.473311E-10
 513.889404   -2.407524735E-10
 513.720032   -2.329501869E-10
 513.550659   -2.239356894E-10
 513.381287   -2.137293537E-10
 513.211914   -2.023652634E-10
 513.04248   -1.898940449E-10
 512.873108   -1.763827001E-10
 512.703735   -1.619113593E-10
 512.534363   -1.465678273E-10
 512.36499   -1.304414771E-10
 512.195618   -1.136182468E-10
 512.026245   -9.617799612E-11
 511.856873   -7.81943052E-11
 511.6875   -5.973652129E-11
 511.518127   -4.087287453E-11
 511.348755   -2.167406879E-11
 511.179352   -2.216287267E-12
 511.009979   1.7416504E-11
 510.840607   3.713154784E-11
 510.671234   5.682802146E-11
 510.501862   7.639956029E-11
 510.332489   9.573857679E-11
 510.163116   1.147411055E-10
 509.993713   1.33311473E-10
 509.824341   1.513649067E-10
 509.654968   1.688274659E-10
 509.485596   1.856331755E-10
 509.316223   2.017190998E-10
 509.146851   2.170203739E-10
 508.977478   2.314666236E-10
 508.808075   2.449809799E-10
 508.638702   2.574816749E-10
 508.46933   2.688859413E-10
 508.299957   2.791146203E-10
 508.130585   2.880965744E-10
 507.961212   2.95772129E-10
 507.79184   3.020949324E-10
 507.622437   3.070321775E-10
 507.453064   3.105633806E-10
 507.283691   3.126773562E-10
 507.114319   3.13368248E-10
 506.944946   3.12631171E-10
 506.775574   3.104582702E-10
 506.606201   3.06836917E-10
 506.436798   3.017509853E-10
 506.267426   2.951849043E-10
 506.098053   2.871299309E-10
 505.92868   2.775908114E-10
 505.759308   2.665900556E-10
 505.589935   2.541692135E-10
 505.420563   2.403858224E-10
 505.25116   2.253076614E-10
 505.081787   2.090059376E-10
 504.912415   1.91550012E-10
 504.743042   1.730046384E-10
 504.573669   1.534305738E-10
 504.404297   1.328878813E-10
 504.234924   1.114401002E-10
 504.065521   8.915856942E-11
 503.896149   6.61252858E-11
 503.726776   4.24342575E-11
 503.557404   1.819146916E-11
 503.388031   -6.486822798E-12
 503.218658   -3.147692176E-11
 503.049286   -5.66515411E-11
 502.879883   -8.188429101E-11
 502.71051   -1.07053727E-10
 502.541138   -1.320458048E-10
 502.371765   -1.567540958E-10
 502.202393   -1.810769451E-10
 502.03302   -2.049128922E-10
 501.863647   -2.281554667E-10
 501.694244   -2.506897467E-10
 501.524872   -2.723916925E-10
 501.355499   -2.931308807E-10
 501.186127   -3.127754999E-10
 501.016754   -3.311982077E-10
 500.847382   -3.482809041E-10
 500.678009   -3.639174517E-10
 500.508636   -3.780140923E-10
 500.339233   -3.904878088E-10
 500.169861   -4.012644383E-10
 500.000488   -4.102764239E-10
 499.831116   -4.174613433E-10
 499.661743   -4.227606043E-10
 499.492371   -4.261188902E-10
 499.322998   -4.274840759E-10
 499.153595   -4.268082554E-10
 498.984222   -4.240501006E-10
 498.81485   -4.191783309E-10
 498.645477   -4.12175849E-10
 498.476105   -4.030428491E-10
 498.306732   -3.917980385E-10
 498.13736   -3.784766389E-10
 497.967957   -3.631263901E-10
 497.798584   -3.458023035E-10
 497.629211   -3.265620829E-10
 497.459839   -3.05464154E-10
 497.290466   -2.825686907E-10
 497.121094   -2.579410852E-10
 496.951721   -2.316568187E-10
 496.782318   -2.038057362E-10
 496.612946   -1.744949879E-10
 496.443573   -1.438499042E-10
 496.2742   -1.120131626E-10
 496.104828   -7.914253281E-11
 495.935455   -4.540784068E-11
 495.766083   -1.098697695E-11
 495.59668   2.393831487E-11
 495.427307   5.918725232E-11
 495.257935   9.458348688E-11
 495.088562   1.299572394E-10
 494.919189   1.651445231E-10
 494.749817   1.999841681E-10
 494.580444   2.343129302E-10
 494.411041   2.679610145E-10
 494.241669   3.007499805E-10
 494.072296   3.324930331E-10
 493.902924   3.629987699E-10
 493.733551   3.920764269E-10
 493.564178   4.195415126E-10
 493.394806   4.452198332E-10
 493.225403   4.689496569E-10
 493.05603   4.90582075E-10
 492.886658   5.099803913E-10
 492.717285   5.27018873E-10
 492.547913   5.415814464E-10
 492.37854   5.535609193E-10
 492.209167   5.628580935E-10
 492.039764   5.693818195E-10
 491.870392   5.730493857E-10
 491.701019   5.737885722E-10
 491.531647   5.715412588E-10
 491.362274   5.662669222E-10
 491.192902   5.579465223E-10
 491.023529   5.465847219E-10
 490.854126   5.322095542E-10
 490.684753   5.148706461E-10
 490.515381   4.946359433E-10
 490.346008   4.715882129E-10
 490.176636   4.458221015E-10
 490.007263   4.174432466E-10
 489.837891   3.865679443E-10
 489.668488   3.533245085E-10
 489.499115   3.178545482E-10
 489.329742   2.803143828E-10
 489.16037   2.408763466E-10
 488.990997   1.997295246E-10
 488.821625   1.570791136E-10
 488.652252   1.131453611E-10
 488.48288   6.816058828E-11
 488.313477   2.236563712E-11
 488.144104   -2.399432562E-11
 487.974731   -7.067366137E-11
 487.805359   -1.174286779E-10
 487.635986   -1.640186459E-10
 487.466614   -2.102048535E-10
 487.297241   -2.557486167E-10
 487.127838   -3.004089477E-10
 486.958466   -3.439413754E-10
 486.789093   -3.860977926E-10
 486.61972   -4.266288434E-10
 486.450348   -4.652874475E-10
 486.280975   -5.018339078E-10
 486.111603   -5.360407673E-10
 485.9422   -5.676971115E-10
 485.772827   -5.966113714E-10
 485.603455   -6.226119065E-10
 485.434082   -6.455463386E-10
 485.264709   -6.652790541E-10
 485.095337   -6.81688761E-10
 484.925964   -6.946663245E-10
 484.756561   -7.041139893E-10
 484.587189   -7.099463795E-10
 484.417816   -7.120934953E-10
 484.248444   -7.105047661E-10
 484.079071   -7.051534912E-10
 483.909698   -6.960402255E-10
 483.740326   -6.83194612E-10
 483.570923   -6.666746599E-10
 483.40155   -6.465634694E-10
 483.232178   -6.22965457E-10
 483.062805   -5.960014704E-10
 482.893433   -5.658049584E-10
 482.72406   -5.325201946E-10
 482.554688   -4.963019995E-10
 482.385284   -4.573166013E-10
 482.215912   -4.157441336E-10
 482.046539   -3.717809671E-10
 481.877167   -3.256417913E-10
 481.707794   -2.775605024E-10
 481.538422   -2.27790134E-10
 481.369049   -1.766004426E-10
 481.199646   -1.242739384E-10
 481.030273   -7.110038946E-11
 480.860901   -1.737111323E-11
 480.691528   3.662575451E-11
 480.522156   9.060800721E-11
 480.352783   1.44299267E-10
 480.183411   1.974271024E-10
 480.014008   2.497198837E-10
 479.844635   3.009044958E-10
 479.675262   3.507063251E-10
 479.50589   3.988508968E-10
 479.336517   4.450675384E-10
 479.167145   4.890941541E-10
 478.997772   5.306816653E-10
 478.828369   5.695975913E-10
 478.658997   6.056288249E-10
 478.489624   6.385839635E-10
 478.320251   6.682941422E-10
 478.150879   6.946127562E-10
 477.981506   7.174145722E-10
 477.812134   7.365924537E-10
 477.642731   7.520546963E-10
 477.473358   7.63721808E-10
 477.303986   7.715260653E-10
 477.134613   7.754134002E-10
 476.96524   7.753475084E-10
 476.795868   7.713151784E-10
 476.626495   7.63330954E-10
 476.457092   7.514392997E-10
 476.28772   7.357136567E-10
 476.118347   7.162533344E-10
 475.948975   6.931783481E-10
 475.779602   6.666249219E-10
 475.610229   6.36741937E-10
 475.440857   6.036893763E-10
 475.271484   5.676382142E-10
 475.102081   5.287720262E-10
 474.932709   4.872883208E-10
 474.763336   4.434000112E-10
 474.593964   3.973363305E-10
 474.424591   3.493427214E-10
 474.255219   2.996786985E-10
 474.085846   2.486152673E-10
 473.916443   1.964301222E-10
 473.74707   1.434035529E-10
 473.577698   8.981398264E-11
 473.408325   3.593580641E-11
 473.238953   -1.796117248E-11
 473.06958   -7.161087001E-11
 472.900208   -1.247490861E-10
 472.730804   -1.771121305E-10
 472.561432   -2.284361589E-10
 472.392059   -2.784589503E-10
 472.222687   -3.269221005E-10
 472.053314   -3.735750875E-10
 471.883942   -4.181786861E-10
 471.714569   -4.605084369E-10
 471.545166   -5.003569781E-10
 471.375793   -5.375357381E-10
 471.206421   -5.718750473E-10
 471.037048   -6.032241373E-10
 470.867676   -6.314498924E-10
 470.698303   -6.56435406E-10
 470.528931   -6.780793149E-10
 470.359528   -6.962949661E-10
 470.190155   -7.110108058E-10
 470.020782   -7.221717113E-10
 469.85141   -7.297407678E-10
 469.682037   -7.33701544E-10
 469.512665   -7.340597019E-10
 469.343292   -7.30844274E-10
 469.173889   -7.241073297E-10
 469.004517   -7.139221436E-10
 468.835144   -7.003803648E-10
 468.665771   -6.83587964E-10
 468.496399   -6.636612371E-10
 468.327026   -6.407239184E-10
 468.157654   -6.149055154E-10
 467.988251   -5.86342086E-10
 467.818878   -5.551786253E-10
 467.649506   -5.215720078E-10
 467.480133   -4.85693652E-10
 467.31076   -4.477307136E-10
 467.141388   -4.078849758E-10
 466.972015   -3.663704895E-10
 466.802612   -3.234097712E-10
 466.63324   -2.792297227E-10
 466.463867   -2.34058356E-10
 466.294495   -1.881223927E-10
 466.125122   -1.416453344E-10
 465.95575   -9.484692198E-11
 465.786377   -4.794311129E-11
 465.616974   -1.146820052E-12
 465.447601   4.533059345E-11
 465.278229   9.12785611E-11
 465.108856   1.364862945E-10
 464.939484   1.807441974E-10
 464.770111   2.238467189E-10
 464.600739   2.655960452E-10
 464.431335   3.0580663E-10
 464.261963   3.443081931E-10
 464.09259   3.809465521E-10
 463.923218   4.155828182E-10
 463.753845   4.480909255E-10
 463.584473   4.783545227E-10
 463.4151   5.062652519E-10
 463.245728   5.317219443E-10
 463.076324   5.546313964E-10
 462.906952   5.749098975E-10
 462.737579   5.924850055E-10
 462.568207   6.072976566E-10
 462.398834   6.19303886E-10
 462.229462   6.284768261E-10
 462.060089   6.348077619E-10
 461.890686   6.383065188E-10
 461.721313   6.390004081E-10
 461.551941   6.369313965E-10
 461.382568   6.321521639E-10
 461.213196   6.247224404E-10
 461.043823   6.147060638E-10
 460.874451   6.021707577E-10
 460.705048   5.871890751E-10
 460.535675   5.698414518E-10
 460.366302   5.50219037E-10
 460.19693   5.284254145E-10
 460.027557   5.045769913E-10
 459.858185   4.78801776E-10
 459.688812   4.51237353E-10
 459.519409   4.220280792E-10
 459.350037   3.913231683E-10
 459.180664   3.592746101E-10
 459.011292   3.260355874E-10
 458.841919   2.917592834E-10
 458.672546   2.565986035E-10
 458.503174   2.207061062E-10
 458.333771   1.842352382E-10
 458.164398   1.47341625E-10
 457.995026   1.101841951E-10
 457.825653   7.292499937E-11
 457.656281   3.572793797E-11
 457.486908   -1.244264457E-12
 457.317535   -3.783329552E-11
 457.148132   -7.38884301E-11
 456.97876   -1.092684068E-10
 456.809387   -1.43841411E-10
 456.640015   -1.774839026E-10
 456.470642   -2.100784963E-10
 456.30127   -2.415119771E-10
 456.131897   -2.716739889E-10
 455.962494   -3.004566596E-10
 455.793121   -3.277553784E-10
 455.623749   -3.53469809E-10
 455.454376   -3.775054436E-10
 455.285004   -3.997752407E-10
 455.115631   -4.202008463E-10
 454.946259   -4.387140096E-10
 454.776855   -4.552573041E-10
 454.607483   -4.697845446E-10
 454.43811   -4.822603983E-10
 454.268738   -4.926590247E-10
 454.099365   -5.009622162E-10
 453.929993   -5.071577602E-10
 453.76062   -5.112381074E-10
 453.591217   -5.13199927E-10
 453.421844   -5.130453284E-10
 453.252472   -5.107837486E-10
 453.083099   -5.064341169E-10
 452.913727   -5.000270753E-10
 452.744354   -4.916058116E-10
 452.574982   -4.812256149E-10
 452.405579   -4.6895271E-10
 452.236206   -4.548615096E-10
 452.066833   -4.390320607E-10
 451.897461   -4.215479077E-10
 451.728088   -4.024941491E-10
 451.558716   -3.819567995E-10
 451.389343   -3.600235943E-10
 451.21994   -3.367853219E-10
 451.050568   -3.123385717E-10
 450.881195   -2.867880655E-10
 450.711823   -2.602484062E-10
 450.54245   -2.328444382E-10
 450.373077   -2.047093328E-10
 450.203705   -1.759811186E-10
 450.034332   -1.467982541E-10
 449.864929   -1.172954095E-10
 449.695557   -8.760067671E-11
 449.526184   -5.783484455E-11
 449.356812   -2.811254181E-11
 449.187439   1.455218541E-12
 449.018066   3.075809052E-11
 448.848694   5.968420203E-11
 448.679291   8.811888719E-11
 448.509918   1.159446081E-10
 448.340546   1.430424251E-10
 448.171173   1.692942869E-10
 448.001801   1.945860417E-10
 447.832428   2.188109277E-10
 447.663055   2.418728828E-10
 447.493652   2.636887375E-10
 447.32428   2.841885616E-10
 447.154907   3.03313874E-10
 446.985535   3.21014354E-10
 446.816162   3.372437329E-10
 446.64679   3.519564362E-10
 446.477417   3.651061953E-10
 446.308014   3.766475465E-10
 446.138641   3.865388842E-10
 445.969269   3.94746652E-10
 445.799896   4.01249034E-10
 445.630524   4.0603787E-10
 445.461151   4.091185446E-10
 445.291779   4.105081275E-10
 445.122375   4.102326534E-10
 444.953003   4.083236804E-10
 444.78363   4.048152646E-10
 444.614258   3.997417397E-10
 444.444885   3.93136218E-10
 444.275513   3.850306463E-10
 444.10614   3.754574984E-10
 443.936737   3.644528013E-10
 443.767365   3.520598257E-10
 443.597992   3.383331393E-10
 443.428619   3.233405765E-10
 443.259247   3.071634336E-10
 443.089874   2.89894192E-10
 442.920502   2.716325498E-10
 442.751099   2.524809528E-10
 442.581726   2.325409726E-10
 442.412354   2.119107667E-10
 442.242981   1.906843849E-10
 442.073608   1.68952366E-10
 441.904236   1.468031946E-10
 441.734863   1.243251474E-10