-1.60312498 -1.87760032E-18
-1.38937497 -1.92520022E-18
-1.17562497 -1.97276434E-18
-0.961875021 -2.02024616E-18
-0.748125017 -2.06759895E-18
-0.534375012 -2.11477657E-18
-0.320625007 -2.16173334E-18
-0.106875002 -2.20842417E-18
0.106875002 -2.25480501E-18
0.320625007 -2.30083265E-18
0.534375012 -2.34646510E-18
0.748125017 -2.39166143E-18
0.961875021 -2.43638212E-18
1.17562497 -2.48058913E-18
1.38937497 -2.52424586E-18
1.60312498 -2.56731695E-18
1.81687498 -2.60976910E-18
2.03062510 -2.65157067E-18
2.24437499 -2.69269148E-18
2.45812511 -2.73310401E-18
2.67187500 -2.77278179E-18
2.88562489 -2.81170105E-18
3.09937501 -2.84983987E-18
3.31312490 -2.88717798E-18
3.52687502 -2.92369738E-18
3.74062490 -2.95938236E-18
3.95437503 -2.99421866E-18
4.16812515 -3.02819428E-18
4.38187504 -3.06129970E-18
4.59562492 -3.09352666E-18
4.80937481 -3.12486956E-18
5.02312517 -3.15532470E-18
5.23687506 -3.18488979E-18
5.45062494 -3.21356463E-18
5.66437483 -3.24135045E-18
5.87812519 -3.26825078E-18
6.09187508 -3.29427036E-18
6.30562496 -3.31941562E-18
6.51937485 -3.34369461E-18
6.73312521 -3.36711665E-18
6.94687510 -3.38969247E-18
7.16062498 -3.41143429E-18
7.37437487 -3.43235514E-18
7.58812523 -3.45246928E-18
7.80187511 -3.47179201E-18
8.01562500 -3.49033905E-18
8.22937489 -3.50812799E-18
8.44312477 -3.52517576E-18
8.65687466 -3.54150141E-18
8.87062454 -3.55712396E-18
9.08437538 -3.57206284E-18
9.29812527 -3.58633791E-18
9.51187515 -3.59996944E-18
9.72562504 -3.61297726E-18
9.93937492 -3.62538249E-18
10.1531200 -3.63720580E-18
10.3668699 -3.64846828E-18
10.5806198 -3.65919019E-18
10.7943802 -3.66939305E-18
11.0081301 -3.67909671E-18
11.2218800 -3.68832184E-18
11.4356298 -3.69708912E-18
11.6493702 -3.70541801E-18
11.8631201 -3.71332751E-18
12.0768700 -3.72083789E-18
12.2906199 -3.72796695E-18
12.5043802 -3.73473370E-18
12.7181301 -3.74115593E-18
12.9318800 -3.74725142E-18
13.1456299 -3.75303714E-18
13.3593798 -3.75852921E-18
13.5731201 -3.76374375E-18
13.7868700 -3.76869567E-18
14.0006199 -3.77340026E-18
14.2143698 -3.77787200E-18
14.4281301 -3.78212371E-18
14.6418800 -3.78616945E-18
14.8556299 -3.79002204E-18
15.0693798 -3.79369307E-18
15.2831202 -3.79719370E-18
15.4968700 -3.80053592E-18
15.7106199 -3.80372884E-18
15.9243698 -3.80678361E-18
16.1381207 -3.80970852E-18
16.3518791 -3.81251308E-18
16.5656204 -3.81520597E-18
16.7793808 -3.81779463E-18
16.9931297 -3.82028692E-18
17.2068691 -3.82268988E-18
17.4206295 -3.82501012E-18
17.6343708 -3.82725344E-18
17.8481293 -3.82942561E-18
18.0618706 -3.83153244E-18
18.2756310 -3.83357889E-18
18.4893703 -3.83556991E-18
18.7031193 -3.83750965E-18
18.9168797 -3.83940224E-18
19.1306190 -3.84125182E-18
19.3443794 -3.84306127E-18
19.5581207 -3.84483434E-18
19.7718792 -3.84657390E-18
19.9856205 -3.84828244E-18
20.1993809 -3.84996244E-18
20.4131203 -3.85161639E-18
20.6268692 -3.85324676E-18
20.8406296 -3.85485521E-18
21.0543709 -3.85644382E-18
21.2681293 -3.85801380E-18
21.4818707 -3.85956684E-18
21.6956291 -3.86110374E-18
21.9093704 -3.86262658E-18
22.1231308 -3.86413535E-18
22.3368797 -3.86563214E-18
22.5506191 -3.86711734E-18
22.7643795 -3.86859220E-18
22.9781208 -3.87005714E-18
23.1918793 -3.87151256E-18
23.4056206 -3.87291381E-18
23.6193810 -3.87431216E-18
23.8331203 -3.87570678E-18
24.0468807 -3.87709810E-18
24.2606297 -3.87848611E-18
24.4743690 -3.87987081E-18
24.6881294 -3.88125179E-18
24.9018707 -3.88262987E-18
25.1156292 -3.88400423E-18
25.3293705 -3.88537487E-18
25.5431309 -3.88674179E-18
25.7568703 -3.88810457E-18
25.9706192 -3.88946321E-18
26.1843796 -3.89081813E-18
26.3981209 -3.89216975E-18
26.6118793 -3.89351722E-18
26.8256207 -3.89486098E-18
27.0393791 -3.89620142E-18
27.2531204 -3.89753732E-18
27.4668808 -3.89886950E-18
27.6806297 -3.90019753E-18
27.8943691 -3.90152144E-18
28.1081295 -3.90284162E-18
28.3218708 -3.90415766E-18
28.5356293 -3.90547040E-18
28.7493706 -3.90677941E-18
28.9631310 -3.90808429E-18
29.1768703 -3.90938586E-18
29.3906193 -3.91068329E-18
29.6043797 -3.91197659E-18
29.8181190 -3.91326616E-18
30.0318794 -3.91455201E-18
30.2456207 -3.91583456E-18
30.4593792 -3.91711338E-18
30.6731205 -3.91838848E-18
30.8868809 -3.91966068E-18
31.1006203 -3.92092916E-18
31.3143692 -3.92219392E-18
31.5281296 -3.92345537E-18
31.7418709 -3.92471310E-18
31.9556293 -3.92596752E-18
32.1693802 -3.92721863E-18
32.3831291 -3.92846684E-18
32.5968704 -3.92971175E-18
32.8106194 -3.93095376E-18
33.0243797 -3.93219288E-18
33.2381210 -3.93342869E-18
33.4518700 -3.93466119E-18
33.6656303 -3.93589079E-18
33.8793793 -3.93711750E-18
34.0931206 -3.93834090E-18
34.3068695 -3.93956182E-18
34.5206299 -3.94078026E-18
34.7343788 -3.94199580E-18
34.9481201 -3.94320886E-18
35.1618805 -3.94441902E-18
35.3756294 -3.94562588E-18
35.5893707 -3.94683025E-18
35.8031197 -3.94803132E-18
36.0168800 -3.94923032E-18
36.2306290 -3.95042601E-18
36.4443703 -3.95161963E-18
36.6581306 -3.95281036E-18
36.8718796 -3.95399860E-18
37.0856209 -3.95518436E-18
37.2993698 -3.95636682E-18
37.5131302 -3.95754638E-18
37.7268791 -3.95872346E-18
37.9406204 -3.95989764E-18
38.1543694 -3.96106934E-18
38.3681297 -3.96223856E-18
38.5818710 -3.96340530E-18
38.7956200 -3.96456956E-18
39.0093803 -3.96573092E-18
39.2231293 -3.96688938E-18
39.4368706 -3.96804454E-18
39.6506195 -3.96919722E-18
39.8643799 -3.97034700E-18
40.0781212 -3.97149430E-18
40.2918701 -3.97263870E-18
40.5056305 -3.97378021E-18
40.7193794 -3.97491924E-18
40.9331207 -3.97605496E-18
41.1468697 -3.97718778E-18
41.3606300 -3.97831771E-18
41.5743790 -3.97944433E-18
41.7881203 -3.98056764E-18
42.0018806 -3.98168806E-18
42.2156296 -3.98280558E-18
42.4293709 -3.98391979E-18
42.6431198 -3.98503111E-18
42.8568802 -3.98613912E-18
43.0706291 -3.98724340E-18
43.2843704 -3.98834438E-18
43.4981194 -3.98944164E-18
43.7118797 -3.99053517E-18
43.9256210 -3.99162539E-18
44.1393700 -3.99271189E-18
44.3531303 -3.99379509E-18
44.5668793 -3.99487456E-18
44.7806206 -3.99594989E-18
44.9943695 -3.99702151E-18
45.2081299 -3.99808898E-18
45.4218788 -3.99915232E-18
45.6356201 -4.00021153E-18
45.8493805 -4.00126618E-18
46.0631294 -4.00231712E-18
46.2768707 -4.00336391E-18
46.4906197 -4.00440616E-18
46.7043800 -4.00544386E-18
46.9181290 -4.00647701E-18
47.1318703 -4.00750478E-18
47.3456306 -4.00852800E-18
47.5593796 -4.00954585E-18
47.7731209 -4.01055914E-18
47.9868698 -4.01156706E-18
48.2006302 -4.01257043E-18
48.4143791 -4.01356843E-18
48.6281204 -4.01456063E-18
48.8418694 -4.01554787E-18
49.0556297 -4.01652891E-18
49.2693710 -4.01750415E-18
49.4831200 -4.01847402E-18
49.6968803 -4.01943769E-18
49.9106293 -4.02039556E-18
50.1243706 -4.02134765E-18
50.3381195 -4.02229353E-18
50.5518799 -4.02323321E-18
50.7656212 -4.02416668E-18
50.9793701 -4.02509353E-18
51.1931305 -4.02601336E-18
51.4068794 -4.02692698E-18
51.6206207 -4.02783398E-18
51.8343697 -4.02873437E-18
52.0481300 -4.02962814E-18
52.2618790 -4.03051529E-18
52.4756203 -4.03139624E-18
52.6893806 -4.03226974E-18
52.9031296 -4.03313663E-18
53.1168709 -4.03399607E-18
53.3306198 -4.03484889E-18
53.5443802 -4.03569468E-18
53.7581291 -4.03653386E-18
53.9718704 -4.03736600E-18
54.1856194 -4.03819194E-18
54.3993797 -4.03901043E-18
54.6131210 -4.03982231E-18
54.8268700 -4.04062716E-18
55.0406303 -4.04142497E-18
55.2543793 -4.04221617E-18
55.4681206 -4.04300034E-18
55.6818695 -4.04377830E-18
55.8956299 -4.04455006E-18
56.1093788 -4.04531562E-18
56.3231201 -4.04607456E-18
56.5368805 -4.04682770E-18
56.7506294 -4.04757424E-18
56.9643707 -4.04831415E-18
57.1781197 -4.04904868E-18
57.3918800 -4.04977702E-18
57.6056290 -4.05050039E-18
57.8193703 -4.05121797E-18
58.0331306 -4.05193017E-18
58.2468796 -4.05263741E-18
58.4606209 -4.05333968E-18
58.6743698 -4.05403700E-18
58.8881302 -4.05472893E-18
59.1018791 -4.05541673E-18
59.3156204 -4.05609999E-18
59.5293694 -4.05677951E-18
59.7431297 -4.05745491E-18
59.9568710 -4.05812699E-18
60.1706200 -4.05879535E-18
60.3843803 -4.05946041E-18
60.5981293 -4.06012174E-18
60.8118706 -4.06078017E-18
61.0256195 -4.06143530E-18
61.2393799 -4.06208753E-18
61.4531212 -4.06273770E-18
61.6668701 -4.06338538E-18
61.8806305 -4.06403099E-18
62.0943794 -4.06467454E-18
62.3081207 -4.06531643E-18
62.5218697 -4.06595584E-18
62.7356300 -4.06659401E-18
62.9493790 -4.06723053E-18
63.1631203 -4.06786580E-18
63.3768806 -4.06849984E-18
63.5906296 -4.06913304E-18
63.8043709 -4.06976542E-18
64.0181274 -4.07039739E-18
64.2318726 -4.07102853E-18
64.4456329 -4.07165884E-18
64.6593781 -4.07228874E-18
64.8731232 -4.07291781E-18
65.0868835 -4.07354647E-18
65.3006287 -4.07417512E-18
65.5143738 -4.07480378E-18
65.7281265 -4.07543244E-18
65.9418716 -4.07606109E-18
66.1556168 -4.07668975E-18
66.3693771 -4.07731841E-18
66.5831223 -4.07794707E-18
66.7968826 -4.07857531E-18
67.0106277 -4.07920397E-18
67.2243729 -4.07983262E-18
67.4381332 -4.08046128E-18
67.6518784 -4.08109035E-18
67.8656235 -4.08171984E-18
68.0793762 -4.08234932E-18
68.2931213 -4.08297839E-18
68.5068665 -4.08360746E-18
68.7206268 -4.08423612E-18
68.9343719 -4.08486478E-18
69.1481171 -4.08549302E-18
69.3618774 -4.08612127E-18
69.5756226 -4.08674992E-18
69.7893829 -4.08737817E-18
70.0031281 -4.08800600E-18
70.2168732 -4.08863341E-18
70.4306335 -4.08926000E-18
70.6443787 -4.08988659E-18
70.8581238 -4.09051194E-18
71.0718765 -4.09113729E-18
71.2856216 -4.09176181E-18
71.4993668 -4.09238592E-18
71.7131271 -4.09300961E-18
71.9268723 -4.09363248E-18
72.1406174 -4.09425411E-18
72.3543777 -4.09487490E-18
72.5681229 -4.09549405E-18
72.7818832 -4.09611237E-18
72.9956284 -4.09672986E-18
73.2093735 -4.09734611E-18
73.4231262 -4.09796112E-18
73.6368713 -4.09857530E-18
73.8506165 -4.09918782E-18
74.0643768 -4.09979952E-18
74.2781219 -4.10040916E-18
74.4918671 -4.10101755E-18
74.7056274 -4.10162428E-18
74.9193726 -4.10222937E-18
75.1331329 -4.10283321E-18
75.3468781 -4.10343540E-18
75.5606232 -4.10403634E-18
75.7743835 -4.10463605E-18
75.9881287 -4.10523369E-18
76.2018738 -4.10582926E-18
76.4156265 -4.10642317E-18
76.6293716 -4.10701543E-18
76.8431168 -4.10760604E-18
77.0568771 -4.10819541E-18
77.2706223 -4.10878271E-18
77.4843826 -4.10936876E-18
77.6981277 -4.10995317E-18
77.9118729 -4.11053550E-18
78.1256332 -4.11111660E-18
78.3393784 -4.11169521E-18
78.5531235 -4.11227258E-18
78.7668762 -4.11284788E-18
78.9806213 -4.11342153E-18
79.1943665 -4.11399394E-18
79.4081268 -4.11456470E-18
79.6218719 -4.11513380E-18
79.8356171 -4.11570124E-18
80.0493774 -4.11626662E-18
80.2631226 -4.11683035E-18
80.4768829 -4.11739200E-18
80.6906281 -4.11795200E-18
80.9043732 -4.11851076E-18
81.1181335 -4.11906787E-18
81.3318787 -4.11962332E-18
81.5456238 -4.12017712E-18
81.7593765 -4.12072926E-18
81.9731216 -4.12127975E-18
82.1868668 -4.12182817E-18
82.4006271 -4.12237494E-18
82.6143723 -4.12291964E-18
82.8281174 -4.12346268E-18
83.0418777 -4.12400407E-18
83.2556229 -4.12454422E-18
83.4693832 -4.12508189E-18
83.6831284 -4.12561831E-18
83.8968735 -4.12615226E-18
84.1106262 -4.12668413E-18
84.3243713 -4.12721394E-18
84.5381165 -4.12774210E-18
84.7518768 -4.12826777E-18
84.9656219 -4.12879179E-18
85.1793671 -4.12931416E-18
85.3931274 -4.12983404E-18
85.6068726 -4.13035227E-18
85.8206329 -4.13086760E-18
86.0343781 -4.13138087E-18
86.2481232 -4.13189165E-18
86.4618835 -4.13239995E-18
86.6756287 -4.13290536E-18
86.8893738 -4.13340870E-18
87.1031265 -4.13390997E-18
87.3168716 -4.13440793E-18
87.5306168 -4.13490383E-18
87.7443771 -4.13539641E-18
87.9581223 -4.13588611E-18
88.1718826 -4.13637249E-18
88.3856277 -4.13685597E-18
88.5993729 -4.13733657E-18
88.8131332 -4.13781385E-18
89.0268784 -4.13828824E-18
89.2406235 -4.13875973E-18
89.4543762 -4.13922750E-18
89.6681213 -4.13969155E-18
89.8818665 -4.14015229E-18
90.0956268 -4.14060931E-18
90.3093719 -4.14106219E-18
90.5231171 -4.14151135E-18
90.7368774 -4.14195720E-18
90.9506226 -4.14239891E-18
91.1643829 -4.14283690E-18
91.3781281 -4.14327076E-18
91.5918732 -4.14370048E-18
91.8056335 -4.14412607E-18
92.0193787 -4.14454751E-18
92.2331238 -4.14496441E-18
92.4468765 -4.14537676E-18
92.6606216 -4.14578539E-18
92.8743668 -4.14618947E-18
93.0881271 -4.14658941E-18
93.3018723 -4.14698480E-18
93.5156174 -4.14737564E-18
93.7293777 -4.14776194E-18
93.9431229 -4.14814327E-18
94.1568832 -4.14852005E-18
94.3706284 -4.14889187E-18
94.5843735 -4.14925955E-18
94.7981262 -4.14962227E-18
95.0118713 -4.14998085E-18
95.2256165 -4.15033447E-18
95.4393768 -4.15068354E-18
95.6531219 -4.15102765E-18
95.8668671 -4.15136720E-18
96.0806274 -4.15170221E-18
96.2943726 -4.15203267E-18
96.5081329 -4.15235817E-18
96.7218781 -4.15267994E-18
96.9356232 -4.15299716E-18
97.1493835 -4.15331025E-18
97.3631287 -4.15361879E-18
97.5768738 -4.15392319E-18
97.7906265 -4.15422263E-18
98.0043716 -4.15451835E-18
98.2181168 -4.15480993E-18
98.4318771 -4.15509738E-18
98.6456223 -4.15538110E-18
98.8593826 -4.15566151E-18
99.0731277 -4.15593779E-18
99.2868729 -4.15621076E-18
99.5006332 -4.15648001E-18
99.7143784 -4.15674553E-18
99.9281235 -4.15700775E-18
100.141899 -4.15726666E-18
100.355598 -4.15752267E-18
100.569397 -4.15777579E-18
100.783096 -4.15802642E-18
100.996902 -4.15827416E-18
101.210602 -4.15851901E-18
101.424400 -4.15876096E-18
101.638100 -4.15900084E-18
101.851898 -4.15923783E-18
102.065598 -4.15947316E-18
102.279404 -4.15970601E-18
102.493103 -4.15993721E-18
102.706902 -4.16016675E-18
102.920601 -4.16039464E-18
103.134399 -4.16062087E-18
103.348099 -4.16084587E-18
103.561897 -4.16106879E-18
103.775597 -4.16129089E-18
103.989403 -4.16151133E-18
104.203102 -4.16173095E-18
104.416901 -4.16194974E-18
104.630600 -4.16216770E-18
104.844398 -4.16238484E-18
105.058098 -4.16260156E-18
105.271896 -4.16281704E-18
105.485603 -4.16303211E-18
105.699402 -4.16324635E-18
105.913101 -4.16346017E-18
106.126900 -4.16367358E-18
106.340599 -4.16388700E-18
106.554398 -4.16410000E-18
106.768097 -4.16431299E-18
106.981903 -4.16452599E-18
107.195602 -4.16473858E-18
107.409401 -4.16495116E-18
107.623100 -4.16516334E-18
107.836899 -4.16537551E-18
108.050598 -4.16558727E-18
108.264397 -4.16579944E-18
108.478104 -4.16601161E-18
108.691902 -4.16622378E-18
108.905602 -4.16643595E-18
109.119400 -4.16664813E-18
109.333099 -4.16685988E-18
109.546898 -4.16707164E-18
109.760597 -4.16728340E-18
109.974403 -4.16749474E-18
110.188103 -4.16770650E-18
110.401901 -4.16791826E-18
110.615601 -4.16813002E-18
110.829399 -4.16834178E-18
111.043098 -4.16855312E-18
111.256897 -4.16876447E-18
111.470596 -4.16897498E-18
111.684402 -4.16918550E-18
111.898102 -4.16939561E-18
112.111900 -4.16960530E-18
112.325600 -4.16981499E-18
112.539398 -4.17002426E-18
112.753098 -4.17023313E-18
112.966904 -4.17044158E-18
113.180603 -4.17064878E-18
113.394402 -4.17085599E-18
113.608101 -4.17106196E-18
113.821899 -4.17126752E-18
114.035599 -4.17147266E-18
114.249397 -4.17167697E-18
114.463097 -4.17188087E-18
114.676903 -4.17208394E-18
114.890602 -4.17228619E-18
115.104401 -4.17248761E-18
115.318100 -4.17268778E-18
115.531898 -4.17288672E-18
115.745598 -4.17308524E-18
115.959396 -4.17328253E-18
116.173103 -4.17347898E-18
116.386902 -4.17367461E-18
116.600601 -4.17386941E-18
116.814400 -4.17406297E-18
117.028099 -4.17425529E-18
117.241898 -4.17444637E-18
117.455597 -4.17463621E-18
117.669403 -4.17482522E-18
117.883102 -4.17501299E-18
118.096901 -4.17519993E-18
118.310600 -4.17538563E-18
118.524399 -4.17557051E-18
118.738098 -4.17575414E-18
118.951897 -4.17593654E-18
119.165604 -4.17611728E-18
119.379402 -4.17629719E-18
119.593102 -4.17647544E-18
119.806900 -4.17665287E-18
120.020599 -4.17682906E-18
120.234398 -4.17700401E-18
120.448097 -4.17717855E-18
120.661903 -4.17735143E-18
120.875603 -4.17752307E-18
121.089401 -4.17769347E-18
121.303101 -4.17786263E-18
121.516899 -4.17803054E-18
121.730598 -4.17819763E-18
121.944397 -4.17836348E-18
122.158096 -4.17852851E-18
122.371902 -4.17869270E-18
122.585602 -4.17885566E-18
122.799400 -4.17901737E-18
123.013100 -4.17917743E-18
123.226898 -4.17933708E-18
123.440598 -4.17949507E-18
123.654404 -4.17965223E-18
123.868103 -4.17980857E-18
124.081902 -4.17996408E-18
124.295601 -4.18011876E-18
124.509399 -4.18027262E-18
124.723099 -4.18042565E-18
124.936897 -4.18057702E-18
125.150597 -4.18072798E-18
125.364403 -4.18087770E-18
125.578102 -4.18102659E-18
125.791901 -4.18117466E-18
126.005600 -4.18132190E-18
126.219398 -4.18146831E-18
126.433098 -4.18161389E-18
126.646896 -4.18175823E-18
126.860603 -4.18190175E-18
127.074402 -4.18204444E-18
127.288101 -4.18218589E-18
127.501900 -4.18232692E-18
127.715599 -4.18246713E-18
127.929398 -4.18260651E-18
128.143097 -4.18274506E-18
128.356903 -4.18288320E-18
128.570602 -4.18302051E-18
128.784393 -4.18315700E-18
128.998093 -4.18329265E-18
129.211899 -4.18342748E-18
129.425598 -4.18356149E-18
129.639404 -4.18369508E-18
129.853104 -4.18382825E-18
130.066895 -4.18396060E-18
130.280594 -4.18409212E-18
130.494400 -4.18422323E-18
130.708099 -4.18435351E-18
130.921906 -4.18448297E-18
131.135605 -4.18461159E-18
131.349396 -4.18473939E-18
131.563095 -4.18486719E-18
131.776901 -4.18499416E-18
131.990601 -4.18512072E-18
132.204407 -4.18524687E-18
132.418106 -4.18537260E-18
132.631897 -4.18549750E-18
132.845596 -4.18562158E-18
133.059402 -4.18574483E-18
133.273102 -4.18586767E-18
133.486893 -4.18599009E-18
133.700607 -4.18611169E-18
133.914398 -4.18623328E-18
134.128098 -4.18635405E-18
134.341904 -4.18647440E-18
134.555603 -4.18659393E-18
134.769394 -4.18671305E-18
134.983093 -4.18683133E-18
135.196899 -4.18694921E-18
135.410599 -4.18706667E-18
135.624405 -4.18718412E-18
135.838104 -4.18730076E-18
136.051895 -4.18741698E-18
136.265594 -4.18753278E-18
136.479401 -4.18764817E-18
136.693100 -4.18776274E-18
136.906906 -4.18787648E-18
137.120605 -4.18798980E-18
137.334396 -4.18810230E-18
137.548096 -4.18821479E-18
137.761902 -4.18832646E-18
137.975601 -4.18843730E-18
138.189407 -4.18854773E-18
138.403107 -4.18865733E-18
138.616898 -4.18876569E-18
138.830597 -4.18887364E-18
139.044403 -4.18898035E-18
139.258102 -4.18908664E-18
139.471893 -4.18919169E-18
139.685593 -4.18929633E-18
139.899399 -4.18939973E-18
140.113098 -4.18950230E-18
140.326904 -4.18960321E-18
140.540604 -4.18970330E-18
140.754395 -4.18980174E-18
140.968094 -4.18989852E-18
141.181900 -4.18999447E-18
141.395599 -4.19008877E-18
141.609406 -4.19018183E-18
141.823105 -4.19027323E-18
142.036896 -4.19036298E-18
142.250595 -4.19045066E-18
142.464401 -4.19053669E-18
142.678101 -4.19062023E-18
142.891907 -4.19070212E-18
143.105606 -4.19078153E-18
143.319397 -4.19085929E-18
143.533096 -4.19093456E-18
143.746902 -4.19100735E-18
143.960602 -4.19107766E-18
144.174393 -4.19114508E-18
144.388107 -4.19120919E-18
144.601898 -4.19127081E-18
144.815598 -4.19132913E-18
145.029404 -4.19138413E-18
145.243103 -4.19143583E-18
145.456894 -4.19148464E-18
145.670593 -4.19153013E-18
145.884399 -4.19157149E-18
146.098099 -4.19160954E-18
146.311905 -4.19164346E-18
146.525604 -4.19167323E-18
146.739395 -4.19169929E-18
146.953094 -4.19172121E-18
147.166901 -4.19173858E-18
147.380600 -4.19175223E-18
147.594406 -4.19176133E-18
147.808105 -4.19176588E-18
148.021896 -4.19176588E-18
148.235596 -4.19176092E-18
148.449402 -4.19175099E-18
148.663101 -4.19173651E-18
148.876907 -4.19171666E-18
149.090607 -4.19169267E-18
149.304398 -4.19166331E-18
149.518097 -4.19162981E-18
149.731903 -4.19159093E-18
149.945602 -4.19154668E-18
150.159393 -4.19149787E-18
150.373093 -4.19144369E-18
150.586899 -4.19138455E-18
150.800598 -4.19132044E-18
151.014404 -4.19125137E-18
151.228104 -4.19117734E-18
151.441895 -4.19109876E-18
151.655594 -4.19101480E-18
151.869400 -4.19092670E-18
152.083099 -4.19083323E-18
152.296906 -4.19073521E-18
152.510605 -4.19063223E-18
152.724396 -4.19052511E-18
152.938095 -4.19041344E-18
153.151901 -4.19029805E-18
153.365601 -4.19017811E-18
153.579407 -4.19005486E-18
153.793106 -4.18992706E-18
154.006897 -4.18979595E-18
154.220596 -4.18966070E-18
154.434402 -4.18952215E-18
154.648102 -4.18938029E-18
154.861893 -4.18923512E-18
155.075607 -4.18908747E-18
155.289398 -4.18893692E-18
155.503098 -4.18878389E-18
155.716904 -4.18862838E-18
155.930603 -4.18847039E-18
156.144394 -4.18831033E-18
156.358093 -4.18814820E-18
156.571899 -4.18798484E-18
156.785599 -4.18781981E-18
156.999405 -4.18765355E-18
157.213104 -4.18748646E-18
157.426895 -4.18731896E-18
157.640594 -4.18715021E-18
157.854401 -4.18698105E-18
158.068100 -4.18681148E-18
158.281906 -4.18664108E-18
158.495605 -4.18647110E-18
158.709396 -4.18630152E-18
158.923096 -4.18613195E-18
159.136902 -4.18596321E-18
159.350601 -4.18579488E-18
159.564407 -4.18562737E-18
159.778107 -4.18546069E-18
159.991898 -4.18529484E-18
160.205597 -4.18513024E-18
160.419403 -4.18496687E-18
160.633102 -4.18480474E-18
160.846893 -4.18464468E-18
161.060593 -4.18448628E-18
161.274399 -4.18432952E-18
161.488098 -4.18417443E-18
161.701904 -4.18402140E-18
161.915604 -4.18387003E-18
162.129395 -4.18372072E-18
162.343094 -4.18357348E-18
162.556900 -4.18342831E-18
162.770599 -4.18328521E-18
162.984406 -4.18314459E-18
163.198105 -4.18300604E-18
163.411896 -4.18286996E-18
163.625595 -4.18273596E-18
163.839401 -4.18260403E-18
164.053101 -4.18247416E-18
164.266907 -4.18234677E-18
164.480606 -4.18222104E-18
164.694397 -4.18209820E-18
164.908096 -4.18197744E-18
165.121902 -4.18185874E-18
165.335602 -4.18174169E-18
165.549393 -4.18162713E-18
165.763107 -4.18151380E-18
165.976898 -4.18140255E-18
166.190598 -4.18129294E-18
166.404404 -4.18118541E-18
166.618103 -4.18107953E-18
166.831894 -4.18097531E-18
167.045593 -4.18087274E-18
167.259399 -4.18077182E-18
167.473099 -4.18067256E-18
167.686905 -4.18057454E-18
167.900604 -4.18047776E-18
168.114395 -4.18038181E-18
168.328094 -4.18028792E-18
168.541901 -4.18019486E-18
168.755600 -4.18010305E-18
168.969406 -4.18001288E-18
169.183105 -4.17992313E-18
169.396896 -4.17983463E-18
169.610596 -4.17974694E-18
169.824402 -4.17965968E-18
170.038101 -4.17957365E-18
170.251907 -4.17948804E-18
170.465607 -4.17940325E-18
170.679398 -4.17931971E-18
170.893097 -4.17923657E-18
171.106903 -4.17915386E-18
171.320602 -4.17907196E-18
171.534393 -4.17899049E-18
171.748093 -4.17890942E-18
171.961899 -4.17882877E-18
172.175598 -4.17874895E-18
172.389404 -4.17866913E-18
172.603104 -4.17859013E-18
172.816895 -4.17851196E-18
173.030594 -4.17843379E-18
173.244400 -4.17835604E-18
173.458099 -4.17827870E-18
173.671906 -4.17820136E-18
173.885605 -4.17812484E-18
174.099396 -4.17804833E-18
174.313095 -4.17797264E-18
174.526901 -4.17789778E-18
174.740601 -4.17782334E-18
174.954407 -4.17774930E-18
175.168106 -4.17767610E-18
175.381897 -4.17760331E-18
175.595596 -4.17753051E-18
175.809402 -4.17745896E-18
176.023102 -4.17738741E-18
176.236893 -4.17731669E-18
176.450607 -4.17724679E-18
176.664398 -4.17717772E-18
176.878098 -4.17710906E-18
177.091904 -4.17704124E-18
177.305603 -4.17697382E-18
177.519394 -4.17690723E-18
177.733093 -4.17684106E-18
177.946899 -4.17677571E-18
178.160599 -4.17671119E-18
178.374405 -4.17664750E-18
178.588104 -4.17658463E-18
178.801895 -4.17652301E-18
179.015594 -4.17646180E-18
179.229401 -4.17640141E-18
179.443100 -4.17634185E-18
179.656906 -4.17628313E-18
179.870605 -4.17622481E-18
180.084396 -4.17616773E-18
180.298096 -4.17611190E-18
180.511902 -4.17605648E-18
180.725601 -4.17600230E-18
180.939407 -4.17594894E-18
181.153107 -4.17589642E-18
181.366898 -4.17584472E-18
181.580597 -4.17579343E-18
181.794403 -4.17574339E-18
182.008102 -4.17569417E-18
182.221893 -4.17564620E-18
182.435593 -4.17559905E-18
182.649399 -4.17555314E-18
182.863098 -4.17550806E-18
183.076904 -4.17546339E-18
183.290604 -4.17541996E-18
183.504395 -4.17537695E-18
183.718094 -4.17533518E-18
183.931900 -4.17529382E-18
184.145599 -4.17525370E-18
184.359406 -4.17521441E-18
184.573105 -4.17517594E-18
184.786896 -4.17513831E-18
185.000595 -4.17510108E-18
185.214401 -4.17506469E-18
185.428101 -4.17502912E-18
185.641907 -4.17499438E-18
185.855606 -4.17496005E-18
186.069397 -4.17492696E-18
186.283096 -4.17489470E-18
186.496902 -4.17486286E-18
186.710602 -4.17483225E-18
186.924393 -4.17480164E-18
187.138107 -4.17477228E-18
187.351898 -4.17474291E-18
187.565598 -4.17471438E-18
187.779404 -4.17468667E-18
187.993103 -4.17465937E-18
188.206894 -4.17463331E-18
188.420593 -4.17460767E-18
188.634399 -4.17458286E-18
188.848099 -4.17455845E-18
189.061905 -4.17453488E-18
189.275604 -4.17451213E-18
189.489395 -4.17448938E-18
189.703094 -4.17446788E-18
189.916901 -4.17444678E-18
190.130600 -4.17442693E-18
190.344406 -4.17440749E-18
190.558105 -4.17438847E-18
190.771896 -4.17437027E-18
190.985596 -4.17435249E-18
191.199402 -4.17433511E-18
191.413101 -4.17431816E-18
191.626907 -4.17430161E-18
191.840607 -4.17428631E-18
192.054398 -4.17427142E-18
192.268097 -4.17425736E-18
192.481903 -4.17424371E-18
192.695602 -4.17423089E-18
192.909393 -4.17421848E-18
193.123093 -4.17420690E-18
193.336899 -4.17419573E-18
193.550598 -4.17418540E-18
193.764404 -4.17417547E-18
193.978104 -4.17416678E-18
194.191895 -4.17415851E-18
194.405594 -4.17415107E-18
194.619400 -4.17414404E-18
194.833099 -4.17413783E-18
195.046906 -4.17413204E-18
195.260605 -4.17412708E-18
195.474396 -4.17412253E-18
195.688095 -4.17411922E-18
195.901901 -4.17411633E-18
196.115601 -4.17411467E-18
196.329407 -4.17411343E-18
196.543106 -4.17411302E-18
196.756897 -4.17411343E-18
196.970596 -4.17411426E-18
197.184402 -4.17411591E-18
197.398102 -4.17411839E-18
197.611893 -4.17412170E-18
197.825607 -4.17412542E-18
198.039398 -4.17413039E-18
198.253098 -4.17413576E-18
198.466904 -4.17414197E-18
198.680603 -4.17414900E-18
198.894394 -4.17415644E-18
199.108093 -4.17416430E-18
199.321899 -4.17417340E-18
199.535599 -4.17418291E-18
199.749405 -4.17419367E-18
199.963104 -4.17420525E-18
200.176895 -4.17421766E-18
200.390594 -4.17423089E-18
200.604401 -4.17424454E-18
200.818100 -4.17425943E-18
201.031906 -4.17427473E-18
201.245605 -4.17429086E-18
201.459396 -4.17430823E-18
201.673096 -4.17432602E-18
201.886902 -4.17434504E-18
202.100601 -4.17436489E-18
202.314407 -4.17438557E-18
202.528107 -4.17440667E-18
202.741898 -4.17442900E-18
202.955597 -4.17445175E-18
203.169403 -4.17447532E-18
203.383102 -4.17449972E-18
203.596893 -4.17452537E-18
203.810593 -4.17455184E-18
204.024399 -4.17457955E-18
204.238098 -4.17460767E-18
204.451904 -4.17463662E-18
204.665604 -4.17466640E-18
204.879395 -4.17469701E-18
205.093094 -4.17472844E-18
205.306900 -4.17476029E-18
205.520599 -4.17479337E-18
205.734406 -4.17482770E-18
205.948105 -4.17486244E-18
206.161896 -4.17489842E-18
206.375595 -4.17493482E-18
206.589401 -4.17497204E-18
206.803101 -4.17501009E-18
207.016907 -4.17504897E-18
207.230606 -4.17508868E-18
207.444397 -4.17512921E-18
207.658096 -4.17517098E-18
207.871902 -4.17521317E-18
208.085602 -4.17525659E-18
208.299393 -4.17530043E-18
208.513107 -4.17534510E-18
208.726898 -4.17539018E-18
208.940598 -4.17543609E-18
209.154404 -4.17548283E-18
209.368103 -4.17552998E-18
209.581894 -4.17557837E-18
209.795593 -4.17562717E-18
210.009399 -4.17567680E-18
210.223099 -4.17572685E-18
210.436905 -4.17577730E-18
210.650604 -4.17582859E-18
210.864395 -4.17588029E-18
211.078094 -4.17593281E-18
211.291901 -4.17598575E-18
211.505600 -4.17603952E-18
211.719406 -4.17609370E-18
211.933105 -4.17614829E-18
212.146896 -4.17620330E-18
212.360596 -4.17625831E-18
212.574402 -4.17631373E-18
212.788101 -4.17636957E-18
213.001907 -4.17642540E-18
213.215607 -4.17648165E-18
213.429398 -4.17653831E-18
213.643097 -4.17659497E-18
213.856903 -4.17665205E-18
214.070602 -4.17670912E-18
214.284393 -4.17676620E-18
214.498093 -4.17682327E-18
214.711899 -4.17687994E-18
214.925598 -4.17693701E-18
215.139404 -4.17699409E-18
215.353104 -4.17705075E-18
215.566895 -4.17710782E-18
215.780594 -4.17716449E-18
215.994400 -4.17722073E-18
216.208099 -4.17727657E-18
216.421906 -4.17733240E-18
216.635605 -4.17738741E-18
216.849396 -4.17744201E-18
217.063095 -4.17749660E-18
217.276901 -4.17755037E-18
217.490601 -4.17760413E-18
217.704407 -4.17765749E-18
217.918106 -4.17771043E-18
218.131897 -4.17776254E-18
218.345596 -4.17781424E-18
218.559402 -4.17786511E-18
218.773102 -4.17791557E-18
218.986893 -4.17796561E-18
219.200607 -4.17801483E-18
219.414398 -4.17806404E-18
219.628098 -4.17811244E-18
219.841904 -4.17816000E-18
220.055603 -4.17820673E-18
220.269394 -4.17825306E-18
220.483093 -4.17829814E-18
220.696899 -4.17834280E-18
220.910599 -4.17838706E-18
221.124405 -4.17843049E-18
221.338104 -4.17847309E-18
221.551895 -4.17851527E-18
221.765594 -4.17855663E-18
221.979401 -4.17859716E-18
222.193100 -4.17863687E-18
222.406906 -4.17867533E-18
222.620605 -4.17871297E-18
222.834396 -4.17874978E-18
223.048096 -4.17878576E-18
223.261902 -4.17882092E-18
223.475601 -4.17885483E-18
223.689407 -4.17888750E-18
223.903107 -4.17891894E-18
224.116898 -4.17894954E-18
224.330597 -4.17897849E-18
224.544403 -4.17900620E-18
224.758102 -4.17903309E-18
224.971893 -4.17905873E-18
225.185593 -4.17908396E-18
225.399399 -4.17910753E-18
225.613098 -4.17913069E-18
225.826904 -4.17915261E-18
226.040604 -4.17917329E-18
226.254395 -4.17919356E-18
226.468094 -4.17921341E-18
226.681900 -4.17923244E-18
226.895599 -4.17925188E-18
227.109406 -4.17927090E-18
227.323105 -4.17929034E-18
227.536896 -4.17931061E-18
227.750595 -4.17933129E-18
227.964401 -4.17935321E-18
228.178101 -4.17937637E-18
228.391907 -4.17940118E-18
228.605606 -4.17942848E-18
228.819397 -4.17945867E-18
229.033096 -4.17949217E-18
229.246902 -4.17952940E-18
229.460602 -4.17957117E-18
229.674393 -4.17961749E-18
229.888107 -4.17966960E-18
230.101898 -4.17972751E-18
230.315598 -4.17979244E-18
230.529404 -4.17986482E-18
230.743103 -4.17994629E-18
230.956894 -4.18003770E-18
231.170593 -4.18013944E-18
231.384399 -4.18025318E-18
231.598099 -4.18037974E-18
231.811905 -4.18052036E-18
232.025604 -4.18067628E-18
232.239395 -4.18084958E-18
232.453094 -4.18104190E-18
232.666901 -4.18125489E-18
232.880600 -4.18149023E-18
233.094406 -4.18175079E-18
233.308105 -4.18203823E-18
233.521896 -4.18235463E-18
233.735596 -4.18270329E-18
233.949402 -4.18308627E-18
234.163101 -4.18350731E-18
234.376907 -4.18396970E-18
234.590607 -4.18447718E-18
234.804398 -4.18503346E-18
235.018097 -4.18564267E-18
235.231903 -4.18630938E-18
235.445602 -4.18703813E-18