-1.603125 9.7355725E-18
-1.389375 9.7132974E-18
-1.175625 9.6718052E-18
-0.9618750 9.6161632E-18
-0.7481250 9.5527772E-18
-0.5343750 9.4885433E-18
-0.3206250 9.4299409E-18
-0.1068750 9.3821828E-18
0.1068750 9.3485471E-18
0.3206250 9.3299794E-18
0.5343750 9.3250188E-18
0.7481250 9.3300630E-18
0.9618750 9.3399246E-18
1.175625 9.3486067E-18
1.389375 9.3501924E-18
1.603125 9.3397054E-18
1.816875 9.3138535E-18
2.030625 9.2715143E-18
2.244375 9.2139276E-18
2.458125 9.1445429E-18
2.671875 9.0685614E-18
2.885625 8.9922374E-18
3.099375 8.9220090E-18
3.313125 8.8636175E-18
3.526875 8.8213121E-18
3.740625 8.7972561E-18
3.954375 8.7912168E-18
4.168125 8.8005946E-18
4.381875 8.8207662E-18
4.595625 8.8457189E-18
4.809375 8.8688676E-18
5.023125 8.8839553E-18
5.236875 8.8859100E-18
5.450625 8.8715237E-18
5.664375 8.8398890E-18
5.878125 8.7925006E-18
6.091875 8.7330354E-18
6.305625 8.6668262E-18
6.519375 8.6001191E-18
6.733125 8.5391964E-18
6.946875 8.4895052E-18
7.160625 8.4549017E-18
7.374375 8.4371173E-18
7.588125 8.4355167E-18
7.801875 8.4471916E-18
8.015625 8.4673632E-18
8.229375 8.4900528E-18
8.443125 8.5089141E-18
8.656875 8.5181223E-18
8.870625 8.5131948E-18
9.084375 8.4916087E-18
9.298125 8.4531613E-18
9.511875 8.3999993E-18
9.725625 8.3363246E-18
9.939375 8.2678092E-18
10.15312 8.2008216E-18
10.36687 8.1415467E-18
10.58062 8.0951377E-18
10.79438 8.0650126E-18
11.00813 8.0523940E-18
11.22188 8.0561453E-18
11.43563 8.0729387E-18
11.64937 8.0977309E-18
11.86312 8.1244753E-18
12.07687 8.1469664E-18
12.29062 8.1597232E-18
12.50438 8.1587545E-18
12.71813 8.1421298E-18
12.93188 8.1102429E-18
13.14563 8.0657695E-18
13.35938 8.0132923E-18
13.57312 7.9586604E-18
13.78687 7.9081792E-18
14.00062 7.8677301E-18
14.21437 7.8419501E-18
14.42813 7.8335840E-18
14.64188 7.8431007E-18
14.85563 7.8686193E-18
15.06938 7.9061600E-18
15.28312 7.9501909E-18
15.49687 7.9943764E-18
15.71062 8.0324498E-18
15.92437 8.0590635E-18
16.13812 8.0705183E-18
16.35188 8.0652583E-18
16.56562 8.0440676E-18
16.77938 8.0099505E-18
16.99313 7.9676882E-18
17.20687 7.9231669E-18
17.42063 7.8825449E-18
17.63437 7.8513866E-18
17.84813 7.8338851E-18
18.06187 7.8322754E-18
18.27563 7.8465302E-18
18.48937 7.8743624E-18
18.70312 7.9115557E-18
18.91688 7.9525483E-18
19.13062 7.9912116E-18
19.34438 8.0216981E-18
19.55812 8.0392517E-18
19.77188 8.0408639E-18
19.98562 8.0256951E-18
20.19938 7.9951986E-18
20.41312 7.9529222E-18
20.62687 7.9040416E-18
20.84063 7.8546482E-18
21.05437 7.8109193E-18
21.26813 7.7782688E-18
21.48187 7.7605895E-18
21.69563 7.7597152E-18
21.90937 7.7751611E-18
22.12313 7.8041910E-18
22.33688 7.8421999E-18
22.55062 7.8833605E-18
22.76438 7.9214422E-18
22.97812 7.9506748E-18
23.19188 7.9665583E-18
23.40562 7.9664698E-18
23.61938 7.9500213E-18
23.83312 7.9190971E-18
24.04688 7.8775867E-18
24.26063 7.8308394E-18
24.47437 7.7849293E-18
24.68813 7.7458144E-18
24.90187 7.7185273E-18
25.11563 7.7064728E-18
25.32937 7.7109570E-18
25.54313 7.7309921E-18
25.75687 7.7634201E-18
25.97062 7.8033357E-18
26.18438 7.8447559E-18
26.39812 7.8814472E-18
26.61188 7.9077937E-18
26.82562 7.9195843E-18
27.03938 7.9146022E-18
27.25312 7.8929376E-18
27.46688 7.8569651E-18
27.68063 7.8110086E-18
27.89437 7.7607210E-18
28.10813 7.7122871E-18
28.32187 7.6715584E-18
28.53563 7.6432407E-18
28.74937 7.6302415E-18
28.96313 7.6332847E-18
29.17687 7.6508119E-18
29.39062 7.6792123E-18
29.60438 7.7133211E-18
29.81812 7.7471428E-18
30.03188 7.7746788E-18
30.24562 7.7907692E-18
30.45938 7.7918155E-18
30.67312 7.7762952E-18
30.88688 7.7449839E-18
31.10062 7.7008654E-18
31.31437 7.6487141E-18
31.52813 7.5944445E-18
31.74187 7.5442710E-18
31.95563 7.5038500E-18
32.16938 7.4774886E-18
32.38313 7.4675475E-18
32.59687 7.4741228E-18
32.81062 7.4950413E-18
33.02438 7.5261756E-18
33.23812 7.5620231E-18
33.45187 7.5964711E-18
33.66563 7.6236530E-18
33.87938 7.6387516E-18
34.09312 7.6386722E-18
34.30687 7.6224660E-18
34.52063 7.5914592E-18
34.73438 7.5490695E-18
34.94812 7.5003221E-18
35.16188 7.4511478E-18
35.37563 7.4075538E-18
35.58937 7.3747751E-18
35.80312 7.3565481E-18
36.01688 7.3545819E-18
36.23063 7.3683131E-18
36.44437 7.3949831E-18
36.65813 7.4300059E-18
36.87188 7.4676021E-18
37.08562 7.5015786E-18
37.29937 7.5261863E-18
37.51313 7.5369033E-18
37.72688 7.5310651E-18
37.94062 7.5082299E-18
38.15437 7.4702441E-18
38.36813 7.4209905E-18
38.58187 7.3658473E-18
38.79562 7.3109407E-18
39.00938 7.2622901E-18
39.22313 7.2249735E-18
39.43687 7.2024237E-18
39.65062 7.1959701E-18
39.86438 7.2046703E-18
40.07812 7.2254723E-18
40.29187 7.2536659E-18
40.50563 7.2835677E-18
40.71938 7.3093335E-18
40.93312 7.3257894E-18
41.14687 7.3291552E-18
41.36063 7.3175855E-18
41.57438 7.2914234E-18
41.78812 7.2531688E-18
42.00188 7.2071329E-18
42.21563 7.1588619E-18
42.42937 7.1143712E-18
42.64312 7.0793235E-18
42.85688 7.0582437E-18
43.07063 7.0538836E-18
43.28437 7.0668232E-18
43.49812 7.0953692E-18
43.71188 7.1357629E-18
43.92562 7.1826797E-18
44.13937 7.2299399E-18
44.35313 7.2713485E-18
44.56688 7.3015365E-18
44.78062 7.3166789E-18
44.99437 7.3150063E-18
45.20813 7.2970077E-18
45.42188 7.2653258E-18
45.63562 7.2243539E-18
45.84938 7.1795786E-18
46.06313 7.1368051E-18
46.27687 7.1013241E-18
46.49062 7.0771844E-18
46.70438 7.0666412E-18
46.91813 7.0698523E-18
47.13187 7.0848797E-18
47.34563 7.1079655E-18
47.55938 7.1340680E-18
47.77312 7.1575632E-18
47.98687 7.1730373E-18
48.20063 7.1760565E-18
48.41438 7.1638051E-18
48.62812 7.1355073E-18
48.84187 7.0925799E-18
49.05563 7.0384724E-18
49.26937 6.9782197E-18
49.48312 6.9177743E-18
49.69688 6.8631945E-18
49.91063 6.8198241E-18
50.12437 6.7915598E-18
50.33812 6.7803325E-18
50.55188 6.7858589E-18
50.76562 6.8057129E-18
50.97937 6.8356870E-18
51.19313 6.8703984E-18
51.40688 6.9040456E-18
51.62062 6.9312102E-18
51.83437 6.9475934E-18
52.04813 6.9505902E-18
52.26188 6.9396284E-18
52.47562 6.9162316E-18
52.68938 6.8837950E-18
52.90313 6.8471058E-18
53.11687 6.8116785E-18
53.33062 6.7829733E-18
53.54438 6.7656194E-18
53.75813 6.7627450E-18
53.97187 6.7755051E-18
54.18562 6.8028876E-18
54.39938 6.8418247E-18
54.61312 6.8875938E-18
54.82687 6.9344602E-18
55.04063 6.9764628E-18
55.25438 7.0082323E-18
55.46812 7.0257189E-18
55.68187 7.0267372E-18
55.89563 7.0112457E-18
56.10938 6.9813357E-18
56.32312 6.9409197E-18
56.53688 6.8951857E-18
56.75063 6.8498731E-18
56.96437 6.8104849E-18
57.17812 6.7815257E-18
57.39188 6.7658825E-18
57.60563 6.7644324E-18
57.81937 6.7759215E-18
58.03313 6.7971565E-18
58.24688 6.8234563E-18
58.46062 6.8493284E-18
58.67437 6.8692503E-18
58.88813 6.8784564E-18
59.10188 6.8736169E-18
59.31562 6.8533105E-18
59.52937 6.8182355E-18
59.74313 6.7711235E-18
59.95687 6.7163807E-18
60.17062 6.6595025E-18
60.38438 6.6063441E-18
60.59813 6.5623390E-18
60.81187 6.5317730E-18
61.02562 6.5172055E-18
61.23938 6.5191279E-18
61.45312 6.5358903E-18
61.66687 6.5639371E-18
61.88063 6.5982936E-18
62.09438 6.6332656E-18
62.30812 6.6632314E-18
62.52187 6.6834283E-18
62.73563 6.6906090E-18
62.94938 6.6834820E-18
63.16312 6.6628646E-18
63.37688 6.6315442E-18
63.59063 6.5938607E-18
63.80437 6.5550825E-18
64.01813 6.5206561E-18
64.23187 6.4954449E-18
64.44563 6.4830487E-18
64.65938 6.4852995E-18
64.87312 6.5020007E-18
65.08688 6.5309338E-18
65.30063 6.5681458E-18
65.51437 6.6084712E-18
65.72813 6.6462279E-18
65.94187 6.6759907E-18
66.15562 6.6933387E-18
66.36938 6.6954712E-18
66.58312 6.6816019E-18
66.79688 6.6530778E-18
67.01063 6.6131899E-18
67.22437 6.5667197E-18
67.43813 6.5192648E-18
67.65188 6.4764590E-18
67.86562 6.4431910E-18
68.07938 6.4229297E-18
68.29312 6.4172585E-18
68.50687 6.4256705E-18
68.72063 6.4456635E-18
68.93437 6.4730969E-18
69.14812 6.5027811E-18
69.36188 6.5292009E-18
69.57562 6.5472781E-18
69.78938 6.5530799E-18
70.00313 6.5443680E-18
70.21687 6.5209204E-18
70.43063 6.4845761E-18
70.64438 6.4389972E-18
70.85812 6.3891761E-18
71.07188 6.3407522E-18
71.28562 6.2992318E-18
71.49937 6.2692217E-18
71.71313 6.2537824E-18
71.92687 6.2539987E-18
72.14062 6.2688296E-18
72.35438 6.2952564E-18
72.56812 6.3287125E-18
72.78188 6.3637263E-18
72.99563 6.3946910E-18
73.20937 6.4166509E-18
73.42313 6.4259877E-18
73.63687 6.4209171E-18
73.85062 6.4017369E-18
74.06438 6.3707763E-18
74.27812 6.3320701E-18
74.49187 6.2907967E-18
74.70563 6.2525528E-18
74.91937 6.2225720E-18
75.13313 6.2049812E-18
75.34688 6.2022147E-18
75.56062 6.2146534E-18
75.77438 6.2405562E-18
75.98813 6.2762854E-18
76.20187 6.3168028E-18
76.41563 6.3563668E-18
76.62937 6.3893242E-18
76.84312 6.4108938E-18
77.05688 6.4178210E-18
77.27062 6.4088171E-18
77.48438 6.3847205E-18
77.69813 6.3483614E-18
77.91187 6.3041544E-18
78.12563 6.2574782E-18
78.33938 6.2139272E-18
78.55312 6.1785404E-18
78.76688 6.1551121E-18
78.98062 6.1456699E-18
79.19437 6.1502094E-18
79.40813 6.1666952E-18
79.62187 6.1913530E-18
79.83562 6.2192067E-18
80.04938 6.2447843E-18
80.26312 6.2628942E-18
80.47688 6.2693760E-18
80.69063 6.2616935E-18
80.90437 6.2393100E-18
81.11813 6.2037690E-18
81.33188 6.1584850E-18
81.54562 6.1082689E-18
81.75938 6.0586592E-18
81.97312 6.0151577E-18
82.18687 5.9824762E-18
82.40063 5.9638978E-18
82.61437 5.9608459E-18
82.82812 5.9727048E-18
83.04188 5.9969213E-18
83.25562 6.0293666E-18
83.46938 6.0649098E-18
83.68313 6.0981244E-18
83.89687 6.1240300E-18
84.11063 6.1387741E-18
84.32437 6.1401547E-18
84.53812 6.1279153E-18
84.75188 6.1037699E-18
84.96562 6.0711438E-18
85.17937 6.0346804E-18
85.39313 5.9995641E-18
85.60687 5.9707807E-18
85.82063 5.9523962E-18
86.03438 5.9469761E-18
86.24812 5.9552215E-18
86.46188 5.9758675E-18
86.67563 6.0058598E-18
86.88937 6.0407834E-18
87.10313 6.0754687E-18
87.31687 6.1047091E-18
87.53062 6.1239680E-18
87.74438 6.1300002E-18
87.95812 6.1212937E-18
88.17188 6.0982774E-18
88.38563 6.0632620E-18
88.59937 6.0201328E-18
88.81313 5.9738206E-18
89.02688 5.9296343E-18
89.24062 5.8925390E-18
89.45438 5.8664799E-18
89.66812 5.8538526E-18
89.88187 5.8551864E-18
90.09563 5.8690938E-18
90.30937 5.8924811E-18
90.52312 5.9210039E-18
90.73688 5.9496889E-18
90.95062 5.9736353E-18
91.16438 5.9887016E-18
91.37813 5.9920769E-18
91.59187 5.9826611E-18
91.80563 5.9612053E-18
92.01938 5.9301984E-18
92.23312 5.8935113E-18
92.44688 5.8558560E-18
92.66062 5.8221256E-18
92.87437 5.7967134E-18
93.08813 5.7828920E-18
93.30187 5.7823486E-18
93.51562 5.7949263E-18
93.72938 5.8186283E-18
93.94312 5.8498734E-18
94.15688 5.8839723E-18
94.37063 5.9157724E-18
94.58437 5.9403628E-18
94.79813 5.9537545E-18
95.01187 5.9534306E-18
95.22562 5.9386890E-18
95.43938 5.9107365E-18
95.65312 5.8725055E-18
95.86687 5.8282484E-18
96.08063 5.7829425E-18
96.29437 5.7416120E-18
96.50813 5.7086439E-18
96.72188 5.6872067E-18
96.93562 5.6788257E-18
97.14938 5.6831965E-18
97.36313 5.6982371E-18
97.57687 5.7203874E-18
97.79063 5.7451056E-18
98.00437 5.7675069E-18
98.21812 5.7830525E-18
98.43188 5.7881976E-18
98.64562 5.7809072E-18
98.85938 5.7609573E-18
99.07313 5.7299860E-18
99.28687 5.6912731E-18
99.50063 5.6492829E-18
99.71438 5.6090385E-18
99.92812 5.5754190E-18
100.1419 5.5524805E-18
100.3556 5.5428984E-18
100.5694 5.5476121E-18
100.7831 5.5657104E-18
100.9969 5.5945658E-18
101.2106 5.6302040E-18
101.4244 5.6678416E-18
101.6381 5.7025273E-18
101.8519 5.7298073E-18
102.0656 5.7463182E-18
102.2794 5.7502412E-18
102.4931 5.7415491E-18
102.7069 5.7220111E-18
102.9206 5.6949408E-18
103.1344 5.6647280E-18
103.3481 5.6362011E-18
103.5619 5.6139201E-18
103.7756 5.6015083E-18
103.9894 5.6011096E-18
104.2031 5.6130690E-18
104.4169 5.6358739E-18
104.6306 5.6663667E-18
104.8444 5.7001885E-18
105.0581 5.7323823E-18
105.2719 5.7580837E-18
105.4856 5.7731752E-18
105.6994 5.7748473E-18
105.9131 5.7619793E-18
106.1269 5.7352899E-18
106.3406 5.6972565E-18
106.5544 5.6517926E-18
106.7681 5.6037334E-18
106.9819 5.5581880E-18
107.1956 5.5198519E-18
107.4094 5.4923618E-18
107.6231 5.4778030E-18
107.8369 5.4764295E-18
108.0506 5.4866460E-18
108.2644 5.5052617E-18
108.4781 5.5279657E-18
108.6919 5.5499617E-18
108.9056 5.5666666E-18
109.1194 5.5743660E-18
109.3331 5.5707463E-18
109.5469 5.5552201E-18
109.7606 5.5290150E-18
109.9744 5.4950075E-18
110.1881 5.4573361E-18
110.4019 5.4208305E-18
110.6156 5.3903464E-18
110.8294 5.3700822E-18
111.0431 5.3629825E-18
111.2569 5.3703072E-18
111.4706 5.3914317E-18
111.6844 5.4239184E-18
111.8981 5.4638390E-18
112.1119 5.5063147E-18
112.3256 5.5461848E-18
112.5394 5.5787087E-18
112.7531 5.6002059E-18
112.9669 5.6085319E-18
113.1806 5.6033434E-18
113.3944 5.5861120E-18
113.6081 5.5598982E-18
113.8219 5.5289112E-18
114.0356 5.4979258E-18
114.2494 5.4716186E-18
114.4631 5.4539194E-18
114.6769 5.4474567E-18
114.8906 5.4531778E-18
115.1044 5.4701925E-18
115.3181 5.4958844E-18
115.5319 5.5262671E-18
115.7456 5.5565440E-18
115.9594 5.5817999E-18
116.1731 5.5977140E-18
116.3869 5.6011811E-18
116.6006 5.5907665E-18
116.8144 5.5669057E-18
117.0281 5.5318373E-18
117.2419 5.4892830E-18
117.4556 5.4439192E-18
117.6694 5.4007350E-18
117.8831 5.3643527E-18
118.0969 5.3384127E-18
118.3106 5.3250989E-18
118.5244 5.3248581E-18
118.7381 5.3363547E-18
118.9519 5.3566620E-18
119.1656 5.3816681E-18
119.3794 5.4066448E-18
119.5931 5.4269078E-18
119.8069 5.4384768E-18
120.0206 5.4386480E-18
120.2344 5.4263875E-18
120.4481 5.4024890E-18
120.6619 5.3694734E-18
120.8756 5.3312341E-18
121.0894 5.2924885E-18
121.3031 5.2581092E-18
121.5169 5.2324410E-18
121.7306 5.2186932E-18
121.9444 5.2184968E-18
122.1581 5.2316841E-18
122.3719 5.2563175E-18
122.5856 5.2889564E-18
122.7994 5.3251295E-18
123.0131 5.3599463E-18
123.2269 5.3887599E-18
123.4406 5.4078049E-18
123.6544 5.4147082E-18
123.8681 5.4088137E-18
124.0819 5.3912626E-18
124.2956 5.3648242E-18
124.5094 5.3334910E-18
124.7231 5.3019002E-18
124.9369 5.2746652E-18
125.1506 5.2557145E-18
125.3644 5.2477310E-18
125.5781 5.2517755E-18
125.7919 5.2671391E-18
126.0056 5.2914434E-18
126.2194 5.3209712E-18
126.4331 5.3511778E-18
126.6469 5.3773101E-18
126.8606 5.3950572E-18
127.0744 5.4011449E-18
127.2881 5.3937871E-18
127.5019 5.3729521E-18
127.7156 5.3403756E-18
127.9294 5.2993442E-18
128.1431 5.2542463E-18
128.3569 5.2099739E-18
128.5706 5.1712437E-18
128.7844 5.1419445E-18
128.9981 5.1246035E-18
129.2119 5.1200524E-18
129.4256 5.1273365E-18
129.6394 5.1438822E-18
129.8531 5.1658802E-18
130.0669 5.1888436E-18
130.2806 5.2082426E-18
130.4944 5.2201420E-18
130.7081 5.2217472E-18
130.9219 5.2117966E-18
131.1356 5.1907465E-18
131.3494 5.1607248E-18
131.5631 5.1252537E-18
131.7769 5.0887820E-18
131.9906 5.0560733E-18
132.2044 5.0315403E-18
132.4181 5.0186144E-18
132.6319 5.0192410E-18
132.8456 5.0335818E-18
133.0594 5.0599734E-18
133.2731 5.0951406E-18
133.4869 5.1346484E-18
133.7006 5.1735197E-18
133.9144 5.2069187E-18
134.1281 5.2308139E-18
134.3419 5.2425165E-18
134.5556 5.2410222E-18
134.7694 5.2271172E-18
134.9831 5.2032370E-18
135.1969 5.1731019E-18
135.4106 5.1411885E-18
135.6244 5.1120953E-18
135.8381 5.0899045E-18
136.0519 5.0776097E-18
136.2656 5.0766965E-18
136.4794 5.0869304E-18
136.6931 5.1063840E-18
136.9069 5.1317028E-18
137.1206 5.1585754E-18
137.3344 5.1823473E-18
137.5481 5.1986821E-18
137.7619 5.2041824E-18
137.9756 5.1968821E-18
138.1894 5.1765347E-18
138.4031 5.1446581E-18
138.6169 5.1043368E-18
138.8306 5.0598051E-18
139.0444 5.0158714E-18
139.2581 4.9772715E-18
139.4719 4.9480244E-18
139.6856 4.9308935E-18
139.8994 4.9270169E-18
140.1131 4.9357611E-18
140.3269 4.9548181E-18
140.5406 4.9805355E-18
140.7544 5.0084339E-18
140.9681 5.0338419E-18
141.1819 5.0525557E-18
141.3956 5.0614317E-18
141.6094 5.0588240E-18
141.8231 5.0448083E-18
142.0369 5.0211546E-18
142.2506 4.9910672E-18
142.4644 4.9587162E-18
142.6781 4.9286494E-18
142.8919 4.9051471E-18
143.1056 4.8916227E-18
143.3194 4.8901483E-18
143.5331 4.9011576E-18
143.7469 4.9233736E-18
143.9606 4.9539661E-18
144.1744 4.9889219E-18
144.3881 5.0235787E-18
144.6019 5.0532513E-18
144.8156 5.0738750E-18
145.0294 5.0825678E-18
145.2431 5.0780320E-18
145.4569 5.0607406E-18
145.6706 5.0328737E-18
145.8844 4.9980105E-18
146.0981 4.9606224E-18
146.3119 4.9254362E-18
146.5256 4.8967748E-18
146.7394 4.8779486E-18
146.9531 4.8708046E-18
147.1669 4.8754881E-18
147.3806 4.8904407E-18
147.5944 4.9126401E-18
147.8081 4.9380371E-18
148.0219 4.9621299E-18
148.2356 4.9806001E-18
148.4494 4.9899162E-18
148.6631 4.9878379E-18
148.8769 4.9737411E-18
149.0906 4.9487209E-18
149.3044 4.9154625E-18
149.5181 4.8778808E-18
149.7319 4.8405857E-18
149.9456 4.8082429E-18
150.1594 4.7849181E-18
150.3731 4.7735030E-18
150.5869 4.7753095E-18
150.8006 4.7898828E-18
151.0144 4.8150680E-18
151.2281 4.8473131E-18
151.4419 4.8821623E-18
151.6556 4.9148690E-18
151.8694 4.9410422E-18
152.0831 4.9572359E-18
152.2969 4.9614037E-18
152.5106 4.9531658E-18
152.7244 4.9338358E-18
152.9381 4.9062299E-18
153.1519 4.8742561E-18
153.3656 4.8423542E-18
153.5794 4.8148653E-18
153.7931 4.7954013E-18
154.0069 4.7863317E-18
154.2206 4.7884443E-18
154.4344 4.8008330E-18
154.6481 4.8210402E-18
154.8619 4.8454181E-18
155.0756 4.8696561E-18
155.2894 4.8894021E-18
155.5031 4.9008797E-18
155.7169 4.9014223E-18
155.9306 4.8898439E-18
156.1444 4.8666075E-18
156.3581 4.8337680E-18
156.5719 4.7946995E-18
156.7856 4.7536399E-18
156.9994 4.7151251E-18
157.2131 4.6833742E-18
157.4269 4.6617194E-18
157.6406 4.6521572E-18
157.8544 4.6550788E-18
158.0681 4.6692344E-18
158.2819 4.6919144E-18
158.4956 4.7193446E-18
158.7094 4.7472201E-18
158.9231 4.7713101E-18
159.1369 4.7880415E-18
159.3506 4.7949832E-18
159.5644 4.7911649E-18
159.7781 4.7771864E-18
159.9919 4.7551094E-18
160.2056 4.7281578E-18
160.4194 4.7002570E-18
160.6331 4.6754812E-18
160.8469 4.6574942E-18
161.0606 4.6490375E-18
161.2744 4.6515480E-18
161.4881 4.6649554E-18
161.7019 4.6876797E-18
161.9156 4.7168353E-18
162.1294 4.7486197E-18
162.3431 4.7788271E-18
162.5569 4.8034196E-18
162.7706 4.8190827E-18
162.9844 4.8236789E-18
163.1981 4.8165383E-18
163.4119 4.7985446E-18
163.6256 4.7720021E-18
163.8394 4.7403024E-18
164.0531 4.7074452E-18
164.2669 4.6774710E-18
164.4806 4.6539034E-18
164.6944 4.6392656E-18
164.9081 4.6347443E-18
165.1219 4.6400403E-18
165.3356 4.6534311E-18
165.5494 4.6720199E-18
165.7631 4.6921456E-18
165.9769 4.7098920E-18
166.1906 4.7216367E-18
166.4044 4.7245570E-18
166.6181 4.7170347E-18
166.8319 4.6988991E-18
167.0456 4.6714736E-18
167.2594 4.6374127E-18
167.4731 4.6003484E-18
167.6869 4.5643925E-18
167.9006 4.5335639E-18
168.1144 4.5112272E-18
168.3281 4.4996239E-18
168.5419 4.4995656E-18
168.7556 4.5103388E-18
168.9694 4.5298247E-18
169.1831 4.5548171E-18
169.3969 4.5814829E-18
169.6106 4.6059050E-18
169.8244 4.6246129E-18
170.0381 4.6350495E-18
170.2519 4.6359007E-18
170.4656 4.6272583E-18
170.6794 4.6105856E-18
170.8931 4.5885082E-18
171.1069 4.5644413E-18
171.3206 4.5421141E-18
171.5344 4.5250423E-18
171.7481 4.5160290E-18
171.9619 4.5167544E-18
172.1756 4.5275268E-18
172.3894 4.5472194E-18
172.6031 4.5734175E-18
172.8169 4.6027493E-18
173.0306 4.6313532E-18
173.2444 4.6554147E-18
173.4581 4.6716919E-18
173.6719 4.6779603E-18
173.8856 4.6733066E-18
174.0994 4.6582378E-18
174.3131 4.6345987E-18
174.5269 4.6053028E-18
174.7406 4.5739229E-18
174.9544 4.5441986E-18
175.1681 4.5195246E-18
175.3819 4.5024880E-18
175.5956 4.4945206E-18
175.8094 4.4957068E-18
176.0231 4.5047867E-18
176.2369 4.5193327E-18
176.4506 4.5361059E-18
176.6644 4.5515183E-18
176.8781 4.5621476E-18
177.0919 4.5652292E-18
177.3056 4.5590564E-18
177.5194 4.5432275E-18
177.7331 4.5187107E-18
177.9469 4.4877162E-18
178.1606 4.4533973E-18
178.3744 4.4194213E-18
178.5881 4.3894773E-18
178.8019 4.3667799E-18
179.0156 4.3536468E-18
179.2294 4.3511888E-18
179.4431 4.3591740E-18
179.6569 4.3760654E-18
179.8706 4.3992368E-18
180.0844 4.4253389E-18
180.2981 4.4507627E-18
180.5119 4.4721433E-18
180.7256 4.4868282E-18
180.9394 4.4932451E-18
181.1531 4.4911134E-18
181.3669 4.4814685E-18
181.5806 4.4664945E-18
181.7944 4.4491936E-18
182.0081 4.4329358E-18
182.2219 4.4209706E-18
182.4356 4.4159558E-18
182.6494 4.4195809E-18
182.8631 4.4323290E-18
183.0769 4.4534056E-18
183.2906 4.4808382E-18
183.5044 4.5117317E-18
183.7181 4.5426402E-18
183.9319 4.5700194E-18
184.1456 4.5906865E-18
184.3594 4.6022423E-18
184.5731 4.6033987E-18
184.7869 4.5941524E-18
185.0006 4.5757944E-18
185.2144 4.5507325E-18
185.4281 4.5221596E-18
185.6419 4.4936008E-18
185.8556 4.4684202E-18
186.0694 4.4493458E-18
186.2831 4.4380953E-18
186.4969 4.4351538E-18
186.7106 4.4397323E-18
186.9244 4.4499174E-18
187.1381 4.4629711E-18
187.3519 4.4757481E-18
187.5656 4.4851520E-18
187.7794 4.4885806E-18
187.9931 4.4842925E-18
188.2069 4.4716499E-18
188.4206 4.4512177E-18
188.6344 4.4246979E-18
188.8481 4.3947097E-18
189.0619 4.3644531E-18
189.2756 4.3372835E-18
189.4894 4.3162599E-18
189.7031 4.3037310E-18
189.9169 4.3010091E-18
190.1306 4.3081907E-18
190.3444 4.3241441E-18
190.5581 4.3466761E-18
190.7719 4.3728415E-18
190.9856 4.3993634E-18
191.1994 4.4230861E-18
191.4131 4.4414069E-18
191.6269 4.4526127E-18
191.8406 4.4560919E-18
192.0544 4.4523836E-18
192.2681 4.4430712E-18
192.4819 4.4305349E-18
192.6956 4.4176040E-18
192.9094 4.4071468E-18
193.1231 4.4016592E-18
193.3369 4.4029041E-18
193.5506 4.4116454E-18
193.7644 4.4275181E-18
193.9781 4.4490592E-18
194.1919 4.4738915E-18
194.4056 4.4990432E-18
194.6194 4.5213531E-18
194.8331 4.5379104E-18
195.0469 4.5464601E-18
195.2606 4.5457115E-18
195.4744 4.5355182E-18
195.6881 4.5168872E-18
195.9019 4.4918414E-18
196.1156 4.4631382E-18
196.3294 4.4338941E-18
196.5431 4.4071778E-18
196.7569 4.3856049E-18
196.9706 4.3710093E-18
197.1844 4.3642194E-18
197.3981 4.3649717E-18
197.6119 4.3719730E-18
197.8256 4.3830994E-18
198.0394 4.3957035E-18
198.2531 4.4069974E-18
198.4669 4.4144462E-18
198.6806 4.4161332E-18
198.8944 4.4110308E-18
199.1081 4.3991549E-18
199.3219 4.3815666E-18
199.5356 4.3602253E-18
199.7494 4.3377202E-18
199.9631 4.3169034E-18
200.1769 4.3004880E-18
200.3906 4.2906661E-18
200.6044 4.2887933E-18
200.8181 4.2951949E-18
201.0319 4.3091101E-18
201.2456 4.3287875E-18
201.4594 4.3517182E-18
201.6731 4.3749686E-18
201.8869 4.3955757E-18
202.1006 4.4109423E-18
202.3144 4.4191884E-18
202.5281 4.4194002E-18
202.7419 4.4117471E-18
202.9556 4.3974510E-18
203.1694 4.3786086E-18
203.3831 4.3578877E-18
203.5969 4.3381504E-18
203.8106 4.3220472E-18
204.0244 4.3116463E-18
204.2381 4.3081510E-18
204.4519 4.3117389E-18
204.6656 4.3215559E-18
204.8794 4.3358463E-18
205.0931 4.3522116E-18
205.3069 4.3679520E-18
205.5206 4.3804487E-18
205.7344 4.3875264E-18
205.9481 4.3877547E-18
206.1619 4.3806493E-18
206.3756 4.3667377E-18
206.5894 4.3474934E-18
206.8031 4.3251355E-18
207.0169 4.3023252E-18
207.2306 4.2818020E-18
207.4444 4.2660091E-18
207.6581 4.2567550E-18
207.8719 4.2549728E-18
208.0856 4.2605947E-18
208.2994 4.2725694E-18
208.5131 4.2890158E-18
208.7269 4.3074926E-18
208.9406 4.3253378E-18
209.1544 4.3400405E-18
209.3681 4.3495853E-18
209.5819 4.3527236E-18
209.7956 4.3491366E-18
210.0094 4.3394664E-18
210.2231 4.3252153E-18
210.4369 4.3085199E-18
210.6506 4.2918485E-18
210.8644 4.2776475E-18
211.0781 4.2680009E-18
211.2919 4.2643406E-18
211.5056 4.2672502E-18
211.7194 4.2763873E-18
211.9331 4.2905263E-18
212.1469 4.3077292E-18
212.3606 4.3256008E-18
212.5744 4.3416096E-18
212.7881 4.3534292E-18
213.0019 4.3592518E-18
213.2156 4.3580395E-18
213.4294 4.3496651E-18
213.6431 4.3349388E-18
213.8569 4.3154980E-18
214.0706 4.2935848E-18
214.2844 4.2717286E-18
214.4981 4.2524003E-18
214.7119 4.2376682E-18
214.9256 4.2289179E-18
215.1394 4.2266754E-18
215.3531 4.2305520E-18
215.5669 4.2393230E-18
215.7806 4.2511161E-18
215.9944 4.2636843E-18
216.2081 4.2747251E-18
216.4219 4.2821974E-18
216.6356 4.2846037E-18
216.8494 4.2811965E-18
217.0631 4.2720822E-18
217.2769 4.2582158E-18
217.4906 4.2412780E-18
217.7044 4.2234494E-18
217.9181 4.2071121E-18
218.1319 4.1945163E-18
218.3456 4.1874641E-18
218.5594 4.1870497E-18
218.7731 4.1935021E-18
218.9869 4.2061551E-18
219.2006 4.2235371E-18
219.4144 4.2435838E-18
219.6281 4.2639167E-18
219.8419 4.2821689E-18
220.0556 4.2962946E-18
220.2694 4.3048311E-18
220.4831 4.3070819E-18
220.6969 4.3031917E-18
220.9106 4.2941220E-18
221.1244 4.2815150E-18
221.3381 4.2674699E-18
221.5519 4.2542573E-18
221.7656 4.2440032E-18
221.9794 4.2383858E-18
222.1931 4.2383887E-18
222.4069 4.2441471E-18
222.6206 4.2549149E-18
222.8344 4.2691606E-18
223.0481 4.2847815E-18
223.2619 4.2994032E-18
223.4756 4.3107260E-18
223.6894 4.3168517E-18
223.9031 4.3165568E-18
224.1169 4.3094580E-18
224.3306 4.2960618E-18
224.5444 4.2776831E-18
224.7581 4.2562554E-18
224.9719 4.2340625E-18
225.1856 4.2134293E-18
225.3994 4.1964146E-18
225.6131 4.1845421E-18
225.8269 4.1786104E-18
226.0406 4.1785955E-18
226.2544 4.1836661E-18
226.4681 4.1923044E-18
226.6819 4.2025279E-18
226.8956 4.2121720E-18
227.1094 4.2192055E-18
227.3231 4.2220308E-18
227.5369 4.2197188E-18
227.7506 4.2121551E-18
227.9644 4.2000551E-18
228.1781 4.1848688E-18
228.3919 4.1685668E-18
228.6056 4.1533648E-18
228.8194 4.1414096E-18
229.0331 4.1344836E-18
229.2469 4.1337702E-18
229.4606 4.1396936E-18
229.6744 4.1518701E-18
229.8881 4.1691574E-18
230.1019 4.1898030E-18
230.3156 4.2116728E-18
230.5294 4.2325269E-18
230.7431 4.2503141E-18
230.9569 4.2634427E-18
231.1706 4.2709879E-18
231.3844 4.2728064E-18
231.5981 4.2695374E-18
231.8119 4.2624853E-18
232.0256 4.2534099E-18
232.2394 4.2442513E-18
232.4531 4.2368369E-18
232.6669 4.2326195E-18
232.8806 4.2324735E-18
233.0944 4.2365858E-18
233.3081 4.2444391E-18
233.5219 4.2548864E-18
233.7356 4.2663081E-18
233.9494 4.2768199E-18
234.1631 4.2845230E-18
234.3769 4.2877548E-18
234.5906 4.2853221E-18
234.8044 4.2766809E-18
235.0181 4.2620407E-18
235.2319 4.2423616E-18
235.4456 4.2192481E-18
235.6594 4.1947437E-18
235.8731 4.1710537E-18
236.0869 4.1502406E-18
236.3006 4.1339431E-18
236.5144 4.1231599E-18
236.7281 4.1181344E-18
236.9419 4.1183536E-18
237.1556 4.1226599E-18
237.3694 4.1294420E-18
237.5831 4.1368833E-18
237.7969 4.1432302E-18
238.0106 4.1470344E-18
238.2244 4.1473504E-18
238.4381 4.1438688E-18
238.6519 4.1369577E-18
238.8656 4.1276201E-18
239.0794 4.1173643E-18
239.2931 4.1079985E-18
239.5069 4.1013774E-18
239.7206 4.0991312E-18
239.9344 4.1024151E-18
240.1481 4.1117229E-18
240.3619 4.1267917E-18
240.5756 4.1466196E-18
240.7894 4.1695871E-18
241.0031 4.1936721E-18
241.2169 4.2167178E-18
241.4306 4.2367145E-18
241.6444 4.2520533E-18
241.8581 4.2617148E-18
242.0719 4.2653825E-18
242.2856 4.2634543E-18
242.4994 4.2569676E-18
242.7131 4.2474488E-18
242.9269 4.2366954E-18
243.1406 4.2265306E-18
243.3544 4.2185479E-18
243.5681 4.2138901E-18
243.7819 4.2130774E-18
243.9956 4.2159295E-18
244.2094 4.2215890E-18
244.4231 4.2286408E-18
244.6369 4.2353236E-18
244.8506 4.2397969E-18
245.0644 4.2404190E-18
245.2781 4.2359973E-18
245.4919 4.2259715E-18
245.7056 4.2105081E-18
245.9194 4.1904879E-18
246.1331 4.1674058E-18
246.3469 4.1431827E-18
246.5606 4.1199306E-18
246.7744 4.0996916E-18
246.9881 4.0841877E-18
247.2019 4.0746036E-18
247.4156 4.0714392E-18
247.6294 4.0744427E-18
247.8431 4.0826455E-18
248.0569 4.0944894E-18
248.2706 4.1080444E-18
248.4844 4.1212760E-18
248.6981 4.1323325E-18
248.9119 4.1398057E-18
249.1256 4.1429250E-18
249.3394 4.1416536E-18
249.5531 4.1366781E-18
249.7669 4.1292926E-18
249.9806 4.1211999E-18
250.1944 4.1142582E-18
250.4081 4.1102137E-18
250.6219 4.1104495E-18
250.8356 4.1157852E-18
251.0494 4.1263500E-18
251.2631 4.1415448E-18
251.4769 4.1601047E-18
251.6906 4.1802490E-18
251.9044 4.1999120E-18
252.1181 4.2170185E-18
252.3319 4.2297736E-18
252.5456 4.2369093E-18
252.7594 4.2378675E-18
252.9731 4.2328722E-18
253.1869 4.2228914E-18
253.4006 4.2094915E-18
253.6144 4.1946085E-18
253.8281 4.1802792E-18
254.0419 4.1683662E-18
254.2556 4.1603165E-18
254.4694 4.1569846E-18
254.6831 4.1585356E-18
254.8969 4.1644321E-18
255.1106 4.1735170E-18
255.3244 4.1841628E-18
255.5381 4.1944947E-18
255.7519 4.2026450E-18
255.9656 4.2070154E-18
256.1794 4.2065170E-18
256.3931 4.2007466E-18
256.6069 4.1900611E-18
256.8206 4.1755606E-18
257.0344 4.1589434E-18
257.2481 4.1422868E-18
257.4619 4.1277603E-18
257.6756 4.1173291E-18
257.8894 4.1124827E-18
258.1031 4.1140324E-18
258.3169 4.1220002E-18
258.5306 4.1356140E-18
258.7444 4.1534112E-18
258.9581 4.1734285E-18
259.1719 4.1934678E-18
259.3856 4.2113858E-18
259.5994 4.2253854E-18
259.8131 4.2342610E-18
260.0269 4.2375574E-18
260.2406 4.2356346E-18
260.4544 4.2296090E-18
260.6681 4.2211887E-18
260.8819 4.2124239E-18
261.0956 4.2054069E-18
261.3094 4.2019712E-18
261.5231 4.2034233E-18
261.7369 4.2103559E-18
261.9506 4.2225581E-18
262.1644 4.2390388E-18
262.3781 4.2581546E-18
262.5919 4.2778278E-18
262.8056 4.2958264E-18
263.0194 4.3100680E-18
263.2331 4.3189139E-18
263.4469 4.3214029E-18
263.6606 4.3174055E-18
263.8744 4.3076572E-18
264.0881 4.2936745E-18
264.3019 4.2775536E-18
264.5156 4.2616837E-18
264.7294 4.2484058E-18
264.9431 4.2396865E-18
265.1569 4.2368423E-18
265.3706 4.2403611E-18
265.5844 4.2498480E-18
265.7981 4.2641016E-18
266.0119 4.2812929E-18
266.2256 4.2992319E-18
266.4394 4.3156693E-18
266.6531 4.3285964E-18
266.8669 4.3365068E-18
267.0806 4.3385888E-18
267.2944 4.3348272E-18
267.5081 4.3260086E-18
267.7219 4.3136265E-18
267.9356 4.2996927E-18
268.1494 4.2864764E-18
268.3631 4.2761995E-18
268.5769 4.2707281E-18
268.7906 4.2712993E-18
269.0044 4.2783332E-18
269.2181 4.2913580E-18
269.4319 4.3090671E-18
269.6456 4.3294985E-18
269.8594 4.3503174E-18
270.0731 4.3691506E-18
270.2869 4.3839249E-18
270.5006 4.3931550E-18
270.7144 4.3961444E-18
270.9281 4.3930661E-18
271.1419 4.3849270E-18
271.3556 4.3734160E-18
271.5694 4.3606646E-18
271.7831 4.3489517E-18
271.9969 4.3403896E-18
272.2106 4.3366342E-18
272.4244 4.3386483E-18
272.6381 4.3465624E-18
272.8519 4.3596430E-18
273.0656 4.3763868E-18
273.2794 4.3947204E-18
273.4931 4.4122943E-18
273.7069 4.4268084E-18
273.9206 4.4363437E-18
274.1344 4.4396339E-18
274.3481 4.4362432E-18
274.5619 4.4266240E-18
274.7756 4.4120548E-18
274.9894 4.3944607E-18
275.2031 4.3761560E-18
275.4169 4.3595330E-18
275.6306 4.3467473E-18
275.8444 4.3394342E-18
276.0581 4.3384928E-18
276.2719 4.3439655E-18
276.4856 4.3550327E-18
276.6994 4.3701296E-18