-1.603125 3.7525487E-18
-1.389375 3.7397989E-18
-1.175625 3.7160502E-18
-0.9618750 3.6842029E-18
-0.7481250 3.6479219E-18
-0.5343750 3.6111571E-18
-0.3206250 3.5776153E-18
-0.1068750 3.5502803E-18
0.1068750 3.5310289E-18
0.3206250 3.5204021E-18
0.5343750 3.5175632E-18
0.7481250 3.5204497E-18
0.9618750 3.5260906E-18
1.175625 3.5310570E-18
1.389375 3.5319620E-18
1.603125 3.5259620E-18
1.816875 3.5111716E-18
2.030625 3.4869509E-18
2.244375 3.4540022E-18
2.458125 3.4142930E-18
2.671875 3.3707949E-18
2.885625 3.3270836E-18
3.099375 3.2868487E-18
3.313125 3.2533915E-18
3.526875 3.2291607E-18
3.740625 3.2154086E-18
3.954375 3.2120081E-18
4.168125 3.2174592E-18
4.381875 3.2290916E-18
4.595625 3.2434316E-18
4.809375 3.2566835E-18
5.023125 3.2652560E-18
5.236875 3.2662562E-18
5.450625 3.2578794E-18
5.664375 3.2396427E-18
5.878125 3.2124364E-18
6.091875 3.1783809E-18
6.305625 3.1405273E-18
6.519375 3.1024329E-18
6.733125 3.0676711E-18
6.946875 3.0393465E-18
7.160625 3.0196617E-18
7.374375 3.0096135E-18
7.588125 3.0088426E-18
7.801875 3.0156743E-18
8.015625 3.0273433E-18
8.229375 3.0403828E-18
8.443125 3.0511161E-18
8.656875 3.0561871E-18
8.870625 3.0530372E-18
9.084375 3.0402738E-18
9.298125 3.0178564E-18
9.511875 2.9870971E-18
9.725625 2.9504656E-18
9.939375 2.9112369E-18
10.15312 2.8730431E-18
10.36687 2.8393853E-18
10.58062 2.8131627E-18
10.79438 2.7962903E-18
11.00813 2.7894441E-18
11.22188 2.7919627E-18
11.43563 2.8019275E-18
11.64937 2.8164214E-18
11.86312 2.8319277E-18
12.07687 2.8448259E-18
12.29062 2.8519198E-18
12.50438 2.8509071E-18
12.71813 2.8407227E-18
12.93188 2.8216984E-18
13.14563 2.7955160E-18
13.35938 2.7649490E-18
13.57312 2.7334560E-18
13.78687 2.7046821E-18
14.00062 2.6819443E-18
14.21437 2.6677847E-18
14.42813 2.6636357E-18
14.64188 2.6696452E-18
14.85563 2.6846695E-18
15.06938 2.7064229E-18
15.28312 2.7317760E-18
15.49687 2.7571504E-18
15.71062 2.7789875E-18
15.92437 2.7942186E-18
16.13812 2.8006880E-18
16.35188 2.7974636E-18
16.56562 2.7849827E-18
16.77938 2.7650036E-18
16.99313 2.7403578E-18
17.20687 2.7145352E-18
17.42063 2.6911610E-18
17.63437 2.6734657E-18
17.84813 2.6638034E-18
18.06187 2.6633282E-18
18.27563 2.6718540E-18
18.48937 2.6879174E-18
18.70312 2.7090167E-18
18.91688 2.7319801E-18
19.13062 2.7534129E-18
19.34438 2.7701439E-18
19.55812 2.7796368E-18
19.77188 2.7803085E-18
19.98562 2.7717356E-18
20.19938 2.7547186E-18
20.41312 2.7311953E-18
20.62687 2.7040085E-18
20.84063 2.6765391E-18
21.05437 2.6522496E-18
21.26813 2.6341945E-18
21.48187 2.6245690E-18
21.69563 2.6243794E-18
21.90937 2.6332774E-18
22.12313 2.6496163E-18
22.33688 2.6706980E-18
22.55062 2.6931859E-18
22.76438 2.7136100E-18
22.97812 2.7288645E-18
23.19188 2.7366394E-18
23.40562 2.7357156E-18
23.61938 2.7260916E-18
23.83312 2.7089445E-18
24.04688 2.6864463E-18
24.26063 2.6614609E-18
24.47437 2.6371719E-18
24.68813 2.6166707E-18
24.90187 2.6025571E-18
25.11563 2.5965845E-18
25.32937 2.5994029E-18
25.54313 2.6104381E-18
25.75687 2.6279358E-18
25.97062 2.6491869E-18
26.18438 2.6709021E-18
26.39812 2.6896923E-18
26.61188 2.7025746E-18
26.82562 2.7074217E-18
27.03938 2.7032668E-18
27.25312 2.6904302E-18
27.46688 2.6704372E-18
27.68063 2.6457612E-18
27.89437 2.6194432E-18
28.10813 2.5946480E-18
28.32187 2.5742446E-18
28.53563 2.5604309E-18
28.74937 2.5544768E-18
28.96313 2.5565818E-18
29.17687 2.5658524E-18
29.39062 2.5804187E-18
29.60438 2.5976596E-18
29.81812 2.6145335E-18
30.03188 2.6279782E-18
30.24562 2.6353389E-18
30.45938 2.6347617E-18
30.67312 2.6254886E-18
30.88688 2.6079942E-18
31.10062 2.5839379E-18
31.31437 2.5559263E-18
31.52813 2.5271263E-18
31.74187 2.5007889E-18
31.95563 2.4797783E-18
32.16938 2.4661747E-18
32.38313 2.4610085E-18
32.59687 2.4641597E-18
32.81062 2.4744161E-18
33.02438 2.4896672E-18
33.23812 2.5071927E-18
33.45187 2.5240128E-18
33.66563 2.5372630E-18
33.87938 2.5445538E-18
34.09312 2.5442870E-18
34.30687 2.5358957E-18
34.52063 2.5199513E-18
34.73438 2.4981287E-18
34.94812 2.4729946E-18
35.16188 2.4476469E-18
35.37563 2.4252536E-18
35.58937 2.4085551E-18
35.80312 2.3994444E-18
36.01688 2.3986767E-18
36.23063 2.4057758E-18
36.44437 2.4191408E-18
36.65813 2.4363176E-18
36.87188 2.4543743E-18
37.08562 2.4703135E-18
37.29937 2.4814492E-18
37.51313 2.4857241E-18
37.72688 2.4819325E-18
37.94062 2.4698523E-18
38.15437 2.4502775E-18
38.36813 2.4249546E-18
38.58187 2.3963983E-18
38.79562 2.3676076E-18
39.00938 2.3416732E-18
39.22313 2.3213360E-18
39.43687 2.3085624E-18
39.65062 2.3042179E-18
39.86438 2.3079067E-18
40.07812 2.3180289E-18
40.29187 2.3320465E-18
40.50563 2.3469064E-18
40.71938 2.3595331E-18
40.93312 2.3673010E-18
41.14687 2.3683984E-18
41.36063 2.3620403E-18
41.57438 2.3485169E-18
41.78812 2.3291063E-18
42.00188 2.3058776E-18
42.21563 2.2814390E-18
42.42937 2.2586340E-18
42.64312 2.2402193E-18
42.85688 2.2285311E-18
43.07063 2.2251659E-18
43.28437 2.2307132E-18
43.49812 2.2446019E-18
43.71188 2.2650995E-18
43.92562 2.2895023E-18
44.13937 2.3144968E-18
44.35313 2.3366547E-18
44.56688 2.3529556E-18
44.78062 2.3612485E-18
44.99437 2.3605642E-18
45.20813 2.3512077E-18
45.42188 2.3346523E-18
45.63562 2.3132596E-18
45.84938 2.2898874E-18
46.06313 2.2674805E-18
46.27687 2.2486864E-18
46.49062 2.2355416E-18
46.70438 2.2292493E-18
46.91813 2.2300388E-18
47.13187 2.2371284E-18
47.34563 2.2487848E-18
47.55938 2.2625048E-18
47.77312 2.2753158E-18
47.98687 2.2841757E-18
48.20063 2.2864339E-18
48.41438 2.2802646E-18
48.62812 2.2649986E-18
48.84187 2.2412750E-18
49.05563 2.2109793E-18
49.26937 2.1769657E-18
49.48312 2.1426269E-18
49.69688 2.1113959E-18
49.91063 2.0862630E-18
50.12437 2.0693948E-18
50.33812 2.0618850E-18
50.55188 2.0636665E-18
50.76562 2.0735608E-18
50.97937 2.0894493E-18
51.19313 2.1085359E-18
51.40688 2.1276884E-18
51.62062 2.1438288E-18
51.83437 2.1543412E-18
52.04813 2.1574516E-18
52.26188 2.1525078E-18
52.47562 2.1401216E-18
52.68938 2.1221033E-18
52.90313 2.1012032E-18
53.11687 2.0806885E-18
53.33062 2.0638231E-18
53.54438 2.0533615E-18
53.75813 2.0511302E-18
53.97187 2.0577782E-18
54.18562 2.0727134E-18
54.39938 2.0942246E-18
54.61312 2.1197392E-18
54.82687 2.1461710E-18
55.04063 2.1703033E-18
55.25438 2.1891734E-18
55.46812 2.2004253E-18
55.68187 2.2026041E-18
55.89563 2.1953615E-18
56.10938 2.1795438E-18
56.32312 2.1571243E-18
56.53688 2.1309668E-18
56.75063 2.1044364E-18
56.96437 2.0809048E-18
57.17812 2.0632271E-18
57.39188 2.0532939E-18
57.60563 2.0517357E-18
57.81937 2.0578452E-18
58.03313 2.0697219E-18
58.24688 2.0846010E-18
58.46062 2.0993017E-18
58.67437 2.1106980E-18
58.88813 2.1161509E-18
59.10188 2.1138330E-18
59.31562 2.1029351E-18
59.52937 2.0837428E-18
59.74313 2.0576000E-18
59.95687 2.0267654E-18
60.17062 1.9941726E-18
60.38438 1.9630944E-18
60.59813 1.9367412E-18
60.81187 1.9178236E-18
61.02562 1.9081473E-18
61.23938 1.9083048E-18
61.45312 1.9175451E-18
61.66687 1.9338492E-18
61.88063 1.9542281E-18
62.09438 1.9751789E-18
62.30812 1.9932335E-18
62.52187 2.0054845E-18
62.73563 2.0100009E-18
62.94938 2.0060704E-18
63.16312 1.9942408E-18
63.37688 1.9761862E-18
63.59063 1.9544274E-18
63.80437 1.9319703E-18
64.01813 1.9119126E-18
64.23187 1.8970492E-18
64.44563 1.8895196E-18
64.65938 1.8905260E-18
64.87312 1.9001412E-18
65.08688 1.9172502E-18
65.30063 1.9396453E-18
65.51437 1.9642864E-18
65.72813 1.9876983E-18
65.94187 2.0064631E-18
66.15562 2.0177233E-18
66.36938 2.0196150E-18
66.58312 2.0115498E-18
66.79688 1.9942948E-18
67.01063 1.9698508E-18
67.22437 1.9411421E-18
67.43813 1.9115931E-18
67.65188 1.8846522E-18
67.86562 1.8633333E-18
68.07938 1.8498337E-18
68.29312 1.8452660E-18
68.50687 1.8495256E-18
68.72063 1.8613080E-18
68.93437 1.8782722E-18
69.14812 1.8973402E-18
69.36188 1.9151030E-18
69.57562 1.9282877E-18
69.78938 1.9342258E-18
70.00313 1.9312527E-18
70.21687 1.9189637E-18
70.43063 1.8982904E-18
70.64438 1.8713725E-18
70.85812 1.8412521E-18
71.07188 1.8114290E-18
71.28562 1.7853643E-18
71.49937 1.7660010E-18
71.71313 1.7553672E-18
71.92687 1.7543175E-18
72.14062 1.7624369E-18
72.35438 1.7781050E-18
72.56812 1.7987177E-18
72.78188 1.8210286E-18
72.99563 1.8415760E-18
73.20937 1.8571464E-18
73.42313 1.8652154E-18
73.63687 1.8643083E-18
73.85062 1.8542248E-18
74.06438 1.8360864E-18
74.27812 1.8121958E-18
74.49187 1.7857146E-18
74.70563 1.7602153E-18
74.91937 1.7391630E-18
75.13313 1.7254216E-18
75.34688 1.7208388E-18
75.56062 1.7259932E-18
75.77438 1.7401132E-18
75.98813 1.7611906E-18
76.20187 1.7862601E-18
76.41563 1.8118062E-18
76.62937 1.8342372E-18
76.84312 1.8503726E-18
77.05688 1.8578702E-18
77.27062 1.8555380E-18
77.48438 1.8434975E-18
77.69813 1.8231574E-18
77.91187 1.7970184E-18
78.12563 1.7683213E-18
78.33938 1.7405915E-18
78.55312 1.7171537E-18
78.76688 1.7006695E-18
78.98062 1.6927755E-18
79.19437 1.6938647E-18
79.40813 1.7030311E-18
79.62187 1.7182018E-18
79.83562 1.7364157E-18
80.04938 1.7542336E-18
80.26312 1.7682150E-18
80.47688 1.7754063E-18
80.69063 1.7737728E-18
80.90437 1.7625070E-18
81.11813 1.7421695E-18
81.33188 1.7146311E-18
81.54562 1.6828185E-18
81.75938 1.6503045E-18
81.97312 1.6207971E-18
82.18687 1.5976177E-18
82.40063 1.5832409E-18
82.61437 1.5789697E-18
82.82812 1.5847804E-18
83.04188 1.5993558E-18
83.25562 1.6202845E-18
83.46938 1.6443929E-18
83.68313 1.6681623E-18
83.89687 1.6881766E-18
84.11063 1.7015577E-18
84.32437 1.7063404E-18
84.53812 1.7017388E-18
84.75188 1.6882742E-18
84.96562 1.6677338E-18
85.17937 1.6429463E-18
85.39313 1.6173978E-18
85.60687 1.5947347E-18
85.82063 1.5782186E-18
86.03438 1.5702301E-18
86.24812 1.5719027E-18
86.46188 1.5829472E-18
86.67563 1.6016998E-18
86.88937 1.6253805E-18
87.10313 1.6505076E-18
87.31687 1.6733986E-18
87.53062 1.6906759E-18
87.74438 1.6997137E-18
87.95812 1.6989624E-18
88.17188 1.6881360E-18
88.38563 1.6682386E-18
88.59937 1.6414417E-18
88.81313 1.6108176E-18
89.02688 1.5799572E-18
89.24062 1.5525070E-18
89.45438 1.5316763E-18
89.66812 1.5197804E-18
89.88187 1.5178926E-18
90.09563 1.5256687E-18
90.30937 1.5413810E-18
90.52312 1.5621680E-18
90.73688 1.5844630E-18
90.95062 1.6045265E-18
91.16438 1.6190013E-18
91.37813 1.6253901E-18
91.59187 1.6223955E-18
91.80563 1.6100719E-18
92.01938 1.5897905E-18
92.23312 1.5640308E-18
92.44688 1.5360357E-18
92.66062 1.5093765E-18
92.87437 1.4874806E-18
93.08813 1.4731708E-18
93.30187 1.4682677E-18
93.51562 1.4733166E-18
93.72938 1.4874755E-18
93.94312 1.5086017E-18
94.15688 1.5335287E-18
94.37063 1.5585185E-18
94.58437 1.5797940E-18
94.79813 1.5940962E-18
95.01187 1.5991488E-18
95.22562 1.5939681E-18
95.43938 1.5789720E-18
95.65312 1.5558802E-18
95.86687 1.5274401E-18
96.08063 1.4970311E-18
96.29437 1.4682051E-18
96.50813 1.4442296E-18
96.72188 1.4276769E-18
96.93562 1.4200979E-18
97.14938 1.4218161E-18
97.36313 1.4318654E-18
97.57687 1.4480901E-18
97.79063 1.4674163E-18
98.00437 1.4862686E-18
98.21812 1.5010855E-18
98.43188 1.5088645E-18
98.64562 1.5076341E-18
98.85938 1.4967767E-18
99.07313 1.4771328E-18
99.28687 1.4508713E-18
99.50063 1.4211505E-18
99.71438 1.3916325E-18
99.92812 1.3659469E-18
100.1419 1.3471854E-18
100.3556 1.3375020E-18
100.5694 1.3378658E-18
100.7831 1.3479719E-18
100.9969 1.3663107E-18
101.2106 1.3903713E-18
101.4244 1.4169536E-18
101.6381 1.4425635E-18
101.8519 1.4638531E-18
102.0656 1.4780669E-18
102.2794 1.4834326E-18
102.4931 1.4794392E-18
102.7069 1.4669430E-18
102.9206 1.4480661E-18
103.1344 1.4258921E-18
103.3481 1.4039939E-18
103.5619 1.3858780E-18
103.7756 1.3744390E-18
103.9894 1.3715205E-18
104.2031 1.3776552E-18
104.4169 1.3920151E-18
104.6306 1.4125683E-18
104.8444 1.4363946E-18
105.0581 1.4601036E-18
105.2719 1.4802898E-18
105.4856 1.4939657E-18
105.6994 1.4989371E-18
105.9131 1.4940739E-18
106.1269 1.4794672E-18
106.3406 1.4564387E-18
106.5544 1.4273939E-18
106.7681 1.3955268E-18
106.9819 1.3643952E-18
107.1956 1.3374264E-18
107.4094 1.3174195E-18
107.6231 1.3061354E-18
107.8369 1.3040474E-18
108.0506 1.3102931E-18
108.2644 1.3228393E-18
108.4781 1.3388185E-18
108.6919 1.3549824E-18
108.9056 1.3681800E-18
109.1194 1.3758013E-18
109.3331 1.3761204E-18
109.5469 1.3685053E-18
109.7606 1.3534875E-18
109.9744 1.3326899E-18
110.1881 1.3086174E-18
110.4019 1.2843423E-18
110.6156 1.2630986E-18
110.8294 1.2478366E-18
111.0431 1.2407939E-18
111.2569 1.2431467E-18
111.4706 1.2548090E-18
111.6844 1.2744203E-18
111.8981 1.2995349E-18
112.1119 1.3269808E-18
112.3256 1.3533308E-18
112.5394 1.3753971E-18
112.7531 1.3906688E-18
112.9669 1.3976264E-18
113.1806 1.3959013E-18
113.3944 1.3862705E-18
113.6081 1.3705120E-18
113.8219 1.3511445E-18
114.0356 1.3310978E-18
114.2494 1.3133319E-18
114.4631 1.3004561E-18
114.6769 1.2943711E-18
114.8906 1.2959865E-18
115.1044 1.3050577E-18
115.3181 1.3201812E-18
115.5319 1.3389659E-18
115.7456 1.3583725E-18
115.9594 1.3751709E-18
116.1731 1.3864433E-18
116.3869 1.3900385E-18
116.6006 1.3849016E-18
116.8144 1.3712180E-18
117.0281 1.3503587E-18
117.2419 1.3246451E-18
117.4556 1.2969914E-18
117.6694 1.2704851E-18
117.8831 1.2479771E-18
118.0969 1.2317280E-18
118.3106 1.2231417E-18
118.5244 1.2226111E-18
118.7381 1.2294763E-18
118.9519 1.2421027E-18
119.1656 1.2580754E-18
119.3794 1.2745042E-18
119.5931 1.2884056E-18
119.8069 1.2971278E-18
120.0206 1.2987528E-18
120.2344 1.2924092E-18
120.4481 1.2784327E-18
120.6619 1.2583385E-18
120.8756 1.2346033E-18
121.0894 1.2102869E-18
121.3031 1.1885683E-18
121.5169 1.1722674E-18
121.7306 1.1634396E-18
121.9444 1.1631010E-18
122.1581 1.1711089E-18
122.3719 1.1862133E-18
122.5856 1.2062489E-18
122.7994 1.2284389E-18
123.0131 1.2497633E-18
123.2269 1.2673577E-18
123.4406 1.2788910E-18
123.6544 1.2828784E-18
123.8681 1.2788933E-18
124.0819 1.2676395E-18
124.2956 1.2508627E-18
124.5094 1.2311075E-18
124.7231 1.2113449E-18
124.9369 1.1945297E-18
125.1506 1.1831535E-18
125.3644 1.1788740E-18
125.5781 1.1822706E-18
125.7919 1.1927702E-18
126.0056 1.2087401E-18
126.2194 1.2277301E-18
126.4331 1.2468217E-18
126.6469 1.2630265E-18
126.8606 1.2736893E-18
127.0744 1.2768451E-18
127.2881 1.2714888E-18
127.5019 1.2577268E-18
127.7156 1.2367828E-18
127.9294 1.2108555E-18
128.1431 1.1828295E-18
128.3569 1.1558771E-18
128.5706 1.1330016E-18
128.7844 1.1165964E-18
128.9981 1.1080943E-18
129.2119 1.1077638E-18
129.4256 1.1146935E-18
129.6394 1.1269601E-18
129.8531 1.1419429E-18
130.0669 1.1567309E-18
130.2806 1.1685453E-18
130.4944 1.1751212E-18
130.7081 1.1749974E-18
130.9219 1.1676872E-18
131.1356 1.1537258E-18
131.3494 1.1345941E-18
131.5631 1.1125347E-18
131.7769 1.0902727E-18
131.9906 1.0706703E-18
132.2044 1.0563422E-18
132.4181 1.0492864E-18
132.6319 1.0505771E-18
132.8456 1.0601774E-18
133.0594 1.0769107E-18
133.2731 1.0986086E-18
133.4869 1.1224143E-18
133.7006 1.1452014E-18
133.9144 1.1640285E-18
134.1281 1.1765623E-18
134.3419 1.1813954E-18
134.5556 1.1782187E-18
134.7694 1.1678277E-18
134.9831 1.1519756E-18
135.1969 1.1331049E-18
135.4106 1.1140017E-18
135.6244 1.0974103E-18
135.8381 1.0856708E-18
136.0519 1.0804054E-18
136.2656 1.0822954E-18
136.4794 1.0909781E-18
136.6931 1.1050800E-18
136.9069 1.1223889E-18
137.1206 1.1401476E-18
137.3344 1.1554376E-18
137.5481 1.1655930E-18
137.7619 1.1685898E-18
137.9756 1.1633477E-18
138.1894 1.1498964E-18
138.4031 1.1293810E-18
138.6169 1.1039050E-18
138.8306 1.0762355E-18
139.0444 1.0494195E-18
139.2581 1.0263632E-18
139.4719 1.0094356E-18
139.6856 1.0001532E-18
139.8994 9.9898592E-19
140.1131 1.0053075E-18
140.3269 1.0174992E-18
140.5406 1.0331850E-18
140.7544 1.0495754E-18
140.9681 1.0638617E-18
141.1819 1.0736102E-18
141.3956 1.0771051E-18
141.6094 1.0735796E-18
141.8231 1.0633177E-18
142.0369 1.0476066E-18
142.2506 1.0285486E-18
142.4644 1.0087661E-18
142.6781 9.9103713E-19
142.8919 9.7791422E-19
143.1056 9.7136781E-19
143.3194 9.7251345E-19
143.5331 9.8143822E-19
143.7469 9.9716778E-19
143.9606 1.0177704E-18
144.1744 1.0406029E-18
144.3881 1.0626591E-18
144.6019 1.0809874E-18
144.8156 1.0931104E-18
145.0294 1.0973854E-18
145.2431 1.0932442E-18
145.4569 1.0812701E-18
145.6706 1.0631029E-18
145.8844 1.0411823E-18
146.0981 1.0183850E-18
146.3119 9.9761011E-19
146.5256 9.8137969E-19
146.7394 9.7150760E-19
146.9531 9.6888037E-19
147.1669 9.7335801E-19
147.3806 9.8380602E-19
147.5944 9.9825139E-19
147.8081 1.0141369E-18
148.0219 1.0286569E-18
148.2356 1.0391407E-18
148.4494 1.0434328E-18
148.6631 1.0402225E-18
148.8769 1.0292659E-18
149.0906 1.0114564E-18
149.3044 9.8872382E-19
149.5181 9.6377005E-19
149.7319 9.3967883E-19
149.9456 9.1947112E-19
150.1594 9.0566878E-19
150.3731 8.9994573E-19
150.5869 9.0290434E-19
150.8006 9.1400997E-19
151.0144 9.3167886E-19
151.2281 9.5349502E-19
151.4419 9.7653241E-19
151.6556 9.9773243E-19
151.8694 1.0143010E-18
152.0831 1.0240749E-18
152.2969 1.0258176E-18
152.5106 1.0193955E-18
152.7244 1.0058092E-18
152.9381 9.8706284E-19
153.1519 9.6587916E-19
153.3656 9.4530304E-19
153.5794 9.2824771E-19
153.7931 9.1706175E-19
154.0069 9.1318041E-19
154.2206 9.1692485E-19
154.4344 9.2746913E-19
154.6481 9.4297897E-19
154.8619 9.6088878E-19
155.0756 9.7826908E-19
155.2894 9.9223282E-19
155.5031 1.0003188E-18
155.7169 1.0008175E-18
155.9306 9.9299352E-19
156.1444 9.7719416E-19
156.3581 9.5482006E-19
156.5719 9.2816510E-19
156.7856 9.0013484E-19
156.9994 8.7386648E-19
157.2131 8.5230560E-19
157.4269 8.3778858E-19
157.6406 8.3170322E-19
157.8544 8.3428330E-19
158.0681 8.4457860E-19
158.2819 8.6060326E-19
158.4956 8.7964682E-19
158.7094 8.9868097E-19
158.9231 9.1480385E-19
159.1369 9.2563982E-19
159.3506 9.2964916E-19
159.5644 9.2630384E-19
159.7781 9.1612765E-19
159.9919 9.0060282E-19
160.2056 8.8196675E-19
160.4194 8.6291936E-19
160.6331 8.4627401E-19
160.8469 8.3458016E-19
161.0606 8.2975852E-19
161.2744 8.3280368E-19
161.4881 8.4359870E-19
161.7019 8.6088657E-19
161.9156 8.8242325E-19
162.1294 9.0529428E-19
162.3431 9.2634830E-19
162.5569 9.4267436E-19
162.7706 9.5203763E-19
162.9844 9.5319486E-19
163.1981 9.4604678E-19
163.4119 9.3161010E-19
163.6256 9.1183014E-19
163.8394 8.8928275E-19
164.0531 8.6681404E-19
164.2669 8.4716985E-19
164.4806 8.3265303E-19
164.6944 8.2483866E-19
164.9081 8.2437730E-19
165.1219 8.3089486E-19
165.3356 8.4302091E-19
165.5494 8.5854730E-19
165.7631 8.7471424E-19
165.9769 8.8859360E-19
166.1906 8.9752178E-19
166.4044 8.9950598E-19
166.6181 8.9354221E-19
166.8319 8.7977700E-19
167.0456 8.5949029E-19
167.2594 8.3490007E-19
167.4731 8.0882806E-19
167.6869 7.8428499E-19
167.9006 7.6404719E-19
168.1144 7.5028725E-19
168.3281 7.4430032E-19
168.5419 7.4636310E-19
168.7556 7.5572120E-19
168.9694 7.7070589E-19
169.1831 7.8895897E-19
169.3969 8.0774259E-19
169.6106 8.2429634E-19
169.8244 8.3620857E-19
170.0381 8.4174768E-19
170.2519 8.4011689E-19
170.4656 8.3157687E-19
170.6794 8.1742577E-19
170.8931 7.9981799E-19
171.1069 7.8145655E-19
171.3206 7.6519480E-19
171.5344 7.5361603E-19
171.7481 7.4865429E-19
171.9619 7.5131212E-19
172.1756 7.6152243E-19
172.3894 7.7816065E-19
172.6031 7.9920516E-19
172.8169 8.2201787E-19
173.0306 8.4369807E-19
173.2444 8.6146694E-19
173.4581 8.7302979E-19
173.6719 8.7687607E-19
173.8856 8.7247464E-19
174.0994 8.6034663E-19
174.3131 8.4199542E-19
174.5269 8.1970745E-19
174.7406 7.9624013E-19
174.9544 7.7444113E-19
175.1681 7.5685051E-19
175.3819 7.4534505E-19
175.5956 7.4087745E-19
175.8094 7.4335537E-19
176.0231 7.5167153E-19
176.2369 7.6388155E-19
176.4506 7.7750056E-19
176.6644 7.8986453E-19
176.8781 7.9850826E-19
177.0919 8.0150348E-19
177.3056 7.9771861E-19
177.5194 7.8696506E-19
177.7331 7.7002295E-19
177.9469 7.4854479E-19
178.1606 7.2484338E-19
178.3744 7.0159505E-19
178.5881 6.8148857E-19
178.8019 6.6685822E-19
179.0156 6.5936118E-19
179.2294 6.5973341E-19
179.4431 6.6767879E-19
179.6569 6.8190205E-19
179.8706 7.0029328E-19
180.0844 7.2023257E-19
180.2981 7.3896976E-19
180.5119 7.5401793E-19
180.7256 7.6349846E-19
180.9394 7.6639287E-19
181.1531 7.6266187E-19
181.3669 7.5323129E-19
181.5806 7.3984575E-19
181.7944 7.2481929E-19
182.0081 7.1071627E-19
182.2219 6.9999901E-19
182.4356 6.9468913E-19
182.6494 6.9607828E-19
182.8631 7.0453403E-19
183.0769 7.1942814E-19
183.2906 7.3920220E-19
183.5044 7.6157185E-19
183.7181 7.8383986E-19
183.9319 8.0327706E-19
184.1456 8.1750787E-19
184.3594 8.2484248E-19
184.5731 8.2450634E-19
184.7869 8.1673436E-19
185.0006 8.0271695E-19
185.2144 7.8441589E-19
185.4281 7.6427932E-19
185.6419 7.4489806E-19
185.8556 7.2865027E-19
186.0694 7.1738200E-19
186.2831 7.1216177E-19
186.4969 7.1314291E-19
186.7106 7.1955128E-19
186.9244 7.2979922E-19
187.1381 7.4171528E-19
187.3519 7.5285564E-19
187.5656 7.6085665E-19
187.7794 7.6377836E-19
187.9931 7.6039043E-19
188.2069 7.5035477E-19
188.4206 7.3429071E-19
188.6344 7.1369950E-19
188.8481 6.9077233E-19
189.0619 6.6809589E-19
189.2756 6.4830601E-19
189.4894 6.3372850E-19
189.7031 6.2605950E-19
189.9169 6.2613168E-19
190.1306 6.3379457E-19
190.3444 6.4793709E-19
190.5581 6.6664212E-19
190.7719 6.8745647E-19
190.9856 7.0773532E-19
191.1994 7.2501006E-19
191.4131 7.3732305E-19
191.6269 7.4348658E-19
191.8406 7.4322426E-19
192.0544 7.3719112E-19
192.2681 7.2685870E-19
192.4819 7.1429900E-19
192.6956 7.0188963E-19
192.9094 6.9198218E-19
193.1231 6.8656932E-19
193.3369 6.8700307E-19
193.5506 6.9378916E-19
193.7644 7.0649279E-19
193.9781 7.2378014E-19
194.1919 7.4358098E-19
194.4056 7.6337107E-19
194.6194 7.8052463E-19
194.8331 7.9269245E-19
195.0469 7.9814140E-19
195.2606 7.9600779E-19
195.4744 7.8642098E-19
195.6881 7.7047883E-19
195.9019 7.5008841E-19
196.1156 7.2768898E-19
196.3294 7.0591314E-19
196.5431 6.8723127E-19
196.7569 6.7362363E-19
196.9706 6.6632966E-19
197.1844 6.6569635E-19
197.3981 6.7114323E-19
197.6119 6.8125158E-19
197.8256 6.9396131E-19
198.0394 7.0685768E-19
198.2531 7.1751394E-19
198.4669 7.2383949E-19
198.6806 7.2439205E-19
198.8944 7.1860075E-19
199.1081 7.0686099E-19
199.3219 6.9048840E-19
199.5356 6.7153273E-19
199.7494 6.5247490E-19
199.9631 6.3586418E-19
200.1769 6.2394347E-19
200.3906 6.1832278E-19
200.6044 6.1975546E-19
200.8181 6.2803357E-19
201.0319 6.4202771E-19
201.2456 6.5984766E-19
201.4594 6.7910877E-19
201.6731 6.9725949E-19
201.8869 7.1192437E-19
202.1006 7.2122560E-19
202.3144 7.2403233E-19
202.5281 7.2011304E-19
202.7419 7.1016433E-19
202.9556 6.9571359E-19
203.1694 6.7890332E-19
203.3831 6.6218372E-19
203.5969 6.4796139E-19
203.8106 6.3824770E-19
204.0244 6.3436254E-19
204.2381 6.3674533E-19
204.4519 6.4489224E-19
204.6656 6.5744191E-19
204.8794 6.7237914E-19
205.0931 6.8733508E-19
205.3069 6.9993159E-19
205.5206 7.0811768E-19
205.7344 7.1045405E-19
205.9481 7.0630895E-19
206.1619 6.9594045E-19
206.3756 6.8046317E-19
206.5894 6.6170055E-19
206.8031 6.4194261E-19
207.0169 6.2363587E-19
207.2306 6.0905133E-19
207.4444 5.9996919E-19
207.6581 5.9742541E-19
207.8719 6.0156617E-19
208.0856 6.1162531E-19
208.2994 6.2604007E-19
208.5131 6.4267808E-19
208.7269 6.5914435E-19
208.9406 6.7312071E-19
209.1544 6.8268178E-19
209.3681 6.8655339E-19
209.5819 6.8427017E-19
209.7956 6.7622977E-19
210.0094 6.6363077E-19
210.2231 6.4830994E-19
210.4369 6.3249414E-19
210.6506 6.1850011E-19
210.8644 6.0841068E-19
211.0781 6.0377412E-19
211.2919 6.0537161E-19
211.5056 6.1308735E-19
211.7194 6.2591382E-19
211.9331 6.4209058E-19
212.1469 6.5936128E-19
212.3606 6.7530663E-19
212.5744 6.8769325E-19
212.7881 6.9478849E-19
213.0019 6.9558879E-19
213.2156 6.8993522E-19
213.4294 6.7850658E-19
213.6431 6.6270640E-19
213.8569 6.4446024E-19
214.0706 6.2596138E-19
214.2844 6.0938789E-19
214.4981 5.9662676E-19
214.7119 5.8903387E-19
214.9256 5.8725274E-19
215.1394 5.9112312E-19
215.3531 5.9969602E-19
215.5669 6.1135792E-19
215.7806 6.2405918E-19
215.9944 6.3561024E-19
216.2081 6.4400343E-19
216.4219 6.4771344E-19
216.6356 6.4591691E-19
216.8494 6.3860701E-19
217.0631 6.2658528E-19
217.2769 6.1133755E-19
217.4906 5.9481968E-19
217.7044 5.7918794E-19
217.9181 5.6651377E-19
218.1319 5.5851493E-19
218.3456 5.5633356E-19
218.5594 5.6038560E-19
218.7731 5.7029636E-19
218.9869 5.8493302E-19
219.2006 6.0254090E-19
219.4144 6.2096738E-19
219.6281 6.3795012E-19
219.8419 6.5143172E-19
220.0556 6.5985014E-19
220.2694 6.6236095E-19
220.4831 6.5894883E-19
220.6969 6.5041791E-19
220.9106 6.3826083E-19
221.1244 6.2443492E-19
221.3381 6.1107916E-19
221.5519 6.0022304E-19
221.7656 5.9351305E-19
221.9794 5.9199590E-19
222.1931 5.9598177E-19
222.4069 6.0499277E-19
222.6206 6.1781313E-19
222.8344 6.3263766E-19
223.0481 6.4730688E-19
223.2619 6.5960385E-19
223.4756 6.6757735E-19
223.6894 6.6983401E-19
223.9031 6.6575921E-19
224.1169 6.5561312E-19
224.3306 6.4049867E-19
224.5444 6.2218985E-19
224.7581 6.0286764E-19
224.9719 5.8479943E-19
225.1856 5.7002412E-19
225.3994 5.6008430E-19
225.6131 5.5584118E-19
225.8269 5.5738573E-19
226.0406 5.6404702E-19
226.2544 5.7448914E-19
226.4681 5.8688299E-19
226.6819 5.9913860E-19
226.8956 6.0917396E-19
227.1094 6.1519862E-19
227.3231 6.1597514E-19
227.5369 6.1102074E-19
227.7506 6.0070766E-19
227.9644 5.8624358E-19
228.1781 5.6951230E-19
228.3919 5.5280522E-19
228.6056 5.3847855E-19
228.8194 5.2859943E-19
229.0331 5.2463972E-19
229.2469 5.2727274E-19
229.4606 5.3629697E-19
229.6744 5.5069291E-19
229.8881 5.6878872E-19
230.1019 5.8850065E-19
230.3156 6.0760883E-19
230.5294 6.2402702E-19
230.7431 6.3604988E-19
230.9569 6.4254801E-19
231.1706 6.4310894E-19
231.3844 6.3809529E-19
231.5981 6.2861932E-19
231.8119 6.1641261E-19
232.0256 6.0360259E-19
232.2394 5.9240514E-19
232.4531 5.8478681E-19
232.6669 5.8214635E-19
232.8806 5.8507953E-19
233.0944 5.9327482E-19
233.3081 6.0556311E-19
233.5219 6.2010598E-19
233.7356 6.3468627E-19
233.9494 6.4704094E-19
234.1631 6.5517874E-19
234.3769 6.5763671E-19
234.5906 6.5364856E-19
234.8044 6.4322960E-19
235.0181 6.2716731E-19
235.2319 6.0693716E-19
235.4456 5.8454817E-19
235.6594 5.6231914E-19
235.8731 5.4259657E-19
236.0869 5.2744469E-19
236.3006 5.1833919E-19
236.5144 5.1593075E-19
236.7281 5.1992148E-19
236.9419 5.2909584E-19
237.1556 5.4151368E-19
237.3694 5.5482747E-19
237.5831 5.6666577E-19
237.7969 5.7500912E-19
238.0106 5.7848080E-19
238.2244 5.7651966E-19
238.4381 5.6941169E-19
238.6519 5.5820360E-19
238.8656 5.4452979E-19
239.0794 5.3038986E-19
239.2931 5.1790585E-19
239.5069 5.0907207E-19
239.7206 5.0551613E-19
239.9344 5.0827560E-19
240.1481 5.1762223E-19
240.3619 5.3296715E-19
240.5756 5.5287325E-19
240.7894 5.7521095E-19
241.0031 5.9744247E-19
241.2169 6.1699557E-19
241.4306 6.3166686E-19
241.6444 6.3996679E-19
241.8581 6.4133815E-19
242.0719 6.3620932E-19
242.2856 6.2587721E-19
242.4994 6.1226131E-19
242.7131 5.9758784E-19
242.9269 5.8406737E-19
243.1406 5.7361222E-19
243.3544 5.6762633E-19
243.5681 5.6686377E-19
243.7819 5.7135743E-19
243.9956 5.8040224E-19
244.2094 5.9261597E-19
244.4231 6.0606831E-19
244.6369 6.1850642E-19
244.8506 6.2765555E-19
245.0644 6.3156977E-19
245.2781 6.2896694E-19
245.4919 6.1948187E-19
245.7056 6.0376988E-19
245.9194 5.8343023E-19
246.1331 5.6075649E-19
246.3469 5.3836616E-19
246.5606 5.1878803E-19
246.7744 5.0408841E-19
246.9881 4.9560309E-19
247.2019 4.9380790E-19
247.4156 4.9832162E-19
247.6294 5.0801732E-19
247.8431 5.2120413E-19
248.0569 5.3584708E-19
248.2706 5.4980679E-19
248.4844 5.6108819E-19
248.6981 5.6808717E-19
248.9119 5.6981567E-19
249.1256 5.6607195E-19
249.3394 5.5751663E-19
249.5531 5.4561598E-19
249.7669 5.3244572E-19
249.9806 5.2036991E-19
250.1944 5.1165257E-19
250.4081 5.0807708E-19
250.6219 5.1065065E-19
250.8356 5.1945164E-19
251.0494 5.3364234E-19
251.2631 5.5163331E-19
251.4769 5.7134606E-19
251.6906 5.9052372E-19
251.9044 6.0702587E-19
252.1181 6.1907841E-19
252.3319 6.2546073E-19
252.5456 6.2562348E-19
252.7594 6.1974915E-19
252.9731 6.0874279E-19
253.1869 5.9414781E-19
253.4006 5.7797911E-19
253.6144 5.6247227E-19
253.8281 5.4976946E-19
254.0419 5.4159558E-19
254.2556 5.3897517E-19
254.4694 5.4206521E-19
254.6831 5.5013043E-19
254.8969 5.6167952E-19
255.1106 5.7472933E-19
255.3244 5.8713083E-19
255.5381 5.9690366E-19
255.7519 6.0250678E-19
255.9656 6.0301394E-19
256.1794 5.9819562E-19
256.3931 5.8850675E-19
256.6069 5.7501543E-19
256.8206 5.5928059E-19
257.0344 5.4318852E-19
257.2481 5.2874719E-19
257.4619 5.1784412E-19
257.6756 5.1198727E-19
257.8894 5.1205933E-19
258.1031 5.1814728E-19
258.3169 5.2948575E-19
258.5306 5.4454727E-19
258.7444 5.6127710E-19
258.9581 5.7742439E-19
259.1719 5.9091064E-19
259.3856 6.0014797E-19
259.5994 6.0425533E-19
259.8131 6.0313740E-19
260.0269 5.9743068E-19
260.2406 5.8835206E-19
260.4544 5.7750080E-19
260.6681 5.6664136E-19
260.8819 5.5750360E-19
261.0956 5.5160291E-19
261.3094 5.5007624E-19
261.5231 5.5353603E-19
261.7369 5.6195993E-19
261.9506 5.7464103E-19
262.1644 5.9022428E-19
262.3781 6.0685775E-19
262.5919 6.2244235E-19
262.8056 6.3495397E-19
263.0194 6.4277021E-19
263.2331 6.4493142E-19
263.4469 6.4129338E-19
263.6606 6.3252516E-19
263.8744 6.1997931E-19
264.0881 6.0546085E-19
264.3019 5.9095344E-19
264.5156 5.7835786E-19
264.7294 5.6926828E-19
264.9431 5.6480875E-19
265.1569 5.6552488E-19
265.3706 5.7132910E-19
265.5844 5.8149846E-19
265.7981 5.9473418E-19
266.0119 6.0929431E-19
266.2256 6.2320366E-19
266.4394 6.3452704E-19
266.6531 6.4166354E-19
266.8669 6.4361414E-19
267.0806 6.4016159E-19
267.2944 6.3191677E-19
267.5081 6.2022457E-19
267.7219 6.0694005E-19
267.9356 5.9413085E-19
268.1494 5.8375811E-19
268.3631 5.7739967E-19
268.5769 5.7605168E-19
268.7906 5.8002153E-19
269.0044 5.8891579E-19
269.2181 6.0170431E-19
269.4319 6.1685102E-19
269.6456 6.3249249E-19
269.8594 6.4666147E-19
270.0731 6.5753683E-19
270.2869 6.6369881E-19
270.5006 6.6434939E-19
270.7144 6.5946695E-19
270.9281 6.4983960E-19
271.1419 6.3697850E-19
271.3556 6.2289719E-19
271.5694 6.0980272E-19
271.7831 5.9975144E-19
271.9969 5.9432989E-19
272.2106 5.9442181E-19
272.4244 6.0009400E-19
272.6381 6.1061397E-19
272.8519 6.2457937E-19
273.0656 6.4013233E-19
273.2794 6.5522269E-19
273.4931 6.6787348E-19
273.7069 6.7643439E-19
273.9206 6.7978695E-19
274.1344 6.7749029E-19
274.3481 6.6985355E-19
274.5619 6.5791071E-19
274.7756 6.4330570E-19
274.9894 6.2807907E-19
275.2031 6.1438550E-19
275.4169 6.0417737E-19
275.6306 5.9890678E-19
275.8444 5.9929587E-19
276.0581 6.0522117E-19
276.2719 6.1573557E-19
276.4856 6.2922450E-19
276.6994 6.4366212E-19