-1.603125 -3.5924843E-18
-1.389375 -3.5994007E-18
-1.175625 -3.6105437E-18
-0.9618750 -3.6219212E-18
-0.7481250 -3.6299891E-18
-0.5343750 -3.6331799E-18
-0.3206250 -3.6325178E-18
-0.1068750 -3.6310412E-18
0.1068750 -3.6323139E-18
0.3206250 -3.6387030E-18
0.5343750 -3.6502219E-18
0.7481250 -3.6644643E-18
0.9618750 -3.6776632E-18
1.175625 -3.6863858E-18
1.389375 -3.6890977E-18
1.603125 -3.6868643E-18
1.816875 -3.6828831E-18
2.030625 -3.6810426E-18
2.244375 -3.6841797E-18
2.458125 -3.6928134E-18
2.671875 -3.7049349E-18
2.885625 -3.7169510E-18
3.099375 -3.7253365E-18
3.313125 -3.7282536E-18
3.526875 -3.7263887E-18
3.740625 -3.7226358E-18
3.954375 -3.7207647E-18
4.168125 -3.7236999E-18
4.381875 -3.7321781E-18
4.595625 -3.7444055E-18
4.809375 -3.7568736E-18
5.023125 -3.7659449E-18
5.236875 -3.7694939E-18
5.450625 -3.7678544E-18
5.664375 -3.7636375E-18
5.878125 -3.7605124E-18
6.091875 -3.7615075E-18
6.305625 -3.7676137E-18
6.519375 -3.7773203E-18
6.733125 -3.7873014E-18
6.946875 -3.7939358E-18
7.160625 -3.7949620E-18
7.374375 -3.7905208E-18
7.588125 -3.7831018E-18
7.801875 -3.7764265E-18
8.015625 -3.7737704E-18
8.229375 -3.7764997E-18
8.443125 -3.7834774E-18
8.656875 -3.7916098E-18
8.870625 -3.7972863E-18
9.084375 -3.7980420E-18
9.298125 -3.7936968E-18
9.511875 -3.7864441E-18
9.725625 -3.7798510E-18
9.939375 -3.7772309E-18
10.15312 -3.7801298E-18
10.36687 -3.7876183E-18
10.58062 -3.7967086E-18
10.79438 -3.8037090E-18
11.00813 -3.8058923E-18
11.22188 -3.8027267E-18
11.43563 -3.7960997E-18
11.64937 -3.7894430E-18
11.86312 -3.7861620E-18
12.07687 -3.7880798E-18
12.29062 -3.7946125E-18
12.50438 -3.8030477E-18
12.71813 -3.8097999E-18
12.93188 -3.8120627E-18
13.14563 -3.8091039E-18
13.35938 -3.8026150E-18
13.57312 -3.7959463E-18
13.78687 -3.7925834E-18
14.00062 -3.7945583E-18
14.21437 -3.8015198E-18
14.42813 -3.8108860E-18
14.64188 -3.8190155E-18
14.85563 -3.8228595E-18
15.06938 -3.8213416E-18
15.28312 -3.8158383E-18
15.49687 -3.8095423E-18
15.71062 -3.8060015E-18
15.92437 -3.8074987E-18
16.13812 -3.8140165E-18
16.35188 -3.8232573E-18
16.56562 -3.8317057E-18
16.77938 -3.8362486E-18
16.99313 -3.8356084E-18
17.20687 -3.8309241E-18
17.42063 -3.8252252E-18
17.63437 -3.8220294E-18
17.84813 -3.8237127E-18
18.06187 -3.8304021E-18
18.27563 -3.8398990E-18
18.48937 -3.8486745E-18
18.70312 -3.8534846E-18
18.91688 -3.8528572E-18
19.13062 -3.8477799E-18
19.34438 -3.8412593E-18
19.55812 -3.8369633E-18
19.77188 -3.8375585E-18
19.98562 -3.8435080E-18
20.19938 -3.8528787E-18
20.41312 -3.8622452E-18
20.62687 -3.8682688E-18
20.84063 -3.8692316E-18
21.05437 -3.8658116E-18
21.26813 -3.8607476E-18
21.48187 -3.8575473E-18
21.69563 -3.8588348E-18
21.90937 -3.8651003E-18
22.12313 -3.8744333E-18
22.33688 -3.8833656E-18
22.55062 -3.8884367E-18
22.76438 -3.8877712E-18
22.97812 -3.8819429E-18
23.19188 -3.8737240E-18
23.40562 -3.8668448E-18
23.61938 -3.8643198E-18
23.83312 -3.8671169E-18
24.04688 -3.8737712E-18
24.26063 -3.8811190E-18
24.47437 -3.8858079E-18
24.68813 -3.8858852E-18
24.90187 -3.8817344E-18
25.11563 -3.8759173E-18
25.32937 -3.8720056E-18
25.54313 -3.8729324E-18
25.75687 -3.8796140E-18
25.97062 -3.8904922E-18
26.18438 -3.9021935E-18
26.39812 -3.9110158E-18
26.61188 -3.9145615E-18
26.82562 -3.9127711E-18
27.03938 -3.9078920E-18
27.25312 -3.9033975E-18
27.46688 -3.9023610E-18
27.68063 -3.9060246E-18
27.89437 -3.9132277E-18
28.10813 -3.9209465E-18
28.32187 -3.9257032E-18
28.53563 -3.9251862E-18
28.74937 -3.9193472E-18
28.96313 -3.9104633E-18
29.17687 -3.9021377E-18
29.39062 -3.8977019E-18
29.60438 -3.8987380E-18
29.81812 -3.9044100E-18
30.03188 -3.9118951E-18
30.24562 -3.9177172E-18
30.45938 -3.9193720E-18
30.67312 -3.9164889E-18
30.88688 -3.9110059E-18
31.10062 -3.9062723E-18
31.31437 -3.9054973E-18
31.52813 -3.9102552E-18
31.74187 -3.9197285E-18
31.95563 -3.9310427E-18
32.16938 -3.9405333E-18
32.38313 -3.9453670E-18
32.59687 -3.9447805E-18
32.81062 -3.9403766E-18
33.02438 -3.9353403E-18
33.23812 -3.9329481E-18
33.45187 -3.9350504E-18
33.66563 -3.9412240E-18
33.87938 -3.9489784E-18
34.09312 -3.9549221E-18
34.30687 -3.9563461E-18
34.52063 -3.9525031E-18
34.73438 -3.9449927E-18
34.94812 -3.9370761E-18
35.16188 -3.9322342E-18
35.37563 -3.9326205E-18
35.58937 -3.9381192E-18
35.80312 -3.9464295E-18
36.01688 -3.9541326E-18
36.23063 -3.9582573E-18
36.44437 -3.9576208E-18
36.65813 -3.9533410E-18
36.87188 -3.9482935E-18
37.08562 -3.9457553E-18
37.29937 -3.9478721E-18
37.51313 -3.9546459E-18
37.72688 -3.9639078E-18
37.94062 -3.9722934E-18
38.15437 -3.9767672E-18
38.36813 -3.9760078E-18
38.58187 -3.9710195E-18
38.79562 -3.9646783E-18
39.00938 -3.9604361E-18
39.22313 -3.9607546E-18
39.43687 -3.9659907E-18
39.65062 -3.9742418E-18
39.86438 -3.9822150E-18
40.07812 -3.9867260E-18
40.29187 -3.9861457E-18
40.50563 -3.9811359E-18
40.71938 -3.9743357E-18
40.93312 -3.9691492E-18
41.14687 -3.9681901E-18
41.36063 -3.9720907E-18
41.57438 -3.9792260E-18
41.78812 -3.9864754E-18
42.00188 -3.9906725E-18
42.21563 -3.9900806E-18
42.42937 -3.9852143E-18
42.64312 -3.9786308E-18
42.85688 -3.9737831E-18
43.07063 -3.9734580E-18
43.28437 -3.9785117E-18
43.49812 -3.9874758E-18
43.71188 -3.9972204E-18
43.92562 -4.0043603E-18
44.13937 -4.0067673E-18
44.35313 -4.0045021E-18
44.56688 -3.9997330E-18
44.78062 -3.9956980E-18
44.99437 -3.9951806E-18
45.20813 -3.9992057E-18
45.42188 -4.0065585E-18
45.63562 -4.0143336E-18
45.84938 -4.0192751E-18
46.06313 -4.0192830E-18
46.27687 -4.0143956E-18
46.49062 -4.0068025E-18
46.70438 -3.9998765E-18
46.91813 -3.9966766E-18
47.13187 -3.9985956E-18
47.34563 -4.0047722E-18
47.55938 -4.0125249E-18
47.77312 -4.0186047E-18
47.98687 -4.0206851E-18
48.20063 -4.0184095E-18
48.41438 -4.0135171E-18
48.62812 -4.0090061E-18
48.84187 -4.0077174E-18
49.05563 -4.0110013E-18
49.26937 -4.0180712E-18
49.48312 -4.0263467E-18
49.69688 -4.0326180E-18
49.91063 -4.0345048E-18
50.12437 -4.0315356E-18
50.33812 -4.0253661E-18
50.55188 -4.0190299E-18
50.76562 -4.0155839E-18
50.97937 -4.0167489E-18
51.19313 -4.0221723E-18
51.40688 -4.0296368E-18
51.62062 -4.0361070E-18
51.83437 -4.0391382E-18
52.04813 -4.0379897E-18
52.26188 -4.0339506E-18
52.47562 -4.0297257E-18
52.68938 -4.0281760E-18
52.90313 -4.0309872E-18
53.11687 -4.0378797E-18
53.33062 -4.0467131E-18
53.54438 -4.0544386E-18
53.75813 -4.0584628E-18
53.97187 -4.0577998E-18
54.18562 -4.0534927E-18
54.39938 -4.0481127E-18
54.61312 -4.0445703E-18
54.82687 -4.0447825E-18
55.04063 -4.0488005E-18
55.25438 -4.0547984E-18
55.46812 -4.0599166E-18
55.68187 -4.0615825E-18
55.89563 -4.0587006E-18
56.10938 -4.0521729E-18
56.32312 -4.0445112E-18
56.53688 -4.0387275E-18
56.75063 -4.0370012E-18
56.96437 -4.0397334E-18
57.17812 -4.0454182E-18
57.39188 -4.0513784E-18
57.60563 -4.0550304E-18
57.81937 -4.0550900E-18
58.03313 -4.0521701E-18
58.24688 -4.0484891E-18
58.46062 -4.0468252E-18
58.67437 -4.0491996E-18
58.88813 -4.0558866E-18
59.10188 -4.0652134E-18
59.31562 -4.0742417E-18
59.52937 -4.0800316E-18
59.74313 -4.0809051E-18
59.95687 -4.0771526E-18
60.17062 -4.0708519E-18
60.38438 -4.0649028E-18
60.59813 -4.0617095E-18
60.81187 -4.0621272E-18
61.02562 -4.0651382E-18
61.23938 -4.0684097E-18
61.45312 -4.0694581E-18
61.66687 -4.0668815E-18
61.88063 -4.0610829E-18
62.09438 -4.0541470E-18
62.30812 -4.0489254E-18
62.52187 -4.0477467E-18
62.73563 -4.0513429E-18
62.94938 -4.0584876E-18
63.16312 -4.0665150E-18
63.37688 -4.0724827E-18
63.59063 -4.0744564E-18
63.80437 -4.0723338E-18
64.01813 -4.0678364E-18
64.23187 -4.0636865E-18
64.44563 -4.0623485E-18
64.65938 -4.0649124E-18
64.87312 -4.0706216E-18
65.08688 -4.0772601E-18
65.30063 -4.0822033E-18
65.51437 -4.0836472E-18
65.72813 -4.0814444E-18
65.94187 -4.0771637E-18
66.15562 -4.0733492E-18
66.36938 -4.0723227E-18
66.58312 -4.0750805E-18
66.79688 -4.0807984E-18
67.01063 -4.0871685E-18
67.22437 -4.0914289E-18
67.43813 -4.0916071E-18
67.65188 -4.0874261E-18
67.86562 -4.0804543E-18
68.07938 -4.0734344E-18
68.29312 -4.0691008E-18
68.50687 -4.0690102E-18
68.72063 -4.0729190E-18
68.93437 -4.0789715E-18
69.14812 -4.0846084E-18
69.36188 -4.0877665E-18
69.57562 -4.0878207E-18
69.78938 -4.0858346E-18
70.00313 -4.0840082E-18
70.21687 -4.0845889E-18
70.43063 -4.0887381E-18
70.64438 -4.0959031E-18
70.85812 -4.1039677E-18
71.07188 -4.1101476E-18
71.28562 -4.1122126E-18
71.49937 -4.1094933E-18
71.71313 -4.1032063E-18
71.92687 -4.0959502E-18
72.14062 -4.0905918E-18
72.35438 -4.0890420E-18
72.56812 -4.0914702E-18
72.78188 -4.0963084E-18
72.99563 -4.1010287E-18
73.20937 -4.1033419E-18
73.42313 -4.1022583E-18
73.63687 -4.0985290E-18
73.85062 -4.0942682E-18
74.06438 -4.0919351E-18
74.27812 -4.0931486E-18
74.49187 -4.0978883E-18
74.70563 -4.1044599E-18
74.91937 -4.1102439E-18
75.13313 -4.1128938E-18
75.34688 -4.1114330E-18
75.56062 -4.1067387E-18
75.77438 -4.1011875E-18
75.98813 -4.0976129E-18
76.20187 -4.0980380E-18
76.41563 -4.1027674E-18
76.62937 -4.1102414E-18
76.84312 -4.1177212E-18
77.05688 -4.1224994E-18
77.27062 -4.1230785E-18
77.48438 -4.1197921E-18
77.69813 -4.1145903E-18
77.91187 -4.1100979E-18
78.12563 -4.1083861E-18
78.33938 -4.1100264E-18
78.55312 -4.1138666E-18
78.76688 -4.1176199E-18
78.98062 -4.1190009E-18
79.19437 -4.1168696E-18
79.40813 -4.1118478E-18
79.62187 -4.1061146E-18
79.83562 -4.1024630E-18
80.04938 -4.1030429E-18
80.26312 -4.1083625E-18
80.47688 -4.1170065E-18
80.69063 -4.1262064E-18
80.90437 -4.1330075E-18
81.11813 -4.1355093E-18
81.33188 -4.1336283E-18
81.54562 -4.1290399E-18
81.75938 -4.1243457E-18
81.97312 -4.1218468E-18
82.18687 -4.1225007E-18
82.40063 -4.1255228E-18
82.61437 -4.1288269E-18
82.82812 -4.1300785E-18
83.04188 -4.1278769E-18
83.25562 -4.1225094E-18
83.46938 -4.1159180E-18
83.68313 -4.1108842E-18
83.89687 -4.1098006E-18
84.11063 -4.1135779E-18
84.32437 -4.1211966E-18
84.53812 -4.1301087E-18
84.75188 -4.1373142E-18
84.96562 -4.1406354E-18
85.17937 -4.1396175E-18
85.39313 -4.1356549E-18
85.60687 -4.1312965E-18
85.82063 -4.1290507E-18
86.03438 -4.1302414E-18
86.24812 -4.1344299E-18
86.46188 -4.1396663E-18
86.67563 -4.1434457E-18
86.88937 -4.1439176E-18
87.10313 -4.1407962E-18
87.31687 -4.1355337E-18
87.53062 -4.1306811E-18
87.74438 -4.1287182E-18
87.95812 -4.1308961E-18
88.17188 -4.1366169E-18
88.38563 -4.1436542E-18
88.59937 -4.1491131E-18
88.81313 -4.1507113E-18
89.02688 -4.1477959E-18
89.24062 -4.1416396E-18
89.45438 -4.1348836E-18
89.66812 -4.1303763E-18
89.88187 -4.1299325E-18
90.09563 -4.1335762E-18
90.30937 -4.1395944E-18
90.52312 -4.1453768E-18
90.73688 -4.1486416E-18
90.95062 -4.1484816E-18
91.16438 -4.1457577E-18
91.37813 -4.1426537E-18
91.59187 -4.1416061E-18
91.80563 -4.1441062E-18
92.01938 -4.1499345E-18
92.23312 -4.1571835E-18
92.44688 -4.1630710E-18
92.66062 -4.1651786E-18
92.87437 -4.1625507E-18
93.08813 -4.1561553E-18
93.30187 -4.1484915E-18
93.51562 -4.1425172E-18
93.72938 -4.1403765E-18
93.94312 -4.1425023E-18
94.15688 -4.1474902E-18
94.37063 -4.1527924E-18
94.58437 -4.1559134E-18
94.79813 -4.1555536E-18
95.01187 -4.1521832E-18
95.22562 -4.1477909E-18
95.43938 -4.1449218E-18
95.65312 -4.1454640E-18
95.86687 -4.1497331E-18
96.08063 -4.1562914E-18
96.29437 -4.1625796E-18
96.50813 -4.1660827E-18
96.72188 -4.1654888E-18
96.93562 -4.1613161E-18
97.14938 -4.1557082E-18
97.36313 -4.1514888E-18
97.57687 -4.1508965E-18
97.79063 -4.1545763E-18
98.00437 -4.1612772E-18
98.21812 -4.1684026E-18
98.43188 -4.1731576E-18
98.64562 -4.1737755E-18
98.85938 -4.1702720E-18
99.07313 -4.1643874E-18
99.28687 -4.1587502E-18
99.50063 -4.1556557E-18
99.71438 -4.1560189E-18
99.92812 -4.1589814E-18
100.1419 -4.1623596E-18
100.3556 -4.1637158E-18
100.5694 -4.1615614E-18
100.7831 -4.1561326E-18
100.9969 -4.1493646E-18
101.2106 -4.1440793E-18
101.4244 -4.1427323E-18
101.6381 -4.1463007E-18
101.8519 -4.1538132E-18
102.0656 -4.1627380E-18
102.2794 -4.1700623E-18
102.4931 -4.1735708E-18
102.7069 -4.1727606E-18
102.9206 -4.1689704E-18
103.1344 -4.1646877E-18
103.3481 -4.1623501E-18
103.5619 -4.1632009E-18
103.7756 -4.1667197E-18
103.9894 -4.1708903E-18
104.2031 -4.1731775E-18
104.4169 -4.1717597E-18
104.6306 -4.1664451E-18
104.8444 -4.1588437E-18
105.0581 -4.1517051E-18
105.2719 -4.1477214E-18
105.4856 -4.1483364E-18
105.6994 -4.1530981E-18
105.9131 -4.1598603E-18
106.1269 -4.1657341E-18
106.3406 -4.1683691E-18
106.5544 -4.1669769E-18
106.7681 -4.1626471E-18
106.9819 -4.1578076E-18
107.1956 -4.1550891E-18
107.4094 -4.1561098E-18
107.6231 -4.1607396E-18
107.8369 -4.1671705E-18
108.0506 -4.1727660E-18
108.2644 -4.1752868E-18
108.4781 -4.1739343E-18
108.6919 -4.1697277E-18
108.9056 -4.1650355E-18
109.1194 -4.1624795E-18
109.3331 -4.1637075E-18
109.5469 -4.1685965E-18
109.7606 -4.1752611E-18
109.9744 -4.1808682E-18
110.1881 -4.1828919E-18
110.4019 -4.1802461E-18
110.6156 -4.1737850E-18
110.8294 -4.1659380E-18
111.0431 -4.1596514E-18
111.2569 -4.1571107E-18
111.4706 -4.1588234E-18
111.6844 -4.1634680E-18
111.8981 -4.1685750E-18
112.1119 -4.1717121E-18
112.3256 -4.1716344E-18
112.5394 -4.1688579E-18
112.7531 -4.1653970E-18
112.9669 -4.1637840E-18
113.1806 -4.1658247E-18
113.3944 -4.1716683E-18
113.6081 -4.1796278E-18
113.8219 -4.1868549E-18
114.0356 -4.1905640E-18
114.2494 -4.1892657E-18
114.4631 -4.1834432E-18
114.6769 -4.1753629E-18
114.8906 -4.1681023E-18
115.1044 -4.1642261E-18
115.3181 -4.1647109E-18
115.5319 -4.1685957E-18
115.7456 -4.1735108E-18
115.9594 -4.1768336E-18
116.1731 -4.1769304E-18
116.3869 -4.1739153E-18
116.6006 -4.1695751E-18
116.8144 -4.1664930E-18
117.0281 -4.1667900E-18
117.2419 -4.1710620E-18
117.4556 -4.1780219E-18
117.6694 -4.1850215E-18
117.8831 -4.1892194E-18
118.0969 -4.1888753E-18
118.3106 -4.1841587E-18
118.5244 -4.1771132E-18
118.7381 -4.1707704E-18
118.9519 -4.1678161E-18
119.1656 -4.1694121E-18
119.3794 -4.1747073E-18
119.5931 -4.1812565E-18
119.8069 -4.1861572E-18
120.0206 -4.1873711E-18
120.2344 -4.1846368E-18
120.4481 -4.1795443E-18
120.6619 -4.1747553E-18
120.8756 -4.1727217E-18
121.0894 -4.1745130E-18
121.3031 -4.1792920E-18
121.5169 -4.1846931E-18
121.7306 -4.1879245E-18
121.9444 -4.1870952E-18
122.1581 -4.1821449E-18
122.3719 -4.1749414E-18
122.5856 -4.1684919E-18
122.7994 -4.1656191E-18
123.0131 -4.1677040E-18
123.2269 -4.1740634E-18
123.4406 -4.1822541E-18
123.6544 -4.1891532E-18
123.8681 -4.1923325E-18
124.0819 -4.1910926E-18
124.2956 -4.1867006E-18
124.5094 -4.1817297E-18
124.7231 -4.1788102E-18
124.9369 -4.1793875E-18
125.1506 -4.1830524E-18
125.3644 -4.1877578E-18
125.5781 -4.1908150E-18
125.7919 -4.1902025E-18
126.0056 -4.1855740E-18
126.2194 -4.1784983E-18
126.4331 -4.1717982E-18
126.6469 -4.1683004E-18
126.8606 -4.1695573E-18
127.0744 -4.1751313E-18
127.2881 -4.1827682E-18
127.5019 -4.1893902E-18
127.7156 -4.1924475E-18
127.9294 -4.1910280E-18
128.1431 -4.1862143E-18
128.3569 -4.1805448E-18
128.5706 -4.1768241E-18
128.7844 -4.1768440E-18
128.9981 -4.1805898E-18
129.2119 -4.1863019E-18
129.4256 -4.1913415E-18
129.6394 -4.1934587E-18
129.8531 -4.1918664E-18
130.0669 -4.1876180E-18
130.2806 -4.1831148E-18
130.4944 -4.1809699E-18
130.7081 -4.1827554E-18
130.9219 -4.1882115E-18
131.1356 -4.1952938E-18
131.3494 -4.2010394E-18
131.5631 -4.2028642E-18
131.7769 -4.1997081E-18
131.9906 -4.1925041E-18
132.2044 -4.1837679E-18
132.4181 -4.1764953E-18
132.6319 -4.1728735E-18
132.8456 -4.1733855E-18
133.0594 -4.1767124E-18
133.2731 -4.1804542E-18
133.4869 -4.1823315E-18
133.7006 -4.1812996E-18
133.9144 -4.1780583E-18
134.1281 -4.1747198E-18
134.3419 -4.1737941E-18
134.5556 -4.1769589E-18
134.7694 -4.1841835E-18
134.9831 -4.1936295E-18
135.1969 -4.2023645E-18
135.4106 -4.2075948E-18
135.6244 -4.2078434E-18
135.8381 -4.2035602E-18
136.0519 -4.1968828E-18
136.2656 -4.1906682E-18
136.4794 -4.1872333E-18
136.6931 -4.1873756E-18
136.9069 -4.1901103E-18
137.1206 -4.1932271E-18
137.3344 -4.1944025E-18
137.5481 -4.1923387E-18
137.7619 -4.1874133E-18
137.9756 -4.1815262E-18
138.1894 -4.1772311E-18
138.4031 -4.1765383E-18
138.6169 -4.1799570E-18
138.8306 -4.1862101E-18
139.0444 -4.1927664E-18
139.2581 -4.1969519E-18
139.4719 -4.1971351E-18
139.6856 -4.1934500E-18
139.8994 -4.1877305E-18
140.1131 -4.1826847E-18
140.3269 -4.1806808E-18
140.5406 -4.1827045E-18
140.7544 -4.1879418E-18
140.9681 -4.1941874E-18
141.1819 -4.1988709E-18
141.3956 -4.2002341E-18
141.6094 -4.1981137E-18
141.8231 -4.1939798E-18
142.0369 -4.1902100E-18
142.2506 -4.1889394E-18
142.4644 -4.1910301E-18
142.6781 -4.1956309E-18
142.8919 -4.2005402E-18
143.1056 -4.2032141E-18
143.3194 -4.2019547E-18
143.5331 -4.1967323E-18
143.7469 -4.1892641E-18
143.9606 -4.1823009E-18
144.1744 -4.1784421E-18
144.3881 -4.1790116E-18
144.6019 -4.1835048E-18
144.8156 -4.1898476E-18
145.0294 -4.1953476E-18
145.2431 -4.1979044E-18
145.4569 -4.1969159E-18
145.6706 -4.1934831E-18
145.8844 -4.1898245E-18
146.0981 -4.1881817E-18
146.3119 -4.1897298E-18
146.5256 -4.1940030E-18
146.7394 -4.1991026E-18
146.9531 -4.2025883E-18
147.1669 -4.2026470E-18
147.3806 -4.1989839E-18
147.5944 -4.1930261E-18
147.8081 -4.1873314E-18
148.0219 -4.1844710E-18
148.2356 -4.1858842E-18
148.4494 -4.1912336E-18
148.6631 -4.1985483E-18
148.8769 -4.2050889E-18
149.0906 -4.2085407E-18
149.3044 -4.2079947E-18
149.5181 -4.2042791E-18
149.7319 -4.1994967E-18
149.9456 -4.1960031E-18
150.1594 -4.1953000E-18
150.3731 -4.1973531E-18
150.5869 -4.2006519E-18
150.8006 -4.2029733E-18
151.0144 -4.2024849E-18
151.2281 -4.1986708E-18
151.4419 -4.1926464E-18
151.6556 -4.1867089E-18
151.8694 -4.1833195E-18
152.0831 -4.1839937E-18
152.2969 -4.1885903E-18
152.5106 -4.1953434E-18
152.7244 -4.2016114E-18
152.9381 -4.2050111E-18
153.1519 -4.2044300E-18
153.3656 -4.2004533E-18
153.5794 -4.1950390E-18
153.7931 -4.1905834E-18
154.0069 -4.1888269E-18
154.2206 -4.1900917E-18
154.4344 -4.1931969E-18
154.6481 -4.1960825E-18
154.8619 -4.1968361E-18
155.0756 -4.1946486E-18
155.2894 -4.1902426E-18
155.5031 -4.1855748E-18
155.7169 -4.1829444E-18
155.9306 -4.1839163E-18
156.1444 -4.1885523E-18
156.3581 -4.1953087E-18
156.5719 -4.2016565E-18
156.7856 -4.2051443E-18
156.9994 -4.2044333E-18
157.2131 -4.1998412E-18
157.4269 -4.1931522E-18
157.6406 -4.1867916E-18
157.8544 -4.1827475E-18
158.0681 -4.1817218E-18
158.2819 -4.1829002E-18
158.4956 -4.1844313E-18
158.7094 -4.1843816E-18
158.9231 -4.1817160E-18
159.1369 -4.1768415E-18
159.3506 -4.1714615E-18
159.5644 -4.1678062E-18
159.7781 -4.1675882E-18
159.9919 -4.1711774E-18
160.2056 -4.1773750E-18
160.4194 -4.1839023E-18
160.6331 -4.1883852E-18
160.8469 -4.1893968E-18
161.0606 -4.1870712E-18
161.2744 -4.1830197E-18
161.4881 -4.1795827E-18
161.7019 -4.1787572E-18
161.9156 -4.1812917E-18
162.1294 -4.1863540E-18
162.3431 -4.1919247E-18
162.5569 -4.1957206E-18
162.7706 -4.1962310E-18
162.9844 -4.1933818E-18
163.1981 -4.1885299E-18
163.4119 -4.1837960E-18
163.6256 -4.1810522E-18
163.8394 -4.1810340E-18
164.0531 -4.1829990E-18
164.2669 -4.1850864E-18
164.4806 -4.1852171E-18
164.6944 -4.1821185E-18
164.9081 -4.1759961E-18
165.1219 -4.1685349E-18
165.3356 -4.1622297E-18
165.5494 -4.1593288E-18
165.7631 -4.1608777E-18
165.9769 -4.1662842E-18
166.1906 -4.1736014E-18
166.4044 -4.1803884E-18
166.6181 -4.1847597E-18
166.8319 -4.1861415E-18
167.0456 -4.1854078E-18
167.2594 -4.1843419E-18
167.4731 -4.1846918E-18
167.6869 -4.1872693E-18
167.9006 -4.1915082E-18
168.1144 -4.1957024E-18
168.3281 -4.1977993E-18
168.5419 -4.1963915E-18
168.7556 -4.1914371E-18
168.9694 -4.1843721E-18
169.1831 -4.1775500E-18
169.3969 -4.1732594E-18
169.6106 -4.1727577E-18
169.8244 -4.1757517E-18
170.0381 -4.1805605E-18
170.2519 -4.1848813E-18
170.4656 -4.1868061E-18
170.6794 -4.1856365E-18
170.8931 -4.1821263E-18
171.1069 -4.1780632E-18
171.3206 -4.1753848E-18
171.5344 -4.1752545E-18
171.7481 -4.1775111E-18
171.9619 -4.1807627E-18
172.1756 -4.1830623E-18
172.3894 -4.1828567E-18
172.6031 -4.1797631E-18
172.8169 -4.1748095E-18
173.0306 -4.1700189E-18
173.2444 -4.1675191E-18
173.4581 -4.1685854E-18
173.6719 -4.1730451E-18
173.8856 -4.1793238E-18
174.0994 -4.1851096E-18
174.3131 -4.1883434E-18
174.5269 -4.1880866E-18
174.7406 -4.1848796E-18
174.9544 -4.1804364E-18
175.1681 -4.1768278E-18
175.3819 -4.1755221E-18
175.5956 -4.1767360E-18
175.8094 -4.1793851E-18
176.0231 -4.1816486E-18
176.2369 -4.1818827E-18
176.4506 -4.1794537E-18
176.6644 -4.1750932E-18
176.8781 -4.1706070E-18
177.0919 -4.1680663E-18
177.3056 -4.1688443E-18
177.5194 -4.1729496E-18
177.7331 -4.1789632E-18
177.9469 -4.1846157E-18
178.1606 -4.1877516E-18
178.3744 -4.1872486E-18
178.5881 -4.1834755E-18
178.8019 -4.1780938E-18
179.0156 -4.1732933E-18
179.2294 -4.1708167E-18
179.4431 -4.1712183E-18
179.6569 -4.1736825E-18
179.8706 -4.1764825E-18
180.0844 -4.1778486E-18
180.2981 -4.1768373E-18
180.5119 -4.1738008E-18
180.7256 -4.1702273E-18
180.9394 -4.1680353E-18
181.1531 -4.1686487E-18
181.3669 -4.1722800E-18
181.5806 -4.1777646E-18
181.7944 -4.1830263E-18
182.0081 -4.1859686E-18
182.2219 -4.1853962E-18
182.4356 -4.1815461E-18
182.6494 -4.1759886E-18
182.8631 -4.1709503E-18
183.0769 -4.1683538E-18
183.2906 -4.1690143E-18
183.5044 -4.1723375E-18
183.7181 -4.1766512E-18
183.9319 -4.1800054E-18
184.1456 -4.1810671E-18
184.3594 -4.1797035E-18
184.5731 -4.1769900E-18
184.7869 -4.1746445E-18
185.0006 -4.1741635E-18
185.2144 -4.1760561E-18
185.4281 -4.1795447E-18
185.6419 -4.1828741E-18
185.8556 -4.1840971E-18
186.0694 -4.1819849E-18
186.2831 -4.1766471E-18
186.4969 -4.1695706E-18
186.7106 -4.1630549E-18
186.9244 -4.1592800E-18
187.1381 -4.1594206E-18
187.3519 -4.1631922E-18
187.5656 -4.1690304E-18
187.7794 -4.1748095E-18
187.9931 -4.1787800E-18
188.2069 -4.1802904E-18
188.4206 -4.1799806E-18
188.6344 -4.1793619E-18
188.8481 -4.1799860E-18
189.0619 -4.1826069E-18
189.2756 -4.1867209E-18
189.4894 -4.1907220E-18
189.7031 -4.1926067E-18
189.9169 -4.1909118E-18
190.1306 -4.1854520E-18
190.3444 -4.1775111E-18
190.5581 -4.1693799E-18
190.7719 -4.1634337E-18
190.9856 -4.1611606E-18
191.1994 -4.1625705E-18
191.4131 -4.1662544E-18
191.6269 -4.1700590E-18
191.8406 -4.1720765E-18
192.0544 -4.1714904E-18
192.2681 -4.1689005E-18
192.4819 -4.1659765E-18
192.6956 -4.1646186E-18
192.9094 -4.1660091E-18
193.1231 -4.1700139E-18
193.3369 -4.1752111E-18
193.5506 -4.1795397E-18
193.7644 -4.1812706E-18
193.9781 -4.1798446E-18
194.1919 -4.1761806E-18
194.4056 -4.1722990E-18
194.6194 -4.1704238E-18
194.8331 -4.1719623E-18
195.0469 -4.1768394E-18
195.2606 -4.1834808E-18
195.4744 -4.1894725E-18
195.6881 -4.1925931E-18
195.9019 -4.1917568E-18
196.1156 -4.1874443E-18
196.3294 -4.1814311E-18
196.5431 -4.1759510E-18
196.7569 -4.1726774E-18
196.9706 -4.1720000E-18
197.1844 -4.1729260E-18
197.3981 -4.1736403E-18
197.6119 -4.1724636E-18
197.8256 -4.1687483E-18
198.0394 -4.1632894E-18
198.2531 -4.1580467E-18
198.4669 -4.1552901E-18
198.6806 -4.1565602E-18
198.8944 -4.1619191E-18
199.1081 -4.1698386E-18
199.3219 -4.1777944E-18
199.5356 -4.1833013E-18
199.7494 -4.1849379E-18
199.9631 -4.1828931E-18
200.1769 -4.1788056E-18
200.3906 -4.1749712E-18
200.6044 -4.1732809E-18
200.8181 -4.1743847E-18
201.0319 -4.1774503E-18
201.2456 -4.1806271E-18
201.4594 -4.1819861E-18
201.6731 -4.1804939E-18
201.8869 -4.1765590E-18
202.1006 -4.1718908E-18
202.3144 -4.1687260E-18
202.5281 -4.1687740E-18
202.7419 -4.1723797E-18
202.9556 -4.1782853E-18
203.1694 -4.1841273E-18
203.3831 -4.1874426E-18
203.5969 -4.1867478E-18
203.8106 -4.1821871E-18
204.0244 -4.1754700E-18
204.2381 -4.1691185E-18
204.4519 -4.1653631E-18
204.6656 -4.1651989E-18
204.8794 -4.1680113E-18
205.0931 -4.1719479E-18
205.3069 -4.1748442E-18
205.5206 -4.1752731E-18
205.7344 -4.1732246E-18
205.9481 -4.1700966E-18
206.1619 -4.1680035E-18
206.3756 -4.1687260E-18
206.5894 -4.1727937E-18
206.8031 -4.1791357E-18
207.0169 -4.1854781E-18
207.2306 -4.1893125E-18
207.4444 -4.1890056E-18
207.6581 -4.1845409E-18
207.8719 -4.1775528E-18
208.0856 -4.1706355E-18
208.2994 -4.1662362E-18
208.5131 -4.1656266E-18
208.7269 -4.1684224E-18
208.9406 -4.1728487E-18
209.1544 -4.1766210E-18
209.3681 -4.1780301E-18
209.5819 -4.1767224E-18
209.7956 -4.1738231E-18
210.0094 -4.1713498E-18
210.2231 -4.1711947E-18
210.4369 -4.1741564E-18
210.6506 -4.1794843E-18
210.8644 -4.1851455E-18
211.0781 -4.1887119E-18
211.2919 -4.1884592E-18
211.5056 -4.1841773E-18
211.7194 -4.1773159E-18
211.9331 -4.1703944E-18
212.1469 -4.1659355E-18
212.3606 -4.1653991E-18
212.5744 -4.1685937E-18
212.7881 -4.1738223E-18
213.0019 -4.1786902E-18
213.2156 -4.1811991E-18
213.4294 -4.1806246E-18
213.6431 -4.1777911E-18
213.8569 -4.1746147E-18
214.0706 -4.1731498E-18
214.2844 -4.1745725E-18
214.4981 -4.1785897E-18
214.7119 -4.1835408E-18
214.9256 -4.1871519E-18
215.1394 -4.1875981E-18
215.3531 -4.1843837E-18
215.5669 -4.1786261E-18
215.7806 -4.1726109E-18
215.9944 -4.1688095E-18
216.2081 -4.1687963E-18
216.4219 -4.1725587E-18
216.6356 -4.1785066E-18
216.8494 -4.1841732E-18
217.0631 -4.1872974E-18
217.2769 -4.1867941E-18
217.4906 -4.1831789E-18
217.7044 -4.1782679E-18
217.9181 -4.1743004E-18
218.1319 -4.1728913E-18
218.3456 -4.1743033E-18
218.5594 -4.1773663E-18
218.7731 -4.1800803E-18
218.9869 -4.1806155E-18
219.2006 -4.1782435E-18
219.4144 -4.1737586E-18
219.6281 -4.1691838E-18
219.8419 -4.1668913E-18
220.0556 -4.1685217E-18
220.2694 -4.1742065E-18
220.4831 -4.1824369E-18
220.6969 -4.1906579E-18
220.9106 -4.1963195E-18
221.1244 -4.1979193E-18
221.3381 -4.1955759E-18
221.5519 -4.1908849E-18
221.7656 -4.1861295E-18
221.9794 -4.1832223E-18
222.1931 -4.1828542E-18
222.4069 -4.1842439E-18
222.6206 -4.1855906E-18
222.8344 -4.1850111E-18
223.0481 -4.1815212E-18
223.2619 -4.1755982E-18
223.4756 -4.1690527E-18
223.6894 -4.1642642E-18
223.9031 -4.1631185E-18
224.1169 -4.1661386E-18
224.3306 -4.1722018E-18
224.5444 -4.1789892E-18
224.7581 -4.1839627E-18
224.9719 -4.1854425E-18
225.1856 -4.1832997E-18
225.3994 -4.1789603E-18
225.6131 -4.1747247E-18
225.8269 -4.1727159E-18
226.0406 -4.1739389E-18
226.2544 -4.1778651E-18
226.4681 -4.1827327E-18
226.6819 -4.1864074E-18
226.8956 -4.1874008E-18
227.1094 -4.1855724E-18
227.3231 -4.1821925E-18
227.5369 -4.1793305E-18
227.7506 -4.1788590E-18
227.9644 -4.1815287E-18
228.1781 -4.1865526E-18
228.3919 -4.1918929E-18
228.6056 -4.1951379E-18
228.8194 -4.1945713E-18
229.0331 -4.1899544E-18
229.2469 -4.1826673E-18
229.4606 -4.1751387E-18
229.6744 -4.1698266E-18
229.8881 -4.1681950E-18
230.1019 -4.1701508E-18
230.3156 -4.1741808E-18
230.5294 -4.1781108E-18
230.7431 -4.1801349E-18
230.9569 -4.1796373E-18
231.1706 -4.1774292E-18
231.3844 -4.1753046E-18
231.5981 -4.1751209E-18
231.8119 -4.1778419E-18
232.0256 -4.1829924E-18
232.2394 -4.1887855E-18
232.4531 -4.1928768E-18
232.6669 -4.1934049E-18
232.8806 -4.1898497E-18
233.0944 -4.1833100E-18
233.3081 -4.1760730E-18
233.5219 -4.1706645E-18
233.7356 -4.1687967E-18
233.9494 -4.1706835E-18
234.1631 -4.1750254E-18
234.3769 -4.1796518E-18
234.5906 -4.1825279E-18
234.8044 -4.1826590E-18
235.0181 -4.1804931E-18
235.2319 -4.1776389E-18
235.4456 -4.1760486E-18
235.6594 -4.1770499E-18
235.8731 -4.1806775E-18
236.0869 -4.1856191E-18
236.3006 -4.1898055E-18
236.5144 -4.1913659E-18
236.7281 -4.1895217E-18
236.9419 -4.1849938E-18
237.1556 -4.1797333E-18
237.3694 -4.1760937E-18
237.5831 -4.1758009E-18
237.7969 -4.1791915E-18
238.0106 -4.1850500E-18
238.2244 -4.1911227E-18
238.4381 -4.1950750E-18
238.6519 -4.1954621E-18
238.8656 -4.1922903E-18
239.0794 -4.1869236E-18
239.2931 -4.1813947E-18
239.5069 -4.1774470E-18
239.7206 -4.1757471E-18
239.9344 -4.1756330E-18
240.1481 -4.1754998E-18
240.3619 -4.1736527E-18
240.5756 -4.1692140E-18
240.7894 -4.1626677E-18
241.0031 -4.1557757E-18
241.2169 -4.1508879E-18
241.4306 -4.1499536E-18
241.6444 -4.1536684E-18
241.8581 -4.1611544E-18
242.0719 -4.1703129E-18
242.2856 -4.1787001E-18
242.4994 -4.1845405E-18
242.7131 -4.1874248E-18
242.9269 -4.1883835E-18
243.1406 -4.1893187E-18
243.3544 -4.1920525E-18
243.5681 -4.1974395E-18
243.7819 -4.2049396E-18
243.9956 -4.2128548E-18
244.2094 -4.2191121E-18
244.4231 -4.2222235E-18
244.6369 -4.2219836E-18
244.8506 -4.2195625E-18
245.0644 -4.2169548E-18
245.2781 -4.2160229E-18
245.4919 -4.2175743E-18
245.7056 -4.2208984E-18
245.9194 -4.2239841E-18
246.1331 -4.2243291E-18
246.3469 -4.2199802E-18
246.5606 -4.2103423E-18
246.7744 -4.1963944E-18
246.9881 -4.1802205E-18
247.2019 -4.1640789E-18
247.4156 -4.1494316E-18
247.6294 -4.1363837E-18
247.8431 -4.1237778E-18
248.0569 -4.1098903E-18
248.2706 -4.0934079E-18
248.4844 -4.0742198E-18
248.6981 -4.0536681E-18
248.9119 -4.0341288E-18
249.1256 -4.0181332E-18
249.3394 -4.0074221E-18
249.5531 -4.0023858E-18
249.7669 -4.0021364E-18
249.9806 -4.0051941E-18
250.1944 -4.0104591E-18
250.4081 -4.0180364E-18
250.6219 -4.0295239E-18
250.8356 -4.0476288E-18
251.0494 -4.0752844E-18
251.2631 -4.1146536E-18
251.4769 -4.1664612E-18
251.6906 -4.2299448E-18
251.9044 -4.3034158E-18
252.1181 -4.3851706E-18
252.3319 -4.4743151E-18
252.5456 -4.5711250E-18
252.7594 -4.6767807E-18
252.9731 -4.7926051E-18
253.1869 -4.9191637E-18
253.4006 -5.0556493E-18
253.6144 -5.1998422E-18
253.8281 -5.3486789E-18
254.0419 -5.4991786E-18
254.2556 -5.6493127E-18
254.4694 -5.7984339E-18
254.6831 -5.9470737E-18
254.8969 -6.0962020E-18
255.1106 -6.2462890E-18
255.3244 -6.3965881E-18
255.5381 -6.5449727E-18
255.7519 -6.6883938E-18
255.9656 -6.8237491E-18
256.1794 -6.9487886E-18
256.3931 -7.0626385E-18
256.6069 -7.1657350E-18
256.8206 -7.2591973E-18
257.0344 -7.3439469E-18
257.2481 -7.4199946E-18
257.4619 -7.4862079E-18
257.6756 -7.5406976E-18
257.8894 -7.5816281E-18
258.1031 -7.6080979E-18
258.3169 -7.6206735E-18
258.5306 -7.6213278E-18
258.7444 -7.6127946E-18
258.9581 -7.5976142E-18
259.1719 -7.5772929E-18
259.3856 -7.5519456E-18
259.5994 -7.5205714E-18
259.8131 -7.4818313E-18
260.0269 -7.4349731E-18
260.2406 -7.3804760E-18
260.4544 -7.3201373E-18
260.6681 -7.2565337E-18
260.8819 -7.1921377E-18
261.0956 -7.1284746E-18
261.3094 -7.0657065E-18
261.5231 -7.0028441E-18
261.7369 -6.9384687E-18
261.9506 -6.8716532E-18
262.1644 -6.8026324E-18
262.3781 -6.7329189E-18
262.5919 -6.6648018E-18
262.8056 -6.6004492E-18
263.0194 -6.5410229E-18
263.2331 -6.4862086E-18
263.4469 -6.4343878E-18
263.6606 -6.3833726E-18
263.8744 -6.3313901E-18
264.0881 -6.2778616E-18
264.3019 -6.2236403E-18
264.5156 -6.1706069E-18
264.7294 -6.1208098E-18
264.9431 -6.0755547E-18
265.1569 -6.0348628E-18