  -30.00000        4.8965759E-18
  -29.85750        4.9019232E-18
  -29.71500        4.9116996E-18
  -29.57250        4.9243174E-18
  -29.43000        4.9378299E-18
  -29.28750        4.9503033E-18
  -29.14500        4.9601960E-18
  -29.00250        4.9666418E-18
  -28.86000        4.9696043E-18
  -28.71750        4.9698595E-18
  -28.57500        4.9688148E-18
  -28.43250        4.9682056E-18
  -28.29000        4.9697218E-18
  -28.14750        4.9746501E-18
  -28.00500        4.9835982E-18
  -27.86250        4.9963533E-18
  -27.72000        5.0119159E-18
  -27.57750        5.0286870E-18
  -27.43500        5.0447868E-18
  -27.29250        5.0584245E-18
  -27.15000        5.0682601E-18
  -27.00750        5.0736719E-18
  -26.86500        5.0748838E-18
  -26.72250        5.0729213E-18
  -26.58000        5.0694074E-18
  -26.43750        5.0662426E-18
  -26.29500        5.0652272E-18
  -26.15250        5.0677080E-18
  -26.01000        5.0743138E-18
  -25.86750        5.0848380E-18
  -25.72500        5.0982897E-18
  -25.58250        5.1130941E-18
  -25.44000        5.1274168E-18
  -25.29750        5.1395329E-18
  -25.15500        5.1481761E-18
  -25.01250        5.1527951E-18
  -24.87000        5.1536574E-18
  -24.72750        5.1517975E-18
  -24.58500        5.1487977E-18
  -24.44250        5.1464688E-18
  -24.30000        5.1464738E-18
  -24.15750        5.1499934E-18
  -24.01500        5.1574819E-18
  -23.87250        5.1685797E-18
  -23.73000        5.1821815E-18
  -23.58750        5.1966654E-18
  -23.44500        5.2102208E-18
  -23.30250        5.2212137E-18
  -23.16000        5.2285181E-18
  -23.01750        5.2317437E-18
  -22.87500        5.2313168E-18
  -22.73250        5.2283957E-18
  -22.59000        5.2246378E-18
  -22.44750        5.2218646E-18
  -22.30500        5.2216934E-18
  -22.16250        5.2252089E-18
  -22.02000        5.2327429E-18
  -21.87750        5.2438056E-18
  -21.73500        5.2571873E-18
  -21.59250        5.2712043E-18
  -21.45000        5.2840405E-18
  -21.30750        5.2941164E-18
  -21.16500        5.3004088E-18
  -21.02250        5.3026562E-18
  -20.88000        5.3014072E-18
  -20.73750        5.2979061E-18
  -20.59500        5.2938409E-18
  -20.45250        5.2909992E-18
  -20.31000        5.2909024E-18
  -20.16750        5.2944973E-18
  -20.02500        5.3019643E-18
  -19.88250        5.3126758E-18
  -19.74000        5.3253288E-18
  -19.59750        5.3382122E-18
  -19.45500        5.3495594E-18
  -19.31250        5.3579185E-18
  -19.17000        5.3624564E-18
  -19.02750        5.3631388E-18
  -18.88500        5.3607429E-18
  -18.74250        5.3567063E-18
  -18.60000        5.3528363E-18
  -18.45750        5.3509429E-18
  -18.31500        5.3524678E-18
  -18.17250        5.3581881E-18
  -18.03000        5.3680452E-18
  -17.88750        5.3811461E-18
  -17.74500        5.3959258E-18
  -17.60250        5.4104507E-18
  -17.46000        5.4227939E-18
  -17.31750        5.4314143E-18
  -17.17500        5.4354650E-18
  -17.03250        5.4349600E-18
  -16.89000        5.4307778E-18
  -16.74750        5.4244863E-18
  -16.60500        5.4180314E-18
  -16.46250        5.4133553E-18
  -16.32000        5.4120103E-18
  -16.17750        5.4148566E-18
  -16.03500        5.4219001E-18
  -15.89250        5.4323039E-18
  -15.75000        5.4445636E-18
  -15.60750        5.4568158E-18
  -15.46500        5.4672159E-18
  -15.32250        5.4743115E-18
  -15.18000        5.4773274E-18
  -15.03750        5.4763211E-18
  -14.89500        5.4721683E-18
  -14.75250        5.4663797E-18
  -14.61000        5.4607920E-18
  -14.46750        5.4571893E-18
  -14.32500        5.4569361E-18
  -14.18250        5.4606911E-18
  -14.04000        5.4682698E-18
  -13.89750        5.4786769E-18
  -13.75500        5.4903034E-18
  -13.61250        5.5012499E-18
  -13.47000        5.5097107E-18
  -13.32750        5.5143367E-18
  -13.18500        5.5145046E-18
  -13.04250        5.5104465E-18
  -12.90000        5.5032078E-18
  -12.75750        5.4944480E-18
  -12.61500        5.4861158E-18
  -12.47250        5.4800745E-18
  -12.33000        5.4777422E-18
  -12.18750        5.4798164E-18
  -12.04500        5.4861559E-18
  -11.90250        5.4958140E-18
  -11.76000        5.5072482E-18
  -11.61750        5.5186401E-18
  -11.47500        5.5282751E-18
  -11.33250        5.5348938E-18
  -11.19000        5.5379452E-18
  -11.04750        5.5376938E-18
  -10.90500        5.5351527E-18
  -10.76250        5.5318663E-18
  -10.62000        5.5295816E-18
  -10.47750        5.5298773E-18
  -10.33500        5.5338275E-18
  -10.19250        5.5417619E-18
  -10.05000        5.5531757E-18
  -9.907500        5.5668064E-18
  -9.765000        5.5808569E-18
  -9.622500        5.5933395E-18
  -9.480000        5.6024546E-18
  -9.337500        5.6069437E-18
  -9.195000        5.6063382E-18
  -9.052500        5.6010517E-18
  -8.910000        5.5923030E-18
  -8.767500        5.5818776E-18
  -8.625000        5.5717807E-18
  -8.482500        5.5638513E-18
  -8.340000        5.5594189E-18
  -8.197500        5.5590619E-18
  -8.055000        5.5625274E-18
  -7.912500        5.5688069E-18
  -7.770000        5.5763678E-18
  -7.627500        5.5834778E-18
  -7.485000        5.5885708E-18
  -7.342500        5.5905684E-18
  -7.200000        5.5891055E-18
  -7.057500        5.5846082E-18
  -6.915000        5.5782066E-18
  -6.772500        5.5715048E-18
  -6.630000        5.5662501E-18
  -6.487500        5.5639659E-18
  -6.345000        5.5656364E-18
  -6.202500        5.5714994E-18
  -6.060000        5.5809888E-18
  -5.917500        5.5928514E-18
  -5.775000        5.6053952E-18
  -5.632500        5.6168285E-18
  -5.490000        5.6256144E-18
  -5.347500        5.6307727E-18
  -5.205000        5.6320668E-18
  -5.062500        5.6300382E-18
  -4.920000        5.6258903E-18
  -4.777500        5.6212361E-18
  -4.635000        5.6177665E-18
  -4.492500        5.6168959E-18
  -4.350000        5.6194689E-18
  -4.207500        5.6255842E-18
  -4.065000        5.6345641E-18
  -3.922500        5.6450982E-18
  -3.780000        5.6555124E-18
  -3.637500        5.6641226E-18
  -3.495000        5.6695886E-18
  -3.352500        5.6712003E-18
  -3.210000        5.6690327E-18
  -3.067500        5.6639410E-18
  -2.925000        5.6573947E-18
  -2.782500        5.6511912E-18
  -2.640000        5.6470971E-18
  -2.497500        5.6464941E-18
  -2.355000        5.6501023E-18
  -2.212500        5.6578252E-18
  -2.070000        5.6687585E-18
  -1.927500        5.6813564E-18
  -1.785000        5.6937311E-18
  -1.642500        5.7040216E-18
  -1.500000        5.7107648E-18
  -1.357500        5.7131880E-18
  -1.215000        5.7113595E-18
  -1.072500        5.7061727E-18
 -0.9300000        5.6991640E-18
 -0.7875000        5.6921966E-18
 -0.6450000        5.6870884E-18
 -0.5025000        5.6852467E-18
 -0.3600000        5.6873945E-18
 -0.2175000        5.6934325E-18
 -7.5000003E-02    5.7024653E-18
  6.7500003E-02    5.7129825E-18
  0.2100000        5.7231634E-18
  0.3525000        5.7312396E-18
  0.4950000        5.7358507E-18
  0.6375000        5.7363205E-18
  0.7800000        5.7327984E-18
  0.9225000        5.7262314E-18
   1.065000        5.7181780E-18
   1.207500        5.7104955E-18
   1.350000        5.7049600E-18
   1.492500        5.7029124E-18
   1.635000        5.7049898E-18
   1.777500        5.7110043E-18
   1.920000        5.7199920E-18
   2.062500        5.7304174E-18
   2.205000        5.7404883E-18
   2.347500        5.7485152E-18
   2.490000        5.7532504E-18
   2.632500        5.7541339E-18
   2.775000        5.7513992E-18
   2.917500        5.7460271E-18
   3.060000        5.7395494E-18
   3.202500        5.7337389E-18
   3.345000        5.7302540E-18
   3.487500        5.7302974E-18
   3.630000        5.7343692E-18
   3.772500        5.7421654E-18
   3.915000        5.7526404E-18
   4.057500        5.7642242E-18
   4.200000        5.7751517E-18
   4.342500        5.7838239E-18
   4.485000        5.7891335E-18
   4.627500        5.7906878E-18
   4.770000        5.7888792E-18
   4.912500        5.7847975E-18
   5.055000        5.7800048E-18
   5.197500        5.7762155E-18
   5.340000        5.7749424E-18
   5.482500        5.7771890E-18
   5.625000        5.7832308E-18
   5.767500        5.7925469E-18
   5.910000        5.8039078E-18
   6.052500        5.8156116E-18
   6.195000        5.8258227E-18
   6.337500        5.8329414E-18
   6.480000        5.8359321E-18
   6.622500        5.8345420E-18
   6.765000        5.8293573E-18
   6.907500        5.8216947E-18
   7.050000        5.8133393E-18
   7.192500        5.8062012E-18
   7.335000        5.8019470E-18
   7.477500        5.8016802E-18
   7.620000        5.8057458E-18
   7.762500        5.8136673E-18
   7.905000        5.8242556E-18
   8.047500        5.8358457E-18
   8.190000        5.8466280E-18
   8.332500        5.8550048E-18
   8.475000        5.8599083E-18
   8.617500        5.8610060E-18
   8.760000        5.8587602E-18
   8.902500        5.8543191E-18
   9.045000        5.8492675E-18
   9.187500        5.8452854E-18
   9.330000        5.8437899E-18
   9.472500        5.8456399E-18
   9.615000        5.8509541E-18
   9.757500        5.8590932E-18
   9.900000        5.8687902E-18
   10.04250        5.8784144E-18
   10.18500        5.8862983E-18
   10.32750        5.8910769E-18
   10.47000        5.8919661E-18
   10.61250        5.8889267E-18
   10.75500        5.8826835E-18
   10.89750        5.8745937E-18
   11.04000        5.8663839E-18
   11.18250        5.8598087E-18
   11.32500        5.8562981E-18
   11.46750        5.8566683E-18
   11.61000        5.8609605E-18
   11.75250        5.8684382E-18
   11.89500        5.8777498E-18
   12.03750        5.8872165E-18
   12.18000        5.8951864E-18
   12.32250        5.9003740E-18
   12.46500        5.9021252E-18
   12.60750        5.9005444E-18
   12.75000        5.8964722E-18
   12.89250        5.8913152E-18
   13.03500        5.8867611E-18
   13.17750        5.8844388E-18
   13.32000        5.8855791E-18
   13.46250        5.8907547E-18
   13.60500        5.8997404E-18
   13.74750        5.9115372E-18
   13.89000        5.9245546E-18
   14.03250        5.9369176E-18
   14.17500        5.9468450E-18
   14.31750        5.9530071E-18
   14.46000        5.9547971E-18
   14.60250        5.9524550E-18
   14.74500        5.9470146E-18
   14.88750        5.9400985E-18
   15.03000        5.9335944E-18
   15.17250        5.9292852E-18
   15.31500        5.9285056E-18
   15.45750        5.9318855E-18
   15.60000        5.9392337E-18
   15.74250        5.9495747E-18
   15.88500        5.9613434E-18
   16.02750        5.9726874E-18
   16.17000        5.9818364E-18
   16.31250        5.9874571E-18
   16.45500        5.9889237E-18
   16.59750        5.9864451E-18
   16.74000        5.9810221E-18
   16.88250        5.9742396E-18
   17.02500        5.9679377E-18
   17.16750        5.9638357E-18
   17.31000        5.9631798E-18
   17.45250        5.9665038E-18
   17.59500        5.9735241E-18
   17.73750        5.9832116E-18
   17.88000        5.9939997E-18
   18.02250        6.0041004E-18
   18.16500        6.0118565E-18
   18.30750        6.0160705E-18
   18.45000        6.0162413E-18
   18.59250        6.0126700E-18
   18.73500        6.0064029E-18
   18.87750        5.9990273E-18
   19.02000        5.9923520E-18
   19.16250        5.9880395E-18
   19.30500        5.9872648E-18
   19.44750        5.9904805E-18
   19.59000        5.9973287E-18
   19.73250        6.0067259E-18
   19.87500        6.0170942E-18
   20.01750        6.0266928E-18
   20.16000        6.0339687E-18
   20.30250        6.0378688E-18
   20.44500        6.0380429E-18
   20.58750        6.0349058E-18
   20.73000        6.0295486E-18
   20.87250        6.0235185E-18
   21.01500        6.0185111E-18
   21.15750        6.0160230E-18
   21.30000        6.0170445E-18
   21.44250        6.0218509E-18
   21.58500        6.0299345E-18
   21.72750        6.0401043E-18
   21.87000        6.0507253E-18
   22.01250        6.0600596E-18
   22.15500        6.0666282E-18
   22.29750        6.0695151E-18
   22.44000        6.0685510E-18
   22.58250        6.0643444E-18
   22.72500        6.0581488E-18
   22.86750        6.0516058E-18
   23.01000        6.0464177E-18
   23.15250        6.0440081E-18
   23.29500        6.0452411E-18
   23.43750        6.0502517E-18
   23.58000        6.0584114E-18
   23.72250        6.0684443E-18
   23.86500        6.0786765E-18
   24.00750        6.0873673E-18
   24.15000        6.0930637E-18
   24.29250        6.0949021E-18
   24.43500        6.0927895E-18
   24.57750        6.0874285E-18
   24.72000        6.0801692E-18
   24.86250        6.0727374E-18
   25.00500        6.0668764E-18
   25.14750        6.0640028E-18
   25.29000        6.0649275E-18
   25.43250        6.0697120E-18
   25.57500        6.0776674E-18
   25.71750        6.0875042E-18
   25.86000        6.0975929E-18
   26.00250        6.1062882E-18
   26.14500        6.1122555E-18
   26.28750        6.1147362E-18
   26.43000        6.1137056E-18
   26.57250        6.1098827E-18
   26.71500        6.1045871E-18
   26.85750        6.0994661E-18
   27.00000        6.0961515E-18
   27.14250        6.0959121E-18
   27.28500        6.0993850E-18
   27.42750        6.1064429E-18
   27.57000        6.1162202E-18
   27.71250        6.1272961E-18
   27.85500        6.1379887E-18
   27.99750        6.1466915E-18
   28.14000        6.1521955E-18
   28.28250        6.1539206E-18
   28.42500        6.1520272E-18
   28.56750        6.1473830E-18
   28.71000        6.1413917E-18
   28.85250        6.1357172E-18
   28.99500        6.1319511E-18
   29.13750        6.1312885E-18
   29.28000        6.1342775E-18
   29.42250        6.1406977E-18
   29.56500        6.1496015E-18
   29.70750        6.1595061E-18
   29.85000        6.1687064E-18
   29.99250        6.1756304E-18
   30.13500        6.1791670E-18
   30.27750        6.1788895E-18
   30.42000        6.1751398E-18
   30.56250        6.1689484E-18
   30.70500        6.1618231E-18
   30.84750        6.1554455E-18
   30.99000        6.1513414E-18
   31.13250        6.1505755E-18
   31.27500        6.1535401E-18
   31.41750        6.1598722E-18
   31.56000        6.1685150E-18
   31.70250        6.1779217E-18
   31.84500        6.1863663E-18
   31.98750        6.1922985E-18
   32.13000        6.1946716E-18
   32.27250        6.1931678E-18
   32.41500        6.1882771E-18
   32.55750        6.1811960E-18
   32.70000        6.1735905E-18
   32.84250        6.1672539E-18
   32.98500        6.1637487E-18
   33.12750        6.1641015E-18
   33.27000        6.1686043E-18
   33.41250        6.1767640E-18
   33.55500        6.1873978E-18
   33.69750        6.1988564E-18
   33.84000        6.2093338E-18
   33.98250        6.2172115E-18
   34.12500        6.2213656E-18
   34.26750        6.2213900E-18
   34.41000        6.2176780E-18
   34.55250        6.2113464E-18
   34.69500        6.2040093E-18
   34.83750        6.1974477E-18
   34.98000        6.1932460E-18
   35.12250        6.1924718E-18
   35.26500        6.1954711E-18
   35.40750        6.2018206E-18
   35.55000        6.2104327E-18
   35.69250        6.2197964E-18
   35.83500        6.2282883E-18
   35.97750        6.2345000E-18
   36.12000        6.2375113E-18
   36.26250        6.2370671E-18
   36.40500        6.2336273E-18
   36.54750        6.2282759E-18
   36.69000        6.2225108E-18
   36.83250        6.2179440E-18
   36.97500        6.2159732E-18
   37.11750        6.2174874E-18
   37.26000        6.2226796E-18
   37.40250        6.2309977E-18
   37.54500        6.2412609E-18
   37.68750        6.2519113E-18
   37.83000        6.2613420E-18
   37.97250        6.2682324E-18
   38.11500        6.2718158E-18
   38.25750        6.2720213E-18
   38.40000        6.2694777E-18
   38.54250        6.2653704E-18
   38.68500        6.2611972E-18
   38.82750        6.2584626E-18
   38.97000        6.2583765E-18
   39.11250        6.2615997E-18
   39.25500        6.2681005E-18
   39.39750        6.2771387E-18
   39.54000        6.2874011E-18
   39.68250        6.2972557E-18
   39.82500        6.3050866E-18
   39.96750        6.3096336E-18
   40.11000        6.3102610E-18
   40.25250        6.3070983E-18
   40.39500        6.3010136E-18
   40.53750        6.2934349E-18
   40.68000        6.2860540E-18
   40.82250        6.2804830E-18
   40.96500        6.2779348E-18
   41.10750        6.2789907E-18
   41.25000        6.2834914E-18
   41.39250        6.2905762E-18
   41.53500        6.2988472E-18
   41.67750        6.3066438E-18
   41.82000        6.3123662E-18
   41.96250        6.3148014E-18
   42.10500        6.3133758E-18
   42.24750        6.3082886E-18
   42.39000        6.3004896E-18
   42.53250        6.2914969E-18
   42.67500        6.2830935E-18
   42.81750        6.2769703E-18
   42.96000        6.2743850E-18
   43.10250        6.2759211E-18
   43.24500        6.2813929E-18
   43.38750        6.2899066E-18
   43.53000        6.3000553E-18
   43.67250        6.3102139E-18
   43.81500        6.3188505E-18
   43.95750        6.3248211E-18
   44.10000        6.3275764E-18
   44.24250        6.3272613E-18
   44.38500        6.3246726E-18
   44.52750        6.3210963E-18
   44.67000        6.3180398E-18
   44.81250        6.3169116E-18
   44.95500        6.3187148E-18
   45.09750        6.3238206E-18
   45.24000        6.3318802E-18
   45.38250        6.3418899E-18
   45.52500        6.3524018E-18
   45.66750        6.3618283E-18
   45.81000        6.3687712E-18
   45.95250        6.3722983E-18
   46.09500        6.3721238E-18
   46.23750        6.3686484E-18
   46.38000        6.3628730E-18
   46.52250        6.3562022E-18
   46.66500        6.3501717E-18
   46.80750        6.3461619E-18
   46.95000        6.3451300E-18
   47.09250        6.3474254E-18
   47.23500        6.3527132E-18
   47.37750        6.3600370E-18
   47.52000        6.3680185E-18
   47.66250        6.3751414E-18
   47.80500        6.3800854E-18
   47.94750        6.3820099E-18
   48.09000        6.3807426E-18
   48.23250        6.3768152E-18
   48.37500        6.3713487E-18
   48.51750        6.3658178E-18
   48.66000        6.3617456E-18
   48.80250        6.3603994E-18
   48.94500        6.3625380E-18
   49.08750        6.3682617E-18
   49.23000        6.3769823E-18
   49.37250        6.3875189E-18
   49.51500        6.3983041E-18
   49.65750        6.4076711E-18
   49.80000        6.4141694E-18
   49.94250        6.4168528E-18
   50.08500        6.4154780E-18
   50.22750        6.4105645E-18
   50.37000        6.4032982E-18
   50.51250        6.3952931E-18
   50.65500        6.3882650E-18
   50.79750        6.3836870E-18
   50.94000        6.3825041E-18
   51.08250        6.3849687E-18
   51.22500        6.3906150E-18
   51.36750        6.3983794E-18
   51.51000        6.4068249E-18
   51.65250        6.4144316E-18
   51.79500        6.4198910E-18
   51.93750        6.4223589E-18
   52.08000        6.4216227E-18
   52.22250        6.4181510E-18
   52.36500        6.4130076E-18
   52.50750        6.4076458E-18
   52.65000        6.4036100E-18
   52.79250        6.4022080E-18
   52.93500        6.4042345E-18
   53.07750        6.4097990E-18
   53.22000        6.4183032E-18
   53.36250        6.4285768E-18
   53.50500        6.4391275E-18
   53.64750        6.4484511E-18
   53.79000        6.4553320E-18
   53.93250        6.4590655E-18
   54.07500        6.4595762E-18
   54.21750        6.4574074E-18
   54.36000        6.4535982E-18
   54.50250        6.4494685E-18
   54.64500        6.4463513E-18
   54.78750        6.4453165E-18
   54.93000        6.4469444E-18
   55.07250        6.4511878E-18
   55.21500        6.4573677E-18
   55.35750        6.4643069E-18
   55.50000        6.4705868E-18
   55.64250        6.4748605E-18
   55.78500        6.4761571E-18
   55.92750        6.4741086E-18
   56.07000        6.4690338E-18
   56.21250        6.4618779E-18
   56.35500        6.4540188E-18
   56.49750        6.4469952E-18
   56.64000        6.4422063E-18
   56.78250        6.4406528E-18
   56.92500        6.4427485E-18
   57.06750        6.4482459E-18
   57.21000        6.4562729E-18
   57.35250        6.4654926E-18
   57.49500        6.4743497E-18
   57.63750        6.4813766E-18
   57.78000        6.4854897E-18
   57.92250        6.4862243E-18
   58.06500        6.4838346E-18
   58.20750        6.4792503E-18
   58.35000        6.4738753E-18
   58.49250        6.4692857E-18
   58.63500        6.4668960E-18
   58.77750        6.4676619E-18
   58.92000        6.4718967E-18
   59.06250        6.4792168E-18
   59.20500        6.4886293E-18
   59.34750        6.4987279E-18
   59.49000        6.5079605E-18
   59.63250        6.5149192E-18
   59.77500        6.5186076E-18
   59.91750        6.5186353E-18
   60.06000        6.5153079E-18
   60.20250        6.5095826E-18
   60.34500        6.5028961E-18
   60.48750        6.4968742E-18
   60.63000        6.4930030E-18
   60.77250        6.4923136E-18
   60.91500        6.4951682E-18
   61.05750        6.5011913E-18
   61.20000        6.5093642E-18
   61.34250        6.5182535E-18
   61.48500        6.5263185E-18
   61.62750        6.5322267E-18
   61.77000        6.5351148E-18
   61.91250        6.5347479E-18
   62.05500        6.5315604E-18
   62.19750        6.5265692E-18
   62.34000        6.5211822E-18
   62.48250        6.5169309E-18
   62.62500        6.5151636E-18
   62.76750        6.5167654E-18
   62.91000        6.5219552E-18
   63.05250        6.5302166E-18
   63.19500        6.5403798E-18
   63.33750        6.5508556E-18
   63.48000        6.5599637E-18
   63.62250        6.5662817E-18
   63.76500        6.5689374E-18
   63.90750        6.5677756E-18
   64.05000        6.5633696E-18
   64.19250        6.5568854E-18
   64.33500        6.5498345E-18
   64.47750        6.5437754E-18
   64.62000        6.5400167E-18
   64.76250        6.5393694E-18
   64.90500        6.5419961E-18
   65.04750        6.5473761E-18
   65.19000        6.5543997E-18
   65.33250        6.5615850E-18
   65.47500        6.5673802E-18
   65.61750        6.5704970E-18
   65.76000        6.5702017E-18
   65.90250        6.5664873E-18
   66.04500        6.5600952E-18
   66.18750        6.5523636E-18
   66.33000        6.5449450E-18
   66.47250        6.5394620E-18
   66.61500        6.5371807E-18
   66.75750        6.5387639E-18
   66.90000        6.5441563E-18
   67.04250        6.5526101E-18
   67.18500        6.5628311E-18
   67.32750        6.5732209E-18
   67.47000        6.5821698E-18
   67.61250        6.5883525E-18
   67.75500        6.5909826E-18
   67.89750        6.5899693E-18
   68.04000        6.5859446E-18
   68.18250        6.5801436E-18
   68.32500        6.5741511E-18
   68.46750        6.5695677E-18
   68.61000        6.5676685E-18
   68.75250        6.5691388E-18
   68.89500        6.5739385E-18
   69.03750        6.5813385E-18
   69.18000        6.5900909E-18
   69.32250        6.5987035E-18
   69.46500        6.6057457E-18
   69.60750        6.6101219E-18
   69.75000        6.6112741E-18
   69.89250        6.6092810E-18
   70.03500        6.6048399E-18
   70.17750        6.5991410E-18
   70.32000        6.5936453E-18
   70.46250        6.5898014E-18
   70.60500        6.5887517E-18
   70.74750        6.5910847E-18
   70.89000        6.5967017E-18
   71.03250        6.6048246E-18
   71.17500        6.6141593E-18
   71.31750        6.6231727E-18
   71.46000        6.6304205E-18
   71.60250        6.6348446E-18
   71.74500        6.6359762E-18
   71.88750        6.6340042E-18
   72.03000        6.6297132E-18
   72.17250        6.6243093E-18
   72.31500        6.6191795E-18
   72.45750        6.6156313E-18
   72.60000        6.6146449E-18
   72.74250        6.6166876E-18
   72.88500        6.6216139E-18
   73.02750        6.6286809E-18
   73.17000        6.6366847E-18
   73.31250        6.6441988E-18
   73.45500        6.6498762E-18
   73.59750        6.6527444E-18
   73.74000        6.6524198E-18
   73.88250        6.6491917E-18
   74.02500        6.6439527E-18
   74.16750        6.6379941E-18
   74.31000        6.6327258E-18
   74.45250        6.6293803E-18
   74.59500        6.6287769E-18
   74.73750        6.6311728E-18
   74.88000        6.6362281E-18
   75.02250        6.6430813E-18
   75.16500        6.6505081E-18
   75.30750        6.6571533E-18
   75.45000        6.6617880E-18
   75.59250        6.6635615E-18
   75.73500        6.6621879E-18
   75.87750        6.6580318E-18
   76.02000        6.6520546E-18
   76.16250        6.6456265E-18
   76.30500        6.6402391E-18
   76.44750        6.6371852E-18
   76.59000        6.6372828E-18
   76.73250        6.6407156E-18
   76.87500        6.6470104E-18
   77.01750        6.6551565E-18
   77.16000        6.6638253E-18
   77.30250        6.6716393E-18
   77.44500        6.6774296E-18
   77.58750        6.6804517E-18
   77.73000        6.6805141E-18
   77.87250        6.6780189E-18
   78.01500        6.6738901E-18
   78.15750        6.6694043E-18
   78.30000        6.6659425E-18
   78.44250        6.6647042E-18
   78.58500        6.6664442E-18
   78.72750        6.6712960E-18
   78.87000        6.6787336E-18
   79.01250        6.6876812E-18
   79.15500        6.6967496E-18
   79.29750        6.7045392E-18
   79.44000        6.7099320E-18
   79.58250        6.7123134E-18
   79.72500        6.7116724E-18
   79.86750        6.7085804E-18
   80.01000        6.7040631E-18
   80.15250        6.6993937E-18
   80.29500        6.6958517E-18
   80.43750        6.6944823E-18
   80.58000        6.6958918E-18
   80.72250        6.7001158E-18
   80.86500        6.7065926E-18
   81.00750        6.7142598E-18
   81.15000        6.7217598E-18
   81.29250        6.7277292E-18
   81.43500        6.7310925E-18
   81.57750        6.7312980E-18
   81.72000        6.7284348E-18
   81.86250        6.7231983E-18
   82.00500        6.7167289E-18
   82.14750        6.7103534E-18
   82.29000        6.7053142E-18
   82.43250        6.7025254E-18
   82.57500        6.7024100E-18
   82.71750        6.7048361E-18
   82.86000        6.7091499E-18
   83.00250        6.7143028E-18
   83.14500        6.7190471E-18
   83.28750        6.7221796E-18
   83.43000        6.7227892E-18
   83.57250        6.7204678E-18
   83.71500        6.7154187E-18
   83.85750        6.7084414E-18
   84.00000        6.7007788E-18
   84.14250        6.6938524E-18
   84.28500        6.6889629E-18
   84.42750        6.6870112E-18
   84.57000        6.6883235E-18
   84.71250        6.6925996E-18
   84.85500        6.6989987E-18
   84.99750        6.7063213E-18
   85.14000        6.7132452E-18
   85.28250        6.7185706E-18
   85.42500        6.7214335E-18
   85.56750        6.7214600E-18
   85.71000        6.7188390E-18
   85.85250        6.7142995E-18
   85.99500        6.7089815E-18
   86.13750        6.7042219E-18
   86.28000        6.7012768E-18
   86.42250        6.7010501E-18
   86.56500        6.7038923E-18
   86.70750        6.7095130E-18
   86.85000        6.7170474E-18
   86.99250        6.7252460E-18
   87.13500        6.7327468E-18
   87.27750        6.7383584E-18
   87.42000        6.7412920E-18
   87.56250        6.7412937E-18
   87.70500        6.7386715E-18
   87.84750        6.7342258E-18
   87.99000        6.7290965E-18
   88.13250        6.7245553E-18
   88.27500        6.7217822E-18
   88.41750        6.7216424E-18
   88.56000        6.7245135E-18
   88.70250        6.7301971E-18
   88.84500        6.7379461E-18
   88.98750        6.7466149E-18
   89.13000        6.7549066E-18
   89.27250        6.7616614E-18
   89.41500        6.7661137E-18
   89.55750        6.7680571E-18
   89.70000        6.7678706E-18
   89.84250        6.7664181E-18
   89.98500        6.7648439E-18
   90.12750        6.7643261E-18
   90.27000        6.7658349E-18
   90.41250        6.7699419E-18
   90.55500        6.7767065E-18
   90.69750        6.7856533E-18
   90.84000        6.7958372E-18
   90.98250        6.8060011E-18
   91.12500        6.8148007E-18
   91.26750        6.8210645E-18
   91.41000        6.8240411E-18
   91.55250        6.8235738E-18
   91.69500        6.8201517E-18
   91.83750        6.8148197E-18
   91.98000        6.8089579E-18
   92.12250        6.8039903E-18
   92.26500        6.8010897E-18
   92.40750        6.8009462E-18
   92.55000        6.8036519E-18
   92.69250        6.8087151E-18
   92.83500        6.8151808E-18
   92.97750        6.8218354E-18
   93.12000        6.8274437E-18
   93.26250        6.8309865E-18
   93.40500        6.8318596E-18
   93.54750        6.8300047E-18
   93.69000        6.8259403E-18
   93.83250        6.8206811E-18
   93.97500        6.8155406E-18
   94.11750        6.8118596E-18
   94.26000        6.8107082E-18
   94.40250        6.8126405E-18
   94.54500        6.8175622E-18
   94.68750        6.8247438E-18
   94.83000        6.8329780E-18
   94.97250        6.8408341E-18
   95.11500        6.8469499E-18
   95.25750        6.8502900E-18
   95.40000        6.8503281E-18
   95.54250        6.8471232E-18
   95.68500        6.8412899E-18
   95.82750        6.8338825E-18
   95.97000        6.8261988E-18
   96.11250        6.8195437E-18
   96.25500        6.8149831E-18
   96.39750        6.8131285E-18
   96.54000        6.8140107E-18
   96.68250        6.8170651E-18
   96.82500        6.8212572E-18
   96.96750        6.8253175E-18
   97.11000        6.8280323E-18
   97.25250        6.8285207E-18
   97.39500        6.8264275E-18
   97.53750        6.8219893E-18
   97.68000        6.8159649E-18
   97.82250        6.8094608E-18
   97.96500        6.8036991E-18
   98.10750        6.7997795E-18
   98.25000        6.7984754E-18
   98.39250        6.8000905E-18
   98.53500        6.8044005E-18
   98.67750        6.8106797E-18
   98.82000        6.8178162E-18
   98.96250        6.8245114E-18
   99.10500        6.8295282E-18
   99.24750        6.8319477E-18
   99.39000        6.8313679E-18