 -4.5   2.901068612E-18
 -4.37320757   2.901102113E-18
 -4.24641466   2.90116622E-18
 -4.11962223   2.901254521E-18
 -3.99282932   2.901358332E-18
 -3.86603665   2.901467934E-18
 -3.73924398   2.901574227E-18
 -3.61245155   2.901668525E-18
 -3.48565888   2.901744833E-18
 -3.35886621   2.90180046E-18
 -3.23207355   2.901835822E-18
 -3.10528088   2.901854434E-18
 -2.97848821   2.901861672E-18
 -2.85169554   2.901865808E-18
 -2.72490287   2.901875734E-18
 -2.5981102   2.901899929E-18
 -2.47131753   2.901943769E-18
 -2.34452486   2.902011598E-18
 -2.21773219   2.902104449E-18
 -2.09093952   2.902219634E-18
 -1.96414697   2.902350949E-18
 -1.8373543   2.902490329E-18
 -1.71056163   2.902628882E-18
 -1.58376896   2.902756268E-18
 -1.45697629   2.902865455E-18
 -1.33018374   2.902950655E-18
 -1.20339108   2.903009178E-18
 -1.07659841   2.903043093E-18
 -0.949805737   2.903055087E-18
 -0.823013067   2.903050744E-18
 -0.696220458   2.903035855E-18
 -0.569427788   2.903014968E-18
 -0.442635119   2.902988912E-18
 -0.315842479   2.90295934E-18
 -0.189049825   2.902932457E-18
 -6.225717068E-2   2.902924185E-18
 6.453548372E-2   2.902967405E-18
 0.191328138   2.903112989E-18
 0.318120778   2.903423389E-18
 0.444913447   2.903948235E-18
 0.571706116   2.9046867E-18
 0.698498726   2.905537042E-18
 0.825291395   2.906250692E-18
 0.952084064   2.906413647E-18
 1.07887673   2.905486998E-18
 1.2056694   2.902930596E-18
 1.33246195   2.898422048E-18
 1.45925462   2.892144988E-18
 1.58604729   2.885082313E-18
 1.71283996   2.879200852E-18
 1.83963263   2.877398632E-18
 1.9664253   2.883081363E-18
 2.09321785   2.899319746E-18
 2.22001052   2.927641169E-18
 2.34680319   2.966678304E-18
 2.47359586   3.011052615E-18
 2.60038853   3.050980209E-18
 2.7271812   3.073075858E-18
 2.85397387   3.062653382E-18
 2.98076653   3.007495118E-18
 3.1075592   2.902568291E-18
 3.23435187   2.754693006E-18
 3.36114454   2.585789136E-18
 3.48793697   2.433222703E-18
 3.61472964   2.346111278E-18
 3.74152231   2.377173358E-18
 3.86831498   2.570820268E-18
 3.99510765   2.949414217E-18
 4.12190056   3.500630834E-18
 4.24869299   4.169369963E-18
 4.37548542   4.857348073E-18
 4.50227833   5.43231015E-18
 4.62907076   5.746893554E-18
 4.75586367   5.664921196E-18
 4.8826561   5.09089342E-18
 5.00944901   3.997141447E-18
 5.13624144   2.442989638E-18
 5.26303434   5.813236127E-19
 5.38982677   -1.350021625E-18
 5.51661968   -3.052206918E-18
 5.64341211   -4.202562653E-18
 5.77020502   -4.501228207E-18
 5.89699745   -3.722577454E-18
 6.02379036   -1.766280003E-18
 6.15058279   1.297562348E-18
 6.27737522   5.195630615E-18
 6.40416813   9.438537762E-18
 6.53096056   1.333642209E-17
 6.65775347   1.605097987E-17
 6.7845459   1.668857565E-17
 6.91133881   1.443217253E-17
 7.03813124   8.699562727E-18
 7.16492414   -6.961290956E-19
 7.29171658   -1.341704738E-17
 7.41850948   -2.853873698E-17
 7.54530191   -4.45854089E-17
 7.67209482   -5.967410641E-17
 7.79888725   -7.175280947E-17
 7.92567968   -7.888824811E-17
 8.05247211   -7.953580479E-17
 8.17926502   -7.271623004E-17
 8.30605793   -5.803841961E-17
 8.43285084   -3.554630011E-17
 8.55964279   -5.423509361E-18
 8.6864357   3.23488103E-17
 8.81322861   7.823963924E-17
 8.94002151   1.331644849E-16
 9.06681347   1.981061833E-16
 9.19360638   2.733173092E-16
 9.32039928   3.571839736E-16
 9.44719219   4.449714476E-16
 9.57398415   5.277947527E-16
 9.70077705   5.922300842E-16
 9.82756996   6.209677416E-16
 9.95436192   5.947879649E-16
 10.0811548   4.959168795E-16
 10.2079477   3.125180998E-16
 10.3347406   4.373607308E-17
 10.4615326   -2.955959962E-16
 10.5883255   -6.71674469E-16
 10.7151184   -1.030999186E-15
 10.8419113   -1.303155319E-15
 10.9687033   -1.407656103E-15
 11.0954962   -1.264799973E-15
 11.2222891   -8.097717032E-16
 11.349082   -8.465592209E-18
 11.4758739   1.127130649E-15
 11.6026669   2.526556133E-15
 11.7294598   4.05411695E-15
 11.8562517   5.510000567E-15
 11.9830446   6.640743812E-15
 12.1098375   7.159407073E-15
 12.2366304   6.774502597E-15
 12.3634224   5.225375474E-15
 12.4902153   2.320627812E-15
 12.6170082   -2.024587256E-15
 12.7438011   -7.756759272E-15
 12.8705931   -1.466174221E-14
 12.997386   -2.235512733E-14
 13.1241789   -3.028718091E-14
 13.2509708   -3.776280571E-14
 13.3777637   -4.397566702E-14
 13.5045567   -4.805457112E-14
 13.6313496   -4.911948466E-14
 13.7581415   -4.634446242E-14
 13.8849344   -3.902483398E-14
 14.0117273   -2.664638258E-14
 14.1385202   -8.954361368E-15
 14.2653122   1.397979599E-14
 14.3921051   4.169705352E-14
 14.518898   7.329882957E-14
 14.6456909   1.074104523E-13
 14.7724829   1.421678937E-13
 14.8992758   1.752371441E-13
 15.0260687   2.038762361E-13
 15.1528606   2.250489698E-13
 15.2796535   2.355962647E-13
 15.4064465   2.324662002E-13
 15.5332394   2.129966532E-13
 15.6600313   1.752350299E-13
 15.7868242   1.182716306E-13
 15.9136171   4.255389173E-14
 16.0404091   -4.985731134E-14
 16.167202   -1.551301676E-13
 16.2939949   -2.676423807E-13
 16.4207878   -3.801313919E-13
 16.5475807   -4.840335489E-13
 16.6743736   -5.700147927E-13
 16.8011646   -6.286756055E-13
 16.9279575   -6.513926226E-13
 17.0547504   -6.312403399E-13
 17.1815434   -5.639197334E-13
 17.3083363   -4.486100619E-13
 17.4351292   -2.886543814E-13
 17.5619221   -9.199071219E-14
 17.688715   1.287511222E-13
 17.815506   3.565534641E-13
 17.9422989   5.707614828E-13
 18.0690918   7.483011064E-13
 18.1958847   8.653523319E-13
 18.3226776   8.994283183E-13
 18.4494705   8.317686275E-13
 18.5762634   6.499065066E-13
 18.7030544   3.502236478E-13
 18.8298473   -5.973833353E-14
 18.9566402   -5.594755887E-13
 19.0834332   -1.114511695E-12
 19.2102261   -1.676452922E-12
 19.337019   -2.184346887E-12
 19.4638119   -2.567507838E-12
 19.5906048   -2.749869126E-12
 19.7173958   -2.655783579E-12
 19.8441887   -2.217043823E-12
 19.9709816   -1.380735153E-12
 20.0977745   -1.173833166E-13
 20.2245674   1.57125452E-12
 20.3513603   3.645492328E-12
 20.4781532   6.022867101E-12
 20.6049442   8.575857038E-12
 20.7317371   1.113280388E-11
 20.85853   1.34824877E-11
 20.985323   1.538265175E-11
 21.1121159   1.657247777E-11
 21.2389088   1.678874748E-11
 21.3657017   1.57851978E-11
 21.4924946   1.335418234E-11
 21.6192856   9.349519423E-12
 21.7460785   3.709154078E-12
 21.8728714   -3.524006174E-12
 21.9996643   -1.218485556E-11
 22.1264572   -2.197429738E-11
 22.2532501   -3.245470212E-11
 22.380043   -4.305427195E-11
 22.506834   -5.308153223E-11
 22.6336269   -6.17508128E-11
 22.7604198   -6.82188403E-11
 22.8872128   -7.163166588E-11
 23.0140057   -7.118061696E-11
 23.1407986   -6.616465709E-11
 23.2675915   -5.605581971E-11
 23.3943844   -4.056374681E-11
 23.5211754   -1.9694699E-11
 23.6479683   6.200023134E-12
 23.7747612   3.639102561E-11
 23.9015541   6.975764411E-11
 24.028347   1.047983783E-10
 24.1551399   1.396676524E-10
 24.2819328   1.722399168E-10
 24.4087238   2.002005645E-10
 24.5355167   2.211615752E-10
 24.6623096   2.32797337E-10
 24.7891026   2.329947624E-10
 24.9158955   2.200101767E-10
 25.0426884   1.926238752E-10
 25.1694813   1.502827446E-10
 25.2962742   9.322075056E-11
 25.4230652   2.254762349E-11
 25.5498581   -5.970349215E-11
 25.676651   -1.505763431E-10
 25.8034439   -2.462458848E-10
 25.9302368   -3.421286587E-10
 26.0570297   -4.330492631E-10
 26.1838226   -5.134594971E-10
 26.3106136   -5.7770283E-10
 26.4374065   -6.20314633E-10
 26.5641994   -6.36344033E-10
 26.6909924   -6.216827053E-10
 26.8177853   -5.733826747E-10
 26.9445782   -4.899437522E-10
 27.0713711   -3.715528996E-10
 27.198164   -2.202564381E-10
 27.324955   -4.004923823E-11
 27.4517479   1.631323271E-10
 27.5785408   3.815237293E-10
 27.7053337   6.05756223E-10
 27.8321266   8.251907491E-10
 27.9589195   1.028354735E-9
 28.0857124   1.203468325E-9
 28.2125034   1.339040989E-9
 28.3392963   1.424510732E-9
 28.4660892   1.450896514E-9
 28.5928822   1.411427419E-9
 28.7196751   1.302111641E-9
 28.846468   1.122204329E-9
 28.9732609   8.745414948E-10
 29.1000538   5.657027069E-10
 29.2268448   2.059806076E-10
 29.3536377   -1.908604802E-10
 29.4804306   -6.080477233E-10
 29.6072235   -1.026470797E-9
 29.7340164   -1.42554557E-9
 29.8608093   -1.784236869E-9
 29.9876022   -2.082191752E-9
 30.1143932   -2.300927893E-9
 30.2411861   -2.425009304E-9
 30.367979   -2.443139246E-9
 30.494772   -2.349096695E-9
 30.6215649   -2.142448441E-9
 30.7483578   -1.828970864E-9
 30.8751507   -1.42074108E-9
 31.0019417   -9.358532838E-10
 31.1287346   -3.977554675E-10
 31.2555275   1.657820964E-10
 31.3823204   7.240393285E-10
 31.5091133   1.24499655E-9
 31.6359062   1.697185281E-9
 31.7626991   2.051639081E-9
 31.889492   2.283840672E-9
 32.0162849   2.375535768E-9
 32.1430779   2.316299152E-9
 32.2698708   2.104739494E-9
 32.3966637   1.749243084E-9
 32.5234528   1.268178562E-9
 32.6502457   6.895117255E-10
 32.7770386   4.981342769E-11
 32.9038315   -6.073202496E-10
 33.0306244   -1.233390279E-9
 33.1574173   -1.777557324E-9
 33.2842102   -2.189539661E-9
 33.4110031   -2.422686052E-9
 33.537796   -2.437071656E-9
 33.6645889   -2.2024369E-9
 33.7913818   -1.700787511E-9
 33.9181747   -9.285061608E-10
 34.0449677   1.021781548E-10
 34.1717606   1.362489122E-9
 34.2985535   2.807224231E-9
 34.4253426   4.375772633E-9
 34.5521355   5.993979979E-9
 34.6789284   7.576853811E-9
 34.8057213   9.031968062E-9
 34.9325142   1.026345853E-8
 35.0593071   1.117641801E-8
 35.1861   1.168150021E-8
 35.3128929   1.169951336E-8
 35.4396858   1.116577764E-8
 35.5664787   1.003404648E-8
 35.6932716   8.279776864E-9
 35.8200645   5.902589972E-9
 35.9468575   2.927778686E-9
 36.0736504   -5.93226912E-10
 36.2004433   -4.583468272E-9
 36.3272324   -8.942152796E-9
 36.4540253   -1.35473659E-8
 36.5808182   -1.825969953E-8
 36.7076111   -2.292669343E-8
 36.834404   -2.738785554E-8
 36.9611969   -3.148009142E-8
 37.0879898   -3.504333179E-8
 37.2147827   -3.792615999E-8
 37.3415756   -3.999117482E-8
 37.4683685   -4.111994656E-8
 37.5951614   -4.12173442E-8
 37.7219543   -4.021513078E-8
 37.8487473   -3.807468474E-8
 37.9755402   -3.47887763E-8
 38.1023293   -3.038238461E-8
 38.2291222   -2.491251117E-8
 38.3559151   -1.846707498E-8
 38.482708   -1.11629177E-8
 38.6095009   -3.14301829E-9
 38.7362938   5.426957994E-9
 38.8630867   1.436270125E-8
 38.9898796   2.346566852E-8
 39.1166725   3.252782577E-8
 39.2434654   4.133651998E-8
 39.3702583   4.967940725E-8
 39.4970512   5.734928976E-8
 39.6238441   6.414876452E-8
 39.7506371   6.98946252E-8
 39.87743   7.442195482E-8
 40.0042191   7.758782061E-8
 40.131012   7.927453538E-8
 40.2578049   7.939252811E-8
 40.3845978   7.788268874E-8
 40.5113907   7.471831509E-8
 40.6381836   6.990649126E-8
 40.7649765   6.348896164E-8
 40.8917694   5.554247196E-8
 41.0185623   4.617849569E-8
 41.1453552   3.554231043E-8
 41.2721481   2.381133335E-8
 41.398941   1.11926477E-8
 41.5257339   -2.080374317E-9
 41.6525269   -1.575244646E-8
 41.7793198   -2.955183298E-8
 41.9061089   -4.319699443E-8
 42.0329018   -5.640445622E-8
 42.1596947   -6.88979469E-8
 42.2864876   -8.041876498E-8
 42.4132805   -9.07374087E-8
 42.5400734   -9.966627346E-8
 42.6668663   -1.070733333E-7
 42.7936592   -1.12896565E-7
 42.9204521   -1.171588906E-7
 43.047245   -1.199833264E-7
 43.1740379   -1.216079397E-7
 43.3008308   -1.224002943E-7
 43.4276237   -1.228709294E-7
 43.5544167   -1.236854104E-7
 43.6812096   -1.256745463E-7
 43.8079987   -1.298423911E-7
 43.9347916   -1.373713019E-7
 44.0615845   -1.496240571E-7
 44.1883774   -1.68142364E-7
 44.3151703   -1.946413875E-7
 44.4419632   -2.310002003E-7
 44.5687561   -2.792476437E-7
 44.695549   -3.415437391E-7
 44.8223419   -4.20155942E-7
 44.9491348   -5.174310331E-7
 45.0759277   -6.357619782E-7
 45.2027206   -7.77550099E-7
 45.3295135   -9.451630376E-7
 45.4563065   -1.140888685E-6
 45.5830994   -1.366885385E-6
 45.7098885   -1.62512913E-6
 45.8366814   -1.917360578E-6
 45.9634743   -2.245026963E-6
 46.0902672   -2.609228432E-6
 46.2170601   -3.010662567E-6
 46.343853   -3.449573342E-6
 46.4706459   -3.925702913E-6
 46.5974388   -4.438250926E-6
 46.7242317   -4.985838132E-6
 46.8510246   -5.566481832E-6
 46.9778175   -6.177581326E-6
 47.1046104   -6.81591564E-6
 47.2314034   -7.477652161E-6
 47.3581963   -8.15837484E-6
 47.4849892   -8.853120562E-6
 47.6117783   -9.556443729E-6
 47.7385712   -1.026248174E-5
 47.8653641   -1.096504184E-5
 47.992157   -1.165771027E-5
 48.1189499   -1.23339596E-5
 48.2457428   -1.298728239E-5
 48.3725357   -1.361132217E-5
 48.4993286   -1.420001263E-5
 48.6261215   -1.474771761E-5
 48.7529144   -1.524937943E-5
 48.8797073   -1.570064524E-5
 49.0065002   -1.609799983E-5
 49.1332932   -1.643886935E-5
 49.2600861   -1.67217222E-5
 49.386879   -1.69461382E-5
 49.5136681   -1.711286131E-5
 49.640461   -1.722381785E-5
 49.7672539   -1.728211464E-5
 49.8940468   -1.729199721E-5
 50.0208397   -1.72587952E-5
 50.1476326   -1.718881322E-5
 50.2744255   -1.708922173E-5
 50.4012184   -1.696790241E-5
 50.5280113   -1.683327719E-5
 50.6548042   -1.669413177E-5
 50.7815971   -1.655940287E-5
 50.90839   -1.64379835E-5
 51.035183   -1.633850115E-5
 51.1619759   -1.626912126E-5
 51.2887688   -1.623734715E-5
 51.4155579   -1.624983815E-5
 51.5423508   -1.631225132E-5
 51.6691437   -1.642909228E-5
 51.7959366   -1.660362432E-5
 51.9227295   -1.683776645E-5
 52.0495224   -1.713207166E-5
 52.1763153   -1.748569775E-5
 52.3031082   -1.789643829E-5
 52.4299011   -1.836077172E-5
 52.556694   -1.887395047E-5
 52.6834869   -1.94301083E-5
 52.8102798   -2.002241126E-5
 52.9370728   -2.064319415E-5
 53.0638657   -2.128415144E-5
 53.1906586   -2.193651562E-5
 53.3174477   -2.259123721E-5
 53.4442406   -2.323918488E-5
 53.5710335   -2.3871331E-5
 53.6978264   -2.447891529E-5
 53.8246193   -2.505363227E-5
 53.9514122   -2.55877676E-5
 54.0782051   -2.607433271E-5
 54.204998   -2.65071867E-5
 54.3317909   -2.688112727E-5
 54.4585838   -2.719196164E-5
 54.5853767   -2.743657024E-5
 54.7121696   -2.76129249E-5
 54.8389626   -2.77201234E-5
 54.9657555   -2.775837675E-5
 55.0925484   -2.772898733E-5
 55.2193375   -2.763432531E-5
 55.3461304   -2.747778126E-5
 55.4729233   -2.726369894E-5
 55.5997162   -2.699732067E-5
 55.7265091   -2.66846946E-5
 55.853302   -2.633259646E-5
 55.9800949   -2.594843136E-5
 56.1068878   -2.554012644E-5
 56.2336807   -2.511602179E-5
 56.3604736   -2.468475213E-5
 56.4872665   -2.425511411E-5
 56.6140594   -2.383594983E-5
 56.7408524   -2.343599226E-5
 56.8676453   -2.306374518E-5
 56.9944382   -2.272733218E-5
 57.1212273   -2.243435665E-5
 57.2480202   -2.219177259E-5
 57.3748131   -2.200575909E-5
 57.501606   -2.188159306E-5
 57.6283989   -2.18235491E-5
 57.7551918   -2.183481411E-5
 57.8819847   -2.191741805E-5
 58.0087776   -2.20721904E-5
 58.1355705   -2.229873644E-5
 58.2623634   -2.259544999E-5
 58.3891563   -2.295954982E-5
 58.5159492   -2.338713239E-5
 58.6427422   -2.387328095E-5
 58.7695351   -2.441216202E-5
 58.896328   -2.49971763E-5
 59.0231171   -2.562110603E-5
 59.14991   -2.627628237E-5
 59.2767029   -2.695476906E-5
 59.4034958   -2.764853525E-5
 59.5302887   -2.834962288E-5
 59.6570816   -2.905031761E-5
 59.7838745   -2.974327981E-5
 59.9106674   -3.0421681E-5
 60.0374603   -3.107928933E-5
 60.1642532   -3.171052958E-5
 60.2910461   -3.231052324E-5
 60.4178391   -3.287508662E-5
 60.544632   -3.340068361E-5
 60.6714249   -3.388437108E-5
 60.7982178   -3.432369704E-5
 60.9250069   -3.471659875E-5
 61.0517998   -3.506126814E-5
 61.1785927   -3.535601718E-5
 61.3053856   -3.559913966E-5
 61.4321785   -3.578879114E-5
 61.5589714   -3.59228834E-5
 61.6857643   -3.599899719E-5
 61.8125572   -3.601434219E-5
 61.9393501   -3.596573515E-5
 62.066143   -3.58496327E-5
 62.1929359   -3.566222222E-5
 62.3197289   -3.539951285E-5
 62.4465218   -3.505752829E-5
 62.5733147   -3.463248504E-5
 62.7001076   -3.412102888E-5
 62.8268967   -3.352048952E-5
 62.9536896   -3.282916805E-5
 63.0804825   -3.204656969E-5
 63.2072754   -3.117370943E-5
 63.3340683   -3.021332486E-5
 63.4608612   -2.917009624E-5
 63.5876541   -2.805080294E-5
 63.714447   -2.686443986E-5
 63.8412399   -2.562225745E-5
 63.9680328   -2.433774171E-5
 64.0948257   -2.302650864E-5
 64.2216187   -2.170614243E-5
 64.3484116   -2.039594074E-5
 64.4752045   -1.911660365E-5
 64.6019974   -1.788985537E-5
 64.7287903   -1.673802217E-5
 64.8555832   -1.568354855E-5
 64.9823761   -1.474851251E-5
 65.109169   -1.395410527E-5
 65.2359619   -1.332013289E-5
 65.3627548   -1.286452698E-5
 65.4895477   -1.260289446E-5
 65.616333   -1.254811741E-5
 65.7431259   -1.27100202E-5
 65.8699188   -1.30951039E-5
 65.9967117   -1.370637619E-5
 66.1235046   -1.454325957E-5
 66.2502975   -1.560160308E-5
 66.3770905   -1.68737788E-5
 66.5038834   -1.834887189E-5
 66.6306763   -2.001294524E-5
 66.7574692   -2.184940058E-5
 66.8842621   -2.383935862E-5
 67.011055   -2.596213199E-5
 67.1378479   -2.819569636E-5
 67.2646408   -3.051718886E-5
 67.3914337   -3.290340464E-5
 67.5182266   -3.533127892E-5
 67.6450195   -3.777830716E-5
 67.7718124   -4.022296343E-5
 67.8986053   -4.264502786E-5
 68.0253983   -4.502584125E-5
 68.1521912   -4.734849063E-5
 68.2789841   -4.959794387E-5
 68.405777   -5.176103878E-5
 68.5325699   -5.382646486E-5
 68.6593628   -5.578463606E-5
 68.7861557   -5.762751243E-5
 68.9129486   -5.934836372E-5
 69.0397415   -6.094151468E-5
 69.1665344   -6.24020613E-5
 69.2933273   -6.372555072E-5
 69.4201126   -6.490776286E-5
 69.5469055   -6.594439765E-5
 69.6736984   -6.683089305E-5
 69.8004913   -6.756226503E-5
 69.9272842   -6.813299115E-5
 70.0540771   -6.853700324E-5
 70.1808701   -6.876772386E-5
 70.307663   -6.881818263E-5
 70.4344559   -6.868121272E-5
 70.5612488   -6.83497201E-5
 70.6880417   -6.781697448E-5
 70.8148346   -6.707699504E-5
 70.9416275   -6.612493598E-5
 71.0684204   -6.495750131E-5
 71.1952133   -6.357335951E-5
 71.3220062   -6.197355833E-5
 71.4487991   -6.016186308E-5
 71.575592   -5.814508768E-5
 71.7023849   -5.593337482E-5
 71.8291779   -5.354034147E-5
 71.9559708   -5.098321344E-5
 72.0827637   -4.828281817E-5
 72.2095566   -4.546351192E-5
 72.3363495   -4.255299791E-5
 72.4631424   -3.958206435E-5
 72.5899353   -3.658424248E-5
 72.7167282   -3.359536277E-5
 72.8435211   -3.065308556E-5
 72.970314   -2.779633178E-5
 73.0971069   -2.506471537E-5
 73.2238922   -2.249792124E-5
 73.3506851   -2.013509402E-5
 73.477478   -1.801419967E-5
 73.6042709   -1.617143971E-5
 73.7310638   -1.464067009E-5
 73.8578568   -1.345286E-5
 73.9846497   -1.263560443E-5
 74.1114426   -1.221269031E-5
 74.2382355   -1.220371996E-5
 74.3650284   -1.262379374E-5
 74.4918213   -1.348325986E-5
 74.6186142   -1.478752802E-5
 74.7454071   -1.65369438E-5
 74.8722   -1.87267251E-5
 74.9989929   -2.134695751E-5
 75.1257858   -2.438265255E-5
 75.2525787   -2.781384501E-5
 75.3793716   -3.161576387E-5
 75.5061646   -3.575903247E-5
 75.6329575   -4.020994675E-5
 75.7597504   -4.493076267E-5
 75.8865433   -4.988006549E-5
 76.0133362   -5.501314445E-5
 76.1401291   -6.028246935E-5
 76.266922   -6.563810894E-5
 76.3937149   -7.102829841E-5
 76.5205078   -7.639991964E-5
 76.6473007   -8.169908688E-5
 76.7740936   -8.687172522E-5
 76.9008865   -9.186409443E-5
 77.0276718   -9.662342927E-5
 77.1544647   -1.010984124E-4
 77.2812576   -1.052397856E-4
 77.4080505   -1.090008009E-4
 77.5348434   -1.123376715E-4
 77.6616364   -1.152100085E-4
 77.7884293   -1.175810976E-4
 77.9152222   -1.194182769E-4
 78.0420151   -1.206930829E-4
 78.168808   -1.213814248E-4
 78.2956009   -1.214636577E-4
 78.4223938   -1.209246548E-4
 78.5491867   -1.197537422E-4
 78.6759796   -1.179446554E-4
 78.8027725   -1.154954662E-4
 78.9295654   -1.124084374E-4
 79.0563583   -1.086899065E-4
 79.1831512   -1.043501616E-4
 79.3099442   -9.940332529E-5
 79.4367371   -9.38672456E-5
 79.56353   -8.776338655E-5
 79.6903229   -8.111681382E-5
 79.8171158   -7.395611465E-5
 79.9439087   -6.631337601E-5
 80.0707016   -5.822416279E-5
 80.1974945   -4.972752504E-5
 80.3242874   -4.086593253E-5
 80.4510803   -3.168524199E-5
 80.5778732   -2.22345825E-5
 80.7046585   -1.256622181E-5
 80.8314514   -2.735324642E-6
 80.9582443   7.200328128E-6
 81.0850372   1.718075873E-5
 81.2118301   2.714426591E-5
 81.338623   3.702802496E-5
 81.465416   4.676877143E-5
 81.5922089   5.630359374E-5
 81.7190018   6.557076267E-5
 81.8457947   7.451069541E-5
 81.9725876   8.306687232E-5
 82.0993805   9.118684102E-5
 82.2261734   9.882318409E-5
 82.3529663   1.05934414E-4
 82.4797592   1.124858391E-4
 82.6065521   1.18450298E-4
 82.733345   1.238087571E-4
 82.8601379   1.285507751E-4
 82.9869308   1.326747151E-4
 83.1137238   1.361878676E-4
 83.2405167   1.391062106E-4
 83.3673096   1.41454133E-4
 83.4941025   1.432637218E-4
 83.6208954   1.445740345E-4
 83.7476883   1.454301237E-4
 83.8744812   1.458818151E-4
 84.0012741   1.459824416E-4
 84.128067   1.457874896E-4
 84.2548599   1.453530713E-4
 84.3816528   1.44734513E-4
 84.5084381   1.439849148E-4
 84.635231   1.431537967E-4
 84.7620239   1.42285804E-4
 84.8888168   1.41419674E-4
 85.0156097   1.405873481E-4
 85.1424026   1.398132154E-4
 85.2691956   1.39113763E-4
 85.3959885   1.384972857E-4
 85.5227814   1.379640744E-4
 85.6495743   1.375065476E-4
 85.7763672   1.371099788E-4
 85.9031601   1.367530931E-4
 86.029953   1.364091149E-4
 86.1567459   1.360468304E-4
 86.2835388   1.356318244E-4
 86.4103317   1.351277315E-4
 86.5371246   1.344976336E-4
 86.6639175   1.337053109E-4
 86.7907104   1.327165955E-4
 86.9175034   1.315004774E-4
 87.0442963   1.300302538E-4
 87.1710892   1.282844605E-4
 87.2978821   1.262475416E-4
 87.424675   1.239105477E-4
 87.5514679   1.212714487E-4
 87.6782608   1.183353597E-4
 87.8050537   1.151144897E-4
 87.9318466   1.116280182E-4
 88.0586395   1.079016438E-4
 88.1854324   1.039671115E-4
 88.3122177   9.9861536E-5
 88.4390106   9.562660853E-5
 88.5658035   9.130770923E-5
 88.6925964   8.695299766E-5
 88.8193893   8.261235052E-5
 88.9461823   7.833641575E-5
 89.0729752   7.417556481E-5
 89.1997681   7.017889584E-5
 89.326561   6.639333151E-5
 89.4533539   6.28626949E-5
 89.5801468   5.962695286E-5
 89.7069397   5.672148109E-5
 89.8337326   5.417650027E-5
 89.9605255   5.201658496E-5
 90.0873184   5.026031067E-5
 90.2141113   4.892006473E-5
 90.3409042   4.800190436E-5
 90.4676971   4.750566586E-5
 90.5944901   4.742508827E-5
 90.721283   4.774815534E-5
 90.8480759   4.845746298E-5
 90.9748688   4.95307504E-5
 91.1016617   5.094150401E-5
 91.2284546   5.265960135E-5
 91.3552475   5.465204595E-5
 91.4820404   5.688371311E-5
 91.6088333   5.931809937E-5
 91.7356262   6.191809371E-5
 91.8624191   6.464667968E-5
 91.989212   6.746760482E-5
 92.1159973   7.034597365E-5
 92.2427902   7.324876788E-5
 92.3695831   7.614529022E-5
 92.496376   7.90074555E-5
 92.6231689   8.181003068E-5
 92.7499619   8.453071496E-5
 92.8767548   8.715018339E-5
 93.0035477   8.965197776E-5
 93.1303406   9.202232468E-5
 93.2571335   9.424993914E-5
 93.3839264   9.632567526E-5
 93.5107193   9.824223525E-5
 93.6375122   9.999379108E-5
 93.7643051   1.01575657E-4
 93.891098   1.029839259E-4
 94.0178909   1.042151926E-4
 94.1446838   1.052662774E-4
 94.2714767   1.061340445E-4
 94.3982697   1.068152706E-4
 94.5250626   1.073065578E-4
 94.6518555   1.0760437E-4
 94.7786484   1.077051129E-4
 94.9054413   1.076052431E-4
 95.0322342   1.073014791E-4
 95.1590271   1.067910343E-4
 95.28582   1.06071835E-4
 95.4126129   1.051428189E-4
 95.5394058   1.040041461E-4
 95.6661987   1.026574537E-4
 95.7929916   1.011060158E-4
 95.9197769   9.935492562E-5
 96.0465698   9.741113172E-5
 96.1733627   9.528345981E-5
 96.3001556   9.298254008E-5
 96.4269485   9.052066162E-5
 96.5537415   8.791155415E-5
 96.6805344   8.517011884E-5
 96.8073273   8.231210086E-5
 96.9341202   7.935368194E-5
 97.0609131   7.631114568E-5
 97.187706   7.320040459E-5
 97.3144989   7.003668725E-5
 97.4412918   6.683413812E-5
 97.5680847   6.360552652E-5
 97.6948776   6.036202467E-5
 97.8216705   5.71130513E-5
 97.9484634   5.386619159E-5
 98.0752563   5.062723721E-5
 98.2020493   4.740030272E-5
 98.3288422   4.418805111E-5
 98.4556351   4.099197758E-5
 98.582428   3.781278429E-5
 98.7092209   3.465079135E-5
 98.8360138   3.150638804E-5
 98.9628067   2.838048567E-5
 99.0895996   2.527494507E-5
 99.2163925   2.219298767E-5
 99.3431854   1.913951928E-5
 99.4699783   1.61213793E-5
 99.5967712   1.314750989E-5
 99.7235565   1.022897141E-5
 99.8503494   7.378878763E-6
 99.9771423   4.612189059E-6
 100.103935   1.945386884E-6
 100.230728   -6.039508094E-7
 100.357521   -3.017677045E-6
 100.484314   -5.277681339E-6
 100.611107   -7.366530554E-6
 100.7379   -9.26816665E-6
 100.864693   -1.096856977E-5
 100.991486   -1.245640215E-5
 101.118279   -1.372359202E-5
 101.245071   -1.476584021E-5
 101.371864   -1.558299846E-5
 101.498657   -1.61793123E-5
 101.62545   -1.656356108E-5
 101.752243   -1.674899795E-5
 101.879036   -1.675315434E-5
 102.005829   -1.659749978E-5
 102.132622   -1.630692896E-5
 102.259415   -1.590915963E-5
 102.386208   -1.543399048E-5
 102.513   -1.491249259E-5
 102.639793   -1.437613719E-5
 102.766586   -1.385591622E-5
 102.893379   -1.338143829E-5
 103.020172   -1.29800892E-5
 103.146965   -1.267623611E-5
 103.273758   -1.249052639E-5
 103.400551   -1.243929819E-5
 103.527336   -1.253411847E-5
 103.654129   -1.278144828E-5
 103.780922   -1.318247269E-5
 103.907715   -1.373306714E-5
 104.034508   -1.442391022E-5
 104.161301   -1.52407365E-5
 104.288094   -1.616471491E-5
 104.414886   -1.71729389E-5
 104.541679   -1.823900493E-5
 104.668472   -1.933367275E-5
 104.795265   -2.042558481E-5
 104.922058   -2.148200292E-5
 105.048851   -2.246960867E-5
 105.175644   -2.335526551E-5
 105.302437   -2.410679735E-5
 105.42923   -2.469374704E-5
 105.556023   -2.508809484E-5
 105.682816   -2.526495518E-5
 105.809608   -2.520321323E-5
 105.936401   -2.488612336E-5
 106.063194   -2.430185123E-5
 106.189987   -2.34439467E-5
 106.31678   -2.231177314E-5
 106.443573   -2.091083297E-5
 106.570366   -1.925303877E-5
 106.697159   -1.73568842E-5
 106.823952   -1.524750951E-5
 106.950745   -1.29566497E-5
 107.077538   -1.052246535E-5
 107.20433   -7.989221558E-6
 107.331116   -5.406821856E-6
 107.457909   -2.830173798E-6
 107.584702   -3.183940578E-7
 107.711494   2.066153684E-6
 107.838287   4.258991339E-6
 107.96508   6.194802609E-6
 108.091873   7.80884784E-6
 108.218666   9.038488315E-6
 108.345459   9.824778317E-6
 108.472252   1.011411496E-5
 108.599045   9.859861166E-6
 108.725838   9.023928214E-6
 108.852631   7.578244549E-6
 108.979424   5.506060916E-6
 109.106216   2.80305153E-6
 109.233009   -5.218598744E-7
 109.359802   -4.445972081E-6
 109.486595   -8.93262586E-6
 109.613388   -1.393138791E-5
 109.740181   -1.93786309E-5
 109.866974   -2.519848204E-5
 109.993767   -3.130416735E-5
 110.12056   -3.759969331E-5
 110.247353   -4.398183955E-5
 110.374146   -5.034242349E-5
 110.500938   -5.657075963E-5
 110.627731   -6.255623884E-5
 110.754524   -6.819097325E-5
 110.881317   -7.337235002E-5
 111.008102   -7.800557069E-5
 111.134895   -8.200586308E-5
 111.261688   -8.530047489E-5
 111.388481   -8.783035446E-5
 111.515274   -8.955135127E-5
 111.642067   -9.043500177E-5
 111.76886   -9.046884952E-5
 111.895653   -8.965632151E-5
 112.022446   -8.801605145E-5
 112.149239   -8.558083937E-5
 112.276031   -8.239618182E-5
 112.402824   -7.851851115E-5
 112.529617   -7.401306357E-5
 112.65641   -6.895173283E-5
 112.783203   -6.341069093E-5
 112.909996   -5.746812894E-5
 113.036789   -5.120198693E-5
 113.163582   -4.46879676E-5
 113.290375   -3.799773913E-5
 113.417168   -3.119750909E-5
 113.543961   -2.434695125E-5
 113.670753   -1.749853436E-5
 113.797546   -1.069728933E-5
 113.924339   -3.980969268E-6
 114.051132   2.619402494E-6
 114.177925   9.078641597E-6
 114.304718   1.537623029E-5
 114.431511   2.149494321E-5
 114.558304   2.741933713E-5
 114.685097   3.313422349E-5
 114.811882   3.862316589E-5
 114.938675   4.386716682E-5
 115.065468   4.884351074E-5
 115.192261   5.352499284E-5
 115.319054   5.787940972E-5
 115.445847   6.186950486E-5
 115.572639   6.545329961E-5
 115.699432   6.858487177E-5
 115.826225   7.121545059E-5
 115.953018   7.329491928E-5
 116.079811   7.477364852E-5
 116.206604   7.560443919E-5
 116.333397   7.574469782E-5
 116.46019   7.515856851E-5
 116.586983   7.381907199E-5
 116.713776   7.171001926E-5
 116.840569   6.88276632E-5
 116.967361   6.518208829E-5
 117.094154   6.079805098E-5
 117.220947   5.571546717E-5
 117.34774   4.998929944E-5
 117.474533   4.368897862E-5
 117.601326   3.689727237E-5
 117.728119   2.970869537E-5
 117.854912   2.222748299E-5
 117.981705   1.456519385E-5
 118.108498   6.83805365E-6
 118.235291   -8.358853734E-7
 118.362083   -8.339655324E-6
 118.488876   -1.556023926E-5
 118.615662   -2.239129208E-5
 118.742455   -2.873562153E-5
 118.869247   -3.450733857E-5
 118.99604   -3.963358904E-5
 119.122833   -4.405582513E-5
 119.249626   -4.773058754E-5
 119.376419   -5.062978016E-5
 119.503212   -5.274041177E-5
 119.630005   -5.406390483E-5
 119.756798   -5.461496767E-5
 119.883591   -5.442011388E-5
 120.010384   -5.35159088E-5
 120.137177   -5.194704136E-5
 120.263969   -4.9764305E-5
 120.390762   -4.702260776E-5
 120.517555   -4.377904406E-5
 120.644348   -4.009118129E-5
 120.771141   -3.601558637E-5
 120.897934   -3.160667256E-5
 121.024727   -2.691584814E-5
 121.15152   -2.199105438E-5
 121.278313   -1.687665463E-5
 121.405106   -1.16136398E-5
 121.531898   -6.240128187E-6
 121.658691   -7.921073006E-7
 121.785484   4.695662483E-6
 121.912277   1.018865169E-5
 122.03907   1.565154344E-5
 122.165863   2.104729356E-5
 122.292656   2.633630902E-5
 122.419441   3.147586176E-5
 122.546234   3.641973672E-5
 122.673027   4.111818271E-5
 122.79982   4.551820894E-5
 122.926613   4.956417979E-5
 123.053406   5.319875345E-5
 123.180199   5.636408969E-5
 123.306992   5.900329415E-5
 123.433784   6.106207729E-5
 123.560577   6.249049329E-5