 -4.5   -1.557302954E-18
 -4.37320757   -1.556054738E-18
 -4.24641466   -1.554129786E-18
 -4.11962223   -1.551929279E-18
 -3.99282932   -1.549715019E-18
 -3.86603665   -1.547638693E-18
 -3.73924398   -1.545780018E-18
 -3.61245155   -1.544175391E-18
 -3.48565888   -1.542835875E-18
 -3.35886621   -1.541761574E-18
 -3.23207355   -1.540944423E-18
 -3.10528088   -1.540364156E-18
 -2.97848821   -1.53998934E-18
 -2.85169554   -1.539771688E-18
 -2.72490287   -1.539657641E-18
 -2.5981102   -1.539588261E-18
 -2.47131753   -1.539511747E-18
 -2.34452486   -1.539387049E-18
 -2.21773219   -1.539186561E-18
 -2.09093952   -1.538896531E-18
 -1.96414697   -1.538512099E-18
 -1.8373543   -1.538033471E-18
 -1.71056163   -1.537463441E-18
 -1.58376896   -1.536803971E-18
 -1.45697629   -1.536059405E-18
 -1.33018374   -1.535233568E-18
 -1.20339108   -1.534332872E-18
 -1.07659841   -1.533367552E-18
 -0.949805737   -1.53235043E-18
 -0.823013067   -1.531293811E-18
 -0.696220458   -1.530207826E-18
 -0.569427788   -1.529097956E-18
 -0.442635119   -1.527967097E-18
 -0.315842479   -1.526815041E-18
 -0.189049825   -1.525639928E-18
 -6.225717068E-2   -1.524445065E-18
 6.453548372E-2   -1.523235314E-18
 0.191328138   -1.522022874E-18
 0.318120778   -1.52082036E-18
 0.444913447   -1.519645557E-18
 0.571706116   -1.518510561E-18
 0.698498726   -1.517423129E-18
 0.825291395   -1.516386155E-18
 0.952084064   -1.515396433E-18
 1.07887673   -1.514449311E-18
 1.2056694   -1.513539102E-18
 1.33246195   -1.51266074E-18
 1.45925462   -1.511810605E-18
 1.58604729   -1.510985596E-18
 1.71283996   -1.510182093E-18
 1.83963263   -1.509397099E-18
 1.9664253   -1.508624409E-18
 2.09321785   -1.507855234E-18
 2.22001052   -1.507083578E-18
 2.34680319   -1.506305098E-18
 2.47359586   -1.505519276E-18
 2.60038853   -1.504729629E-18
 2.7271812   -1.503942463E-18
 2.85397387   -1.503162535E-18
 2.98076653   -1.502394085E-18
 3.1075592   -1.501635456E-18
 3.23435187   -1.50088479E-18
 3.36114454   -1.500136192E-18
 3.48793697   -1.499385525E-18
 3.61472964   -1.498630826E-18
 3.74152231   -1.497873025E-18
 3.86831498   -1.497116362E-18
 3.99510765   -1.496364972E-18
 4.12190056   -1.49562237E-18
 4.24869299   -1.494889282E-18
 4.37548542   -1.494163534E-18
 4.50227833   -1.493440371E-18
 4.62907076   -1.492714314E-18
 4.75586367   -1.491980398E-18
 4.8826561   -1.491238003E-18
 5.00944901   -1.490486509E-18
 5.13624144   -1.489725503E-18
 5.26303434   -1.48895364E-18
 5.38982677   -1.488168749E-18
 5.51661968   -1.487366798E-18
 5.64341211   -1.486540444E-18
 5.77020502   -1.485683692E-18
 5.89699745   -1.484794059E-18
 6.02379036   -1.48387196E-18
 6.15058279   -1.482920392E-18
 6.27737522   -1.481947317E-18
 6.40416813   -1.480960491E-18
 6.53096056   -1.479968701E-18
 6.65775347   -1.478976188E-18
 6.7845459   -1.477986156E-18
 6.91133881   -1.476999743E-18
 7.03813124   -1.47601788E-18
 7.16492414   -1.475044805E-18
 7.29171658   -1.474084965E-18
 7.41850948   -1.47314353E-18
 7.54530191   -1.472225877E-18
 7.67209482   -1.471334797E-18
 7.79888725   -1.470470496E-18
 7.92567968   -1.46962884E-18
 8.05247211   -1.468802797E-18
 8.17926502   -1.467984922E-18
 8.30605793   -1.467168805E-18
 8.43285084   -1.466350206E-18
 8.55964279   -1.465526645E-18
 8.6864357   -1.464697706E-18
 8.81322861   -1.463862254E-18
 8.94002151   -1.463018736E-18
 9.06681347   -1.462163742E-18
 9.19360638   -1.461292204E-18
 9.32039928   -1.460400503E-18
 9.44719219   -1.459485331E-18
 9.57398415   -1.458548756E-18
 9.70077705   -1.45759512E-18
 9.82756996   -1.456633212E-18
 9.95436192   -1.455671201E-18
 10.0811548   -1.454716842E-18
 10.2079477   -1.453775717E-18
 10.3347406   -1.452850619E-18
 10.4615326   -1.451943512E-18
 10.5883255   -1.451054499E-18
 10.7151184   -1.450186787E-18
 10.8419113   -1.449342649E-18
 10.9687033   -1.448526325E-18
 11.0954962   -1.447744536E-18
 11.2222891   -1.446997695E-18
 11.349082   -1.44628663E-18
 11.4758739   -1.445608652E-18
 11.6026669   -1.444959833E-18
 11.7294598   -1.444335208E-18
 11.8562517   -1.44373209E-18
 11.9830446   -1.443148824E-18
 12.1098375   -1.442585411E-18
 12.2366304   -1.442042987E-18
 12.3634224   -1.441520416E-18
 12.4902153   -1.441017283E-18
 12.6170082   -1.440525938E-18
 12.7438011   -1.440039762E-18
 12.8705931   -1.439551416E-18
 12.997386   -1.439055004E-18
 13.1241789   -1.438545978E-18
 13.2509708   -1.438023096E-18
 13.3777637   -1.437490082E-18
 13.5045567   -1.436949622E-18
 13.6313496   -1.43640358E-18
 13.7581415   -1.435852367E-18
 13.8849344   -1.435296088E-18
 14.0117273   -1.434734536E-18
 14.1385202   -1.4341674E-18
 14.2653122   -1.433596439E-18
 14.3921051   -1.433025374E-18
 14.518898   -1.432459376E-18
 14.6456909   -1.431903614E-18
 14.7724829   -1.431361294E-18
 14.8992758   -1.430833966E-18
 15.0260687   -1.430319977E-18
 15.1528606   -1.429817258E-18
 15.2796535   -1.42932188E-18
 15.4064465   -1.428831362E-18
 15.5332394   -1.428344979E-18
 15.6600313   -1.427863871E-18
 15.7868242   -1.427390516E-18
 15.9136171   -1.426927399E-18
 16.0404091   -1.426474724E-18
 16.167202   -1.426029598E-18
 16.2939949   -1.425589434E-18
 16.4207878   -1.425150408E-18
 16.5475807   -1.424708693E-18
 16.6743736   -1.424263153E-18
 16.8011646   -1.423813477E-18
 16.9279575   -1.423361526E-18
 17.0547504   -1.422909679E-18
 17.1815434   -1.422457832E-18
 17.3083363   -1.422004123E-18
 17.4351292   -1.421547002E-18
 17.5619221   -1.421083368E-18
 17.688715   -1.420611358E-18
 17.815506   -1.420132524E-18
 17.9422989   -1.419650898E-18
 18.0690918   -1.419170719E-18
 18.1958847   -1.418697675E-18
 18.3226776   -1.418235075E-18
 18.4494705   -1.417783641E-18
 18.5762634   -1.417341823E-18
 18.7030544   -1.416904658E-18
 18.8298473   -1.416466562E-18
 18.9566402   -1.416023504E-18
 19.0834332   -1.415572794E-18
 19.2102261   -1.415112468E-18
 19.337019   -1.414643456E-18
 19.4638119   -1.41416638E-18
 19.5906048   -1.413682479E-18
 19.7173958   -1.413189997E-18
 19.8441887   -1.412685623E-18
 19.9709816   -1.412168532E-18
 20.0977745   -1.411636965E-18
 20.2245674   -1.41109175E-18
 20.3513603   -1.410534127E-18
 20.4781532   -1.409968749E-18
 20.6049442   -1.409397167E-18
 20.7317371   -1.408820622E-18
 20.85853   -1.408237666E-18
 20.985323   -1.407645715E-18
 21.1121159   -1.407042287E-18
 21.2389088   -1.406425727E-18
 21.3657017   -1.405795829E-18
 21.4924946   -1.405156005E-18
 21.6192856   -1.404510597E-18
 21.7460785   -1.403865293E-18
 21.8728714   -1.403224125E-18
 21.9996643   -1.402589057E-18
 22.1264572   -1.401958745E-18
 22.2532501   -1.401331639E-18
 22.380043   -1.40070629E-18
 22.506834   -1.400079287E-18
 22.6336269   -1.399452181E-18
 22.7604198   -1.398826005E-18
 22.8872128   -1.398203759E-18
 23.0140057   -1.397585131E-18
 23.1407986   -1.396970639E-18
 23.2675915   -1.396358422E-18
 23.3943844   -1.395743207E-18
 23.5211754   -1.395122097E-18
 23.6479683   -1.394492303E-18
 23.7747612   -1.393851341E-18
 23.9015541   -1.393198696E-18
 24.028347   -1.392535504E-18
 24.1551399   -1.391861868E-18
 24.2819328   -1.39117841E-18
 24.4087238   -1.390482028E-18
 24.5355167   -1.389769618E-18
 24.6623096   -1.389040665E-18
 24.7891026   -1.388292377E-18
 24.9158955   -1.387526305E-18
 25.0426884   -1.386746377E-18
 25.1694813   -1.38595797E-18
 25.2962742   -1.385166668E-18
 25.4230652   -1.384379813E-18
 25.5498581   -1.383600816E-18
 25.676651   -1.382832675E-18
 25.8034439   -1.382075598E-18
 25.9302368   -1.381331239E-18
 26.0570297   -1.380598667E-18
 26.1838226   -1.379879744E-18
 26.3106136   -1.379174986E-18
 26.4374065   -1.378485944E-18
 26.5641994   -1.377811585E-18
 26.6909924   -1.377149117E-18
 26.8177853   -1.376494921E-18
 26.9445782   -1.375842895E-18
 27.0713711   -1.375186734E-18
 27.198164   -1.37452468E-18
 27.324955   -1.37385487E-18
 27.4517479   -1.37317927E-18
 27.5785408   -1.372498191E-18
 27.7053337   -1.371814319E-18
 27.8321266   -1.371128173E-18
 27.9589195   -1.370438201E-18
 28.0857124   -1.369740991E-18
 28.2125034   -1.369033234E-18
 28.3392963   -1.368309451E-18
 28.4660892   -1.367566643E-18
 28.5928822   -1.366801915E-18
 28.7196751   -1.366017747E-18
 28.846468   -1.365214452E-18
 28.9732609   -1.364393992E-18
 29.1000538   -1.363557816E-18
 29.2268448   -1.362709956E-18
 29.3536377   -1.361853513E-18
 29.4804306   -1.360991074E-18
 29.6072235   -1.360127601E-18
 29.7340164   -1.359268057E-18
 29.8608093   -1.358416475E-18
 29.9876022   -1.357575956E-18
 30.1143932   -1.356747224E-18
 30.2411861   -1.355929556E-18
 30.367979   -1.355118092E-18
 30.494772   -1.354306731E-18
 30.6215649   -1.353491751E-18
 30.7483578   -1.352671292E-18
 30.8751507   -1.351844525E-18
 31.0019417   -1.351013518E-18
 31.1287346   -1.350183649E-18
 31.2555275   -1.349359778E-18
 31.3823204   -1.348546556E-18
 31.5091133   -1.347748119E-18
 31.6359062   -1.34696571E-18
 31.7626991   -1.346197466E-18
 31.889492   -1.345442974E-18
 32.0162849   -1.344700683E-18
 32.1430779   -1.343968524E-18
 32.2698708   -1.34324319E-18
 32.3966637   -1.342523957E-18
 32.5234528   -1.341807722E-18
 32.6502457   -1.34109128E-18
 32.7770386   -1.340373908E-18
 32.9038315   -1.339653433E-18
 33.0306244   -1.33892841E-18
 33.1574173   -1.338202042E-18
 33.2842102   -1.337476087E-18
 33.4110031   -1.336755923E-18
 33.537796   -1.336045478E-18
 33.6645889   -1.335346614E-18
 33.7913818   -1.334659641E-18
 33.9181747   -1.333983524E-18
 34.0449677   -1.333314852E-18
 34.1717606   -1.332649488E-18
 34.2985535   -1.331985056E-18
 34.4253426   -1.331318762E-18
 34.5521355   -1.3306504E-18
 34.6789284   -1.329980797E-18
 34.8057213   -1.329311918E-18
 34.9325142   -1.328647278E-18
 35.0593071   -1.327986671E-18
 35.1861   -1.327331441E-18
 35.3128929   -1.326680967E-18
 35.4396858   -1.326034939E-18
 35.5664787   -1.325390979E-18
 35.6932716   -1.324750534E-18
 35.8200645   -1.324112881E-18
 35.9468575   -1.323479261E-18
 36.0736504   -1.322849156E-18
 36.2004433   -1.322223601E-18
 36.3272324   -1.321601664E-18
 36.4540253   -1.320982726E-18
 36.5808182   -1.3203672E-18
 36.7076111   -1.319757258E-18
 36.834404   -1.31915414E-18
 36.9611969   -1.318559811E-18
 37.0879898   -1.317975408E-18
 37.2147827   -1.317402792E-18
 37.3415756   -1.316839275E-18
 37.4683685   -1.316281032E-18
 37.5951614   -1.315722478E-18
 37.7219543   -1.315159582E-18
 37.8487473   -1.31458769E-18
 37.9755402   -1.314003493E-18
 38.1023293   -1.313405752E-18
 38.2291222   -1.312795499E-18
 38.3559151   -1.312172839E-18
 38.482708   -1.311537875E-18
 38.6095009   -1.310892674E-18
 38.7362938   -1.310235892E-18
 38.8630867   -1.309568047E-18
 38.9898796   -1.308889139E-18
 39.1166725   -1.308200614E-18
 39.2434654   -1.307503715E-18
 39.3702583   -1.306801438E-18
 39.4970512   -1.30609637E-18
 39.6238441   -1.305390578E-18
 39.7506371   -1.304684993E-18
 39.87743   -1.303980236E-18
 40.0042191   -1.303275684E-18
 40.131012   -1.302571547E-18
 40.2578049   -1.30186834E-18
 40.3845978   -1.301166374E-18
 40.5113907   -1.300467406E-18
 40.6381836   -1.299772885E-18
 40.7649765   -1.299083947E-18
 40.8917694   -1.298400075E-18
 41.0185623   -1.297720029E-18
 41.1453552   -1.297043189E-18
 41.2721481   -1.296366348E-18
 41.398941   -1.295688267E-18
 41.5257339   -1.295010496E-18
 41.6525269   -1.294334172E-18
 41.7793198   -1.29366002E-18
 41.9061089   -1.292990211E-18
 42.0329018   -1.292324537E-18
 42.1596947   -1.291663413E-18
 42.2864876   -1.291005287E-18
 42.4132805   -1.290349126E-18
 42.5400734   -1.289692862E-18
 42.6668663   -1.289036184E-18
 42.7936592   -1.288379092E-18
 42.9204521   -1.287723655E-18
 43.047245   -1.28707194E-18
 43.1740379   -1.286425188E-18
 43.3008308   -1.285783399E-18
 43.4276237   -1.28514523E-18
 43.5544167   -1.284508921E-18
 43.6812096   -1.283873233E-18
 43.8079987   -1.283234649E-18
 43.9347916   -1.282592964E-18
 44.0615845   -1.281948177E-18
 44.1883774   -1.281301114E-18
 44.3151703   -1.280651054E-18
 44.4419632   -1.279998512E-18
 44.5687561   -1.279344419E-18
 44.695549   -1.278687948E-18
 44.8223419   -1.278029925E-18
 44.9491348   -1.277371593E-18
 45.0759277   -1.276714501E-18
 45.2027206   -1.276061029E-18
 45.3295135   -1.275412622E-18
 45.4563065   -1.2747698E-18
 45.5830994   -1.274132354E-18
 45.7098885   -1.273500905E-18
 45.8366814   -1.272871834E-18
 45.9634743   -1.2722439E-18
 46.0902672   -1.271614519E-18
 46.2170601   -1.270982967E-18
 46.343853   -1.270352242E-18
 46.4706459   -1.26972193E-18
 46.5974388   -1.26909379E-18
 46.7242317   -1.268468131E-18
 46.8510246   -1.267846918E-18
 46.9778175   -1.267229428E-18
 47.1046104   -1.266613696E-18
 47.2314034   -1.265997343E-18
 47.3581963   -1.265381713E-18
 47.4849892   -1.26476505E-18
 47.6117783   -1.264148801E-18
 47.7385712   -1.263532344E-18
 47.8653641   -1.262915888E-18
 47.992157   -1.262301913E-18
 48.1189499   -1.261689593E-18
 48.2457428   -1.261078927E-18
 48.3725357   -1.260469605E-18
 48.4993286   -1.25986173E-18
 48.6261215   -1.259257785E-18
 48.7529144   -1.25865963E-18
 48.8797073   -1.258068299E-18
 49.0065002   -1.257484723E-18
 49.1332932   -1.256908489E-18
 49.2600861   -1.256338355E-18
 49.386879   -1.255771736E-18
 49.5136681   -1.255205738E-18
 49.640461   -1.254638705E-18
 49.7672539   -1.254069502E-18
 49.8940468   -1.253495955E-18
 50.0208397   -1.252919307E-18
 50.1476326   -1.25233935E-18
 50.2744255   -1.251756808E-18
 50.4012184   -1.25117013E-18
 50.5280113   -1.250578696E-18
 50.6548042   -1.249981472E-18
 50.7815971   -1.249377009E-18
 50.90839   -1.248765826E-18
 51.035183   -1.248150094E-18
 51.1619759   -1.247530639E-18
 51.2887688   -1.246910357E-18
 51.4155579   -1.246288937E-18
 51.5423508   -1.245667725E-18
 51.6691437   -1.245045995E-18
 51.7959366   -1.244422508E-18
 51.9227295   -1.243796332E-18
 52.0495224   -1.243165813E-18
 52.1763153   -1.242530952E-18
 52.3031082   -1.241893713E-18
 52.4299011   -1.241254613E-18
 52.556694   -1.240614375E-18
 52.6834869   -1.239974757E-18
 52.8102798   -1.239335243E-18
 52.9370728   -1.238696867E-18
 53.0638657   -1.238059214E-18
 53.1906586   -1.237422699E-18
 53.3174477   -1.236785046E-18
 53.4442406   -1.236149564E-18
 53.5710335   -1.235515427E-18
 53.6978264   -1.234883254E-18
 53.8246193   -1.234252529E-18
 53.9514122   -1.233622114E-18
 54.0782051   -1.232990458E-18
 54.204998   -1.232356734E-18
 54.3317909   -1.231718875E-18
 54.4585838   -1.231078223E-18
 54.5853767   -1.23043447E-18
 54.7121696   -1.229789683E-18
 54.8389626   -1.229145723E-18
 54.9657555   -1.228503417E-18
 55.0925484   -1.227862972E-18
 55.2193375   -1.227224285E-18
 55.3461304   -1.226587977E-18
 55.4729233   -1.225954046E-18
 55.5997162   -1.225322597E-18
 55.7265091   -1.224697249E-18
 55.853302   -1.224080689E-18
 55.9800949   -1.223476433E-18
 56.1068878   -1.222886964E-18
 56.2336807   -1.222314658E-18
 56.3604736   -1.221759827E-18
 56.4872665   -1.221220815E-18
 56.6140594   -1.220695245E-18
 56.7408524   -1.220180015E-18
 56.8676453   -1.219671816E-18
 56.9944382   -1.219167029E-18
 57.1212273   -1.218662449E-18
 57.2480202   -1.218155284E-18
 57.3748131   -1.217642949E-18
 57.501606   -1.217124307E-18
 57.6283989   -1.216598013E-18
 57.7551918   -1.216063137E-18
 57.8819847   -1.215520507E-18
 58.0087776   -1.214971362E-18
 58.1355705   -1.214417978E-18
 58.2623634   -1.213862837E-18
 58.3891563   -1.213308729E-18
 58.5159492   -1.212756276E-18
 58.6427422   -1.212204236E-18
 58.7695351   -1.211652197E-18
 58.896328   -1.211097159E-18
 59.0231171   -1.210537467E-18
 59.14991   -1.209970849E-18
 59.2767029   -1.209396682E-18
 59.4034958   -1.208816622E-18
 59.5302887   -1.208232529E-18
 59.6570816   -1.20764461E-18
 59.7838745   -1.20705452E-18
 59.9106674   -1.206463913E-18
 60.0374603   -1.205871548E-18
 60.1642532   -1.205278873E-18
 60.2910461   -1.204683717E-18
 60.4178391   -1.204085665E-18
 60.544632   -1.203483271E-18
 60.6714249   -1.202875914E-18
 60.7982178   -1.202263076E-18
 60.9250069   -1.201644759E-18
 61.0517998   -1.201018997E-18
 61.1785927   -1.200386824E-18
 61.3053856   -1.199748758E-18
 61.4321785   -1.199107176E-18
 61.5589714   -1.198465283E-18
 61.6857643   -1.197826907E-18
 61.8125572   -1.197194424E-18
 61.9393501   -1.19657104E-18
 62.066143   -1.195958306E-18
 62.1929359   -1.195354877E-18
 62.3197289   -1.194758894E-18
 62.4465218   -1.194167356E-18
 62.5733147   -1.193577783E-18
 62.7001076   -1.192987073E-18
 62.8268967   -1.192394708E-18
 62.9536896   -1.191800586E-18
 63.0804825   -1.191205016E-18
 63.2072754   -1.190609032E-18
 63.3340683   -1.190014496E-18
 63.4608612   -1.189422131E-18
 63.5876541   -1.188832248E-18
 63.714447   -1.188244433E-18
 63.8412399   -1.187657445E-18
 63.9680328   -1.18706994E-18
 64.0948257   -1.186480884E-18
 64.2216187   -1.185888623E-18
 64.3484116   -1.185291398E-18
 64.4752045   -1.184690038E-18
 64.6019974   -1.184084955E-18
 64.7287903   -1.183477391E-18
 64.8555832   -1.182869517E-18
 64.9823761   -1.182264021E-18
 65.109169   -1.181665555E-18
 65.2359619   -1.181076706E-18
 65.3627548   -1.180499127E-18
 65.4895477   -1.179934783E-18
 65.616333   -1.179383157E-18
 65.7431259   -1.178843215E-18
 65.8699188   -1.178313819E-18
 65.9967117   -1.177792489E-18
 66.1235046   -1.177275398E-18
 66.2502975   -1.176762029E-18
 66.3770905   -1.176248246E-18
 66.5038834   -1.175734877E-18
 66.6306763   -1.175222232E-18
 66.7574692   -1.174708346E-18
 66.8842621   -1.174193633E-18
 67.011055   -1.173677679E-18
 67.1378479   -1.173160277E-18
 67.2646408   -1.17263812E-18
 67.3914337   -1.172110689E-18
 67.5182266   -1.171576227E-18
 67.6450195   -1.17103463E-18
 67.7718124   -1.170485796E-18
 67.8986053   -1.169930344E-18
 68.0253983   -1.169367758E-18
 68.1521912   -1.168798347E-18
 68.2789841   -1.16822325E-18
 68.405777   -1.16764443E-18
 68.5325699   -1.167062509E-18
 68.6593628   -1.166478519E-18
 68.7861557   -1.165891221E-18
 68.9129486   -1.165302268E-18
 69.0397415   -1.164711765E-18
 69.1665344   -1.1641194E-18
 69.2933273   -1.163525795E-18
 69.4201126   -1.162931982E-18
 69.5469055   -1.162338687E-18
 69.6736984   -1.161747046E-18
 69.8004913   -1.161159334E-18
 69.9272842   -1.160574828E-18
 70.0540771   -1.159995181E-18
 70.1808701   -1.159420704E-18
 70.307663   -1.158850777E-18
 70.4344559   -1.158284675E-18
 70.5612488   -1.157722192E-18
 70.6880417   -1.157161881E-18
 70.8148346   -1.156600328E-18
 70.9416275   -1.156036398E-18
 71.0684204   -1.155468849E-18
 71.1952133   -1.154895923E-18
 71.3220062   -1.154316896E-18
 71.4487991   -1.153733114E-18
 71.575592   -1.153146126E-18
 71.7023849   -1.152556139E-18
 71.8291779   -1.151964808E-18
 71.9559708   -1.151374408E-18
 72.0827637   -1.150783905E-18
 72.2095566   -1.150194021E-18
 72.3363495   -1.149604345E-18
 72.4631424   -1.149014358E-18
 72.5899353   -1.148423545E-18
 72.7167282   -1.147832421E-18
 72.8435211   -1.147240676E-18
 72.970314   -1.146649966E-18
 73.0971069   -1.146059462E-18
 73.2238922   -1.145470613E-18
 73.3506851   -1.144883418E-18
 73.477478   -1.144297981E-18
 73.6042709   -1.14371668E-18
 73.7310638   -1.143138895E-18
 73.8578568   -1.142566486E-18
 73.9846497   -1.142000797E-18
 74.1114426   -1.141443071E-18
 74.2382355   -1.140894754E-18
 74.3650284   -1.140353984E-18
 74.4918213   -1.139819419E-18
 74.6186142   -1.139289403E-18
 74.7454071   -1.138761351E-18
 74.8722   -1.138232473E-18
 74.9989929   -1.137701526E-18
 75.1257858   -1.137169132E-18
 75.2525787   -1.136631982E-18
 75.3793716   -1.136091419E-18
 75.5061646   -1.135546824E-18
 75.6329575   -1.134997783E-18
 75.7597504   -1.134445743E-18
 75.8865433   -1.133890498E-18
 76.0133362   -1.133332875E-18
 76.1401291   -1.132774632E-18
 76.266922   -1.132218042E-18
 76.3937149   -1.131665279E-18
 76.5205078   -1.131116962E-18
 76.6473007   -1.130573401E-18
 76.7740936   -1.130033355E-18
 76.9008865   -1.129497032E-18
 77.0276718   -1.12896288E-18
 77.1544647   -1.128429038E-18
 77.2812576   -1.127896334E-18
 77.4080505   -1.12736425E-18
 77.5348434   -1.126834027E-18
 77.6616364   -1.126307527E-18
 77.7884293   -1.125784438E-18
 77.9152222   -1.125264349E-18
 78.0420151   -1.124746844E-18
 78.168808   -1.124229236E-18
 78.2956009   -1.123711937E-18
 78.4223938   -1.123191331E-18
 78.5491867   -1.122666174E-18
 78.6759796   -1.122135848E-18
 78.8027725   -1.121600456E-18
 78.9295654   -1.121059996E-18
 79.0563583   -1.120514057E-18
 79.1831512   -1.119963258E-18
 79.3099442   -1.119407703E-18
 79.4367371   -1.118848632E-18
 79.56353   -1.118286977E-18
 79.6903229   -1.117723563E-18
 79.8171158   -1.117161081E-18
 79.9439087   -1.116600562E-18
 80.0707016   -1.116042732E-18
 80.1974945   -1.115486453E-18
 80.3242874   -1.114932139E-18
 80.4510803   -1.114376274E-18
 80.5778732   -1.113819478E-18
 80.7046585   -1.113260717E-18
 80.8314514   -1.112700923E-18
 80.9582443   -1.112140921E-18
 81.0850372   -1.111582885E-18
 81.2118301   -1.111027536E-18
 81.338623   -1.1104756E-18
 81.465416   -1.10992749E-18
 81.5922089   -1.109383515E-18
 81.7190018   -1.108840884E-18
 81.8457947   -1.108298978E-18
 81.9725876   -1.107758105E-18
 82.0993805   -1.107216095E-18
 82.2261734   -1.106674498E-18
 82.3529663   -1.106133315E-18
 82.4797592   -1.105591616E-18
 82.6065521   -1.105048571E-18
 82.733345   -1.104501495E-18
 82.8601379   -1.103948318E-18
 82.9869308   -1.103386352E-18
 83.1137238   -1.102813943E-18
 83.2405167   -1.10222954E-18
 83.3673096   -1.101634694E-18
 83.4941025   -1.101029301E-18
 83.6208954   -1.100415533E-18
 83.7476883   -1.099793803E-18
 83.8744812   -1.099167524E-18
 84.0012741   -1.09853897E-18
 84.128067   -1.097910623E-18
 84.2548599   -1.097285068E-18
 84.3816528   -1.09666675E-18
 84.5084381   -1.096060944E-18
 84.635231   -1.095470751E-18
 84.7620239   -1.094903408E-18
 84.8888168   -1.094361088E-18
 85.0156097   -1.093849994E-18
 85.1424026   -1.093372607E-18
 85.2691956   -1.09293172E-18
 85.3959885   -1.092529917E-18
 85.5227814   -1.092166888E-18
 85.6495743   -1.091842633E-18
 85.7763672   -1.091554154E-18
 85.9031601   -1.091297935E-18
 86.029953   -1.091064049E-18
 86.1567459   -1.09083947E-18
 86.2835388   -1.090609927E-18
 86.4103317   -1.090356603E-18
 86.5371246   -1.090059749E-18
 86.6639175   -1.089699511E-18
 86.7907104   -1.08925728E-18
 86.9175034   -1.088713822E-18
 87.0442963   -1.088056421E-18
 87.1710892   -1.087272357E-18
 87.2978821   -1.086355427E-18
 87.424675   -1.085304701E-18
 87.5514679   -1.084125038E-18
 87.6782608   -1.08282988E-18
 87.8050537   -1.081440423E-18
 87.9318466   -1.079986757E-18
 88.0586395   -1.078506414E-18
 88.1854324   -1.077044785E-18
 88.3122177   -1.075650159E-18
 88.4390106   -1.074376611E-18
 88.5658035   -1.073277702E-18
 88.6925964   -1.07240606E-18
 88.8193893   -1.071810283E-18
 88.9461823   -1.071530696E-18
 89.0729752   -1.071598525E-18
 89.1997681   -1.072031037E-18
 89.326561   -1.072832161E-18
 89.4533539   -1.073985768E-18
 89.5801468   -1.075455668E-18
 89.7069397   -1.077182614E-18
 89.8337326   -1.079086784E-18
 89.9605255   -1.081070156E-18
 90.0873184   -1.083015582E-18
 90.2141113   -1.084796192E-18
 90.3409042   -1.086276224E-18
 90.4676971   -1.087317335E-18
 90.5944901   -1.087786243E-18
 90.721283   -1.087559802E-18
 90.8480759   -1.086533581E-18
 90.9748688   -1.084629825E-18
 91.1016617   -1.081803762E-18
 91.2284546   -1.078049396E-18
 91.3552475   -1.073408603E-18
 91.4820404   -1.067970097E-18
 91.6088333   -1.061875741E-18
 91.7356262   -1.055317749E-18
 91.8624191   -1.048534455E-18
 91.989212   -1.041803996E-18
 92.1159973   -1.03543636E-18
 92.2427902   -1.029760246E-18
 92.3695831   -1.025111802E-18
 92.496376   -1.021817658E-18
 92.6231689   -1.020176739E-18
 92.7499619   -1.020445469E-18
 92.8767548   -1.022816789E-18
 93.0035477   -1.027403609E-18
 93.1303406   -1.034225161E-18
 93.2571335   -1.043191592E-18
 93.3839264   -1.054099416E-18
 93.5107193   -1.066625618E-18
 93.6375122   -1.080332311E-18
 93.7643051   -1.094675313E-18
 93.891098   -1.109016453E-18
 94.0178909   -1.122643013E-18
 94.1446838   -1.134796364E-18
 94.2714767   -1.144699784E-18
 94.3982697   -1.151597437E-18
 94.5250626   -1.154789527E-18
 94.6518555   -1.153675521E-18
 94.7786484   -1.147792096E-18
 94.9054413   -1.136852218E-18
 95.0322342   -1.120780616E-18
 95.1590271   -1.099736521E-18
 95.28582   -1.074135798E-18
 95.4126129   -1.0446587E-18
 95.5394058   -1.012243353E-18
 95.6661987   -9.780699368E-19
 95.7929916   -9.435330783E-19
 95.9197769   -9.101954249E-19
 96.0465698   -8.797354294E-19
 96.1733627   -8.538760574E-19
 96.3001556   -8.343100306E-19
 96.4269485   -8.226125593E-19
 96.5537415   -8.201551091E-19
 96.6805344   -8.280169955E-19
 96.8073273   -8.469040105E-19
 96.9341202   -8.770731486E-19
 97.0609131   -9.182791508E-19
 97.187706   -9.697288543E-19
 97.3144989   -1.030068475E-18
 97.4412918   -1.097382779E-18
 97.5680847   -1.169233858E-18
 97.6948776   -1.242719446E-18
 97.8216705   -1.314563908E-18
 97.9484634   -1.381232494E-18
 98.0752563   -1.439072478E-18
 98.2020493   -1.484470735E-18
 98.3288422   -1.514033136E-18
 98.4556351   -1.524762392E-18
 98.582428   -1.514239828E-18
 98.7092209   -1.480795365E-18
 98.8360138   -1.42366231E-18
 98.9628067   -1.343099468E-18
 99.0895996   -1.240481509E-18
 99.2163925   -1.118344673E-18
 99.3431854   -9.803852153E-19
 99.4699783   -8.313951495E-19
 99.5967712   -6.771482991E-19
 99.7235565   -5.242272125E-19
 99.8503494   -3.797886821E-19
 99.9771423   -2.512875956E-19
 100.103935   -1.461569594E-19
 100.230728   -7.145750294E-20
 100.357521   -3.35119462E-20
 100.484314   -3.754180536E-20
 100.611107   -8.731805142E-20
 100.7379   -1.848530112E-19
 100.864693   -3.301370366E-19
 100.991486   -5.209530765E-19
 101.118279   -7.527699779E-19
 101.245071   -1.018740133E-18
 101.371864   -1.30980307E-18
 101.498657   -1.614896128E-18
 101.62545   -1.921290548E-18
 101.752243   -2.215026726E-18
 101.879036   -2.481448573E-18
 102.005829   -2.705822762E-18
 102.132622   -2.874010501E-18
 102.259415   -2.973183459E-18
 102.386208   -2.992531007E-18
 102.513   -2.923945326E-18
 102.639793   -2.762640764E-18
 102.766586   -2.507673094E-18
 102.893379   -2.162327049E-18
 103.020172   -1.734345868E-18
 103.146965   -1.235965103E-18
 103.273758   -6.837494072E-19
 103.400551   -9.820484688E-20
 103.527336   4.968169285E-19
 103.654129   1.074931442E-18
 103.780922   1.608218092E-18
 103.907715   2.068373187E-18
 104.034508   2.427988717E-18
 104.161301   2.661891199E-18
 104.288094   2.748499905E-18
 104.414886   2.67113639E-18
 104.541679   2.419212124E-18
 104.668472   1.989248398E-18
 104.795265   1.38564116E-18
 104.922058   6.211395379E-19
 105.048851   -2.83030936E-19
 105.175644   -1.297424416E-18
 105.302437   -2.38503178E-18
 105.42923   -3.502345166E-18
 105.556023   -4.600808759E-18
 105.682816   -5.628629887E-18
 105.809608   -6.53288843E-18
 105.936401   -7.261874019E-18
 106.063194   -7.767565923E-18
 106.189987   -8.008144787E-18
 106.31678   -7.950430741E-18
 106.443573   -7.572127133E-18
 106.570366   -6.86373586E-18
 106.697159   -5.830055811E-18
 106.823952   -4.491138258E-18
 106.950745   -2.882618762E-18
 107.077538   -1.055357351E-18
 107.20433   9.256402311E-19
 107.331116   2.983052137E-18
 107.457909   5.029777594E-18
 107.584702   6.972119268E-18
 107.711494   8.713532153E-18
 107.838287   1.015880114E-17
 107.96508   1.121848486E-17
 108.091873   1.181345271E-17
 108.218666   1.187930704E-17
 108.345459   1.137047102E-17
 108.472252   1.026375961E-17
 108.599045   8.56117541E-18
 108.725838   6.291792992E-18
 108.852631   3.512552988E-18
 108.979424   3.078384444E-19
 109.106216   -3.212226248E-18
 109.233009   -6.914774972E-18
 109.359802   -1.064847304E-17
 109.486595   -1.424891728E-17
 109.613388   -1.754508644E-17
 109.740181   -2.036652506E-17
 109.866974   -2.255106935E-17
 109.993767   -2.395275668E-17
 110.12056   -2.44495597E-17
 110.247353   -2.395066722E-17
 110.374146   -2.240281873E-17
 110.500938   -1.979542137E-17
 110.627731   -1.616413653E-17
 110.754524   -1.159259631E-17
 110.881317   -6.212086282E-18
 111.008102   -1.991099861E-19
 111.134895   6.229292466E-18
 111.261688   1.282238393E-17
 111.388481   1.930450456E-17
 111.515274   2.538560059E-17
 111.642067   3.077309079E-17
 111.76886   3.518468653E-17
 111.895653   3.836152992E-17
 112.022446   4.008118217E-17
 112.149239   4.01698824E-17
 112.276031   3.851332418E-17
 112.402824   3.506556259E-17
 112.529617   2.985539676E-17
 112.65641   2.298982084E-17
 112.783203   1.465419938E-17
 112.909996   5.108983033E-18
 113.036789   -5.317117391E-18
 113.163582   -1.623742969E-17
 113.290375   -2.722077357E-17
 113.417168   -3.780768949E-17
 113.543961   -4.752884839E-17
 113.670753   -5.5924993E-17
 113.797546   -6.256744523E-17
 113.924339   -6.707850447E-17
 114.051132   -6.915060514E-17
 114.177925   -6.856337308E-17
 114.304718   -6.519783987E-17
 114.431511   -5.904669984E-17
 114.558304   -5.022023934E-17
 114.685097   -3.894729291E-17
 114.811882   -2.557095191E-17
 114.938675   -1.053906021E-17
 115.065468   5.61055475E-18
 115.192261   2.226937961E-17
 115.319054   3.878163179E-17
 115.445847   5.447071353E-17
 115.572639   6.866783607E-17
 115.699432   8.074140399E-17
 115.826225   9.012584745E-17
 115.953018   9.634865441E-17
 116.079811   9.905420337E-17
 116.206604   9.802317237E-17
 116.333397   9.318632307E-17
 116.46019   8.463193882E-17
 116.586983   7.260634737E-17
 116.713776   5.750711158E-17
 116.840569   3.986894085E-17
 116.967361   2.034296365E-17
 117.094154   -3.302537983E-19
 117.220947   -2.135225634E-17
 117.34774   -4.190212764E-17
 117.474533   -6.117355325E-17
 117.601326   -7.841208324E-17
 117.728119   -9.295062292E-17
 117.854912   -1.042413008E-16
 117.981705   -1.118819086E-16
 118.108498   -1.156355615E-16
 118.235291   -1.154419351E-16
 118.362083   -1.114198653E-16
 118.488876   -1.038600963E-16
 118.615662   -9.320910694E-17
 118.742455   -8.004374001E-17
 118.869247   -6.503858444E-17