 -4.5   7.850519938E-19
 -4.37320757   7.85062075E-19
 -4.24641466   7.850812553E-19
 -4.11962223   7.851077768E-19
 -3.99282932   7.851388994E-19
 -3.86603665   7.851721417E-19
 -3.73924398   7.852041433E-19
 -3.61245155   7.852323191E-19
 -3.48565888   7.85254653E-19
 -3.35886621   7.85270783E-19
 -3.23207355   7.852806575E-19
 -3.10528088   7.852854655E-19
 -2.97848821   7.852868614E-19
 -2.85169554   7.852880504E-19
 -2.72490287   7.852906871E-19
 -2.5981102   7.852977698E-19
 -2.47131753   7.853116768E-19
 -2.34452486   7.853325114E-19
 -2.21773219   7.853606872E-19
 -2.09093952   7.853950152E-19
 -1.96414697   7.85433324E-19
 -1.8373543   7.854745797E-19
 -1.71056163   7.855149047E-19
 -1.58376896   7.855522829E-19
 -1.45697629   7.855850083E-19
 -1.33018374   7.856113747E-19
 -1.20339108   7.8563071E-19
 -1.07659841   7.856428075E-19
 -0.949805737   7.856484944E-19
 -0.823013067   7.856498386E-19
 -0.696220458   7.85648908E-19
 -0.569427788   7.856480291E-19
 -0.442635119   7.856491665E-19
 -0.315842479   7.856548016E-19
 -0.189049825   7.856659169E-19
 -6.225717068E-2   7.856831843E-19
 6.453548372E-2   7.857071725E-19
 0.191328138   7.857370027E-19
 0.318120778   7.857709171E-19
 0.444913447   7.858068995E-19
 0.571706116   7.858426233E-19
 0.698498726   7.858755038E-19
 0.825291395   7.859040932E-19
 0.952084064   7.859265822E-19
 1.07887673   7.859416265E-19
 1.2056694   7.859496915E-19
 1.33246195   7.859511908E-19
 1.45925462   7.859475719E-19
 1.58604729   7.859411612E-19
 1.71283996   7.859349574E-19
 1.83963263   7.859320622E-19
 1.9664253   7.859341302E-19
 2.09321785   7.859434877E-19
 2.22001052   7.859606517E-19
 2.34680319   7.859860875E-19
 2.47359586   7.86017572E-19
 2.60038853   7.860537095E-19
 2.7271812   7.860914496E-19
 2.85397387   7.861272769E-19
 2.98076653   7.861594852E-19
 3.1075592   7.861860067E-19
 3.23435187   7.862057556E-19
 3.36114454   7.862179565E-19
 3.48793697   7.862239536E-19
 3.61472964   7.86225608E-19
 3.74152231   7.862244706E-19
 3.86831498   7.862236434E-19
 3.99510765   7.862251427E-19
 4.12190056   7.862320703E-19
 4.24869299   7.862449433E-19
 4.37548542   7.862656228E-19
 4.50227833   7.862930749E-19
 4.62907076   7.863260587E-19
 4.75586367   7.863623513E-19
 4.8826561   7.863992125E-19
 5.00944901   7.864346779E-19
 5.13624144   7.864661624E-19
 5.26303434   7.864911329E-19
 5.38982677   7.865091758E-19
 5.51661968   7.865199809E-19
 5.64341211   7.865240134E-19
 5.77020502   7.865243236E-19
 5.89699745   7.865219454E-19
 6.02379036   7.865200326E-19
 6.15058279   7.865225658E-19
 6.27737522   7.865318716E-19
 6.40416813   7.865490873E-19
 6.53096056   7.865754537E-19
 6.65775347   7.866106605E-19
 6.7845459   7.866532603E-19
 6.91133881   7.867007715E-19
 7.03813124   7.867496786E-19
 7.16492414   7.867962075E-19
 7.29171658   7.86837308E-19
 7.41850948   7.868701367E-19
 7.54530191   7.868940733E-19
 7.67209482   7.869089625E-19
 7.79888725   7.869157868E-19
 7.92567968   7.86916097E-19
 8.05247211   7.869127366E-19
 8.17926502   7.869084973E-19
 8.30605793   7.869071014E-19
 8.43285084   7.869101516E-19
 8.55964279   7.869197676E-19
 8.6864357   7.869367765E-19
 8.81322861   7.869600409E-19
 8.94002151   7.869889923E-19
 9.06681347   7.870224414E-19
 9.19360638   7.87056666E-19
 9.32039928   7.87090477E-19
 9.44719219   7.871217031E-19
 9.57398415   7.871488966E-19
 9.70077705   7.871708686E-19
 9.82756996   7.871878775E-19
 9.95436192   7.87199975E-19
 10.0811548   7.872086087E-19
 10.2079477   7.872156915E-19
 10.3347406   7.872216885E-19
 10.4615326   7.872301154E-19
 10.5883255   7.872412307E-19
 10.7151184   7.872563267E-19
 10.8419113   7.872763858E-19
 10.9687033   7.873009428E-19
 11.0954962   7.873295322E-19
 11.2222891   7.873607066E-19
 11.349082   7.87392553E-19
 11.4758739   7.874240376E-19
 11.6026669   7.87453144E-19
 11.7294598   7.874781662E-19
 11.8562517   7.87498277E-19
 11.9830446   7.875119255E-19
 12.1098375   7.875195252E-19
 12.2366304   7.875222136E-19
 12.3634224   7.875200939E-19
 12.4902153   7.875156995E-19
 12.6170082   7.875113051E-19
 12.7438011   7.875084617E-19
 12.8705931   7.875092372E-19
 12.997386   7.875159063E-19
 13.1241789   7.875281072E-19
 13.2509708   7.875468739E-19
 13.3777637   7.875714308E-19
 13.5045567   7.876012093E-19
 13.6313496   7.876349169E-19
 13.7581415   7.876707959E-19
 13.8849344   7.877067782E-19
 14.0117273   7.877411062E-19
 14.1385202   7.877717636E-19
 14.2653122   7.877972511E-19
 14.3921051   7.878168967E-19
 14.518898   7.878304417E-19
 14.6456909   7.878383517E-19
 14.7724829   7.878406781E-19
 14.8992758   7.878382483E-19
 15.0260687   7.878335437E-19
 15.1528606   7.87827133E-19
 15.2796535   7.87821136E-19
 15.4064465   7.878160695E-19
 15.5332394   7.878130709E-19
 15.6600313   7.878123472E-19
 15.7868242   7.878131226E-19
 15.9136171   7.878139498E-19
 16.0404091   7.878131743E-19
 16.167202   7.878084181E-19
 16.2939949   7.877969409E-19
 16.4207878   7.877768818E-19
 16.5475807   7.877456557E-19
 16.6743736   7.877025389E-19
 16.8011646   7.876477382E-19
 16.9279575   7.875815121E-19
 17.0547504   7.875059284E-19
 17.1815434   7.87424141E-19
 17.3083363   7.87338838E-19
 17.4351292   7.872530697E-19
 17.5619221   7.871684905E-19
 17.688715   7.870871683E-19
 17.815506   7.870098786E-19
 17.9422989   7.869356908E-19
 18.0690918   7.868630023E-19
 18.1958847   7.867888663E-19
 18.3226776   7.867109045E-19
 18.4494705   7.866252396E-19
 18.5762634   7.865286146E-19
 18.7030544   7.864180308E-19
 18.8298473   7.862933851E-19
 18.9566402   7.861534881E-19
 19.0834332   7.860007699E-19
 19.2102261   7.858374018E-19
 19.337019   7.856652965E-19
 19.4638119   7.85489624E-19
 19.5906048   7.853132794E-19
 19.7173958   7.851402436E-19
 19.8441887   7.849727912E-19
 19.9709816   7.848136107E-19
 20.0977745   7.846629087E-19
 20.2245674   7.845209955E-19
 20.3513603   7.843870439E-19
 20.4781532   7.842590894E-19
 20.6049442   7.841357361E-19
 20.7317371   7.840146576E-19
 20.85853   7.8389513E-19
 20.985323   7.837752405E-19
 21.1121159   7.836558163E-19
 21.2389088   7.835367023E-19
 21.3657017   7.834188807E-19
 21.4924946   7.83302817E-19
 21.6192856   7.83189183E-19
 21.7460785   7.830796333E-19
 21.8728714   7.829734957E-19
 21.9996643   7.828702532E-19
 22.1264572   7.827688202E-19
 22.2532501   7.826662498E-19
 22.380043   7.82560319E-19
 22.506834   7.824465299E-19
 22.6336269   7.823213672E-19
 22.7604198   7.821805914E-19
 22.8872128   7.820199115E-19
 23.0140057   7.818355536E-19
 23.1407986   7.816252947E-19
 23.2675915   7.813880489E-19
 23.3943844   7.81122007E-19
 23.5211754   7.808291333E-19
 23.6479683   7.805100484E-19
 23.7747612   7.801675956E-19
 23.9015541   7.798044634E-19
 24.028347   7.794230814E-19
 24.1551399   7.790258279E-19
 24.2819328   7.786139954E-19
 24.4087238   7.7818686E-19
 24.5355167   7.777441632E-19
 24.6623096   7.772827516E-19
 24.7891026   7.767994713E-19
 24.9158955   7.762908586E-19
 25.0426884   7.757525191E-19
 25.1694813   7.751822815E-19
 25.2962742   7.745777159E-19
 25.4230652   7.739382018E-19
 25.5498581   7.732646183E-19
 25.676651   7.725585163E-19
 25.8034439   7.718237731E-19
 25.9302368   7.710635941E-19
 26.0570297   7.702817016E-19
 26.1838226   7.694813527E-19
 26.3106136   7.686651839E-19
 26.4374065   7.678340742E-19
 26.5641994   7.669865243E-19
 26.6909924   7.661212417E-19
 26.8177853   7.652349693E-19
 26.9445782   7.643242952E-19
 27.0713711   7.633849799E-19
 27.198164   7.624143868E-19
 27.324955   7.614103447E-19
 27.4517479   7.603723364E-19
 27.5785408   7.592997933E-19
 27.7053337   7.581947317E-19
 27.8321266   7.570604603E-19
 27.9589195   7.559013735E-19
 28.0857124   7.547220724E-19
 28.2125034   7.535281406E-19
 28.3392963   7.523242309E-19
 28.4660892   7.511153582E-19
 28.5928822   7.499049861E-19
 28.7196751   7.48695493E-19
 28.846468   7.474877576E-19
 28.9732609   7.462821419E-19
 29.1000538   7.450771465E-19
 29.2268448   7.438712723E-19
 29.3536377   7.426617274E-19
 29.4804306   7.414467542E-19
 29.6072235   7.402242329E-19
 29.7340164   7.389927678E-19
 29.8608093   7.377518418E-19
 29.9876022   7.365021787E-19
 30.1143932   7.352449158E-19
 30.2411861   7.339820695E-19
 30.367979   7.327164832E-19
 30.494772   7.314506901E-19
 30.6215649   7.301872751E-19
 30.7483578   7.289273239E-19
 30.8751507   7.276715603E-19
 31.0019417   7.264192089E-19
 31.1287346   7.25168305E-19
 31.2555275   7.239162121E-19
 31.3823204   7.226583805E-19
 31.5091133   7.213911398E-19
 31.6359062   7.201103024E-19
 31.7626991   7.188136451E-19
 31.889492   7.174984279E-19
 32.0162849   7.161646508E-19
 32.1430779   7.14811952E-19
 32.2698708   7.134426579E-19
 32.3966637   7.120590433E-19
 32.5234528   7.106651405E-19
 32.6502457   7.092638449E-19
 32.7770386   7.078586201E-19
 32.9038315   7.064517927E-19
 33.0306244   7.050457924E-19
 33.1574173   7.036407745E-19
 33.2842102   7.022364286E-19
 33.4110031   7.008329616E-19
 33.537796   6.99428564E-19
 33.6645889   6.980225121E-19
 33.7913818   6.966153227E-19
 33.9181747   6.952076164E-19
 34.0449677   6.938019781E-19
 34.1717606   6.924020266E-19
 34.2985535   6.910113292E-19
 34.4253426   6.896358829E-19
 34.5521355   6.882810645E-19
 34.6789284   6.869527675E-19
 34.8057213   6.856552313E-19
 34.9325142   6.84391868E-19
 35.0593071   6.831644871E-19
 35.1861   6.819736055E-19
 35.3128929   6.808179825E-19
 35.4396858   6.796938957E-19
 35.5664787   6.785978297E-19
 35.6932716   6.775244595E-19
 35.8200645   6.764677363E-19
 35.9468575   6.754234207E-19
 36.0736504   6.743881008E-19
 36.2004433   6.733581575E-19
 36.3272324   6.723327121E-19
 36.4540253   6.713113508E-19
 36.5808182   6.702960383E-19
 36.7076111   6.692883772E-19
 36.834404   6.682915729E-19
 36.9611969   6.673083653E-19
 37.0879898   6.663418565E-19
 37.2147827   6.653949415E-19
 37.3415756   6.644690679E-19
 37.4683685   6.635659418E-19
 37.5951614   6.62686959E-19
 37.7219543   6.618317059E-19
 37.8487473   6.609989418E-19
 37.9755402   6.601885116E-19
 38.1023293   6.593972617E-19
 38.2291222   6.586237961E-19
 38.3559151   6.578654783E-19
 38.482708   6.571213259E-19
 38.6095009   6.56390822E-19
 38.7362938   6.55673036E-19
 38.8630867   6.549684333E-19
 38.9898796   6.542773756E-19
 39.1166725   6.536007418E-19
 39.2434654   6.52939566E-19
 39.3702583   6.522950372E-19
 39.4970512   6.516673622E-19
 39.6238441   6.510568512E-19
 39.7506371   6.504622635E-19
 39.87743   6.498822548E-19
 40.0042191   6.493142919E-19
 40.131012   6.487548593E-19
 40.2578049   6.482002347E-19
 40.3845978   6.476467475E-19
 40.5113907   6.470900032E-19
 40.6381836   6.465277272E-19
 40.7649765   6.45957076E-19
 40.8917694   6.453781012E-19
 41.0185623   6.44790286E-19
 41.1453552   6.441959567E-19
 41.2721481   6.435970263E-19
 41.398941   6.429963381E-19
 41.5257339   6.423974593E-19
 41.6525269   6.4180313E-19
 41.7793198   6.412155216E-19
 41.9061089   6.406369088E-19
 42.0329018   6.400690493E-19
 42.1596947   6.395121499E-19
 42.2864876   6.389673481E-19
 42.4132805   6.384347989E-19
 42.5400734   6.379128479E-19
 42.6668663   6.374010299E-19
 42.7936592   6.368990347E-19
 42.9204521   6.364066037E-19
 43.047245   6.359238921E-19
 43.1740379   6.354519339E-19
 43.3008308   6.349926419E-19
 43.4276237   6.345472051E-19
 43.5544167   6.341174331E-19
 43.6812096   6.337038945E-19
 43.8079987   6.333071063E-19
 43.9347916   6.329264481E-19
 44.0615845   6.325600071E-19
 44.1883774   6.322042677E-19
 44.3151703   6.318566451E-19
 44.4419632   6.315125379E-19
 44.5687561   6.311670866E-19
 44.695549   6.308164654E-19
 44.8223419   6.304561766E-19
 44.9491348   6.300826011E-19
 45.0759277   6.296921202E-19
 45.2027206   6.29283493E-19
 45.3295135   6.2885491E-19
 45.4563065   6.284066815E-19
 45.5830994   6.279392211E-19
 45.7098885   6.274530974E-19
 45.8366814   6.269491893E-19
 45.9634743   6.264301851E-19
 46.0902672   6.258968604E-19
 46.2170601   6.253501458E-19
 46.343853   6.247914886E-19
 46.4706459   6.24221768E-19
 46.5974388   6.236427933E-19
 46.7242317   6.230546162E-19
 46.8510246   6.224582189E-19
 46.9778175   6.218539635E-19
 47.1046104   6.212425219E-19
 47.2314034   6.206240493E-19
 47.3581963   6.199990627E-19
 47.4849892   6.193680273E-19
 47.6117783   6.187318737E-19
 47.7385712   6.180933936E-19
 47.8653641   6.174563095E-19
 47.992157   6.168239816E-19
 48.1189499   6.162016316E-19
 48.2457428   6.155935504E-19
 48.3725357   6.150035639E-19
 48.4993286   6.14436118E-19
 48.6261215   6.138922467E-19
 48.7529144   6.133730875E-19
 48.8797073   6.128775029E-19
 49.0065002   6.124015121E-19
 49.1332932   6.119408242E-19
 49.2600861   6.114891319E-19
 49.386879   6.110388872E-19
 49.5136681   6.105841963E-19
 49.640461   6.101194242E-19
 49.7672539   6.096397112E-19
 49.8940468   6.091434545E-19
 50.0208397   6.086288448E-19
 50.1476326   6.080982084E-19
 50.2744255   6.075542338E-19
 50.4012184   6.069994024E-19
 50.5280113   6.064375399E-19
 50.6548042   6.058709212E-19
 50.7815971   6.053013557E-19
 50.90839   6.047300323E-19
 51.035183   6.041565377E-19
 51.1619759   6.035806132E-19
 51.2887688   6.029994671E-19
 51.4155579   6.024121172E-19
 51.5423508   6.018182015E-19
 51.6691437   6.012161174E-19
 51.7959366   6.00607054E-19
 51.9227295   5.999929241E-19
 52.0495224   5.993770881E-19
 52.1763153   5.987634235E-19
 52.3031082   5.981576688E-19
 52.4299011   5.975646837E-19
 52.556694   5.969905169E-19
 52.6834869   5.964389426E-19
 52.8102798   5.959134244E-19
 52.9370728   5.954149447E-19
 53.0638657   5.949412287E-19
 53.1906586   5.944878303E-19
 53.3174477   5.940483906E-19
 53.4442406   5.936138106E-19
 53.5710335   5.93173492E-19
 53.6978264   5.927172502E-19
 53.8246193   5.922342284E-19
 53.9514122   5.91714759E-19
 54.0782051   5.911509837E-19
 54.204998   5.90537681E-19
 54.3317909   5.8987087E-19
 54.4585838   5.891500855E-19
 54.5853767   5.883783777E-19
 54.7121696   5.875609682E-19
 54.8389626   5.867060253E-19
 54.9657555   5.85824561E-19
 55.0925484   5.849307923E-19
 55.2193375   5.840426071E-19
 55.3461304   5.831797026E-19
 55.4729233   5.823654984E-19
 55.5997162   5.816256371E-19
 55.7265091   5.809891733E-19
 55.853302   5.804855237E-19
 55.9800949   5.801455008E-19
 56.1068878   5.799964532E-19
 56.2336807   5.800640752E-19
 56.3604736   5.80366358E-19
 56.4872665   5.809122455E-19
 56.6140594   5.816983773E-19
 56.7408524   5.82706607E-19
 56.8676453   5.839013143E-19
 56.9944382   5.852294045E-19
 57.1212273   5.866199468E-19
 57.2480202   5.879812793E-19
 57.3748131   5.892075229E-19
 57.501606   5.901773921E-19
 57.6283989   5.907622605E-19
 57.7551918   5.908276078E-19
 57.8819847   5.902434632E-19
 58.0087776   5.888900406E-19
 58.1355705   5.866682335E-19
 58.2623634   5.835080416E-19
 58.3891563   5.793782907E-19
 58.5159492   5.742937149E-19
 58.6427422   5.683247279E-19
 58.7695351   5.616018692E-19
 58.896328   5.54321439E-19
 59.0231171   5.467432755E-19
 59.14991   5.391904445E-19
 59.2767029   5.320414326E-19
 59.4034958   5.257183606E-19
 59.5302887   5.206747819E-19
 59.6570816   5.173731422E-19
 59.7838745   5.162644617E-19
 59.9106674   5.177593322E-19
 60.0374603   5.22201137E-19
 60.1642532   5.298356004E-19
 60.2910461   5.407828188E-19
 60.4178391   5.550103771E-19
 60.544632   5.723082229E-19
 60.6714249   5.922748637E-19
 60.7982178   6.143024249E-19
 60.9250069   6.37578305E-19
 61.0517998   6.610915343E-19
 61.1785927   6.836547984E-19
 61.3053856   7.039370085E-19
 61.4321785   7.205095204E-19
 61.5589714   7.31903313E-19
 61.6857643   7.366795055E-19
 61.8125572   7.3350794E-19
 61.9393501   7.212540864E-19
 62.066143   6.990671895E-19
 62.1929359   6.664671227E-19
 62.3197289   6.234295358E-19
 62.4465218   5.704558554E-19
 62.5733147   5.086278269E-19
 62.7001076   4.396432385E-19
 62.8268967   3.658208844E-19
 62.9536896   2.900757231E-19
 63.0804825   2.158607037E-19
 63.2072754   1.470720408E-19
 63.3340683   8.791462958E-20
 63.4608612   4.273589214E-20
 63.5876541   1.582528667E-20
 63.714447   1.11898586E-20
 63.8412399   3.230903818E-20
 63.9680328   8.188534241E-20
 64.0948257   1.61596363E-19
 64.2216187   2.718636875E-19
 64.3484116   4.116568491E-19
 64.4752045   5.783373873E-19
 64.6019974   7.675684975E-19
 64.7287903   9.732946231E-19
 64.8555832   1.1878052E-18
 64.9823761   1.401892674E-18
 65.109169   1.60510355E-18
 65.2359619   1.786089324E-18
 65.3627548   1.933048093E-18
 65.4895477   2.034246196E-18
 65.616333   2.078606238E-18
 65.7431259   2.056343292E-18
 65.8699188   1.9596161E-18
 65.9967117   1.783167929E-18
 66.1235046   1.524923796E-18
 66.2502975   1.186503735E-18
 66.3770905   7.736219604E-19
 66.5038834   2.963324397E-19
 66.6306763   -2.309091741E-19
 66.7574692   -7.893950539E-19
 66.8842621   -1.356542807E-18
 67.011055   -1.906512346E-18
 67.1378479   -2.411062948E-18
 67.2646408   -2.840630868E-18
 67.3914337   -3.165610071E-18
 67.5182266   -3.357788323E-18
 67.6450195   -3.391891118E-18
 67.7718124   -3.247167805E-18
 67.8986053   -2.908946681E-18
 68.0253983   -2.370074907E-18
 68.1521912   -1.63216342E-18
 68.2789841   -7.065459879E-19
 68.405777   3.851259099E-19
 68.5325699   1.610723002E-18
 68.6593628   2.927978038E-18
 68.7861557   4.285357642E-18
 68.9129486   5.623491028E-18
 69.0397415   6.87714818E-18
 69.1665344   7.977728529E-18
 69.2933273   8.856198475E-18
 69.4201126   9.44638357E-18
 69.5469055   9.688489409E-18
 69.6736984   9.532704003E-18
 69.8004913   8.94272074E-18
 69.9272842   7.898980107E-18
 70.0540771   6.401462252E-18
 70.1808701   4.471825245E-18
 70.307663   2.154724432E-18
 70.4344559   -4.818604174E-19
 70.5612488   -3.347390042E-18
 70.6880417   -6.330719285E-18
 70.8148346   -9.303270571E-18
 70.9416275   -1.212339315E-17
 71.0684204   -1.464183469E-17
 71.1952133   -1.670816329E-17
 71.3220062   -1.817792593E-17
 71.4487991   -1.892027255E-17
 71.575592   -1.882572415E-17
 71.7023849   -1.781370011E-17
 71.8291779   -1.583943505E-17
 71.9559708   -1.289985436E-17
 72.0827637   -9.038033453E-18
 72.2095566   -4.345861355E-18
 72.3363495   1.035409063E-18
 72.4631424   6.916966173E-18
 72.5899353   1.306674383E-17
 72.7167282   1.921629568E-17
 72.8435211   2.507012714E-17
 72.970314   3.031732089E-17
 73.0971069   3.464507691E-17
 73.2238922   3.775374738E-17
 73.3506851   3.937269866E-17
 73.477478   3.927643138E-17
 73.6042709   3.730006198E-17
 73.7310638   3.335342777E-17
 73.8578568   2.743297021E-17
 73.9846497   1.963059074E-17
 74.1114426   1.013874863E-17
 74.2382355   -7.48848418E-19
 74.3650284   -1.264139102E-17
 74.4918213   -2.506025391E-17
 74.6186142   -3.745344112E-17
 74.7454071   -4.921508585E-17
 74.8722   -5.970942371E-17
 74.9989929   -6.829862235E-17
 75.1257858   -7.437341691E-17
 75.2525787   -7.738545284E-17
 75.3793716   -7.687975432E-17
 75.5061646   -7.252595203E-17
 75.6329575   -6.414653301E-17
 75.7597504   -5.174047819E-17
 75.8865433   -3.550078864E-17
 76.0133362   -1.582423974E-17
 76.1401291   6.687415695E-18
 76.266922   3.123616304E-17
 76.3937149   5.684660455E-17
 76.5205078   8.239501745E-17
 76.6473007   1.066483434E-16
 76.7740936   1.283121243E-16
 76.9008865   1.460858136E-16
 77.0276718   1.587237702E-16
 77.1544647   1.650993475E-16
 77.2812576   1.642695199E-16
 77.4080505   1.555368088E-16
 77.5348434   1.385056893E-16
 77.6616364   1.131299587E-16
 77.7884293   7.974825786E-17
 77.9152222   3.910492706E-17
 78.0420151   -7.646106031E-18
 78.168808   -5.895605408E-17
 78.2956009   -1.129156858E-16
 78.4223938   -1.673095079E-16
 78.5491867   -2.196889666E-16
 78.6759796   -2.674629615E-16
 78.8027725   -3.080030701E-16
 78.9295654   -3.38759657E-16
 79.0563583   -3.573849851E-16
 79.1831512   -3.618576367E-16
 79.3099442   -3.506032687E-16
 79.4367371   -3.226054417E-16
 79.56353   -2.775006461E-16
 79.6903229   -2.156523517E-16
 79.8171158   -1.381984678E-16
 79.9439087   -4.706796321E-17
 80.0707016   5.503654477E-17
 80.1974945   1.646922158E-16
 80.3242874   2.778457591E-16
 80.4510803   3.899391347E-16
 80.5778732   4.960673337E-16
 80.7046585   5.911645168E-16
 80.8314514   6.702123843E-16
 80.9582443   7.284623107E-16
 81.0850372   7.616636729E-16
 81.2118301   7.662877846E-16
 81.338623   7.397371662E-16
 81.465416   6.805304632E-16
 81.5922089   5.884517879E-16
 81.7190018   4.646564404E-16
 81.8457947   3.117247741E-16
 81.9725876   1.336573522E-16
 82.0993805   -6.419190883E-17
 82.2261734   -2.752459767E-16
 82.3529663   -4.918974964E-16
 82.4797592   -7.057599748E-16
 82.6065521   -9.079698739E-16
 82.733345   -1.089530539E-15
 82.8601379   -1.24168455E-15
 82.9869308   -1.356301872E-15
 83.1137238   -1.426264676E-15
 83.2405167   -1.445835901E-15
 83.3673096   -1.410989178E-15
 83.4941025   -1.319688555E-15
 83.6208954   -1.172096664E-15
 83.7476883   -9.707030398E-16
 83.8744812   -7.203568407E-16
 84.0012741   -4.282013334E-16
 84.128067   -1.035011661E-16
 84.2548599   2.426301525E-16
 84.3816528   5.976018613E-16
 84.5084381   9.4780361E-16
 84.635231   1.279134735E-15
 84.7620239   1.577585947E-15
 84.8888168   1.829849511E-15
 85.0156097   2.02393377E-15
 85.1424026   2.149753315E-15
 85.2691956   2.199667061E-15
 85.3959885   2.168936705E-15
 85.5227814   2.056078459E-15
 85.6495743   1.863090049E-15
 85.7763672   1.59552727E-15
 85.9031601   1.262424469E-15
 86.029953   8.760492255E-16
 86.1567459   4.514923837E-16
 86.2835388   6.104041191E-18
 86.4103317   -4.41208292E-16
 86.5371246   -8.708000035E-16
 86.6639175   -1.263187963E-15
 86.7907104   -1.600000556E-15
 86.9175034   -1.864929592E-15
 87.0442963   -2.044642667E-15
 87.1710892   -2.129607271E-15
 87.2978821   -2.114787795E-15
 87.424675   -2.000161367E-15
 87.5514679   -1.79102385E-15
 87.6782608   -1.498052624E-15
 87.8050537   -1.137103509E-15
 87.9318466   -7.287345788E-16
 88.0586395   -2.974528248E-16
 88.1854324   1.292975942E-16
 88.3122177   5.223754888E-16
 88.4390106   8.523799486E-16
 88.5658035   1.091220264E-15
 88.6925964   1.21376105E-15
 88.8193893   1.199469381E-15
 88.9461823   1.033980848E-15
 89.0729752   7.105053181E-16
 89.1997681   2.309889817E-16
 89.326561   -3.930450722E-16
 89.4533539   -1.140053513E-15
 89.5801468   -1.978469912E-15
 89.7069397   -2.867210762E-15
 89.8337326   -3.756692342E-15
 89.9605255   -4.590375202E-15
 90.0873184   -5.30681388E-15
 90.2141113   -5.842165385E-15
 90.3409042   -6.133089438E-15
 90.4676971   -6.119949416E-15
 90.5944901   -5.750187771E-15
 90.721283   -4.981766258E-15
 90.8480759   -3.786487572E-15
 90.9748688   -2.15306966E-15
 91.1016617   -8.979255322E-17
 91.2284546   2.373441375E-15
 91.3552475   5.183782768E-15
 91.4820404   8.264971417E-15
 91.6088333   1.151786593E-14
 91.7356262   1.482201779E-14
 91.8624191   1.803837129E-14
 91.989212   2.101302903E-14
 92.1159973   2.358211215E-14
 92.2427902   2.557754389E-14
 92.3695831   2.68336802E-14
 92.496376   2.719454165E-14
 92.6231689   2.6521452E-14
 92.7499619   2.470077162E-14
 92.8767548   2.16514547E-14
 93.0035477   1.733209828E-14
 93.1303406   1.174710269E-14
 93.2571335   4.951672447E-15
 93.3839264   -2.944686959E-15
 93.5107193   -1.177649473E-14
 93.6375122   -2.132262974E-14
 93.7643051   -3.130890932E-14
 93.891098   -4.141298917E-14
 94.0178909   -5.127164969E-14
 94.1446838   -6.049037681E-14
 94.2714767   -6.865514423E-14
 94.3982697   -7.534606077E-14
 94.5250626   -8.015262716E-14
 94.6518555   -8.269008037E-14
 94.7786484   -8.261638173E-14
 94.9054413   -7.964920498E-14
 95.0322342   -7.358228068E-14
 95.1590271   -6.430050042E-14
 95.28582   -5.17929307E-14
 95.4126129   -3.616330258E-14
 95.5394058   -1.76371267E-14
 95.6661987   3.435008922E-15
 95.7929916   2.657838447E-14
 95.9197769   5.119975692E-14
 96.0465698   7.659778573E-14
 96.1733627   1.019782606E-13
 96.3001556   1.264740401E-13
 96.4269485   1.491692918E-13
 96.5537415   1.691276107E-13
 96.6805344   1.854231558E-13
 96.8073273   1.971740913E-13
 96.9341202   2.035771047E-13
 97.0609131   2.039420065E-13
 97.187706   1.977251641E-13
 97.3144989   1.845602799E-13
 97.4412918   1.642854689E-13
 97.5680847   1.369651192E-13
 97.6948776   1.029056533E-13
 97.8216705   6.266385658E-14
 97.9484634   1.704720891E-14
 98.0752563   -3.289456855E-14
 98.2020493   -8.588702666E-14
 98.3288422   -1.404575241E-13
 98.4556351   -1.949705452E-13
 98.582428   -2.476711869E-13
 98.7092209   -2.967357263E-13
 98.8360138   -3.403280804E-13
 98.9628067   -3.766605625E-13
 99.0895996   -4.040569149E-13
 99.2163925   -4.210158426E-13
 99.3431854   -4.262725698E-13
 99.4699783   -4.188562745E-13
 99.5967712   -3.981411826E-13
 99.7235565   -3.638890675E-13
 99.8503494   -3.162811538E-13
 99.9771423   -2.559377948E-13
 100.103935   -1.839241921E-13
 100.230728   -1.017418097E-13
 100.357521   -1.130409006E-14
 100.484314   8.51026606E-14
 100.611107   1.848733975E-13
 100.7379   2.851518934E-13
 100.864693   3.829103376E-13
 100.991486   4.750390619E-13
 101.118279   5.584429403E-13
 101.245071   6.301426395E-13
 101.371864   6.873765337E-13
 101.498657   7.277001267E-13
 101.62545   7.490794009E-13
 101.752243   7.499747351E-13
 101.879036   7.294117025E-13
 102.005829   6.8703604E-13
 102.132622   6.231504028E-13
 102.259415   5.387299222E-13
 102.386208   4.354167038E-13
 102.513   3.154914752E-13
 102.639793   1.818226288E-13
 102.766586   3.779456945E-14
 102.893379   -1.127842462E-13
 103.020172   -2.657896418E-13
 103.146965   -4.169045751E-13
 103.273758   -5.617511664E-13
 103.400551   -6.960285755E-13
 103.527336   -8.156521248E-13
 103.654129   -9.168874427E-13
 103.780922   -9.964765558E-13
 103.907715   -1.051750158E-12
 104.034508   -1.080721341E-12
 104.161301   -1.082158885E-12
 104.288094   -1.055633987E-12
 104.414886   -1.00154249E-12
 104.541679   -9.21096424E-13
 104.668472   -8.162891478E-13
 104.795265   -6.898322517E-13
 104.922058   -5.450671381E-13
 105.048851   -3.858538922E-13
 105.175644   -2.164426407E-13
 105.302437   -4.133027471E-14
 105.42923   1.348909455E-13
 105.556023   3.076869543E-13
 105.682816   4.727322049E-13
 105.809608   6.260506978E-13
 105.936401   7.641415712E-13
 106.063194   8.840844723E-13
 106.189987   9.836206285E-13
 106.31678   1.061205702E-12
 106.443573   1.116032288E-12
 106.570366   1.148021348E-12
 106.697159   1.157782962E-12
 106.823952   1.146548026E-12
 106.950745   1.116074138E-12
 107.077538   1.06852938E-12
 107.20433   1.006360685E-12
 107.331116   9.321519251E-13
 107.457909   8.48479544E-13
 107.584702   7.577721545E-13
 107.711494   6.621810305E-13
 107.838287   5.634701148E-13
 107.96508   4.629300957E-13
 108.091873   3.613221918E-13
 108.218666   2.588555997E-13
 108.345459   1.552015352E-13
 108.472252   4.95434382E-14
 108.599045   -5.933610808E-14
 108.725838   -1.72936684E-13
 108.852631   -2.928925277E-13
 108.979424   -4.208039624E-13
 109.106216   -5.580540912E-13
 109.233009   -7.056217047E-13
 109.359802   -8.638981457E-13
 109.486595   -1.032520098E-12
 109.613388   -1.210227123E-12
 109.740181   -1.394753453E-12
 109.866974   -1.582763868E-12
 109.993767   -1.769838833E-12
 110.12056   -1.95051527E-12
 110.247353   -2.118384461E-12
 110.374146   -2.266249905E-12
 110.500938   -2.386339173E-12
 110.627731   -2.470568238E-12
 110.754524   -2.510846999E-12
 110.881317   -2.499419508E-12
 111.008102   -2.429222839E-12
 111.134895   -2.294252678E-12
 111.261688   -2.0899196E-12
 111.388481   -1.813380826E-12
 111.515274   -1.46382895E-12
 111.642067   -1.042726452E-12
 111.76886   -5.539691969E-13
 111.895653   -3.969223496E-15
 112.022446   5.983515549E-13
 112.149239   1.241664866E-12
 112.276031   1.912433536E-12
 112.402824   2.595205301E-12
 112.529617   3.272993855E-12
 112.65641   3.927737042E-12
 112.783203   4.540818242E-12
 112.909996   5.093634715E-12
 113.036789   5.568189573E-12
 113.163582   5.947687655E-12
 113.290375   6.217116232E-12
 113.417168   6.363773657E-12
 113.543961   6.377744253E-12
 113.670753   6.252278209E-12
 113.797546   5.984077383E-12
 113.924339   5.57345706E-12
 114.051132   5.024390626E-12
 114.177925   4.344420223E-12
 114.304718   3.544441433E-12
 114.431511   2.638373678E-12
 114.558304   1.64271602E-12
 114.685097   5.760250133E-13
 114.811882   -5.416793858E-13
 114.938675   -1.68954488E-12
 115.065468   -2.846526183E-12
 115.192261   -3.992006378E-12
 115.319054   -5.106365851E-12
 115.445847   -6.171479126E-12
 115.572639   -7.171102254E-12
 115.699432   -8.091140605E-12
 115.826225   -8.919780713E-12
 115.953018   -9.647475527E-12
 116.079811   -1.026679349E-11
 116.206604   -1.077211844E-11
 116.333397   -1.115924107E-11
 116.46019   -1.142485759E-11
 116.586983   -1.156599035E-11
 116.713776   -1.157940931E-11
 116.840569   -1.146103785E-11
 116.967361   -1.12054541E-11
 117.094154   -1.08054659E-11
 117.220947   -1.025185666E-11
 117.34774   -9.533309038E-12
 117.474533   -8.636557615E-12
 117.601326   -7.546775704E-12
 117.728119   -6.248225461E-12
 117.854912   -4.725169474E-12
 117.981705   -2.963013298E-12
 118.108498   -9.496693796E-13
 118.235291   1.322890365E-12
 118.362083   3.856987212E-12
 118.488876   6.647525846E-12
 118.615662   9.680318179E-12
 118.742455   1.293052471E-11
 118.869247   1.636130294E-11
 118.99604   1.992275268E-11
 119.122833   2.355127204E-11
 119.249626   2.716936398E-11
 119.376419   3.068601623E-11
 119.503212   3.399768661E-11
 119.630005   3.698989726E-11
 119.756798   3.953953484E-11
 119.883591   4.151776839E-11
 120.010384   4.2793602E-11
 120.137177   4.323793754E-11
 120.263969   4.272815782E-11
 120.390762   4.115296992E-11
 120.517555   3.841751223E-11
 120.644348   3.44484441E-11
 120.771141   2.919891065E-11
 120.897934   2.265315366E-11
 121.024727   1.483059682E-11
 121.15152   5.789213293E-12
 121.278313   -4.37203225E-12
 121.405106   -1.551179324E-11
 121.531898   -2.744619636E-11
 121.658691   -3.994999123E-11
 121.785484   -5.275910958E-11
 121.912277   -6.557467069E-11