 -4.5   1.044406348E-17
 -4.37320757   1.044408168E-17
 -4.24641466   1.044411145E-17
 -4.11962223   1.044414371E-17
 -3.99282932   1.044416936E-17
 -3.86603665   1.044462596E-17
 -3.73924398   1.044678656E-17
 -3.61245155   1.044977351E-17
 -3.48565888   1.04423264E-17
 -3.35886621   1.040090119E-17
 -3.23207355   1.032533163E-17
 -3.10528088   1.034147075E-17
 -2.97848821   1.084647857E-17
 -2.85169554   1.256974891E-17
 -2.72490287   1.633181927E-17
 -2.5981102   2.230656634E-17
 -2.47131753   2.881838359E-17
 -2.34452486   3.114825359E-17
 -2.21773219   2.135311827E-17
 -2.09093952   -9.594673893E-18
 -1.96414697   -6.645113099E-17
 -1.8373543   -1.417944271E-16
 -1.71056163   -2.088903156E-16
 -1.58376896   -2.213142111E-16
 -1.45697629   -1.258176784E-16
 -1.33018374   1.090581786E-16
 -1.20339108   4.551941824E-16
 -1.07659841   7.957105857E-16
 -0.949805737   9.289257867E-16
 -0.823013067   6.248586404E-16
 -0.696220458   -2.666134669E-16
 -0.569427788   -1.687075226E-15
 -0.442635119   -3.277918403E-15
 -0.315842479   -4.38917269E-15
 -0.189049825   -4.227607085E-15
 -6.225717068E-2   -2.131832427E-15
 6.453548372E-2   2.096253443E-15
 0.191328138   7.914453089E-15
 0.318120778   1.393098232E-14
 0.444913447   1.803820697E-14
 0.571706116   1.780026694E-14
 0.698498726   1.103720946E-14
 0.825291395   -3.50546491E-15
 0.952084064   -2.554481454E-14
 1.07887673   -5.286117477E-14
 1.2056694   -8.126045816E-14
 1.33246195   -1.050154362E-13
 1.45925462   -1.178324609E-13
 1.58604729   -1.142711143E-13
 1.71283996   -9.139053853E-14
 1.83963263   -5.02507412E-14
 1.9664253   3.17703445E-15
 2.09321785   5.808626692E-14
 2.22001052   1.001012424E-13
 2.34680319   1.136489178E-13
 2.47359586   8.50606952E-14
 2.60038853   5.837315698E-15
 2.7271812   -1.245143447E-13
 2.85397387   -2.965299176E-13
 2.98076653   -4.899728084E-13
 3.1075592   -6.742475502E-13
 3.23435187   -8.101082197E-13
 3.36114454   -8.528302305E-13
 3.48793697   -7.571295479E-13
 3.61472964   -4.840590819E-13
 3.74152231   -9.759775351E-15
 3.86831498   6.647489633E-13
 3.99510765   1.504381255E-12
 4.12190056   2.433704713E-12
 4.24869299   3.336009637E-12
 4.37548542   4.059548704E-12
 4.50227833   4.431434386E-12
 4.62907076   4.277934344E-12
 4.75586367   3.448262943E-12
 4.8826561   1.837929765E-12
 5.00944901   -5.924045976E-13
 5.13624144   -3.805830651E-12
 5.26303434   -7.687754947E-12
 5.38982677   -1.205444598E-11
 5.51661968   -1.667076373E-11
 5.64341211   -2.127533566E-11
 5.77020502   -2.561101504E-11
 5.89699745   -2.945781813E-11
 6.02379036   -3.266470081E-11
 6.15058279   -3.517556385E-11
 6.27737522   -3.704395818E-11
 6.40416813   -3.843142818E-11
 6.53096056   -3.958636197E-11
 6.65775347   -4.080429744E-11
 6.7845459   -4.237618936E-11
 6.91133881   -4.453662092E-11
 7.03813124   -4.74275931E-11
 7.16492414   -5.10936779E-11
 7.29171658   -5.551999485E-11
 7.41850948   -6.071706332E-11
 7.54530191   -6.684732629E-11
 7.67209482   -7.438144545E-11
 7.79888725   -8.42700007E-11
 7.92567968   -9.812118479E-11
 8.05247211   -1.183853848E-10
 8.17926502   -1.485600393E-10
 8.30605793   -1.934398752E-10
 8.43285084   -2.594377491E-10
 8.55964279   -3.549912031E-10
 8.6864357   -4.910404305E-10
 8.81322861   -6.815223386E-10
 8.94002151   -9.437682857E-10
 9.06681347   -1.298640528E-9
 9.19360638   -1.770190661E-9
 9.32039928   -2.384596076E-9
 9.44719219   -3.16812665E-9
 9.57398415   -4.143935861E-9
 9.70077705   -5.327540187E-9
 9.82756996   -6.72098377E-9
 9.95436192   -8.305824473E-9
 10.0811548   -1.003527839E-8
 10.2079477   -1.182604681E-8
 10.3347406   -1.355053403E-8
 10.4615326   -1.503031832E-8
 10.5883255   -1.603187094E-8
 10.7151184   -1.626551338E-8
 10.8419113   -1.538862193E-8
 10.9687033   -1.301392238E-8
 11.0954962   -8.723508138E-9
 11.2222891   -2.088888396E-9
 11.349082   7.303027516E-9
 11.4758739   1.981865694E-8
 11.6026669   3.574238505E-8
 11.7294598   5.523905955E-8
 11.8562517   7.831699378E-8
 11.9830446   1.047949212E-7
 12.1098375   1.34277073E-7
 12.2366304   1.661412483E-7
 12.3634224   1.995452692E-7
 12.4902153   2.334573708E-7
 12.6170082   2.667160857E-7
 12.7438011   2.981249452E-7
 12.8705931   3.265860471E-7
 12.997386   3.512755313E-7
 13.1241789   3.718621429E-7
 13.2509708   3.887675177E-7
 13.3777637   4.034649237E-7
 13.5045567   4.18810032E-7
 13.6313496   4.393943982E-7
 13.7581415   4.719091464E-7
 13.8849344   5.255055271E-7
 14.0117273   6.121350111E-7
 14.1385202   7.468506169E-7
 14.2653122   9.480497738E-7
 14.3921051   1.237643119E-6
 14.518898   1.641126573E-6
 14.6456909   2.187545306E-6
 14.7724829   2.909332807E-6
 14.8992758   3.842020305E-6
 15.0260687   5.023806807E-6
 15.1528606   6.494996342E-6
 15.2796535   8.297299246E-6
 15.4064465   1.047302703E-5
 15.5332394   1.306416561E-5
 15.6600313   1.611138941E-5
 15.7868242   1.965300362E-5
 15.9136171   2.372386371E-5
 16.0404091   2.835429041E-5
 16.167202   3.356901652E-5
 16.2939949   3.938619557E-5
 16.4207878   4.581646499E-5
 16.5475807   5.286214582E-5
 16.6743736   6.051654418E-5
 16.8011646   6.876340922E-5
 16.9279575   7.757652202E-5
 17.0547504   8.691941912E-5
 17.1815434   9.674535249E-5
 17.3083363   1.06997315E-4
 17.4351292   1.176082733E-4
 17.5619221   1.285015896E-4
 17.688715   1.395915315E-4
 17.815506   1.507840498E-4
 17.9422989   1.61977543E-4
 18.0690918   1.73064007E-4
 18.1958847   1.839301112E-4
 18.3226776   1.944586693E-4
 18.4494705   2.045300789E-4
 18.5762634   2.14024054E-4
 18.7030544   2.228215017E-4
 18.8298473   2.30806545E-4
 18.9566402   2.378686186E-4
 19.0834332   2.439047094E-4
 19.2102261   2.488217142E-4
 19.337019   2.525387681E-4
 19.4638119   2.549894562E-4
 19.5906048   2.561240108E-4
 19.7173958   2.559112909E-4
 19.8441887   2.543404698E-4
 19.9709816   2.514222579E-4
 20.0977745   2.471899206E-4
 20.2245674   2.416995267E-4
 20.3513603   2.350298892E-4
 20.4781532   2.272815618E-4
 20.6049442   2.185755293E-4
 20.7317371   2.090510679E-4
 20.85853   1.988629811E-4
 20.985323   1.881784265E-4
 21.1121159   1.771731477E-4
 21.2389088   1.660273701E-4
 21.3657017   1.549215085E-4
 21.4924946   1.440317137E-4
 21.6192856   1.33525522E-4
 21.7460785   1.235577656E-4
 21.8728714   1.142667315E-4
 21.9996643   1.057709014E-4
 22.1264572   9.816637612E-5
 22.2532501   9.152488201E-5
 22.380043   8.589271602E-5
 22.506834   8.129043272E-5
 22.6336269   7.771349919E-5
 22.7604198   7.51336338E-5
 22.8872128   7.350106898E-5
 23.0140057   7.274729433E-5
 23.1407986   7.278835983E-5
 23.2675915   7.352863759E-5
 23.3943844   7.486477261E-5
 23.5211754   7.668958278E-5
 23.6479683   7.889612607E-5
 23.7747612   8.13812585E-5
 23.9015541   8.404903201E-5
 24.028347   8.681349573E-5
 24.1551399   8.960100968E-5
 24.2819328   9.23518237E-5
 24.4087238   9.502105968E-5
 24.5355167   9.757890075E-5
 24.6623096   1.00010242E-4
 24.7891026   1.023137811E-4
 24.9158955   1.045006939E-4
 25.0426884   1.06592699E-4
 25.1694813   1.086200427E-4
 25.2962742   1.106191703E-4
 25.4230652   1.126303832E-4
 25.5498581   1.146954382E-4
 25.676651   1.168551898E-4
 25.8034439   1.191477277E-4
 25.9302368   1.216063174E-4
 26.0570297   1.242581202E-4
 26.1838226   1.271228975E-4
 26.3106136   1.302122691E-4
 26.4374065   1.33529029E-4
 26.5641994   1.370670943E-4
 26.6909924   1.408117532E-4
 26.8177853   1.447397663E-4
 26.9445782   1.48820196E-4
 27.0713711   1.530150475E-4
 27.198164   1.572803449E-4
 27.324955   1.615672518E-4
 27.4517479   1.658233668E-4
 27.5785408   1.699941349E-4
 27.7053337   1.740242151E-4
 27.8321266   1.778590231E-4
 27.9589195   1.814460411E-4
 28.0857124   1.847365347E-4
 28.2125034   1.876869355E-4
 28.3392963   1.902602526E-4
 28.4660892   1.924275712E-4
 28.5928822   1.941692753E-4
 28.7196751   1.954761974E-4
 28.846468   1.963505929E-4
 28.9732609   1.968068536E-4
 29.1000538   1.968717261E-4
 29.2268448   1.965846022E-4
 29.3536377   1.959971123E-4
 29.4804306   1.951726445E-4
 29.6072235   1.941852533E-4
 29.7340164   1.931184233E-4
 29.8608093   1.920632931E-4
 29.9876022   1.911169384E-4
 30.1143932   1.903795928E-4
 30.2411861   1.899526105E-4
 30.367979   1.89935512E-4
 30.494772   1.904233941E-4
 30.6215649   1.915044122E-4
 30.7483578   1.932571613E-4
 30.8751507   1.957484783E-4
 31.0019417   1.990313467E-4
 31.1287346   2.031434706E-4
 31.2555275   2.08105761E-4
 31.3823204   2.13921754E-4
 31.5091133   2.205772034E-4
 31.6359062   2.280403278E-4
 31.7626991   2.362625819E-4
 31.889492   2.451797482E-4
 32.0162849   2.547134645E-4
 32.1430779   2.647733199E-4
 32.2698708   2.752589644E-4
 32.3966637   2.860624518E-4
 32.5234528   2.970709465E-4
 32.6502457   3.081689938E-4
 32.7770386   3.192410804E-4
 32.9038315   3.301740799E-4
 33.0306244   3.408593184E-4
 33.1574173   3.51194758E-4
 33.2842102   3.610863641E-4
 33.4110031   3.704496776E-4
 33.537796   3.792110074E-4
 33.6645889   3.873073147E-4
 33.7913818   3.946872312E-4
 33.9181747   4.013108555E-4
 34.0449677   4.071491421E-4
 34.1717606   4.121834063E-4
 34.2985535   4.164048005E-4
 34.4253426   4.198129172E-4
 34.5521355   4.224150616E-4
 34.6789284   4.242249706E-4
 34.8057213   4.252614744E-4
 34.9325142   4.255477106E-4
 35.0593071   4.25109698E-4
 35.1861   4.239753762E-4
 35.3128929   4.221739655E-4
 35.4396858   4.197347153E-4
 35.5664787   4.166867875E-4
 35.6932716   4.130583839E-4
 35.8200645   4.088766582E-4
 35.9468575   4.041672801E-4
 36.0736504   3.989547258E-4
 36.2004433   3.932621039E-4
 36.3272324   3.871110675E-4
 36.4540253   3.805221641E-4
 36.5808182   3.735147184E-4
 36.7076111   3.661072697E-4
 36.834404   3.583176294E-4
 36.9611969   3.501634346E-4
 37.0879898   3.416618274E-4
 37.2147827   3.328301536E-4
 37.3415756   3.236860794E-4
 37.4683685   3.142474161E-4
 37.5951614   3.045324702E-4
 37.7219543   2.945598681E-4
 37.8487473   2.84349022E-4
 37.9755402   2.739199845E-4
 38.1023293   2.632935648E-4
 38.2291222   2.524915908E-4
 38.3559151   2.41536778E-4
 38.482708   2.304528025E-4
 38.6095009   2.192644461E-4
 38.7362938   2.079974947E-4
 38.8630867   1.966788695E-4
 38.9898796   1.853365975E-4
 39.1166725   1.739998843E-4
 39.2434654   1.626993326E-4
 39.3702583   1.514670294E-4
 39.4970512   1.403367933E-4
 39.6238441   1.293443929E-4
 39.7506371   1.185276269E-4
 39.87743   1.079264475E-4
 40.0042191   9.758319356E-5
 40.131012   8.754259034E-5
 40.2578049   7.78520407E-5
 40.3845978   6.856151595E-5
 40.5113907   5.972355575E-5
 40.6381836   5.139318091E-5
 40.7649765   4.362752588E-5
 40.8917694   3.648541315E-5
 41.0185623   3.002670564E-5
 41.1453552   2.431138091E-5
 41.2721481   1.939854883E-5
 41.398941   1.534514013E-5
 41.5257339   1.220449485E-5
 41.6525269   1.002500812E-5
 41.7793198   8.848489415E-6
 41.9061089   8.708487258E-6
 42.0329018   9.628673979E-6
 42.1596947   1.16211404E-5
 42.2864876   1.468485152E-5
 42.4132805   1.880429045E-5
 42.5400734   2.394823241E-5
 42.6668663   3.006887346E-5
 42.7936592   3.71013266E-5
 42.9204521   4.496354086E-5
 43.047245   5.355667963E-5
 43.1740379   6.276595377E-5
 43.3008308   7.246193854E-5
 43.4276237   8.250227984E-5
 43.5544167   9.273392061E-5
 43.6812096   1.029955965E-4
 43.8079987   1.13120841E-4
 43.9347916   1.229412446E-4
 44.0615845   1.322898461E-4
 44.1883774   1.410049153E-4
 44.3151703   1.489334682E-4
 44.4419632   1.559349475E-4
 44.5687561   1.618846291E-4
 44.695549   1.666767057E-4
 44.8223419   1.702270238E-4
 44.9491348   1.724753383E-4
 45.0759277   1.733869867E-4
 45.2027206   1.7295414E-4
 45.3295135   1.711962541E-4
 45.4563065   1.681600697E-4
 45.5830994   1.639188704E-4
 45.7098885   1.585710997E-4
 45.8366814   1.5223847E-4
 45.9634743   1.450632844E-4
 46.0902672   1.372054539E-4
 46.2170601   1.28839034E-4
 46.343853   1.201484265E-4
 46.4706459   1.113243052E-4
 46.5974388   1.025595411E-4
 46.7242317   9.404501179E-5
 46.8510246   8.596554835E-5
 46.9778175   7.84959775E-5
 47.1046104   7.179743989E-5
 47.2314034   6.601403584E-5
 47.3581963   6.126979133E-5
 47.4849892   5.766608228E-5
 47.6117783   5.527969188E-5
 47.7385712   5.416126078E-5
 47.8653641   5.433455954E-5
 47.992157   5.579616118E-5
 48.1189499   5.851586684E-5
 48.2457428   6.243758253E-5
 48.3725357   6.748083251E-5
 48.4993286   7.354273839E-5
 48.6261215   8.050042379E-5
 48.7529144   8.821383381E-5
 48.8797073   9.652888548E-5
 49.0065002   1.05280873E-4
 49.1332932   1.142981564E-4
 49.2600861   1.234058727E-4
 49.386879   1.324296463E-4
 49.5136681   1.411992853E-4
 49.640461   1.495522592E-4
 49.7672539   1.573368936E-4
 49.8940468   1.64415309E-4
 50.0208397   1.70666026E-4
 50.1476326   1.759862062E-4
 50.2744255   1.802933693E-4
 50.4012184   1.835268195E-4
 50.5280113   1.856484741E-4
 50.6548042   1.866432867E-4
 50.7815971   1.865191298E-4
 50.90839   1.85306184E-4
 51.035183   1.830558467E-4
 51.1619759   1.798392914E-4
 51.2887688   1.757455757E-4
 51.4155579   1.708793716E-4
 51.5423508   1.65358535E-4
 51.6691437   1.593113266E-4
 51.7959366   1.528735302E-4
 51.9227295   1.461854263E-4
 52.0495224   1.393886341E-4
 52.1763153   1.326230704E-4
 52.3031082   1.260239515E-4
 52.4299011   1.19718854E-4
 52.556694   1.138251318E-4
 52.6834869   1.084475007E-4
 52.8102798   1.036760659E-4
 52.9370728   9.95847513E-5
 53.0638657   9.623012738E-5
 53.1906586   9.365068399E-5
 53.3174477   9.186664101E-5
 53.4442406   9.088007209E-5
 53.5710335   9.067556675E-5
 53.6978264   9.122124902E-5
 53.8246193   9.247016715E-5
 53.9514122   9.436208347E-5
 54.0782051   9.682544624E-5
 54.204998   9.977971058E-5
 54.3317909   1.031375505E-4
 54.4585838   1.068073179E-4
 54.5853767   1.10695386E-4
 54.7121696   1.147083385E-4
 54.8389626   1.187550806E-4
 54.9657555   1.227486355E-4
 55.0925484   1.266077743E-4
 55.2193375   1.302583551E-4
 55.3461304   1.336343994E-4
 55.4729233   1.366789074E-4
 55.5997162   1.393443381E-4
 55.7265091   1.415929E-4
 55.853302   1.433964644E-4
 55.9800949   1.447362156E-4
 56.1068878   1.456023019E-4
 56.2336807   1.459931955E-4
 56.3604736   1.459148916E-4
 56.4872665   1.453802106E-4
 56.6140594   1.444079098E-4
 56.7408524   1.430219127E-4
 56.8676453   1.412505808E-4
 56.9944382   1.391258411E-4
 57.1212273   1.366825891E-4
 57.2480202   1.339579758E-4
 57.3748131   1.309907675E-4
 57.501606   1.278208365E-4
 57.6283989   1.244886953E-4
 57.7551918   1.210351038E-4
 57.8819847   1.175007637E-4
 58.0087776   1.139260348E-4
 58.1355705   1.103506365E-4
 58.2623634   1.06813306E-4
 58.3891563   1.0335158E-4
 58.5159492   1.000013726E-4
 58.6427422   9.679651703E-5
 58.7695351   9.376839444E-5
 58.896328   9.094535926E-5
 59.0231171   8.835220069E-5
 59.14991   8.600966248E-5
 59.2767029   8.393390453E-5
 59.4034958   8.21359863E-5
 59.5302887   8.062145207E-5
 59.6570816   7.938992348E-5
 59.7838745   7.843492494E-5
 59.9106674   7.77437308E-5
 60.0374603   7.729759091E-5
 60.1642532   7.707202894E-5
 60.2910461   7.703753363E-5
 60.4178391   7.716034452E-5
 60.544632   7.740362344E-5
 60.6714249   7.772877143E-5
 60.7982178   7.809690578E-5
 60.9250069   7.847048983E-5
 61.0517998   7.881489E-5
 61.1785927   7.909994019E-5
 61.3053856   7.930138236E-5
 61.4321785   7.940224896E-5
 61.5589714   7.939379429E-5
 61.6857643   7.927631668E-5
 61.8125572   7.90595077E-5
 61.9393501   7.876236486E-5
 62.066143   7.841271145E-5
 62.1929359   7.804627239E-5
 62.3197289   7.770524098E-5
 62.4465218   7.74365617E-5
 62.5733147   7.728985656E-5
 62.7001076   7.731511141E-5
 62.8268967   7.756034756E-5
 62.9536896   7.806924259E-5
 63.0804825   7.887886022E-5
 63.2072754   8.001765673E-5
 63.3340683   8.150375652E-5
 63.4608612   8.334361337E-5
 63.5876541   8.553117368E-5
 63.714447   8.80476E-5
 63.8412399   9.086149657E-5
 63.9680328   9.392981156E-5
 64.0948257   9.719925583E-5
 64.2216187   1.00608122E-4
 64.3484116   1.040887E-4
 64.4752045   1.075698819E-4
 64.6019974   1.109799559E-4
 64.7287903   1.14249473E-4
 64.8555832   1.173140117E-4
 64.9823761   1.201167033E-4
 65.109169   1.22610465E-4
 65.2359619   1.247598266E-4
 65.3627548   1.265421743E-4
 65.4895477   1.279486314E-4
 65.616333   1.289840147E-4
 65.7431259   1.296664705E-4
 65.8699188   1.300263684E-4
 65.9967117   1.301046723E-4
 66.1235046   1.299509458E-4
 66.2502975   1.296208502E-4
 66.3770905   1.291736116E-4
 66.5038834   1.286691549E-4
 66.6306763   1.281656587E-4
 66.7574692   1.277169504E-4
 66.8842621   1.273704256E-4
 67.011055   1.271653455E-4
 67.1378479   1.271315268E-4
 67.2646408   1.272884983E-4
 67.3914337   1.276453258E-4
 67.5182266   1.28200787E-4
 67.6450195   1.289440406E-4
 67.7718124   1.298558927E-4
 67.8986053   1.309102081E-4
 68.0253983   1.320755691E-4
 68.1521912   1.33317124E-4
 68.2789841   1.345984492E-4
 68.405777   1.35883136E-4
 68.5325699   1.371364342E-4
 68.6593628   1.383263152E-4
 68.7861557   1.394243445E-4
 68.9129486   1.404061186E-4
 69.0397415   1.412514248E-4
 69.1665344   1.419439795E-4
 69.2933273   1.424708898E-4
 69.4201126   1.428219548E-4
 69.5469055   1.429887925E-4
 69.6736984   1.42963836E-4
 69.8004913   1.427394309E-4
 69.9272842   1.423069625E-4
 70.0540771   1.416562882E-4
 70.1808701   1.407753734E-4
 70.307663   1.396502048E-4
 70.4344559   1.382651535E-4
 70.5612488   1.366035576E-4
 70.6880417   1.346487115E-4
 70.8148346   1.323851902E-4
 70.9416275   1.29800188E-4
 71.0684204   1.26885061E-4
 71.1952133   1.236368407E-4
 71.3220062   1.200596816E-4
 71.4487991   1.161661203E-4
 71.575592   1.119780354E-4
 71.7023849   1.075273613E-4
 71.8291779   1.028563638E-4
 71.9559708   9.801742272E-5
 72.0827637   9.307245637E-5
 72.2095566   8.809186693E-5
 72.3363495   8.315299783E-5
 72.4631424   7.833814016E-5
 72.5899353   7.37322116E-5
 72.7167282   6.942022446E-5
 72.8435211   6.548448437E-5
 72.970314   6.200189819E-5
 73.0971069   5.904124191E-5
 73.2238922   5.666071229E-5
 73.3506851   5.490568219E-5
 73.477478   5.380693256E-5
 73.6042709   5.337929542E-5
 73.7310638   5.362083175E-5
 73.8578568   5.451256584E-5
 73.9846497   5.601889279E-5
 74.1114426   5.808860442E-5
 74.2382355   6.065644993E-5
 74.3650284   6.364531873E-5
 74.4918213   6.696891069E-5
 74.6186142   7.053481386E-5
 74.7454071   7.424772048E-5
 74.8722   7.801281754E-5
 74.9989929   8.173900278E-5
 75.1257858   8.534204244E-5
 75.2525787   8.874726336E-5
 75.3793716   9.189201228E-5
 75.5061646   9.472739475E-5
 75.6329575   9.721953393E-5
 75.7597504   9.935026173E-5
 75.8865433   1.011169588E-4
 76.0133362   1.025318561E-4
 76.1401291   1.036206741E-4
 76.266922   1.044206438E-4
 76.3937149   1.049780913E-4
 76.5205078   1.053455999E-4
 76.6473007   1.055791217E-4
 76.7740936   1.0573498E-4
 76.9008865   1.05866995E-4
 77.0276718   1.06023952E-4
 77.1544647   1.062472875E-4
 77.2812576   1.065692923E-4
 77.4080505   1.070118451E-4
 77.5348434   1.075856271E-4
 77.6616364   1.082899907E-4
 77.7884293   1.091133963E-4
 77.9152222   1.100343579E-4
 78.0420151   1.110229787E-4
 78.168808   1.120428278E-4
 78.2956009   1.1305316E-4
 78.4223938   1.140113818E-4
 78.5491867   1.148753727E-4
 78.6759796   1.156058061E-4
 78.8027725   1.161682085E-4
 78.9295654   1.165347494E-4
 79.0563583   1.166856891E-4
 79.1831512   1.166104921E-4
 79.3099442   1.163084089E-4
 79.4367371   1.157887236E-4
 79.56353   1.150704775E-4
 79.6903229   1.141818502E-4
 79.8171158   1.131590398E-4
 79.9439087   1.12044836E-4
 80.0707016   1.108869692E-4
 80.1974945   1.097362256E-4
 80.3242874   1.086443735E-4
 80.4510803   1.076622502E-4
 80.5778732   1.068379279E-4
 80.7046585   1.062149531E-4
 80.8314514   1.05830899E-4
 80.9582443   1.057160916E-4
 81.0850372   1.058926573E-4
 81.2118301   1.063737436E-4
 81.338623   1.071632141E-4
 81.465416   1.082554445E-4
 81.5922089   1.096357228E-4
 81.7190018   1.112807295E-4
 81.8457947   1.131594981E-4
 81.9725876   1.15234543E-4
 82.0993805   1.174632271E-4
 82.2261734   1.197993552E-4
 82.3529663   1.221947168E-4
 82.4797592   1.246007014E-4
 82.6065521   1.269698259E-4
 82.733345   1.292572997E-4
 82.8601379   1.3142229E-4
 82.9869308   1.334291592E-4
 83.1137238   1.352484251E-4
 83.2405167   1.368573867E-4
 83.3673096   1.382405608E-4
 83.4941025   1.3938958E-4
 83.6208954   1.403029601E-4
 83.7476883   1.409852848E-4
 83.8744812   1.414463331E-4
 84.0012741   1.41699813E-4
 84.128067   1.417619933E-4
 84.2548599   1.416501182E-4
 84.3816528   1.41380995E-4
 84.5084381   1.409695251E-4
 84.635231   1.40427408E-4
 84.7620239   1.397620072E-4
 84.8888168   1.389754761E-4
 85.0156097   1.380641479E-4
 85.1424026   1.370183745E-4
 85.2691956   1.358228619E-4
 85.3959885   1.344571501E-4
 85.5227814   1.328968938E-4
 85.6495743   1.311151573E-4
 85.7763672   1.290842338E-4
 85.9031601   1.267775078E-4
 86.029953   1.241714781E-4
 86.1567459   1.21247911E-4
 86.2835388   1.179956307E-4
 86.4103317   1.144123162E-4
 86.5371246   1.105058182E-4
 86.6639175   1.062953088E-4
 86.7907104   1.018117473E-4
 86.9175034   9.709802544E-5
 87.0442963   9.220852371E-5
 87.1710892   8.72079836E-5
 87.2978821   8.216997958E-5
 87.424675   7.717486733E-5
 87.5514679   7.230740448E-5
 87.6782608   6.765400758E-5
 87.8050537   6.329997268E-5
 87.9318466   5.93265795E-5
 88.0586395   5.580833022E-5
 88.1854324   5.281045378E-5
 88.3122177   5.038673044E-5
 88.4390106   4.857773092E-5
 88.5658035   4.740956501E-5
 88.6925964   4.689322668E-5
 88.8193893   4.702442675E-5
 88.9461823   4.778418952E-5
 89.0729752   4.91399187E-5
 89.1997681   5.104697993E-5
 89.326561   5.345069076E-5
 89.4533539   5.628856889E-5
 89.5801468   5.949271144E-5
 89.7069397   6.299227243E-5
 89.8337326   6.67158165E-5
 89.9605255   7.059352356E-5
 90.0873184   7.455912419E-5
 90.2141113   7.855144941E-5
 90.3409042   8.251556574E-5
 90.4676971   8.640351007E-5
 90.5944901   9.017455886E-5
 90.721283   9.379514086E-5
 90.8480759   9.723836411E-5
 90.9748688   1.004832739E-4
 91.1016617   1.035139358E-4
 91.2284546   1.063184609E-4
 91.3552475   1.088880745E-4
 91.4820404   1.112162863E-4
 91.6088333   1.132982798E-4
 91.7356262   1.151304605E-4
 91.8624191   1.167102964E-4
 91.989212   1.180363979E-4
 92.1159973   1.191089395E-4
 92.2427902   1.199302715E-4
 92.3695831   1.205056615E-4
 92.496376   1.208441099E-4
 92.6231689   1.209592156E-4
 92.7499619   1.208699032E-4
 92.8767548   1.20600911E-4
 93.0035477   1.201830382E-4
 93.1303406   1.19652992E-4
 93.2571335   1.190527837E-4
 93.3839264   1.18428703E-4
 93.5107193   1.178300008E-4
 93.6375122   1.173071141E-4
 93.7643051   1.169096577E-4
 93.891098   1.166843067E-4
 94.0178909   1.166724105E-4
 94.1446838   1.169077877E-4
 94.2714767   1.174145145E-4
 94.3982697   1.182051419E-4
 94.5250626   1.192792261E-4
 94.6518555   1.206224624E-4
 94.7786484   1.222063147E-4
 94.9054413   1.239884296E-4
 95.0322342   1.25913677E-4
 95.1590271   1.279158023E-4
 95.28582   1.299197902E-4
 95.4126129   1.318446302E-4
 95.5394058   1.336065034E-4
 95.6661987   1.351221435E-4
 95.7929916   1.363124466E-4
 95.9197769   1.371060498E-4
 96.0465698   1.374426356E-4
 96.1733627   1.37275827E-4
 96.3001556   1.365758362E-4
 96.4269485   1.353310363E-4
 96.5537415   1.335491979E-4
 96.6805344   1.312576787E-4
 96.8073273   1.285028411E-4
 96.9341202   1.253485825E-4
 97.0609131   1.218742473E-4
 97.187706   1.181716216E-4
 97.3144989   1.14341703E-4
 97.4412918   1.104907351E-4
 97.5680847   1.067263365E-4
 97.6948776   1.031532593E-4
 97.8216705   9.986945224E-5
 97.9484634   9.696227789E-5
 98.0752563   9.450522339E-5
 98.2020493   9.255525947E-5
 98.3288422   9.115092689E-5
 98.4556351   9.031120862E-5
 98.582428   9.003523155E-5
 98.7092209   9.030288493E-5
 98.8360138   9.107616643E-5
 98.9628067   9.230133583E-5
 99.0895996   9.391157801E-5
 99.2163925   9.583020437E-5
 99.3431854   9.797409439E-5
 99.4699783   1.002572972E-4
 99.5967712   1.025945749E-4
 99.7235565   1.049047787E-4
 99.8503494   1.071138977E-4
 99.9771423   1.091575614E-4
 100.103935   1.109830046E-4
 100.230728   1.12550355E-4
 100.357521   1.138332227E-4
 100.484314   1.148186784E-4
 100.611107   1.155064892E-4
 100.7379   1.159078529E-4
 100.864693   1.160436877E-4
 100.991486   1.159425301E-4
 101.118279   1.156382568E-4
 101.245071   1.151678007E-4
 101.371864   1.145688657E-4
 101.498657   1.138778898E-4
 101.62545   1.131282188E-4
 101.752243   1.123486509E-4
 101.879036   1.115623963E-4
 102.005829   1.107865246E-4
 102.132622   1.100317895E-4
 102.259415   1.093029714E-4
 102.386208   1.085994882E-4
 102.513   1.079163485E-4
 102.639793   1.072453815E-4
 102.766586   1.0657659E-4
 102.893379   1.05899453E-4
 103.020172   1.052042935E-4
 103.146965   1.044832607E-4
 103.273758   1.037312759E-4
 103.400551   1.029465639E-4
 103.527336   1.021309727E-4
 103.654129   1.01290032E-4
 103.780922   1.004326405E-4
 103.907715   9.957054863E-5
 104.034508   9.871759539E-5
 104.161301   9.788879106E-5
 104.288094   9.70992478E-5
 104.414886   9.636308096E-5
 104.541679   9.569241956E-5
 104.668472   9.509637312E-5
 104.795265   9.458035493E-5
 104.922058   9.414542728E-5
 105.048851   9.378821414E-5
 105.175644   9.350089385E-5
 105.302437   9.327158477E-5
 105.42923   9.308495646E-5
 105.556023   9.292298637E-5
 105.682816   9.276602941E-5
 105.809608   9.259391663E-5
 105.936401   9.238722123E-5
 106.063194   9.212857549E-5
 106.189987   9.180390771E-5
 106.31678   9.140370094E-5
 106.443573   9.092402615E-5
 106.570366   9.036745178E-5
 106.697159   8.974359662E-5
 106.823952   8.906945732E-5
 106.950745   8.836935012E-5
 107.077538   8.76745471E-5
 107.20433   8.702257037E-5
 107.331116   8.645630442E-5
 107.457909   8.602273738E-5
 107.584702   8.577157132E-5
 107.711494   8.575362881E-5
 107.838287   8.601902664E-5
 107.96508   8.661535685E-5
 108.091873   8.758579497E-5
 108.218666   8.896717191E-5
 108.345459   9.078826406E-5
 108.472252   9.306819265E-5
 108.599045   9.581495397E-5
 108.725838   9.902437887E-5
 108.852631   1.026793252E-4
 108.979424   1.067492849E-4
 109.106216   1.11190282E-4
 109.233009   1.159452368E-4
 109.359802   1.209446564E-4
 109.486595   1.261076686E-4
 109.613388   1.313436078E-4
 109.740181   1.365538628E-4
 109.866974   1.416341256E-4
 109.993767   1.464769011E-4
 110.12056   1.509742724E-4
 110.247353   1.55020738E-4
 110.374146   1.585161663E-4
 110.500938   1.613688219E-4
 110.627731   1.634981745E-4
 110.754524   1.648373582E-4
 110.881317   1.653356885E-4
 111.008102   1.649604383E-4
 111.134895   1.636984089E-4
 111.261688   1.615568181E-4
 111.388481   1.58563751E-4
 111.515274   1.54767913E-4
 111.642067   1.502377563E-4
 111.76886   1.450600685E-4
 111.895653   1.393379935E-4
 112.022446   1.331884705E-4
 112.149239   1.267392945E-4
 112.276031   1.201258929E-4
 112.402824   1.134876075E-4
 112.529617   1.069641221E-4
 112.65641   1.006916864E-4
 112.783203   9.47995868E-5
 112.909996   8.940677071E-5
 113.036789   8.461881953E-5
 113.163582   8.052538033E-5
 113.290375   7.719806308E-5
 113.417168   7.468891272E-5
 113.543961   7.302949962E-5
 113.670753   7.223063585E-5
 113.797546   7.228273171E-5
 113.924339   7.315663242E-5
 114.051132   7.480513887E-5
 114.177925   7.716489927E-5
 114.304718   8.015878848E-5
 114.431511   8.36984982E-5
 114.558304   8.768733096E-5
 114.685097   9.202309593E-5
 114.811882   9.660085925E-5
 114.938675   1.01315738E-4
 115.065468   1.060653813E-4
 115.192261   1.107522185E-4
 115.319054   1.152853656E-4
 115.445847   1.195822697E-4
 115.572639   1.235697709E-4
 115.699432   1.271850342E-4
 115.826225   1.3037592E-4
 115.953018   1.331011008E-4
 116.079811   1.353297848E-4
 116.206604   1.370412647E-4
 116.333397   1.382242626E-4
 116.46019   1.388760429E-4
 116.586983   1.390016696E-4
 116.713776   1.386131044E-4
 116.840569   1.377284061E-4
 116.967361   1.363709744E-4
 117.094154   1.345688361E-4
 117.220947   1.323541801E-4
 117.34774   1.297628187E-4
 117.474533   1.268339547E-4
 117.601326   1.236099197E-4
 117.728119   1.201360355E-4
 117.854912   1.164604619E-4
 117.981705   1.126342104E-4
 118.108498   1.087109849E-4
 118.235291   1.047469341E-4
 118.362083   1.008003237E-4
 118.488876   9.693110042E-5
 118.615662   9.320011304E-5
 118.742455   8.966825408E-5
 118.869247   8.639545558E-5
 118.99604   8.343939407E-5
 119.122833   8.085423178E-5
 119.249626   7.868911052E-5
 119.376419   7.69866092E-5
 119.503212   7.578133955E-5
 119.630005   7.509840361E-5
 119.756798   7.495215687E-5
 119.883591   7.534510223E-5
 120.010384   7.626715524E-5
 120.137177   7.769520744E-5
 120.263969   7.959318464E-5
 120.390762   8.191260713E-5
 120.517555   8.459363016E-5
 120.644348   8.75664773E-5
 120.771141   9.075344133E-5
 120.897934   9.407116158E-5
 121.024727   9.743329429E-5
 121.15152   1.007533137E-4
 121.278313   1.039475756E-4
 121.405106   1.069382561E-4
 121.531898   1.096561828E-4
 121.658691   1.120435045E-4
 121.785484   1.140559034E-4
 121.912277   1.156643193E-4
 122.03907   1.168560921E-4
 122.165863   1.176353617E-4
 122.292656   1.18022821E-4
 122.419441   1.180546969E-4
 122.546234   1.177810773E-4
 122.673027   1.172636839E-4
 122.79982   1.165731446E-4
 122.926613   1.157858205E-4
 123.053406   1.149804957E-4
 123.180199   1.142348483E-4
 123.306992   1.136220526E-4
 123.433784   1.13207534E-4
 123.560577   1.130461023E-4
 123.68737   1.131795652E-4
 123.814163   1.136349747E-4
 123.940956   1.144236157E-4
 124.067749   1.155406208E-4
 124.194542   1.169654861E-4
 124.321335   1.186632144E-4
 124.448128   1.205859517E-4
 124.574921   1.226752647E-4
 124.701714   1.248647168E-4
 124.828506   1.270827051E-4
 124.955299   1.292555098E-4
 125.082092   1.313102257E-4
 125.208885   1.331777021E-4
 125.335678   1.347952057E-4
 125.462471   1.36108647E-4
 125.589264   1.370744139E-4
 125.716057   1.376606815E-4
 125.84285   1.378480811E-4
 125.969643   1.376299479E-4
 126.096436   1.370118262E-4
 126.223221   1.36010829E-4
 126.350014   1.346543868E-4
 126.476807   1.329788647E-4