  -1.603125        9.7356329E-18
  -1.389375        9.7133578E-18
  -1.175625        9.6718672E-18
 -0.9618750        9.6162261E-18
 -0.7481250        9.5528401E-18
 -0.5343750        9.4886070E-18
 -0.3206250        9.4300062E-18
 -0.1068750        9.3822481E-18
  0.1068750        9.3486133E-18
  0.3206250        9.3300448E-18
  0.5343750        9.3250842E-18
  0.7481250        9.3301291E-18
  0.9618750        9.3399908E-18
   1.175625        9.3486729E-18
   1.389375        9.3502577E-18
   1.603125        9.3397716E-18
   1.816875        9.3139197E-18
   2.030625        9.2715829E-18
   2.244375        9.2139963E-18
   2.458125        9.1446124E-18
   2.671875        9.0686325E-18
   2.885625        8.9923094E-18
   3.099375        8.9220818E-18
   3.313125        8.8636902E-18
   3.526875        8.8213858E-18
   3.740625        8.7973289E-18
   3.954375        8.7912896E-18
   4.168125        8.8006674E-18
   4.381875        8.8208382E-18
   4.595625        8.8457901E-18
   4.809375        8.8689362E-18
   5.023125        8.8840232E-18
   5.236875        8.8859770E-18
   5.450625        8.8715923E-18
   5.664375        8.8399584E-18
   5.878125        8.7925726E-18
   6.091875        8.7331099E-18
   6.305625        8.6669056E-18
   6.519375        8.6002018E-18
   6.733125        8.5392832E-18
   6.946875        8.4895945E-18
   7.160625        8.4549919E-18
   7.374375        8.4372050E-18
   7.588125        8.4356003E-18
   7.801875        8.4472693E-18
   8.015625        8.4674319E-18
   8.229375        8.4901123E-18
   8.443125        8.5089638E-18
   8.656875        8.5181662E-18
   8.870625        8.5132353E-18
   9.084375        8.4916492E-18
   9.298125        8.4532085E-18
   9.511875        8.4000605E-18
   9.725625        8.3364015E-18
   9.939375        8.2679085E-18
   10.15312        8.2009424E-18
   10.36687        8.1416857E-18
   10.58062        8.0952899E-18
   10.79438        8.0651714E-18
   11.00813        8.0525495E-18
   11.22188        8.0562867E-18
   11.43563        8.0730603E-18
   11.64937        8.0978269E-18
   11.86312        8.1245415E-18
   12.07687        8.1470028E-18
   12.29062        8.1597331E-18
   12.50438        8.1587454E-18
   12.71813        8.1421075E-18
   12.93188        8.1102205E-18
   13.14563        8.0657604E-18
   13.35938        8.0133047E-18
   13.57312        7.9587050E-18
   13.78687        7.9082602E-18
   14.00062        7.8678475E-18
   14.21437        7.8420990E-18
   14.42813        7.8337544E-18
   14.64188        7.8432802E-18
   14.85563        7.8687938E-18
   15.06938        7.9063180E-18
   15.28312        7.9503199E-18
   15.49687        7.9944723E-18
   15.71062        8.0325119E-18
   15.92437        8.0590983E-18
   16.13812        8.0705349E-18
   16.35188        8.0652699E-18
   16.56562        8.0440899E-18
   16.77938        8.0099935E-18
   16.99313        7.9677651E-18
   17.20687        7.9232827E-18
   17.42063        7.8827004E-18
   17.63437        7.8515769E-18
   17.84813        7.8340994E-18
   18.06187        7.8324955E-18
   18.27563        7.8467370E-18
   18.48937        7.8745369E-18
   18.70312        7.9116806E-18
   18.91688        7.9526145E-18
   19.13062        7.9912165E-18
   19.34438        8.0216493E-18
   19.55812        8.0391624E-18
   19.77188        8.0407556E-18
   19.98562        8.0255909E-18
   20.19938        7.9951200E-18
   20.41312        7.9528891E-18
   20.62687        7.9040656E-18
   20.84063        7.8547350E-18
   21.05437        7.8110674E-18
   21.26813        7.7784657E-18
   21.48187        7.7608203E-18
   21.69563        7.7599600E-18
   21.90937        7.7753977E-18
   22.12313        7.8044003E-18
   22.33688        7.8423646E-18
   22.55062        7.8834713E-18
   22.76438        7.9214960E-18
   22.97812        7.9506805E-18
   23.19188        7.9665302E-18
   23.40562        7.9664259E-18
   23.61938        7.9499832E-18
   23.83312        7.9190864E-18
   24.04688        7.8776173E-18
   24.26063        7.8309222E-18
   24.47437        7.7850666E-18
   24.68813        7.7460005E-18
   24.90187        7.7187507E-18
   25.11563        7.7067160E-18
   25.32937        7.7111994E-18
   25.54313        7.7312130E-18
   25.75687        7.7636004E-18
   25.97062        7.8034631E-18
   26.18438        7.8448254E-18
   26.39812        7.8814588E-18
   26.61188        7.9077573E-18
   26.82562        7.9195140E-18
   27.03938        7.9145195E-18
   27.25312        7.8928639E-18
   27.46688        7.8569238E-18
   27.68063        7.8110169E-18
   27.89437        7.7607897E-18
   28.10813        7.7124219E-18
   28.32187        7.6717536E-18
   28.53563        7.6434806E-18
   28.74937        7.6305062E-18
   28.96313        7.6335486E-18
   29.17687        7.6510484E-18
   29.39062        7.6794001E-18
   29.60438        7.7134451E-18
   29.81812        7.7471958E-18
   30.03188        7.7746656E-18
   30.24562        7.7907013E-18
   30.45938        7.7917138E-18
   30.67312        7.7761818E-18
   30.88688        7.7448879E-18
   31.10062        7.7008083E-18
   31.31437        7.6487174E-18
   31.52813        7.5945164E-18
   31.74187        7.5444141E-18
   31.95563        7.5040560E-18
   32.16938        7.4777392E-18
   32.38313        7.4678188E-18
   32.59687        7.4743891E-18
   32.81062        7.4952779E-18
   33.02438        7.5263609E-18
   33.23812        7.5621414E-18
   33.45187        7.5965207E-18
   33.66563        7.6236398E-18
   33.87938        7.6386912E-18
   34.09312        7.6385870E-18
   34.30687        7.6223833E-18
   34.52063        7.5914054E-18
   34.73438        7.5490670E-18
   34.94812        7.5003866E-18
   35.16188        7.4512868E-18
   35.37563        7.4077622E-18
   35.58937        7.3750406E-18
   35.80312        7.3568492E-18
   36.01688        7.3548897E-18
   36.23063        7.3686002E-18
   36.44437        7.3952222E-18
   36.65813        7.4301771E-18
   36.87188        7.4676923E-18
   37.08562        7.5015885E-18
   37.29937        7.5261251E-18
   37.51313        7.5367916E-18
   37.72688        7.5309311E-18
   37.94062        7.5081025E-18
   38.15437        7.4701540E-18
   38.36813        7.4209615E-18
   38.58187        7.3658945E-18
   38.79562        7.3110681E-18
   39.00938        7.2624903E-18
   39.22313        7.2252283E-18
   39.43687        7.2027108E-18
   39.65062        7.1962587E-18
   39.86438        7.2049334E-18
   40.07812        7.2256849E-18
   40.29187        7.2538107E-18
   40.50563        7.2836355E-18
   40.71938        7.3093277E-18
   40.93312        7.3257224E-18
   41.14687        7.3290518E-18
   41.36063        7.3174738E-18
   41.57438        7.2913349E-18
   41.78812        7.2531299E-18
   42.00188        7.2071651E-18
   42.21563        7.1589736E-18
   42.42937        7.1145606E-18
   42.64312        7.0795783E-18
   42.85688        7.0585406E-18
   43.07063        7.0541954E-18
   43.28437        7.0671193E-18
   43.49812        7.0956215E-18
   43.71188        7.1359498E-18
   43.92562        7.1827865E-18
   44.13937        7.2299639E-18
   44.35313        7.2712989E-18
   44.56688        7.3014306E-18
   44.78062        7.3165449E-18
   44.99437        7.3148748E-18
   45.20813        7.2969101E-18
   45.42188        7.2652919E-18
   45.63562        7.2244011E-18
   45.84938        7.1797184E-18
   46.06313        7.1370310E-18
   46.27687        7.1016185E-18
   46.49062        7.0775203E-18
   46.70438        7.0669836E-18
   46.91813        7.0701658E-18
   47.13187        7.0851336E-18
   47.34563        7.1081367E-18
   47.55938        7.1341449E-18
   47.77312        7.1575475E-18
   47.98687        7.1729447E-18
   48.20063        7.1759126E-18
   48.41438        7.1636414E-18
   48.62812        7.1353617E-18
   48.84187        7.0924856E-18
   49.05563        7.0384558E-18
   49.26937        6.9782975E-18
   49.48312        6.9179493E-18
   49.69688        6.8634567E-18
   49.91063        6.8201505E-18
   50.12437        6.7919192E-18
   50.33812        6.7806865E-18
   50.55188        6.7861724E-18
   50.76562        6.8059548E-18
   50.97937        6.8358363E-18
   51.19313        6.8704472E-18
   51.40688        6.9039993E-18
   51.62062        6.9310878E-18
   51.83437        6.9474238E-18
   52.04813        6.9504099E-18
   52.26188        6.9394754E-18
   52.47562        6.9161402E-18
   52.68938        6.8837896E-18
   52.90313        6.8472013E-18
   53.11687        6.8118741E-18
   53.33062        6.7832553E-18
   53.54438        6.7659627E-18
   53.75813        6.7631155E-18
   53.97187        6.7758649E-18
   54.18562        6.8032024E-18
   54.39938        6.8420641E-18
   54.61312        6.8877394E-18
   54.82687        6.9345074E-18
   55.04063        6.9764214E-18
   55.25438        7.0081215E-18
   55.46812        7.0255717E-18
   55.68187        7.0265891E-18
   55.89563        7.0111349E-18
   56.10938        6.9812919E-18
   56.32312        6.9409643E-18
   56.53688        6.8953263E-18
   56.75063        6.8501039E-18
   56.96437        6.8107868E-18
   57.17812        6.7818686E-18
   57.39188        6.7662324E-18
   57.60563        6.7647525E-18
   57.81937        6.7761825E-18
   58.03313        6.7973352E-18
   58.24688        6.8235432E-18
   58.46062        6.8493264E-18
   58.67437        6.8691746E-18
   58.88813        6.8783319E-18
   59.10188        6.8734755E-18
   59.31562        6.8531852E-18
   59.52937        6.8181561E-18
   59.74313        6.7711136E-18
   59.95687        6.7164535E-18
   60.17062        6.6596592E-18
   60.38438        6.6065757E-18
   60.59813        6.5626256E-18
   60.81187        6.5320865E-18
   61.02562        6.5175173E-18
   61.23938        6.5194066E-18
   61.45312        6.5361120E-18
   61.66687        6.5640835E-18
   61.88063        6.5983577E-18
   62.09438        6.6332515E-18
   62.30812        6.6631541E-18
   62.52187        6.6833116E-18
   62.73563        6.6904825E-18
   62.94938        6.6833762E-18
   63.16312        6.6628091E-18
   63.37688        6.6315620E-18
   63.59063        6.5939646E-18
   63.80437        6.5552748E-18
   64.01813        6.5209249E-18
   64.23187        6.4957691E-18
   64.44563        6.4833986E-18
   64.65938        6.4856428E-18
   64.87312        6.5023063E-18
   65.08688        6.5311762E-18
   65.30063        6.5683083E-18
   65.51437        6.6085490E-18
   65.72813        6.6462279E-18
   65.94187        6.6759295E-18
   66.15562        6.6932403E-18
   66.36938        6.6953641E-18
   66.58312        6.6815171E-18
   66.79688        6.6530406E-18
   67.01063        6.6132205E-18
   67.22437        6.5668268E-18
   67.43813        6.5194463E-18
   67.65188        6.4767026E-18
   67.86562        6.4434739E-18
   68.07938        6.4232241E-18
   68.29312        6.4175340E-18
   68.50687        6.4258992E-18
   68.72063        6.4458239E-18
   68.93437        6.4731788E-18
   69.14812        6.5027844E-18
   69.36188        6.5291347E-18
   69.57562        6.5471639E-18
   69.78938        6.5529447E-18
   70.00313        6.5442423E-18
   70.21687        6.5208327E-18
   70.43063        6.4845509E-18
   70.64438        6.4390510E-18
   70.85812        6.3893163E-18
   71.07188        6.3409743E-18
   71.28562        6.2995213E-18
   71.49937        6.2695559E-18
   71.71313        6.2541331E-18
   71.92687        6.2543362E-18
   72.14062        6.2691258E-18
   72.35438        6.2954892E-18
   72.56812        6.3288676E-18
   72.78188        6.3637999E-18
   72.99563        6.3946918E-18
   73.20937        6.4165947E-18
   73.42313        6.4258972E-18
   73.63687        6.4208199E-18
   73.85062        6.4016595E-18
   74.06438        6.3707416E-18
   74.27812        6.3320941E-18
   74.49187        6.2908872E-18
   74.70563        6.2527087E-18
   74.91937        6.2227846E-18
   75.13313        6.2052335E-18
   75.34688        6.2024864E-18
   75.56062        6.2149223E-18
   75.77438        6.2407998E-18
   75.98813        6.2764860E-18
   76.20187        6.3169484E-18
   76.41563        6.3564516E-18
   76.62937        6.3893523E-18
   76.84312        6.4108760E-18
   77.05688        6.4177759E-18
   77.27062        6.4087663E-18
   77.48438        6.3846858E-18
   77.69813        6.3483635E-18
   77.91187        6.3042073E-18
   78.12563        6.2575891E-18
   78.33938        6.2140947E-18
   78.55312        6.1787555E-18
   78.76688        6.1553578E-18
   78.98062        6.1459271E-18
   79.19437        6.1504555E-18
   79.40813        6.1669102E-18
   79.62187        6.1915213E-18
   79.83562        6.2193179E-18
   80.04938        6.2448344E-18
   80.26312        6.2628888E-18
   80.47688        6.2693268E-18
   80.69063        6.2616191E-18
   80.90437        6.2392319E-18
   81.11813        6.2037107E-18
   81.33188        6.1584693E-18
   81.54562        6.1083128E-18
   81.75938        6.0587737E-18
   81.97312        6.0153447E-18
   82.18687        5.9827277E-18
   82.40063        5.9641985E-18
   82.61437        5.9611722E-18
   82.82812        5.9730298E-18
   83.04188        5.9972166E-18
   83.25562        6.0296073E-18
   83.46938        6.0650802E-18
   83.68313        6.0982170E-18
   83.89687        6.1240490E-18
   84.11063        6.1387340E-18
   84.32437        6.1400777E-18
   84.53812        6.1278301E-18
   84.75188        6.1037045E-18
   84.96562        6.0711240E-18
   85.17937        6.0347239E-18
   85.39313        5.9996816E-18
   85.60687        5.9709710E-18
   85.82063        5.9526485E-18
   86.03438        5.9472719E-18
   86.24812        5.9555354E-18
   86.46188        5.9761706E-18
   86.67563        6.0061241E-18
   86.88937        6.0409848E-18
   87.10313        6.0755924E-18
   87.31687        6.1047505E-18
   87.53062        6.1239341E-18
   87.74438        6.1299104E-18
   87.95812        6.1211762E-18
   88.17188        6.0981649E-18
   88.38563        6.0631872E-18
   88.59937        6.0201229E-18
   88.81313        5.9738942E-18
   89.02688        5.9297968E-18
   89.24062        5.8927842E-18
   89.45438        5.8667897E-18
   89.66812        5.8542000E-18
   89.88187        5.8555396E-18
   90.09563        5.8694180E-18
   90.30937        5.8927470E-18
   90.52312        5.9211904E-18
   90.73688        5.9497844E-18
   90.95062        5.9736411E-18
   91.16438        5.9886317E-18
   91.37813        5.9919562E-18
   91.59187        5.9825209E-18
   91.80563        5.9610820E-18
   92.01938        5.9301248E-18
   92.23312        5.8935138E-18
   92.44688        5.8559490E-18
   92.66062        5.8223117E-18
   92.87437        5.7969802E-18
   93.08813        5.7832175E-18
   93.30187        5.7826997E-18
   93.51562        5.7952687E-18
   93.72938        5.8189282E-18
   93.94312        5.8501021E-18
   94.15688        5.8841129E-18
   94.37063        5.9158196E-18
   94.58437        5.9403264E-18
   94.79813        5.9536564E-18
   95.01187        5.9533008E-18
   95.22562        5.9385641E-18
   95.43938        5.9106505E-18
   95.65312        5.8724877E-18
   95.86687        5.8283179E-18
   96.08063        5.7831055E-18
   96.29437        5.7418614E-18
   96.50813        5.7089624E-18
   96.72188        5.6875649E-18
   96.93562        5.6791913E-18
   97.14938        5.6835357E-18
   97.36313        5.6985217E-18
   97.57687        5.7205942E-18
   97.79063        5.7452222E-18
   98.00437        5.7675330E-18
   98.21812        5.7830000E-18
   98.43188        5.7880900E-18
   98.64562        5.7807740E-18
   98.85938        5.7608332E-18
   99.07313        5.7299041E-18
   99.28687        5.6912603E-18
   99.50063        5.6493574E-18
   99.71438        5.6092060E-18
   99.92812        5.5756725E-18
   100.1419        5.5528006E-18
   100.3556        5.5432578E-18
   100.5694        5.5479781E-18
   100.7831        5.5660471E-18
   100.9969        5.5948437E-18
   101.2106        5.6303996E-18
   101.4244        5.6679425E-18
   101.6381        5.7025348E-18
   101.8519        5.7297341E-18
   102.0656        5.7461880E-18
   102.2794        5.7500856E-18
   102.4931        5.7414031E-18
   102.7069        5.7219073E-18
   102.9206        5.6949061E-18
   103.1344        5.6647793E-18
   103.3481        5.6363421E-18
   103.5619        5.6141443E-18
   103.7756        5.6017974E-18
   103.9894        5.6014376E-18
   104.2031        5.6134048E-18
   104.4169        5.6361874E-18
   104.6306        5.6666310E-18
   104.8444        5.7003837E-18
   105.0581        5.7325002E-18
   105.2719        5.7581254E-18
   105.4856        5.7731545E-18
   105.6994        5.7747882E-18
   105.9131        5.7619090E-18
   106.1269        5.7352406E-18
   106.3406        5.6972565E-18
   106.5544        5.6518646E-18
   106.7681        5.6038885E-18
   106.9819        5.5584271E-18
   107.1956        5.5201625E-18
   107.4094        5.4927212E-18
   107.6231        5.4781810E-18
   107.8369        5.4767905E-18
   108.0506        5.4869583E-18
   108.2644        5.5054966E-18
   108.4781        5.5281055E-18
   108.6919        5.5500006E-18
   108.9056        5.5666120E-18
   109.1194        5.5742378E-18
   109.3331        5.5705734E-18
   109.5469        5.5550352E-18
   109.7606        5.5288521E-18
   109.9744        5.4948971E-18
   110.1881        5.4572997E-18
   110.4019        5.4208802E-18
   110.6156        5.3904829E-18
   110.8294        5.3702964E-18
   111.0431        5.3632555E-18
   111.2569        5.3706116E-18
   111.4706        5.3917390E-18
   111.6844        5.4242001E-18
   111.8981        5.4640718E-18
   112.1119        5.5064830E-18
   112.3256        5.5462832E-18
   112.5394        5.5787447E-18
   112.7531        5.6001947E-18
   112.9669        5.6084976E-18
   113.1806        5.6033140E-18
   113.3944        5.5861153E-18
   113.6081        5.5599565E-18
   113.8219        5.5290394E-18
   114.0356        5.4981285E-18
   114.2494        5.4718907E-18
   114.4631        5.4542462E-18
   114.6769        5.4478157E-18
   114.8906        5.4535397E-18
   115.1044        5.4705284E-18
   115.3181        5.4961673E-18
   115.5319        5.5264747E-18
   115.7456        5.5566643E-18
   115.9594        5.5818317E-18
   116.1731        5.5976660E-18
   116.3869        5.6010744E-18
   116.6006        5.5906284E-18
   116.8144        5.5667675E-18
   117.0281        5.5317306E-18
   117.2419        5.4892326E-18
   117.4556        5.4439440E-18
   117.6694        5.4008421E-18
   117.8831        5.3645388E-18
   118.0969        5.3386650E-18
   118.3106        5.3253962E-18
   118.5244        5.3251729E-18
   118.7381        5.3366579E-18
   118.9519        5.3569259E-18
   119.1656        5.3818703E-18
   119.3794        5.4067709E-18
   119.5931        5.4269546E-18
   119.8069        5.4384540E-18
   120.0206        5.4385752E-18
   120.2344        5.4262916E-18
   120.4481        5.4024026E-18
   120.6619        5.3694262E-18
   120.8756        5.3312523E-18
   121.0894        5.2925869E-18
   121.3031        5.2582920E-18
   121.5169        5.2327007E-18
   121.7306        5.2190113E-18
   121.9444        5.2188471E-18
   122.1581        5.2320357E-18
   122.3719        5.2566389E-18
   122.5856        5.2892216E-18
   122.7994        5.3253193E-18
   123.0131        5.3600526E-18
   123.2269        5.3887864E-18
   123.4406        5.4077652E-18
   123.6544        5.4146259E-18
   123.8681        5.4087173E-18
   124.0819        5.3911836E-18
   124.2956        5.3647907E-18
   124.5094        5.3335249E-18
   124.7231        5.3020135E-18
   124.9369        5.2748596E-18
   125.1506        5.2559792E-18
   125.3644        5.2480457E-18
   125.5781        5.2521130E-18
   125.7919        5.2674675E-18
   126.0056        5.2917316E-18
   126.2194        5.3211942E-18
   126.4331        5.3513192E-18
   126.6469        5.3773630E-18
   126.8606        5.3950291E-18
   127.0744        5.4010531E-18
   127.2881        5.3936585E-18
   127.5019        5.3728173E-18
   127.7156        5.3402677E-18
   127.9294        5.2992900E-18
   128.1431        5.2542670E-18
   128.3569        5.2100798E-18
   128.5706        5.1714352E-18
   128.7844        5.1422096E-18
   128.9981        5.1249232E-18
   129.2119        5.1203990E-18
   129.4256        5.1276823E-18
   129.6394        5.1441965E-18
   129.8531        5.1661400E-18
   130.0669        5.1890322E-18
   130.2806        5.2083543E-18
   130.4944        5.2201822E-18
   130.7081        5.2217319E-18
   130.9219        5.2117491E-18
   131.1356        5.1906948E-18
   131.3494        5.1606955E-18
   131.5631        5.1252710E-18
   131.7769        5.0888631E-18
   131.9906        5.0562255E-18
   132.2044        5.0317603E-18
   132.4181        5.0188894E-18
   132.6319        5.0195499E-18
   132.8456        5.0338990E-18
   133.0594        5.0602687E-18
   133.2731        5.0953867E-18
   133.4869        5.1348250E-18
   133.7006        5.1736140E-18
   133.9144        5.2069303E-18
   134.1281        5.2307564E-18
   134.3419        5.2424135E-18
   134.5556        5.2409043E-18
   134.7694        5.2270172E-18
   134.9831        5.2031853E-18
   135.1969        5.1731239E-18
   135.4106        5.1412956E-18
   135.6244        5.1122893E-18
   135.8381        5.0901734E-18
   136.0519        5.0779319E-18
   136.2656        5.0770435E-18
   136.4794        5.0872716E-18
   136.6931        5.1066888E-18
   136.9069        5.1319476E-18
   137.1206        5.1587462E-18
   137.3344        5.1824396E-18
   137.5481        5.1987019E-18
   137.7619        5.2041460E-18
   137.9756        5.1968135E-18
   138.1894        5.1764603E-18
   138.4031        5.1446060E-18
   138.6169        5.1043322E-18
   138.8306        5.0598671E-18
   139.0444        5.0160092E-18
   139.2581        4.9774845E-18
   139.4719        4.9483015E-18
   139.6856        4.9312141E-18
   139.8994        4.9273553E-18
   140.1131        4.9360874E-18
   140.3269        4.9551043E-18
   140.5406        4.9807580E-18
   140.7544        5.0085782E-18
   140.9681        5.0339040E-18
   141.1819        5.0525412E-18
   141.3956        5.0613577E-18
   141.6094        5.0587157E-18
   141.8231        5.0446941E-18
   142.0369        5.0210670E-18
   142.2506        4.9910329E-18
   142.4644        4.9587563E-18
   142.6781        4.9287747E-18
   142.8919        4.9053552E-18
   143.1056        4.8918998E-18
   143.3194        4.8904700E-18
   143.5331        4.9014926E-18
   143.7469        4.9236884E-18
   143.9606        4.9542304E-18
   144.1744        4.9891138E-18
   144.3881        5.0236862E-18
   144.6019        5.0532770E-18
   144.8156        5.0738341E-18
   145.0294        5.0824851E-18
   145.2431        5.0779377E-18
   145.4569        5.0606678E-18
   145.6706        5.0328514E-18
   145.8844        4.9980618E-18
   146.0981        4.9607585E-18
   146.3119        4.9256604E-18
   146.5256        4.8970759E-18
   146.7394        4.8783068E-18
   146.9531        4.8711918E-18
   147.1669        4.8758707E-18
   147.3806        4.8907864E-18
   147.5944        4.9129193E-18
   147.8081        4.9382294E-18
   148.0219        4.9622259E-18
   148.2356        4.9806017E-18
   148.4494        4.9898401E-18
   148.6631        4.9877105E-18
   148.8769        4.9735963E-18
   149.0906        4.9485948E-18
   149.3044        4.9153884E-18
   149.5181        4.8778849E-18
   149.7319        4.8406829E-18
   149.9456        4.8084348E-18
   150.1594        4.7851915E-18
   150.3731        4.7738351E-18
   150.5869        4.7756673E-18
   150.8006        4.7902311E-18
   151.0144        4.8153736E-18
   151.2281        4.8475489E-18
   151.4419        4.8823120E-18
   151.6556        4.9149294E-18
   151.8694        4.9410219E-18
   152.0831        4.9571549E-18
   152.2969        4.9612912E-18
   152.5106        4.9530529E-18
   152.7244        4.9337556E-18
   152.9381        4.9062109E-18
   153.1519        4.8743177E-18
   153.3656        4.8425080E-18
   153.5794        4.8151097E-18
   153.7931        4.7957239E-18
   154.0069        4.7867106E-18
   154.2206        4.7888464E-18
   154.4344        4.8012239E-18
   154.6481        4.8213847E-18
   154.8619        4.8456873E-18
   155.0756        4.8698306E-18
   155.2894        4.8894778E-18
   155.5031        4.9008673E-18
   155.7169        4.9013437E-18
   155.9306        4.8897322E-18
   156.1444        4.8665000E-18
   156.3581        4.8337006E-18
   156.5719        4.7946995E-18
   156.7856        4.7537247E-18
   156.9994        4.7152988E-18
   157.2131        4.6836265E-18
   157.4269        4.6620288E-18
   157.6406        4.6524931E-18
   157.8544        4.6554081E-18
   158.0681        4.6695247E-18
   158.2819        4.6921403E-18
   158.4956        4.7194897E-18
   158.7094        4.7472789E-18
   158.9231        4.7712894E-18
   159.1369        4.7879592E-18
   159.3506        4.7948662E-18
   159.5644        4.7910446E-18
   159.7781        4.7770938E-18
   159.9919        4.7550742E-18
   160.2056        4.7282016E-18
   160.4194        4.7003901E-18
   160.6331        4.6757050E-18
   160.8469        4.6577965E-18
   161.0606        4.6493961E-18
   161.2744        4.6519331E-18
   161.4881        4.6653338E-18
   161.7019        4.6880184E-18
   161.9156        4.7171083E-18
   162.1294        4.7488100E-18
   162.3431        4.7789285E-18
   162.5569        4.8034386E-18
   162.7706        4.8190376E-18
   162.9844        4.8235954E-18
   163.1981        4.8164477E-18
   163.4119        4.7984793E-18
   163.6256        4.7719901E-18
   163.8394        4.7403649E-18
   164.0531        4.7075916E-18
   164.2669        4.6777006E-18
   164.4806        4.6542029E-18
   164.6944        4.6396114E-18
   164.9081        4.6351045E-18
   165.1219        4.6403823E-18
   165.3356        4.6537223E-18
   165.5494        4.6722358E-18
   165.7631        4.6922697E-18
   165.9769        4.7099217E-18
   166.1906        4.7215817E-18
   166.4044        4.7244379E-18
   166.6181        4.7168804E-18
   166.8319        4.6987436E-18
   167.0456        4.6713511E-18
   167.2594        4.6373536E-18
   167.4731        4.6003749E-18
   167.6869        4.5645162E-18
   167.9006        4.5337852E-18
   168.1144        4.5115332E-18
   168.3281        4.4999916E-18
   168.5419        4.4999630E-18
   168.7556        4.5107304E-18
   168.9694        4.5301746E-18
   169.1831        4.5550950E-18
   169.3969        4.5816703E-18
   169.6106        4.6059956E-18
   169.8244        4.6246142E-18
   170.0381        4.6349825E-18
   170.2519        4.6357964E-18
   170.4656        4.6271520E-18
   170.6794        4.6105124E-18
   170.8931        4.5884978E-18
   171.1069        4.5645154E-18
   171.3206        4.5422824E-18
   171.5344        4.5253025E-18
   171.7481        4.5163656E-18
   171.9619        4.5171415E-18
   172.1756        4.5279304E-18
   172.3894        4.5476020E-18
   172.6031        4.5737447E-18
   172.8169        4.6029938E-18
   173.0306        4.6314976E-18
   173.2444        4.6554569E-18
   173.4581        4.6716448E-18
   173.6719        4.6778495E-18
   173.8856        4.6731676E-18
   174.0994        4.6581084E-18
   174.3131        4.6345160E-18
   174.5269        4.6052946E-18
   174.7406        4.5740060E-18
   174.9544        4.5443764E-18
   175.1681        4.5197868E-18
   175.3819        4.5028131E-18
   175.5956        4.4948796E-18
   175.8094        4.4960662E-18
   176.0231        4.5051114E-18
   176.2369        4.5195929E-18
   176.4506        4.5362787E-18
   176.6644        4.5515919E-18
   176.8781        4.5621228E-18
   177.0919        4.5651201E-18
   177.3056        4.5588901E-18
   177.5194        4.5430418E-18
   177.7331        4.5185469E-18
   177.9469        4.4876157E-18
   178.1606        4.4533936E-18
   178.3744        4.4195350E-18
   178.5881        4.3897123E-18
   178.8019        4.3671244E-18
   179.0156        4.3540715E-18
   179.2294        4.3516566E-18
   179.4431        4.3596409E-18
   179.6569        4.3764906E-18
   179.8706        4.3995859E-18
   180.0844        4.4255883E-18
   180.2981        4.4509030E-18
   180.5119        4.4721789E-18
   180.7256        4.4867769E-18
   180.9394        4.4931351E-18
   181.1531        4.4909807E-18
   181.3669        4.4813511E-18
   181.5806        4.4664279E-18
   181.7944        4.4492064E-18
   182.0081        4.4330450E-18
   182.2219        4.4211778E-18
   182.4356        4.4162486E-18
   182.6494        4.4199329E-18
   182.8631        4.4327050E-18
   183.0769        4.4537654E-18
   183.2906        4.4811447E-18
   183.5044        4.5119526E-18
   183.7181        4.5427581E-18
   183.9319        4.5700281E-18
   184.1456        4.5905956E-18
   184.3594        4.6020760E-18
   184.5731        4.6031915E-18
   184.7869        4.5939452E-18
   185.0006        4.5756294E-18
   185.2144        4.5506485E-18
   185.4281        4.5221852E-18
   185.6419        4.4937526E-18
   185.8556        4.4686985E-18
   186.0694        4.4497333E-18
   186.2831        4.4385618E-18
   186.4969        4.4356564E-18
   186.7106        4.4402253E-18
   186.9244        4.4503554E-18
   187.1381        4.4633177E-18
   187.3519        4.4759785E-18
   187.5656        4.4852591E-18
   187.7794        4.4885740E-18
   187.9931        4.4841957E-18
   188.2069        4.4714985E-18
   188.4206        4.4510543E-18
   188.6344        4.4245643E-18
   188.8481        4.3946447E-18
   189.0619        4.3644841E-18
   189.2756        4.3374245E-18
   189.4894        4.3165105E-18
   189.7031        4.3040726E-18
   189.9169        4.3014120E-18
   190.1306        4.3086138E-18
   190.3444        4.3245441E-18
   190.5581        4.3470099E-18
   190.7719        4.3730756E-18
   190.9856        4.3994771E-18
   191.1994        4.4230766E-18
   191.4131        4.4412882E-18
   191.6269        4.4524167E-18
   191.8406        4.4558611E-18
   192.0544        4.4521665E-18
   192.2681        4.4429145E-18
   192.4819        4.4304770E-18