  -30.00000        4.8965759E-18
  -29.85750        4.8965763E-18
  -29.71500        4.8965767E-18
  -29.57250        4.8965771E-18
  -29.43000        4.8965771E-18
  -29.28750        4.8965767E-18
  -29.14500        4.8965750E-18
  -29.00250        4.8965730E-18
  -28.86000        4.8965701E-18
  -28.71750        4.8965672E-18
  -28.57500        4.8965643E-18
  -28.43250        4.8965618E-18
  -28.29000        4.8965593E-18
  -28.14750        4.8965568E-18
  -28.00500        4.8965535E-18
  -27.86250        4.8965498E-18
  -27.72000        4.8965449E-18
  -27.57750        4.8965374E-18
  -27.43500        4.8965291E-18
  -27.29250        4.8965188E-18
  -27.15000        4.8965085E-18
  -27.00750        4.8964969E-18
  -26.86500        4.8964857E-18
  -26.72250        4.8964754E-18
  -26.58000        4.8964659E-18
  -26.43750        4.8964572E-18
  -26.29500        4.8964485E-18
  -26.15250        4.8964398E-18
  -26.01000        4.8964303E-18
  -25.86750        4.8964195E-18
  -25.72500        4.8964071E-18
  -25.58250        4.8963927E-18
  -25.44000        4.8963761E-18
  -25.29750        4.8963583E-18
  -25.15500        4.8963405E-18
  -25.01250        4.8963236E-18
  -24.87000        4.8963075E-18
  -24.72750        4.8962938E-18
  -24.58500        4.8962822E-18
  -24.44250        4.8962731E-18
  -24.30000        4.8962644E-18
  -24.15750        4.8962553E-18
  -24.01500        4.8962450E-18
  -23.87250        4.8962326E-18
  -23.73000        4.8962169E-18
  -23.58750        4.8961987E-18
  -23.44500        4.8961776E-18
  -23.30250        4.8961553E-18
  -23.16000        4.8961329E-18
  -23.01750        4.8961122E-18
  -22.87500        4.8960945E-18
  -22.73250        4.8960812E-18
  -22.59000        4.8960721E-18
  -22.44750        4.8960663E-18
  -22.30500        4.8960626E-18
  -22.16250        4.8960589E-18
  -22.02000        4.8960527E-18
  -21.87750        4.8960432E-18
  -21.73500        4.8960295E-18
  -21.59250        4.8960121E-18
  -21.45000        4.8959915E-18
  -21.30750        4.8959695E-18
  -21.16500        4.8959489E-18
  -21.02250        4.8959319E-18
  -20.88000        4.8959191E-18
  -20.73750        4.8959116E-18
  -20.59500        4.8959079E-18
  -20.45250        4.8959075E-18
  -20.31000        4.8959079E-18
  -20.16750        4.8959071E-18
  -20.02500        4.8959025E-18
  -19.88250        4.8958926E-18
  -19.74000        4.8958769E-18
  -19.59750        4.8958571E-18
  -19.45500        4.8958355E-18
  -19.31250        4.8958132E-18
  -19.17000        4.8957942E-18
  -19.02750        4.8957789E-18
  -18.88500        4.8957698E-18
  -18.74250        4.8957661E-18
  -18.60000        4.8957669E-18
  -18.45750        4.8957690E-18
  -18.31500        4.8957710E-18
  -18.17250        4.8957702E-18
  -18.03000        4.8957648E-18
  -17.88750        4.8957537E-18
  -17.74500        4.8957371E-18
  -17.60250        4.8957168E-18
  -17.46000        4.8956958E-18
  -17.31750        4.8956763E-18
  -17.17500        4.8956606E-18
  -17.03250        4.8956515E-18
  -16.89000        4.8956490E-18
  -16.74750        4.8956527E-18
  -16.60500        4.8956602E-18
  -16.46250        4.8956689E-18
  -16.32000        4.8956755E-18
  -16.17750        4.8956780E-18
  -16.03500        4.8956751E-18
  -15.89250        4.8956664E-18
  -15.75000        4.8956536E-18
  -15.60750        4.8956366E-18
  -15.46500        4.8956201E-18
  -15.32250        4.8956064E-18
  -15.18000        4.8955969E-18
  -15.03750        4.8955944E-18
  -14.89500        4.8955969E-18
  -14.75250        4.8956039E-18
  -14.61000        4.8956122E-18
  -14.46750        4.8956188E-18
  -14.32500        4.8956205E-18
  -14.18250        4.8956168E-18
  -14.04000        4.8956056E-18
  -13.89750        4.8955874E-18
  -13.75500        4.8955646E-18
  -13.61250        4.8955398E-18
  -13.47000        4.8955167E-18
  -13.32750        4.8954985E-18
  -13.18500        4.8954865E-18
  -13.04250        4.8954819E-18
  -12.90000        4.8954844E-18
  -12.75750        4.8954914E-18
  -12.61500        4.8954993E-18
  -12.47250        4.8955055E-18
  -12.33000        4.8955072E-18
  -12.18750        4.8955018E-18
  -12.04500        4.8954890E-18
  -11.90250        4.8954691E-18
  -11.76000        4.8954455E-18
  -11.61750        4.8954207E-18
  -11.47500        4.8953984E-18
  -11.33250        4.8953810E-18
  -11.19000        4.8953711E-18
  -11.04750        4.8953678E-18
  -10.90500        4.8953694E-18
  -10.76250        4.8953744E-18
  -10.62000        4.8953781E-18
  -10.47750        4.8953785E-18
  -10.33500        4.8953723E-18
  -10.19250        4.8953578E-18
  -10.05000        4.8953343E-18
  -9.907500        4.8953041E-18
  -9.765000        4.8952706E-18
  -9.622500        4.8952371E-18
  -9.480000        4.8952065E-18
  -9.337500        4.8951829E-18
  -9.195000        4.8951680E-18
  -9.052500        4.8951597E-18
  -8.910000        4.8951577E-18
  -8.767500        4.8951589E-18
  -8.625000        4.8951597E-18
  -8.482500        4.8951564E-18
  -8.340000        4.8951473E-18
  -8.197500        4.8951312E-18
  -8.055000        4.8951080E-18
  -7.912500        4.8950812E-18
  -7.770000        4.8950526E-18
  -7.627500        4.8950266E-18
  -7.485000        4.8950059E-18
  -7.342500        4.8949914E-18
  -7.200000        4.8949844E-18
  -7.057500        4.8949831E-18
  -6.915000        4.8949856E-18
  -6.772500        4.8949881E-18
  -6.630000        4.8949877E-18
  -6.487500        4.8949815E-18
  -6.345000        4.8949670E-18
  -6.202500        4.8949447E-18
  -6.060000        4.8949149E-18
  -5.917500        4.8948810E-18
  -5.775000        4.8948458E-18
  -5.632500        4.8948127E-18
  -5.490000        4.8947838E-18
  -5.347500        4.8947602E-18
  -5.205000        4.8947428E-18
  -5.062500        4.8947300E-18
  -4.920000        4.8947184E-18
  -4.777500        4.8947064E-18
  -4.635000        4.8946895E-18
  -4.492500        4.8946667E-18
  -4.350000        4.8946353E-18
  -4.207500        4.8945968E-18
  -4.065000        4.8945518E-18
  -3.922500        4.8945038E-18
  -3.780000        4.8944558E-18
  -3.637500        4.8944111E-18
  -3.495000        4.8943714E-18
  -3.352500        4.8943392E-18
  -3.210000        4.8943131E-18
  -3.067500        4.8942929E-18
  -2.925000        4.8942747E-18
  -2.782500        4.8942573E-18
  -2.640000        4.8942362E-18
  -2.497500        4.8942110E-18
  -2.355000        4.8941799E-18
  -2.212500        4.8941431E-18
  -2.070000        4.8941026E-18
  -1.927500        4.8940604E-18
  -1.785000        4.8940191E-18
  -1.642500        4.8939822E-18
  -1.500000        4.8939525E-18
  -1.357500        4.8939289E-18
  -1.215000        4.8939119E-18
  -1.072500        4.8938987E-18
 -0.9300000        4.8938863E-18
 -0.7875000        4.8938710E-18
 -0.6450000        4.8938511E-18
 -0.5025000        4.8938243E-18
 -0.3600000        4.8937899E-18
 -0.2175000        4.8937490E-18
 -7.5000003E-02    4.8937043E-18
  6.7500003E-02    4.8936584E-18
  0.2100000        4.8936146E-18
  0.3525000        4.8935753E-18
  0.4950000        4.8935418E-18
  0.6375000        4.8935157E-18
  0.7800000        4.8934959E-18
  0.9225000        4.8934785E-18
   1.065000        4.8934611E-18
   1.207500        4.8934400E-18
   1.350000        4.8934127E-18
   1.492500        4.8933784E-18
   1.635000        4.8933370E-18
   1.777500        4.8932899E-18
   1.920000        4.8932403E-18
   2.062500        4.8931910E-18
   2.205000        4.8931456E-18
   2.347500        4.8931067E-18
   2.490000        4.8930761E-18
   2.632500        4.8930525E-18
   2.775000        4.8930355E-18
   2.917500        4.8930215E-18
   3.060000        4.8930066E-18
   3.202500        4.8929880E-18
   3.345000        4.8929619E-18
   3.487500        4.8929276E-18
   3.630000        4.8928854E-18
   3.772500        4.8928362E-18
   3.915000        4.8927832E-18
   4.057500        4.8927299E-18
   4.200000        4.8926786E-18
   4.342500        4.8926327E-18
   4.485000        4.8925934E-18
   4.627500        4.8925603E-18
   4.770000        4.8925318E-18
   4.912500        4.8925061E-18
   5.055000        4.8924801E-18
   5.197500        4.8924507E-18
   5.340000        4.8924160E-18
   5.482500        4.8923750E-18
   5.625000        4.8923283E-18
   5.767500        4.8922778E-18
   5.910000        4.8922253E-18
   6.052500        4.8921744E-18
   6.195000        4.8921277E-18
   6.337500        4.8920872E-18
   6.480000        4.8920528E-18
   6.622500        4.8920256E-18
   6.765000        4.8920028E-18
   6.907500        4.8919821E-18
   7.050000        4.8919602E-18
   7.192500        4.8919346E-18
   7.335000        4.8919019E-18
   7.477500        4.8918622E-18
   7.620000        4.8918150E-18
   7.762500        4.8917633E-18
   7.905000        4.8917092E-18
   8.047500        4.8916546E-18
   8.190000        4.8916037E-18
   8.332500        4.8915590E-18
   8.475000        4.8915214E-18
   8.617500        4.8914908E-18
   8.760000        4.8914647E-18
   8.902500        4.8914403E-18
   9.045000        4.8914139E-18
   9.187500        4.8913816E-18
   9.330000        4.8913419E-18
   9.472500        4.8912931E-18
   9.615000        4.8912368E-18
   9.757500        4.8911756E-18
   9.900000        4.8911128E-18
   10.04250        4.8910528E-18
   10.18500        4.8909986E-18
   10.32750        4.8909527E-18
   10.47000        4.8909163E-18
   10.61250        4.8908874E-18
   10.75500        4.8908634E-18
   10.89750        4.8908402E-18
   11.04000        4.8908137E-18
   11.18250        4.8907802E-18
   11.32500        4.8907372E-18
   11.46750        4.8906855E-18
   11.61000        4.8906255E-18
   11.75250        4.8905614E-18
   11.89500        4.8904977E-18
   12.03750        4.8904390E-18
   12.18000        4.8903894E-18
   12.32250        4.8903497E-18
   12.46500        4.8903199E-18
   12.60750        4.8902972E-18
   12.75000        4.8902773E-18
   12.89250        4.8902546E-18
   13.03500        4.8902244E-18
   13.17750        4.8901834E-18
   13.32000        4.8901292E-18
   13.46250        4.8900631E-18
   13.60500        4.8899886E-18
   13.74750        4.8899100E-18
   13.89000        4.8898339E-18
   14.03250        4.8897636E-18
   14.17500        4.8897041E-18
   14.31750        4.8896565E-18
   14.46000        4.8896205E-18
   14.60250        4.8895916E-18
   14.74500        4.8895655E-18
   14.88750        4.8895362E-18
   15.03000        4.8894989E-18
   15.17250        4.8894514E-18
   15.31500        4.8893922E-18
   15.45750        4.8893232E-18
   15.60000        4.8892475E-18
   15.74250        4.8891705E-18
   15.88500        4.8890977E-18
   16.02750        4.8890349E-18
   16.17000        4.8889832E-18
   16.31250        4.8889435E-18
   16.45500        4.8889141E-18
   16.59750        4.8888914E-18
   16.74000        4.8888694E-18
   16.88250        4.8888421E-18
   17.02500        4.8888053E-18
   17.16750        4.8887569E-18
   17.31000        4.8886970E-18
   17.45250        4.8886275E-18
   17.59500        4.8885522E-18
   17.73750        4.8884765E-18
   17.88000        4.8884054E-18
   18.02250        4.8883421E-18
   18.16500        4.8882892E-18
   18.30750        4.8882462E-18
   18.45000        4.8882106E-18
   18.59250        4.8881779E-18
   18.73500        4.8881436E-18
   18.87750        4.8881026E-18
   19.02000        4.8880497E-18
   19.16250        4.8879848E-18
   19.30500        4.8879083E-18
   19.44750        4.8878235E-18
   19.59000        4.8877350E-18
   19.73250        4.8876481E-18
   19.87500        4.8875687E-18
   20.01750        4.8875000E-18
   20.16000        4.8874430E-18
   20.30250        4.8873971E-18
   20.44500        4.8873594E-18
   20.58750        4.8873251E-18
   20.73000        4.8872887E-18
   20.87250        4.8872465E-18
   21.01500        4.8871952E-18
   21.15750        4.8871332E-18
   21.30000        4.8870621E-18
   21.44250        4.8869843E-18
   21.58500        4.8869045E-18
   21.72750        4.8868284E-18
   21.87000        4.8867597E-18
   22.01250        4.8867010E-18
   22.15500        4.8866543E-18
   22.29750        4.8866170E-18
   22.44000        4.8865852E-18
   22.58250        4.8865546E-18
   22.72500        4.8865190E-18
   22.86750        4.8864743E-18
   23.01000        4.8864173E-18
   23.15250        4.8863470E-18
   23.29500        4.8862655E-18
   23.43750        4.8861766E-18
   23.58000        4.8860856E-18
   23.72250        4.8859975E-18
   23.86500        4.8859160E-18
   24.00750        4.8858444E-18
   24.15000        4.8857836E-18
   24.29250        4.8857315E-18
   24.43500        4.8856844E-18
   24.57750        4.8856381E-18
   24.72000        4.8855876E-18
   24.86250        4.8855289E-18
   25.00500        4.8854606E-18
   25.14750        4.8853833E-18
   25.29000        4.8852993E-18
   25.43250        4.8852137E-18
   25.57500        4.8851306E-18
   25.71750        4.8850553E-18
   25.86000        4.8849904E-18
   26.00250        4.8849379E-18
   26.14500        4.8848957E-18
   26.28750        4.8848609E-18
   26.43000        4.8848287E-18
   26.57250        4.8847931E-18
   26.71500        4.8847497E-18
   26.85750        4.8846955E-18
   27.00000        4.8846293E-18
   27.14250        4.8845528E-18
   27.28500        4.8844697E-18
   27.42750        4.8843853E-18
   27.57000        4.8843034E-18
   27.71250        4.8842290E-18
   27.85500        4.8841636E-18
   27.99750        4.8841086E-18
   28.14000        4.8840623E-18
   28.28250        4.8840197E-18
   28.42500        4.8839767E-18
   28.56750        4.8839283E-18
   28.71000        4.8838704E-18
   28.85250        4.8838005E-18
   28.99500        4.8837186E-18
   29.13750        4.8836280E-18
   29.28000        4.8835316E-18
   29.42250        4.8834365E-18
   29.56500        4.8833472E-18
   29.70750        4.8832674E-18
   29.85000        4.8831995E-18
   29.99250        4.8831433E-18
   30.13500        4.8830970E-18
   30.27750        4.8830544E-18
   30.42000        4.8830122E-18
   30.56250        4.8829646E-18
   30.70500        4.8829071E-18
   30.84750        4.8828376E-18
   30.99000        4.8827570E-18
   31.13250        4.8826668E-18
   31.27500        4.8825717E-18
   31.41750        4.8824766E-18
   31.56000        4.8823864E-18
   31.70250        4.8823049E-18
   31.84500        4.8822342E-18
   31.98750        4.8821738E-18
   32.13000        4.8821221E-18
   32.27250        4.8820746E-18
   32.41500        4.8820262E-18
   32.55750        4.8819716E-18
   32.70000        4.8819083E-18
   32.84250        4.8818330E-18
   32.98500        4.8817466E-18
   33.12750        4.8816511E-18
   33.27000        4.8815514E-18
   33.41250        4.8814517E-18
   33.55500        4.8813570E-18
   33.69750        4.8812710E-18
   33.84000        4.8811949E-18
   33.98250        4.8811295E-18
   34.12500        4.8810724E-18
   34.26750        4.8810203E-18
   34.41000        4.8809682E-18
   34.55250        4.8809120E-18
   34.69500        4.8808483E-18
   34.83750        4.8807751E-18
   34.98000        4.8806936E-18
   35.12250        4.8806059E-18
   35.26500        4.8805162E-18
   35.40750        4.8804289E-18
   35.55000        4.8803482E-18
   35.69250        4.8802759E-18
   35.83500        4.8802130E-18
   35.97750        4.8801584E-18
   36.12000        4.8801092E-18
   36.26250        4.8800604E-18
   36.40500        4.8800070E-18
   36.54750        4.8799446E-18
   36.69000        4.8798710E-18
   36.83250        4.8797849E-18
   36.97500        4.8796898E-18
   37.11750        4.8795885E-18
   37.26000        4.8794863E-18
   37.40250        4.8793879E-18
   37.54500        4.8792973E-18
   37.68750        4.8792167E-18
   37.83000        4.8791468E-18
   37.97250        4.8790843E-18
   38.11500        4.8790260E-18
   38.25750        4.8789660E-18
   38.40000        4.8789007E-18
   38.54250        4.8788258E-18
   38.68500        4.8787402E-18
   38.82750        4.8786438E-18
   38.97000        4.8785396E-18
   39.11250        4.8784337E-18
   39.25500        4.8783299E-18
   39.39750        4.8782340E-18
   39.54000        4.8781484E-18
   39.68250        4.8780756E-18
   39.82500        4.8780139E-18
   39.96750        4.8779614E-18
   40.11000        4.8779126E-18
   40.25250        4.8778626E-18
   40.39500        4.8778063E-18
   40.53750        4.8777406E-18
   40.68000        4.8776640E-18
   40.82250        4.8775784E-18
   40.96500        4.8774854E-18
   41.10750        4.8773894E-18
   41.25000        4.8772955E-18
   41.39250        4.8772066E-18
   41.53500        4.8771264E-18
   41.67750        4.8770557E-18
   41.82000        4.8769920E-18
   41.96250        4.8769341E-18
   42.10500        4.8768770E-18
   42.24750        4.8768170E-18
   42.39000        4.8767488E-18
   42.53250        4.8766714E-18
   42.67500        4.8765837E-18
   42.81750        4.8764878E-18
   42.96000        4.8763860E-18
   43.10250        4.8762831E-18
   43.24500        4.8761842E-18
   43.38750        4.8760924E-18
   43.53000        4.8760093E-18
   43.67250        4.8759365E-18
   43.81500        4.8758720E-18
   43.95750        4.8758128E-18
   44.10000        4.8757557E-18
   44.24250        4.8756954E-18
   44.38500        4.8756292E-18
   44.52750        4.8755543E-18
   44.67000        4.8754704E-18
   44.81250        4.8753777E-18
   44.95500        4.8752797E-18
   45.09750        4.8751800E-18
   45.24000        4.8750845E-18
   45.38250        4.8749947E-18
   45.52500        4.8749145E-18
   45.66750        4.8748429E-18
   45.81000        4.8747788E-18
   45.95250        4.8747176E-18
   46.09500        4.8746568E-18
   46.23750        4.8745907E-18
   46.38000        4.8745166E-18
   46.52250        4.8744322E-18
   46.66500        4.8743384E-18
   46.80750        4.8742358E-18
   46.95000        4.8741291E-18
   47.09250        4.8740224E-18
   47.23500        4.8739202E-18
   47.37750        4.8738272E-18
   47.52000        4.8737449E-18
   47.66250        4.8736725E-18
   47.80500        4.8736088E-18
   47.94750        4.8735492E-18
   48.09000        4.8734888E-18
   48.23250        4.8734235E-18
   48.37500        4.8733491E-18
   48.51750        4.8732626E-18
   48.66000        4.8731671E-18
   48.80250        4.8730633E-18
   48.94500        4.8729549E-18
   49.08750        4.8728474E-18
   49.23000        4.8727448E-18
   49.37250        4.8726509E-18
   49.51500        4.8725665E-18
   49.65750        4.8724921E-18
   49.80000        4.8724239E-18
   49.94250        4.8723577E-18
   50.08500        4.8722878E-18
   50.22750        4.8722117E-18
   50.37000        4.8721244E-18
   50.51250        4.8720264E-18
   50.65500        4.8719180E-18
   50.79750        4.8718026E-18
   50.94000        4.8716844E-18
   51.08250        4.8715690E-18
   51.22500        4.8714606E-18
   51.36750        4.8713626E-18
   51.51000        4.8712757E-18
   51.65250        4.8711984E-18
   51.79500        4.8711268E-18
   51.93750        4.8710569E-18
   52.08000        4.8709841E-18
   52.22250        4.8709047E-18
   52.36500        4.8708158E-18
   52.50750        4.8707178E-18
   52.65000        4.8706127E-18
   52.79250        4.8705031E-18
   52.93500        4.8703935E-18
   53.07750        4.8702893E-18
   53.22000        4.8701921E-18
   53.36250        4.8701040E-18
   53.50500        4.8700242E-18
   53.64750        4.8699506E-18
   53.79000        4.8698803E-18
   53.93250        4.8698087E-18
   54.07500        4.8697322E-18
   54.21750        4.8696487E-18
   54.36000        4.8695560E-18
   54.50250        4.8694551E-18
   54.64500        4.8693472E-18
   54.78750        4.8692355E-18
   54.93000        4.8691242E-18
   55.07250        4.8690163E-18
   55.21500        4.8689137E-18
   55.35750        4.8688190E-18
   55.50000        4.8687301E-18
   55.64250        4.8686465E-18
   55.78500        4.8685642E-18
   55.92750        4.8684807E-18
   56.07000        4.8683926E-18
   56.21250        4.8682975E-18
   56.35500        4.8681953E-18
   56.49750        4.8680865E-18
   56.64000        4.8679740E-18
   56.78250        4.8678599E-18
   56.92500        4.8677478E-18
   57.06750        4.8676399E-18
   57.21000        4.8675385E-18
   57.35250        4.8674434E-18
   57.49500        4.8673549E-18
   57.63750        4.8672713E-18
   57.78000        4.8671890E-18
   57.92250        4.8671063E-18
   58.06500        4.8670195E-18
   58.20750        4.8669277E-18
   58.35000        4.8668292E-18
   58.49250        4.8667246E-18
   58.63500        4.8666146E-18
   58.77750        4.8665029E-18
   58.92000        4.8663921E-18
   59.06250        4.8662841E-18
   59.20500        4.8661819E-18
   59.34750        4.8660864E-18
   59.49000        4.8659975E-18
   59.63250        4.8659139E-18
   59.77500        4.8658333E-18
   59.91750        4.8657535E-18
   60.06000        4.8656712E-18
   60.20250        4.8655831E-18
   60.34500        4.8654875E-18
   60.48750        4.8653850E-18
   60.63000        4.8652770E-18
   60.77250        4.8651649E-18
   60.91500        4.8650528E-18
   61.05750        4.8649428E-18
   61.20000        4.8648378E-18
   61.34250        4.8647398E-18
   61.48500        4.8646479E-18
   61.62750        4.8645615E-18
   61.77000        4.8644780E-18
   61.91250        4.8643932E-18
   62.05500        4.8643038E-18
   62.19750        4.8642066E-18
   62.34000        4.8641008E-18
   62.48250        4.8639862E-18
   62.62500        4.8638658E-18
   62.76750        4.8637426E-18
   62.91000        4.8636218E-18
   63.05250        4.8635064E-18
   63.19500        4.8634001E-18
   63.33750        4.8633029E-18
   63.48000        4.8632149E-18
   63.62250        4.8631342E-18
   63.76500        4.8630564E-18
   63.90750        4.8629779E-18
   64.05000        4.8628943E-18
   64.19250        4.8628033E-18
   64.33500        4.8627041E-18
   64.47750        4.8625974E-18
   64.62000        4.8624861E-18
   64.76250        4.8623736E-18
   64.90500        4.8622636E-18
   65.04750        4.8621590E-18
   65.19000        4.8620622E-18
   65.33250        4.8619733E-18
   65.47500        4.8618897E-18
   65.61750        4.8618070E-18
   65.76000        4.8617205E-18
   65.90250        4.8616263E-18
   66.04500        4.8615212E-18
   66.18750        4.8614042E-18
   66.33000        4.8612755E-18
   66.47250        4.8611399E-18
   66.61500        4.8610005E-18
   66.75750        4.8608623E-18
   66.90000        4.8607300E-18
   67.04250        4.8606072E-18
   67.18500        4.8604943E-18
   67.32750        4.8603921E-18
   67.47000        4.8602978E-18
   67.61250        4.8602076E-18
   67.75500        4.8601179E-18
   67.89750        4.8600236E-18
   68.04000        4.8599227E-18
   68.18250        4.8598139E-18
   68.32500        4.8596973E-18
   68.46750        4.8595765E-18
   68.61000        4.8594557E-18
   68.75250        4.8593387E-18
   68.89500        4.8592283E-18
   69.03750        4.8591273E-18
   69.18000        4.8590351E-18
   69.32250        4.8589499E-18
   69.46500        4.8588701E-18
   69.60750        4.8587907E-18
   69.75000        4.8587092E-18
   69.89250        4.8586203E-18
   70.03500        4.8585227E-18
   70.17750        4.8584160E-18
   70.32000        4.8583010E-18
   70.46250        4.8581798E-18
   70.60500        4.8580553E-18
   70.74750        4.8579316E-18
   70.89000        4.8578125E-18
   71.03250        4.8576996E-18
   71.17500        4.8575942E-18
   71.31750        4.8574953E-18
   71.46000        4.8574002E-18
   71.60250        4.8573063E-18
   71.74500        4.8572103E-18
   71.88750        4.8571086E-18
   72.03000        4.8569994E-18
   72.17250        4.8568820E-18
   72.31500        4.8567571E-18
   72.45750        4.8566264E-18
   72.60000        4.8564932E-18
   72.74250        4.8563612E-18
   72.88500        4.8562339E-18
   73.02750        4.8561127E-18
   73.17000        4.8559989E-18
   73.31250        4.8558926E-18
   73.45500        4.8557901E-18
   73.59750        4.8556887E-18
   73.74000        4.8555854E-18
   73.88250        4.8554753E-18
   74.02500        4.8553583E-18
   74.16750        4.8552321E-18
   74.31000        4.8550998E-18
   74.45250        4.8549629E-18
   74.59500        4.8548260E-18
   74.73750        4.8546932E-18
   74.88000        4.8545671E-18
   75.02250        4.8544509E-18
   75.16500        4.8543442E-18
   75.30750        4.8542453E-18
   75.45000        4.8541510E-18
   75.59250        4.8540580E-18
   75.73500        4.8539604E-18
   75.87750        4.8538553E-18
   76.02000        4.8537395E-18
   76.16250        4.8536142E-18
   76.30500        4.8534798E-18
   76.44750        4.8533416E-18
   76.59000        4.8532035E-18
   76.73250        4.8530699E-18
   76.87500        4.8529442E-18
   77.01750        4.8528267E-18
   77.16000        4.8527175E-18
   77.30250        4.8526129E-18
   77.44500        4.8525095E-18
   77.58750        4.8524028E-18
   77.73000        4.8522903E-18
   77.87250        4.8521679E-18
   78.01500        4.8520351E-18
   78.15750        4.8518941E-18
   78.30000        4.8517476E-18
   78.44250        4.8516012E-18
   78.58500        4.8514585E-18
   78.72750        4.8513237E-18
   78.87000        4.8511996E-18
   79.01250        4.8510855E-18
   79.15500        4.8509788E-18
   79.29750        4.8508770E-18
   79.44000        4.8507761E-18
   79.58250        4.8506715E-18
   79.72500        4.8505602E-18
   79.86750        4.8504415E-18
   80.01000        4.8503158E-18
   80.15250        4.8501851E-18
   80.29500        4.8500519E-18
   80.43750        4.8499216E-18
   80.58000        4.8497951E-18
   80.72250        4.8496760E-18
   80.86500        4.8495639E-18
   81.00750        4.8494593E-18
   81.15000        4.8493579E-18
   81.29250        4.8492570E-18
   81.43500        4.8491532E-18
   81.57750        4.8490436E-18
   81.72000        4.8489270E-18
   81.86250        4.8488037E-18
   82.00500        4.8486738E-18
   82.14750        4.8485403E-18
   82.29000        4.8484058E-18
   82.43250        4.8482727E-18
   82.57500        4.8481436E-18
   82.71750        4.8480187E-18
   82.86000        4.8479000E-18
   83.00250        4.8477850E-18
   83.14500        4.8476730E-18
   83.28750        4.8475609E-18
   83.43000        4.8474463E-18
   83.57250        4.8473272E-18
   83.71500        4.8472002E-18
   83.85750        4.8470670E-18
   84.00000        4.8469273E-18
   84.14250        4.8467813E-18
   84.28500        4.8466324E-18
   84.42750        4.8464814E-18
   84.57000        4.8463304E-18
   84.71250        4.8461811E-18
   84.85500        4.8460351E-18
   84.99750        4.8458929E-18
   85.14000        4.8457543E-18
   85.28250        4.8456195E-18
   85.42500        4.8454863E-18
   85.56750        4.8453531E-18
   85.71000        4.8452191E-18
   85.85250        4.8450835E-18
   85.99500        4.8449466E-18
   86.13750        4.8448080E-18
   86.28000        4.8446703E-18
   86.42250        4.8445342E-18
   86.56500        4.8444027E-18
   86.70750        4.8442774E-18
   86.85000        4.8441583E-18
   86.99250        4.8440441E-18
   87.13500        4.8439341E-18
   87.27750        4.8438253E-18
   87.42000        4.8437149E-18
   87.56250        4.8436007E-18
   87.70500        4.8434800E-18
   87.84750        4.8433509E-18
   87.99000        4.8432140E-18
   88.13250        4.8430705E-18
   88.27500        4.8429220E-18
   88.41750        4.8427723E-18
   88.56000        4.8426247E-18
   88.70250        4.8424816E-18
   88.84500        4.8423447E-18
   88.98750        4.8422140E-18
   89.13000        4.8420882E-18
   89.27250        4.8419638E-18
   89.41500        4.8418393E-18
   89.55750        4.8417115E-18
   89.70000        4.8415783E-18
   89.84250        4.8414389E-18
   89.98500        4.8412942E-18
   90.12750        4.8411453E-18
   90.27000        4.8409951E-18
   90.41250        4.8408462E-18
   90.55500        4.8407011E-18
   90.69750        4.8405613E-18
   90.84000        4.8404277E-18
   90.98250        4.8402995E-18
   91.12500        4.8401758E-18
   91.26750        4.8400530E-18
   91.41000        4.8399293E-18
   91.55250        4.8398019E-18
   91.69500        4.8396692E-18
   91.83750        4.8395310E-18
   91.98000        4.8393875E-18
   92.12250        4.8392411E-18
   92.26500        4.8390926E-18
   92.40750        4.8389445E-18
   92.55000        4.8387994E-18
   92.69250        4.8386579E-18
   92.83500        4.8385202E-18
   92.97750        4.8383858E-18
   93.12000        4.8382526E-18
   93.26250        4.8381198E-18
   93.40500        4.8379846E-18
   93.54750        4.8378460E-18
   93.69000        4.8377025E-18
   93.83250        4.8375528E-18
   93.97500        4.8373981E-18
   94.11750        4.8372389E-18
   94.26000        4.8370788E-18
   94.40250        4.8369192E-18
   94.54500        4.8367620E-18
   94.68750        4.8366094E-18
   94.83000        4.8364605E-18
   94.97250        4.8363158E-18
   95.11500        4.8361739E-18
   95.25750        4.8360329E-18
   95.40000        4.8358918E-18
   95.54250        4.8357479E-18
   95.68500        4.8355994E-18
   95.82750        4.8354464E-18
   95.97000        4.8352888E-18
   96.11250        4.8351279E-18
   96.25500        4.8349666E-18
   96.39750        4.8348082E-18
   96.54000        4.8346552E-18
   96.68250        4.8345100E-18
   96.82500        4.8343744E-18
   96.96750        4.8342470E-18
   97.11000        4.8341258E-18
   97.25250        4.8340088E-18
   97.39500        4.8338930E-18
   97.53750        4.8337734E-18
   97.68000        4.8336485E-18
   97.82250        4.8335166E-18
   97.96500        4.8333764E-18
   98.10750        4.8332296E-18
   98.25000        4.8330782E-18
   98.39250        4.8329252E-18
   98.53500        4.8327742E-18
   98.67750        4.8326265E-18
   98.82000        4.8324839E-18
   98.96250        4.8323453E-18
   99.10500        4.8322084E-18
   99.24750        4.8320698E-18
   99.39000        4.8319263E-18