  -4.50000000       0.00000000    
  -4.37500000       0.00000000    
  -4.25000000       0.00000000    
  -4.12500000       0.00000000    
  -4.00000000       0.00000000    
  -3.87500000       0.00000000    
  -3.75000000       9.52789542E-35
  -3.62500000       2.89352067E-34
  -3.50000000      -7.81352932E-33
  -3.37500000      -9.02697083E-32
  -3.25000000      -4.99686897E-31
  -3.12500000      -1.71344589E-30
  -3.00000000      -3.46522832E-30
  -2.87500000      -7.48164021E-31
  -2.75000000       2.47521645E-29
  -2.62500000       1.13187589E-28
  -2.50000000       3.16203078E-28
  -2.37500000       6.35545471E-28
  -2.25000000       8.95755121E-28
  -2.12500000       6.25982699E-28
  -2.00000000      -8.03152172E-28
  -1.87500000      -3.39382213E-27
  -1.75000000      -4.83913742E-27
  -1.62500000       1.49429630E-27
  -1.50000000       2.67201548E-26
  -1.37500000       8.05570951E-26
  -1.25000000       1.54546812E-25
  -1.12500000       1.92561329E-25
  -1.00000000       5.60182455E-26
 -0.875000000      -4.93387580E-25
 -0.750000000      -1.75398016E-24
 -0.625000000      -3.94136405E-24
 -0.500000000      -6.91604137E-24
 -0.375000000      -9.81466028E-24
 -0.250000000      -1.07204146E-23
 -0.125000000      -6.62979846E-24
   0.00000000       5.94141674E-24
  0.125000000       2.94036227E-23
  0.250000000       6.25206346E-23
  0.375000000       9.72423600E-23
  0.500000000       1.16065332E-22
  0.625000000       9.17589121E-23
  0.750000000      -8.31102750E-24
  0.875000000      -2.11391196E-22
   1.00000000      -5.21717312E-22
   1.12500000      -8.98481017E-22
   1.25000000      -1.23554510E-21
   1.37500000      -1.35277281E-21
   1.50000000      -1.01092921E-21
   1.62500000       3.93234350E-23
   1.75000000       1.97040137E-21
   1.87500000       4.76103512E-21
   2.00000000       8.07439188E-21
   2.12500000       1.11721623E-20
   2.25000000       1.29159672E-20
   2.37500000       1.19044554E-20
   2.50000000       6.77245120E-21
   2.62500000      -3.36368876E-21
   2.75000000      -1.83870666E-20
   2.87500000      -3.67178333E-20
   3.00000000      -5.50765932E-20
   3.12500000      -6.86424781E-20
   3.25000000      -7.17199001E-20
   3.37500000      -5.89178455E-20
   3.50000000      -2.66965741E-20
   3.62500000       2.50155363E-20
   3.75000000       9.15419587E-20
   3.87500000       1.62944331E-19
   4.00000000       2.24613528E-19
   4.12500000       2.59102255E-19
   4.25000000       2.49061575E-19
   4.37500000       1.80862912E-19
   4.50000000       4.82749779E-20
   4.62500000      -1.44515484E-19
   4.75000000      -3.81176278E-19
   4.87500000      -6.33221752E-19
   5.00000000      -8.61868690E-19
   5.12500000      -1.02162906E-18
   5.25000000      -1.06532374E-18
   5.37500000      -9.50123743E-19
   5.50000000      -6.44240831E-19
   5.62500000      -1.33915100E-19
   5.75000000       5.69695108E-19
   5.87500000       1.42430772E-18
   6.00000000       2.35193339E-18
   6.12500000       3.23728506E-18
   6.25000000       3.93094218E-18
   6.37500000       4.25915670E-18
   6.50000000       4.04189357E-18
   6.62500000       3.11980722E-18
   6.75000000       1.38932914E-18
   6.87500000      -1.15705176E-18
   7.00000000      -4.39071191E-18
   7.12500000      -8.01486480E-18
   7.25000000      -1.15503828E-17
   7.37500000      -1.43499739E-17
   7.50000000      -1.56499908E-17
   7.62500000      -1.46652406E-17
   7.75000000      -1.07252371E-17
   7.87500000      -3.44071607E-18
   8.00000000       7.12206147E-18
   8.12500000       2.02923352E-17
   8.25000000       3.47113407E-17
   8.37500000       4.83545136E-17
   8.50000000       5.86899402E-17
   8.62500000       6.29831796E-17
   8.75000000       5.87288772E-17
   8.87500000       4.41553478E-17
   9.00000000       1.87174015E-17
   9.12500000      -1.65265062E-17
   9.25000000      -5.87549565E-17
   9.37500000      -1.03517597E-16
   9.50000000      -1.45186781E-16
   9.62500000      -1.77683782E-16
   9.75000000      -1.95367633E-16
   9.87500000      -1.93922913E-16
   10.0000000      -1.71065265E-16
   10.1250000      -1.26912508E-16
   10.2500000      -6.39430598E-17
   10.3750000       1.34291416E-17
   10.5000000       9.95226258E-17
   10.6250000       1.88074679E-16
   10.7500000       2.72698393E-16
   10.8750000       3.46922116E-16
   11.0000000       4.03761945E-16
   11.1250000       4.34972330E-16
   11.2500000       4.30317963E-16
   11.3750000       3.77348493E-16
   11.5000000       2.62175438E-16
   11.6250000       7.16088867E-17
   11.7500000      -2.03291772E-16
   11.8750000      -5.62614848E-16
   12.0000000      -9.92739767E-16
   12.1250000      -1.46236840E-15
   12.2500000      -1.92071179E-15
   12.3750000      -2.29893572E-15
   12.5000000      -2.51548944E-15
   12.6250000      -2.48521648E-15
   12.7500000      -2.13132230E-15
   12.8750000      -1.39852795E-15
   13.0000000      -2.65289396E-16
   13.1250000       1.24706967E-15
   13.2500000       3.06999955E-15
   13.3750000       5.08897606E-15
   13.5000000       7.15012783E-15
   13.6250000       9.07100882E-15
   13.7500000       1.06536331E-14
   13.8750000       1.16978079E-14
   14.0000000       1.20133234E-14
   14.1250000       1.14305851E-14
   14.2500000       9.81044656E-15
   14.3750000       7.05499417E-15
   14.5000000       3.12126559E-15
   14.6250000      -1.96074405E-15
   14.7500000      -8.06616177E-15
   14.8750000      -1.49521949E-14
   15.0000000      -2.22393498E-14
   15.1250000      -2.94043422E-14
   15.2500000      -3.57926952E-14
   15.3750000      -4.06576662E-14
   15.5000000      -4.32285636E-14
   15.6250000      -4.28059586E-14
   15.7500000      -3.88747668E-14
   15.8750000      -3.12199065E-14
   16.0000000      -2.00245077E-14
   16.1250000      -5.92924842E-15
   16.2500000       9.96627013E-15
   16.3750000       2.61726015E-14
   16.5000000       4.09524235E-14
   16.6250000       5.25258717E-14
   16.7500000       5.93174869E-14
   16.8750000       6.02133632E-14
   17.0000000       5.47911427E-14
   17.1250000       4.34852383E-14
   17.2500000       2.76551243E-14
   17.3750000       9.53496603E-15
   17.5000000      -7.94302520E-15
   17.6250000      -2.14433252E-14
   17.7500000      -2.76170010E-14
   17.8750000      -2.35513852E-14
   18.0000000      -7.23552569E-15
   18.1250000       2.20061345E-14
   18.2500000       6.31598655E-14
   18.3750000       1.13292371E-13
   18.5000000       1.67482171E-13
   18.6250000       2.18942513E-13
   18.7500000       2.59356393E-13
   18.8750000       2.79432862E-13
   19.0000000       2.69680464E-13
   19.1250000       2.21377414E-13
   19.2500000       1.27697142E-13
   19.3750000      -1.50753738E-14
   19.5000000      -2.06325110E-13
   19.6250000      -4.40002987E-13
   19.7500000      -7.03769291E-13
   19.8750000      -9.78536913E-13
   20.0000000      -1.23855971E-12
   20.1250000      -1.45220327E-12
   20.2500000      -1.58349408E-12
   20.3750000      -1.59449689E-12
   20.5000000      -1.44849345E-12
   20.6250000      -1.11385890E-12
   20.7500000      -5.68426166E-13
   20.8750000       1.95942953E-13
   21.0000000       1.16896813E-12
   21.1250000       2.31817668E-12
   21.2500000       3.58622962E-12
   21.3750000       4.88982813E-12
   21.5000000       6.12064609E-12
   21.6250000       7.14864756E-12
   21.7500000       7.82800821E-12
   21.8750000       8.00570547E-12
   22.0000000       7.53259607E-12
   22.1250000       6.27661291E-12
   22.2500000       4.13739269E-12
   22.3750000       1.06149855E-12
   22.5000000      -2.94289961E-12
   22.6250000      -7.79310904E-12
   22.7500000      -1.33221221E-11
   22.8750000      -1.92732687E-11
   23.0000000      -2.53005464E-11
   23.1250000      -3.09756144E-11
   23.2500000      -3.58021564E-11
   23.3750000      -3.92378074E-11
   23.5000000      -4.07233830E-11
   23.6250000      -3.97185548E-11
   23.7500000      -3.57425235E-11
   23.8750000      -2.84177265E-11
   24.0000000      -1.75139920E-11
   24.1250000      -2.99035449E-12
   24.2500000       1.49686860E-11
   24.3750000       3.59255750E-11
   24.5000000       5.91737770E-11
   24.6250000       8.37362749E-11
   24.7500000       1.08380332E-10
   24.8750000       1.31650066E-10
   25.0000000       1.51916979E-10
   25.1250000       1.67447875E-10
   25.2500000       1.76488352E-10
   25.3750000       1.77359072E-10
   25.5000000       1.68560929E-10
   25.6250000       1.48884294E-10
   25.7500000       1.17517204E-10
   25.8750000       7.41463071E-11
   26.0000000       1.90447658E-11
   26.1250000      -4.68590167E-11
   26.2500000      -1.21937321E-10
   26.3750000      -2.03848605E-10
   26.5000000      -2.89556740E-10
   26.6250000      -3.75386472E-10
   26.7500000      -4.57117372E-10
   26.8750000      -5.30115007E-10
   27.0000000      -5.89498894E-10
   27.1250000      -6.30342889E-10
   27.2500000      -6.47903453E-10
   27.3750000      -6.37867537E-10
   27.5000000      -5.96612815E-10
   27.6250000      -5.21469368E-10
   27.7500000      -4.10970646E-10
   27.8750000      -2.65081762E-10
   28.0000000      -8.53916313E-11
   28.1250000       1.24744395E-10
   28.2500000       3.60124403E-10
   28.3750000       6.13693985E-10
   28.5000000       8.76624662E-10
   28.6250000       1.13848386E-09
   28.7500000       1.38750145E-09
   28.8750000       1.61093139E-09
   29.0000000       1.79550719E-09
   29.1250000       1.92797800E-09
   29.2500000       1.99571493E-09
   29.3750000       1.98736427E-09
   29.5000000       1.89352312E-09
   29.6250000       1.70741177E-09
   29.7500000       1.42550460E-09
   29.8750000       1.04808551E-09
   30.0000000       5.79695181E-10
   30.1250000       2.94305066E-11
   30.2500000      -5.88934235E-10
   30.3750000      -1.25703070E-09
   30.5000000      -1.95220551E-09
   30.6250000      -2.64806421E-09
   30.7500000      -3.31525163E-09
   30.8750000      -3.92245614E-09
   31.0000000      -4.43761339E-09
   31.1250000      -4.82927121E-09
   31.2500000      -5.06806730E-09
   31.3750000      -5.12826226E-09
   31.5000000      -4.98925035E-09
   31.6250000      -4.63698457E-09
   31.7500000      -4.06522727E-09
   31.8750000      -3.27655947E-09
   32.0000000      -2.28307018E-09
   32.1250000      -1.10666309E-09
   32.2500000       2.21056520E-10
   32.3750000       1.65936276E-09
   32.5000000       3.15945026E-09
   32.6250000       4.66594097E-09
   32.7500000       6.11880635E-09
   32.8750000       7.45565476E-09
   33.0000000       8.61429506E-09
   33.1250000       9.53547730E-09
   33.2500000       1.01656994E-08
   33.3750000       1.04599467E-08
   33.5000000       1.03842188E-08
   33.6250000       9.91774751E-09
   33.7500000       9.05473829E-09
   33.8750000       7.80557663E-09
   34.0000000       6.19736351E-09
   34.1250000       4.27374536E-09
   34.2500000       2.09400652E-09
   34.3750000      -2.68588374E-10
   34.5000000      -2.72916489E-09
   34.6250000      -5.19425525E-09
   34.7500000      -7.56537055E-09
   34.8750000      -9.74299130E-09
   35.0000000      -1.16308305E-08
   35.1250000      -1.31402080E-08
   35.2500000      -1.41943444E-08
   35.3750000      -1.47323957E-08
   35.5000000      -1.47130423E-08
   35.6250000      -1.41174441E-08
   35.7500000      -1.29514355E-08
   35.8750000      -1.12467831E-08
   36.0000000      -9.06143960E-09
   36.1250000      -6.47870291E-09
   36.2500000      -3.60524854E-09
   36.3750000      -5.68062930E-10
   36.5000000       2.48967136E-09
   36.6250000       5.41366152E-09
   36.7500000       8.04439360E-09
   36.8750000       1.02236388E-08
   37.0000000       1.18014007E-08
   37.1250000       1.26429978E-08
   37.2500000       1.26360815E-08
   37.3750000       1.16972432E-08
   37.5000000       9.77795356E-09
   37.6250000       6.86955470E-09
   37.7500000       3.00703218E-09
   37.8750000      -1.72868175E-09
   38.0000000      -7.21004945E-09
   38.1250000      -1.32640885E-08
   38.2500000      -1.96754151E-08
   38.3750000      -2.61912199E-08
   38.5000000      -3.25280958E-08
   38.6250000      -3.83806302E-08
   38.7500000      -4.34314877E-08
   38.8750000      -4.73628141E-08
   39.0000000      -4.98684543E-08
   39.1250000      -5.06667632E-08
   39.2500000      -4.95133712E-08
   39.3750000      -4.62135645E-08
   39.5000000      -4.06336405E-08
   39.6250000      -3.27109220E-08
   39.7500000      -2.24617374E-08
   39.8750000      -9.98715421E-09
   40.0000000       4.52405446E-09
   40.1250000       2.07953885E-08
   40.2500000       3.84657639E-08
   40.3750000       5.70958356E-08
   40.5000000       7.61775354E-08
   40.6250000       9.51465751E-08
   40.7500000       1.13397512E-07
   40.8750000       1.30301217E-07
   41.0000000       1.45223893E-07
   41.1250000       1.57547277E-07
   41.2500000       1.66689176E-07
   41.3750000       1.72123606E-07
   41.5000000       1.73399798E-07
   41.6250000       1.70159325E-07
   41.7500000       1.62150400E-07
   41.8750000       1.49239071E-07
   42.0000000       1.31416158E-07
   42.1250000       1.08800016E-07
   42.2500000       8.16342407E-08
   42.3750000       5.02805158E-08
   42.5000000       1.52063375E-08
   42.6250000      -2.30322268E-08
   42.7500000      -6.38124646E-08
   42.8750000      -1.06471106E-07
   43.0000000      -1.50333989E-07
   43.1250000      -1.94748665E-07
   43.2500000      -2.39118691E-07
   43.3750000      -2.82939055E-07
   43.5000000      -3.25831394E-07
   43.6250000      -3.67577911E-07
   43.7500000      -4.08152971E-07
   43.8750000      -4.47751120E-07
   44.0000000      -4.86810677E-07
   44.1250000      -5.26031386E-07
   44.2500000      -5.66386461E-07
   44.3750000      -6.09126403E-07
   44.5000000      -6.55776432E-07
   44.6250000      -7.08124844E-07
   44.7500000      -7.68203677E-07
   44.8750000      -8.38261315E-07
   45.0000000      -9.20727246E-07
   45.1250000      -1.01816909E-06
   45.2500000      -1.13324370E-06
   45.3750000      -1.26864165E-06
   45.5000000      -1.42702845E-06
   45.6250000      -1.61097978E-06
   45.7500000      -1.82291831E-06
   45.8750000      -2.06504706E-06
   46.0000000      -2.33928495E-06
   46.1250000      -2.64720416E-06
   46.2500000      -2.98997452E-06
   46.3750000      -3.36830931E-06
   46.5000000      -3.78242225E-06
   46.6250000      -4.23199026E-06
   46.7500000      -4.71612975E-06
   46.8750000      -5.23337894E-06
   47.0000000      -5.78169511E-06
   47.1250000      -6.35846527E-06
   47.2500000      -6.96052621E-06
   47.3750000      -7.58419992E-06
   47.5000000      -8.22534003E-06
   47.6250000      -8.87938950E-06
   47.7500000      -9.54145071E-06
   47.8750000      -1.02063668E-05
   48.0000000      -1.08688073E-05
   48.1250000      -1.15233606E-05
   48.2500000      -1.21646390E-05
   48.3750000      -1.27873736E-05
   48.5000000      -1.33865233E-05
   48.6250000      -1.39573704E-05
   48.7500000      -1.44956148E-05
   48.8750000      -1.49974703E-05
   49.0000000      -1.54597456E-05
   49.1250000      -1.58799048E-05
   49.2500000      -1.62561391E-05
   49.3750000      -1.65873971E-05
   49.5000000      -1.68734314E-05
   49.6250000      -1.71147876E-05
   49.7500000      -1.73128265E-05
   49.8750000      -1.74696797E-05
   50.0000000      -1.75882305E-05
   50.1250000      -1.76720478E-05
   50.2500000      -1.77253278E-05
   50.3750000      -1.77528018E-05
   50.5000000      -1.77596521E-05
   50.6250000      -1.77513994E-05
   50.7500000      -1.77338006E-05
   50.8750000      -1.77127204E-05
   51.0000000      -1.76940230E-05
   51.1250000      -1.76834419E-05
   51.2500000      -1.76864742E-05
   51.3750000      -1.77082547E-05
   51.5000000      -1.77534675E-05
   51.6250000      -1.78262362E-05
   51.7500000      -1.79300478E-05
   51.8750000      -1.80676798E-05
   52.0000000      -1.82411477E-05
   52.1250000      -1.84516593E-05
   52.2500000      -1.86995949E-05
   52.3750000      -1.89845050E-05
   52.5000000      -1.93051128E-05
   52.6250000      -1.96593428E-05
   52.7500000      -2.00443665E-05
   52.8750000      -2.04566568E-05
   53.0000000      -2.08920537E-05
   53.1250000      -2.13458570E-05
   53.2500000      -2.18129117E-05
   53.3750000      -2.22877061E-05
   53.5000000      -2.27644832E-05
   53.6250000      -2.32373532E-05
   53.7500000      -2.37004006E-05
   53.8750000      -2.41478010E-05
   54.0000000      -2.45739338E-05
   54.1250000      -2.49734803E-05
   54.2500000      -2.53415310E-05
   54.3750000      -2.56736712E-05
   54.5000000      -2.59660683E-05
   54.6250000      -2.62155336E-05
   54.7500000      -2.64195896E-05
   54.8750000      -2.65765011E-05
   55.0000000      -2.66853185E-05
   55.1250000      -2.67458818E-05
   55.2500000      -2.67588239E-05
   55.3750000      -2.67255564E-05
   55.5000000      -2.66482330E-05
   55.6250000      -2.65297185E-05
   55.7500000      -2.63735255E-05
   55.8750000      -2.61837504E-05
   56.0000000      -2.59649987E-05
   56.1250000      -2.57222964E-05
   56.2500000      -2.54610095E-05
   56.3750000      -2.51867459E-05
   56.5000000      -2.49052609E-05
   56.6250000      -2.46223590E-05
   56.7500000      -2.43438062E-05
   56.8750000      -2.40752379E-05
   57.0000000      -2.38220691E-05
   57.1250000      -2.35894295E-05
   57.2500000      -2.33820756E-05
   57.3750000      -2.32043458E-05
   57.5000000      -2.30601036E-05
   57.6250000      -2.29526922E-05
   57.7500000      -2.28849112E-05
   57.8750000      -2.28589997E-05
   58.0000000      -2.28766221E-05
   58.1250000      -2.29388697E-05
   58.2500000      -2.30462792E-05
   58.3750000      -2.31988506E-05
   58.5000000      -2.33960727E-05
   58.6250000      -2.36369578E-05
   58.7500000      -2.39200908E-05
   58.8750000      -2.42436599E-05
   59.0000000      -2.46055188E-05
   59.1250000      -2.50032190E-05
   59.2500000      -2.54340721E-05
   59.3750000      -2.58951768E-05
   59.5000000      -2.63834718E-05
   59.6250000      -2.68957629E-05
   59.7500000      -2.74287486E-05
   59.8750000      -2.79790456E-05
   60.0000000      -2.85431925E-05
   60.1250000      -2.91176493E-05
   60.2500000      -2.96987910E-05
   60.3750000      -3.02828921E-05
   60.5000000      -3.08661038E-05
   60.6250000      -3.14444151E-05
   60.7500000      -3.20136205E-05
   60.8750000      -3.25692890E-05
   61.0000000      -3.31067386E-05
   61.1250000      -3.36209851E-05
   61.2500000      -3.41067498E-05
   61.3750000      -3.45584376E-05
   61.5000000      -3.49701404E-05
   61.6250000      -3.53356809E-05
   61.7500000      -3.56486526E-05
   61.8750000      -3.59024780E-05
   62.0000000      -3.60905178E-05
   62.1250000      -3.62061910E-05
   62.2500000      -3.62430983E-05
   62.3750000      -3.61951970E-05
   62.5000000      -3.60569720E-05
   62.6250000      -3.58236393E-05
   62.7500000      -3.54913427E-05
   62.8750000      -3.50573391E-05
   63.0000000      -3.45202207E-05
   63.1250000      -3.38800855E-05
   63.2500000      -3.31387200E-05
   63.3750000      -3.22997112E-05
   63.5000000      -3.13685778E-05
   63.6250000      -3.03528195E-05
   63.7500000      -2.92619388E-05
   63.8750000      -2.81074081E-05
   64.0000000      -2.69025859E-05
   64.1250000      -2.56625808E-05
   64.2500000      -2.44040402E-05
   64.3750000      -2.31449303E-05
   64.5000000      -2.19042213E-05
   64.6250000      -2.07015655E-05
   64.7500000      -1.95569301E-05
   64.8750000      -1.84901946E-05
   65.0000000      -1.75207570E-05
   65.1250000      -1.66671198E-05
   65.2500000      -1.59464889E-05
   65.3750000      -1.53743986E-05
   65.5000000      -1.49643583E-05
   65.6250000      -1.47275614E-05
   65.7500000      -1.46726270E-05
   65.8750000      -1.48054169E-05
   66.0000000      -1.51289169E-05
   66.1250000      -1.56431888E-05
   66.2500000      -1.63453988E-05
   66.3750000      -1.72299169E-05
   66.5000000      -1.82884905E-05
   66.6250000      -1.95104803E-05
   66.7500000      -2.08831607E-05
   66.8750000      -2.23920542E-05
   67.0000000      -2.40213212E-05
   67.1250000      -2.57541506E-05
   67.2500000      -2.75731873E-05
   67.3750000      -2.94609235E-05
   67.5000000      -3.14001081E-05
   67.6250000      -3.33740900E-05
   67.7500000      -3.53671385E-05
   67.8750000      -3.73647053E-05
   68.0000000      -3.93536211E-05
   68.1250000      -4.13222224E-05
   68.2500000      -4.32604284E-05
   68.3750000      -4.51597116E-05
   68.5000000      -4.70130253E-05
   68.6250000      -4.88146616E-05
   68.7500000      -5.05600474E-05
   68.8750000      -5.22455011E-05
   69.0000000      -5.38679597E-05
   69.1250000      -5.54246581E-05
   69.2500000      -5.69128606E-05
   69.3750000      -5.83295332E-05
   69.5000000      -5.96710815E-05
   69.6250000      -6.09331146E-05
   69.7500000      -6.21102663E-05
   69.8750000      -6.31960647E-05
   70.0000000      -6.41828665E-05
   70.1250000      -6.50618531E-05
   70.2500000      -6.58231656E-05
   70.3750000      -6.64560357E-05
   70.5000000      -6.69490182E-05
   70.6250000      -6.72902897E-05
   70.7500000      -6.74679977E-05
   70.8750000      -6.74706898E-05
   71.0000000      -6.72876922E-05
   71.1250000      -6.69095753E-05
   71.2500000      -6.63286046E-05
   71.3750000      -6.55391559E-05
   71.5000000      -6.45381297E-05
   71.6250000      -6.33252494E-05
   71.7500000      -6.19034108E-05
   71.8750000      -6.02788714E-05
   72.0000000      -5.84613772E-05
   72.1250000      -5.64642396E-05
   72.2500000      -5.43042879E-05
   72.3750000      -5.20017420E-05
   72.5000000      -4.95800014E-05
   72.6250000      -4.70653576E-05
   72.7500000      -4.44866128E-05
   72.8750000      -4.18746749E-05
   73.0000000      -3.92620314E-05
   73.1250000      -3.66822678E-05
   73.2500000      -3.41695086E-05
   73.3750000      -3.17578415E-05
   73.5000000      -2.94807905E-05
   73.6250000      -2.73707574E-05
   73.7500000      -2.54585339E-05
   73.8750000      -2.37728200E-05
   74.0000000      -2.23398201E-05
   74.1250000      -2.11828810E-05
   74.2500000      -2.03221953E-05
   74.3750000      -1.97745740E-05
   74.5000000      -1.95532830E-05
   74.6250000      -1.96679357E-05
   74.7500000      -2.01244638E-05
   74.8750000      -2.09251302E-05
   75.0000000      -2.20685997E-05
   75.1250000      -2.35500465E-05
   75.2500000      -2.53612980E-05
   75.3750000      -2.74910035E-05
   75.5000000      -2.99248240E-05
   75.6250000      -3.26456247E-05
   75.7500000      -3.56336859E-05
   75.8750000      -3.88668850E-05
   76.0000000      -4.23208949E-05
   76.1250000      -4.59693729E-05
   76.2500000      -4.97840956E-05
   76.3750000      -5.37351516E-05
   76.5000000      -5.77910359E-05
   76.6250000      -6.19188286E-05
   76.7500000      -6.60842925E-05
   76.8750000      -7.02519974E-05
   77.0000000      -7.43854689E-05
   77.1250000      -7.84473013E-05
   77.2500000      -8.23993105E-05
   77.3750000      -8.62027591E-05
   77.5000000      -8.98185026E-05
   77.6250000      -9.32072289E-05
   77.7500000      -9.63297789E-05
   77.8750000      -9.91473935E-05
   78.0000000      -1.01622085E-04
   78.1250000      -1.03717000E-04
   78.2500000      -1.05396823E-04
   78.3750000      -1.06628220E-04
   78.5000000      -1.07380270E-04
   78.6250000      -1.07624939E-04
   78.7500000      -1.07337546E-04
   78.8750000      -1.06497151E-04
   79.0000000      -1.05087049E-04
   79.1250000      -1.03095110E-04
   79.2500000      -1.00514117E-04
   79.3750000      -9.73420683E-05
   79.5000000      -9.35823555E-05
   79.6250000      -8.92438984E-05
   79.7500000      -8.43411835E-05
   79.8750000      -7.88942125E-05
   80.0000000      -7.29283493E-05
   80.1250000      -6.64740510E-05
   80.2500000      -5.95665624E-05
   80.3750000      -5.22454611E-05
   80.5000000      -4.45541518E-05
   80.6250000      -3.65392880E-05
   80.7500000      -2.82501205E-05
   80.8750000      -1.97378158E-05
   81.0000000      -1.10547389E-05
   81.1250000      -2.25371537E-06
   81.2500000       6.61268541E-06
   81.3750000       1.54928730E-05
   81.5000000       2.43368959E-05
   81.6250000       3.30970652E-05
   81.7500000       4.17285155E-05
   81.8750000       5.01896793E-05
   82.0000000       5.84426925E-05
   82.1250000       6.64536929E-05
   82.2500000       7.41930271E-05
   82.3750000       8.16353568E-05
   82.5000000       8.87596980E-05
   82.6250000       9.55493160E-05
   82.7500000       1.01991631E-04
   82.8750000       1.08077904E-04
   83.0000000       1.13803013E-04
   83.1250000       1.19165095E-04
   83.2500000       1.24165163E-04
   83.3750000       1.28806671E-04
   83.5000000       1.33095164E-04
   83.6250000       1.37037816E-04
   83.7500000       1.40643009E-04
   83.8750000       1.43920028E-04
   84.0000000       1.46878621E-04
   84.1250000       1.49528758E-04
   84.2500000       1.51880347E-04
   84.3750000       1.53943023E-04
   84.5000000       1.55725895E-04
   84.6250000       1.57237548E-04
   84.7500000       1.58485840E-04
   84.8750000       1.59477902E-04
   85.0000000       1.60220152E-04
   85.1250000       1.60718235E-04
   85.2500000       1.60977143E-04
   85.3750000       1.61001211E-04
   85.5000000       1.60794239E-04
   85.6250000       1.60359501E-04
   85.7500000       1.59699935E-04
   85.8750000       1.58818133E-04
   86.0000000       1.57716509E-04
   86.1250000       1.56397364E-04
   86.2500000       1.54863010E-04
   86.3750000       1.53115834E-04
   86.5000000       1.51158485E-04
   86.6250000       1.48993917E-04
   86.7500000       1.46625593E-04
   86.8750000       1.44057500E-04
   87.0000000       1.41294440E-04
   87.1250000       1.38342060E-04
   87.2500000       1.35207054E-04
   87.3750000       1.31897265E-04
   87.5000000       1.28421932E-04
   87.6250000       1.24791753E-04
   87.7500000       1.21019002E-04
   87.8750000       1.17117728E-04
   88.0000000       1.13103735E-04
   88.1250000       1.08994711E-04
   88.2500000       1.04810184E-04
   88.3750000       1.00571524E-04
   88.5000000       9.63018247E-05
   88.6250000       9.20257589E-05
   88.7500000       8.77694110E-05
   88.8750000       8.35599712E-05
   89.0000000       7.94254593E-05
   89.1250000       7.53943386E-05
   89.2500000       7.14951238E-05
   89.3750000       6.77559219E-05
   89.5000000       6.42039886E-05
   89.6250000       6.08652699E-05
   89.7500000       5.77639075E-05
   89.8750000       5.49218166E-05
   90.0000000       5.23582748E-05
   90.1250000       5.00895694E-05
   90.2500000       4.81286770E-05
   90.3750000       4.64850673E-05
   90.5000000       4.51645574E-05
   90.6250000       4.41692500E-05
   90.7500000       4.34975882E-05
   90.8750000       4.31444932E-05
   91.0000000       4.31015687E-05
   91.1250000       4.33574205E-05
   91.2500000       4.38980096E-05
   91.3750000       4.47070997E-05
   91.5000000       4.57667011E-05
   91.6250000       4.70575724E-05
   91.7500000       4.85596975E-05
   91.8750000       5.02527764E-05
   92.0000000       5.21166403E-05
   92.1250000       5.41316476E-05
   92.2500000       5.62790374E-05
   92.3750000       5.85411581E-05
   92.5000000       6.09016352E-05
   92.6250000       6.33454838E-05
   92.7500000       6.58590943E-05
   92.8750000       6.84301340E-05
   93.0000000       7.10474415E-05
   93.1250000       7.37007285E-05
   93.2500000       7.63803837E-05
   93.3750000       7.90770791E-05
   93.5000000       8.17815235E-05
   93.6250000       8.44840324E-05
   93.7500000       8.71742377E-05
   93.8750000       8.98407816E-05
   94.0000000       9.24710548E-05
   94.1250000       9.50509639E-05
   94.2500000       9.75648363E-05
   94.3750000       9.99953118E-05
   94.5000000       1.02323407E-04
   94.6250000       1.04528583E-04
   94.7500000       1.06588959E-04
   94.8750000       1.08481559E-04
   95.0000000       1.10182671E-04
   95.1250000       1.11668232E-04
   95.2500000       1.12914306E-04
   95.3750000       1.13897557E-04
   95.5000000       1.14595765E-04
   95.6250000       1.14988361E-04
   95.7500000       1.15056944E-04
   95.8750000       1.14785762E-04
   96.0000000       1.14162154E-04
   96.1250000       1.13176990E-04
   96.2500000       1.11824957E-04
   96.3750000       1.10104855E-04
   96.5000000       1.08019762E-04
   96.6250000       1.05577106E-04
   96.7500000       1.02788690E-04
   96.8750000       9.96705421E-05
   97.0000000       9.62427948E-05
   97.1250000       9.25293280E-05
   97.2500000       8.85574846E-05
   97.3750000       8.43575981E-05
   97.5000000       7.99625050E-05
   97.6250000       7.54070206E-05
   97.7500000       7.07273721E-05
   97.8750000       6.59606012E-05
   98.0000000       6.11439536E-05
   98.1250000       5.63143112E-05
   98.2500000       5.15076099E-05
   98.3750000       4.67583050E-05
   98.5000000       4.20988799E-05
   98.6250000       3.75594136E-05
   98.7500000       3.31671981E-05
   98.8750000       2.89464369E-05
   99.0000000       2.49179957E-05
   99.1250000       2.10992494E-05
   99.2500000       1.75039841E-05
   99.3750000       1.41423816E-05
   99.5000000       1.10210585E-05
   99.6250000       8.14318264E-06
   99.7500000       5.50863615E-06
   99.8750000       3.11422559E-06
   100.000000       9.53934318E-07
   100.125000      -9.80791469E-07
   100.250000      -2.70073565E-06
   100.375000      -4.21858886E-06
   100.500000      -5.54862572E-06
   100.625000      -6.70636609E-06
   100.750000      -7.70824590E-06
   100.875000      -8.57131909E-06
   101.000000      -9.31292379E-06
   101.125000      -9.95042683E-06
   101.250000      -1.05009412E-05
   101.375000      -1.09810944E-05
   101.500000      -1.14067961E-05
   101.625000      -1.17930522E-05
   101.750000      -1.21537823E-05
   101.875000      -1.25016877E-05
   102.000000      -1.28481179E-05
   102.125000      -1.32029927E-05
   102.250000      -1.35747077E-05
   102.375000      -1.39701015E-05
   102.500000      -1.43944198E-05