 -4.5   1.064134936E-17
 -4.37296724   1.064134357E-17
 -4.24593449   1.064133282E-17
 -4.11890221   1.064131958E-17
 -3.99186945   1.064130635E-17
 -3.86483669   1.064129477E-17
 -3.73780417   1.06412865E-17
 -3.61077142   1.064127988E-17
 -3.4837389   1.064127657E-17
 -3.35670614   1.064127409E-17
 -3.22967362   1.064127161E-17
 -3.10264087   1.064126664E-17
 -2.97560835   1.064126003E-17
 -2.84857559   1.064125093E-17
 -2.72154307   1.0641241E-17
 -2.59451032   1.06412319E-17
 -2.46747756   1.06412228E-17
 -2.34044504   1.064121536E-17
 -2.21341228   1.064120791E-17
 -2.08637977   1.064120047E-17
 -1.95934713   1.064119303E-17
 -1.83231449   1.06411831E-17
 -1.70528185   1.064117235E-17
 -1.57824922   1.064116077E-17
 -1.45121646   1.064114836E-17
 -1.32418382   1.064113843E-17
 -1.19715118   1.064113099E-17
 -1.07011855   1.064112851E-17
 -0.943085909   1.064112933E-17
 -0.816053271   1.064113099E-17
 -0.689020634   1.064113512E-17
 -0.561987996   1.064113926E-17
 -0.434955359   1.064114422E-17
 -0.307922721   1.064114836E-17
 -0.180890068   1.064115167E-17
 -5.385742337E-2   1.064114422E-17
 7.317522168E-2   1.064111279E-17
 0.200207874   1.064103752E-17
 0.327240527   1.064089524E-17
 0.454273164   1.064067604E-17
 0.581305802   1.064039728E-17
 0.708338439   1.064012431E-17
 0.835371077   1.063997955E-17
 0.962403715   1.064013589E-17
 1.08943641   1.064077613E-17
 1.21646905   1.064201359E-17
 1.34350169   1.064378872E-17
 1.47053432   1.064575162E-17
 1.59756696   1.064719339E-17
 1.7245996   1.06470718E-17
 1.85163224   1.064419569E-17
 1.97866488   1.063759479E-17
 2.10569763   1.062703831E-17
 2.23273015   1.061361317E-17
 2.35976291   1.060016321E-17
 2.48679543   1.059136118E-17
 2.61382818   1.059319339E-17
 2.7408607   1.06117363E-17
 2.86789346   1.065128463E-17
 2.99492598   1.071216264E-17
 3.12195873   1.078881085E-17
 3.24899125   1.086888855E-17
 3.37602401   1.093411753E-17
 3.50305653   1.096332445E-17
 3.63008928   1.093757597E-17
 3.75712204   1.084662581E-17
 3.88415456   1.069516821E-17
 4.01118708   1.050699538E-17
 4.13821983   1.032518852E-17
 4.26525259   1.020715233E-17
 4.39228535   1.021456387E-17
 4.51931763   1.039982007E-17
 4.64635038   1.079199136E-17
 4.77338314   1.13859575E-17
 4.9004159   1.213806403E-17
 5.02744818   1.297004725E-17
 5.15448093   1.378059491E-17
 5.28151369   1.446141832E-17
 5.40854645   1.491307714E-17
 5.53557873   1.505594281E-17
 5.66261148   1.483380346E-17
 5.78964424   1.421131696E-17
 5.916677   1.317031098E-17
 6.04370975   1.171214873E-17
 6.17074203   9.872118542E-18
 6.29777479   7.746668859E-18
 6.42480755   5.526060319E-18
 6.55184031   3.516494917E-18
 6.67887259   2.130903492E-18
 6.80590534   1.830031433E-18
 6.9329381   3.007184925E-18
 7.05997086   5.829650493E-18
 7.18700314   1.007234505E-17
 7.31403589   1.499677623E-17
 7.44106865   1.933245334E-17
 7.56810141   2.140272263E-17
 7.69513416   1.940246425E-17
 7.82216644   1.178815918E-17
 7.9491992   -2.305039279E-18
 8.07623196   -2.273307059E-17
 8.20326424   -4.821037574E-17
 8.33029747   -7.644551097E-17
 8.45732975   -1.04543493E-16
 8.58436203   -1.295877162E-16
 8.71139526   -1.492413025E-16
 8.83842754   -1.621736692E-16
 8.96546078   -1.681416252E-16
 9.09249306   -1.676384082E-16
 9.21952534   -1.611514328E-16
 9.34655857   -1.482083856E-16
 9.47359085   -1.265011017E-16
 9.60062313   -9.141999468E-17
 9.72765636   -3.628854582E-17
 9.85468864   4.654416598E-17
 9.98172188   1.637884978E-16
 10.1087542   3.187298689E-16
 10.2357864   5.086184032E-16
 10.3628197   7.225018987E-16
 10.489852   9.4009921E-16
 10.6168852   1.132234552E-15
 10.7439175   1.263175576E-15
 10.8709497   1.294962075E-15
 10.997983   1.193495045E-15
 11.1250153   9.358111057E-16
 11.2520475   5.176361807E-16
 11.3790808   -3.998616227E-17
 11.5061131   -6.863691672E-16
 11.6331463   -1.340555106E-15
 11.7601786   -1.895566774E-15
 11.8872108   -2.228218212E-15
 12.0142441   -2.214413481E-15
 12.1412764   -1.748894972E-15
 12.2683096   -7.673642575E-16
 12.3953419   7.320057142E-16
 12.5223742   2.671246513E-15
 12.6494074   4.883089037E-15
 12.7764397   7.112343382E-15
 12.9034719   9.030042068E-15
 13.0305052   1.026049803E-14
 13.1575375   1.041953524E-14
 13.2845707   9.160284395E-15
 13.411603   6.221512478E-15
 13.5386353   1.472798654E-15
 13.6656685   -5.049031261E-15
 13.7927008   -1.31167592E-14
 13.919734   -2.230588083E-14
 14.0467663   -3.200492985E-14
 14.1737986   -4.14421271E-14
 14.3008318   -4.972590943E-14
 14.4278641   -5.589609044E-14
 14.5548964   -5.898214317E-14
 14.6819296   -5.806568063E-14
 14.8089619   -5.234470491E-14
 14.9359951   -4.119807997E-14
 15.0630274   -2.42488067E-14
 15.1900597   -1.424086107E-15
 15.3170929   2.699077432E-14
 15.4441252   6.030936248E-14
 15.5711575   9.741856031E-14
 15.6981907   1.367779045E-13
 15.825223   1.76451559E-13
 15.9522562   2.141785284E-13
 16.0792885   2.474837826E-13
 16.2063217   2.738268596E-13
 16.333353   2.907790382E-13
 16.4603863   2.962121108E-13
 16.5874195   2.884782257E-13
 16.7144508   2.665551699E-13
 16.8414841   2.301321297E-13
 16.9685173   1.79614109E-13
 17.0955505   1.160315875E-13
 17.2225819   4.085209411E-14
 17.3496151   -4.429576755E-14
 17.4766483   -1.379606471E-13
 17.6036797   -2.392307001E-13
 17.7307129   -3.480691484E-13
 17.8577461   -4.655652491E-13
 17.9847775   -5.940401708E-13
 18.1118107   -7.369490218E-13
 18.2388439   -8.985315205E-13
 18.3658752   -1.083176734E-12
 18.4929085   -1.29449034E-12
 18.6199417   -1.534079721E-12
 18.7469749   -1.80010206E-12
 18.8740063   -2.08566042E-12
 19.0010395   -2.377169425E-12
 19.1280727   -2.652849294E-12
 19.2551041   -2.881550901E-12
 19.3821373   -3.022137011E-12
 19.5091705   -3.023668121E-12
 19.6362019   -2.826634543E-12
 19.7632351   -2.365455488E-12
 19.8902683   -1.572403774E-12
 20.0172997   -3.830208178E-13
 20.1443329   1.257027577E-12
 20.2713661   3.383873477E-12
 20.3983994   6.006524705E-12
 20.5254307   9.097660125E-12
 20.6524639   1.258486804E-11
 20.7794971   1.634318202E-11
 20.9065285   2.018985847E-11
 21.0335617   2.388236484E-11
 21.1605949   2.712045692E-11
 21.2876263   2.955317588E-11
 21.4146595   3.079123762E-11
 21.5416927   3.042519361E-11
 21.6687241   2.804918971E-11
 21.7957573   2.328989952E-11
 21.9227905   1.583970802E-11
 22.0498238   5.492763362E-12
 22.1768551   -7.817899973E-12
 22.3038883   -2.39844325E-11
 22.4309216   -4.269198189E-11
 22.5579529   -6.339313796E-11
 22.6849861   -8.529201651E-11
 22.8120193   -1.073408723E-10
 22.9390507   -1.282520201E-10
 23.0660839   -1.465273319E-10
 23.1931171   -1.605068023E-10
 23.3201485   -1.684369033E-10
 23.4471817   -1.685580425E-10
 23.5742149   -1.592094373E-10
 23.7012463   -1.38947992E-10
 23.8282795   -1.066764038E-10
 23.9553127   -6.17743634E-11
 24.082346   -4.225341865E-12
 24.2093773   6.5269401E-11
 24.3364105   1.451987836E-10
 24.4634438   2.331808358E-10
 24.5904751   3.259416348E-10
 24.7175083   4.19341839E-10
 24.8445415   5.084574983E-10
 24.9715729   5.87718374E-10
 25.0986061   6.51106058E-10
 25.2256393   6.924087415E-10
 25.3526707   7.055281914E-10
 25.4797039   6.848279721E-10
 25.6067371   6.255117535E-10
 25.7337704   5.240131662E-10
 25.8608017   3.783789393E-10
 25.9878349   1.886223122E-10
 26.1148682   -4.297543224E-11
 26.2418995   -3.116398251E-10
 26.3689327   -6.099760141E-10
 26.495966   -9.279601532E-10
 26.6229973   -1.253064763E-9
 26.7500305   -1.570530039E-9
 26.8770638   -1.863784682E-9
 27.0040951   -2.115015718E-9
 27.1311283   -2.305875046E-9
 27.2581615   -2.418305334E-9
 27.3851948   -2.435459168E-9
 27.5122261   -2.342675609E-9
 27.6392593   -2.128474508E-9
 27.7662926   -1.785519621E-9
 27.8933239   -1.311503239E-9
 28.0203571   -7.098950872E-10
 28.1473904   9.492000935E-12
 28.2744217   8.301704324E-10
 28.4014549   1.728923227E-9
 28.5284882   2.67605893E-9
 28.6555195   3.636000834E-9
 28.7825527   4.568216916E-9
 28.909586   5.428485217E-9
 29.0366192   6.170472577E-9
 29.1636505   6.747579828E-9
 29.2906837   7.114999701E-9
 29.417717   7.231914623E-9
 29.5447483   7.063735818E-9
 29.6717815   6.584296219E-9
 29.7988148   5.777877732E-9
 29.9258461   4.640972051E-9
 30.0528793   3.183662001E-9
 30.1799126   1.430530361E-9
 30.3069439   -5.789983493E-10
 30.4339771   -2.790937481E-9
 30.5610104   -5.137688497E-9
 30.6880436   -7.539672886E-9
 30.8150749   -9.907625831E-9
 30.9421082   -1.214549528E-8
 31.0691414   -1.415387718E-8
 31.1961727   -1.583384801E-8
 31.3232059   -1.709107167E-8
 31.4502392   -1.783999615E-8
 31.5772705   -1.800797733E-8
 31.7043037   -1.753911683E-8
 31.831337   -1.639764591E-8
 31.9583683   -1.457067356E-8
 32.0854034   -1.207012357E-8
 32.2124329   -8.933776385E-9
 32.3394661   -5.225281541E-9
 32.4664993   -1.03312281E-9
 32.5935326   3.531462012E-9
 32.7205658   8.337565305E-9
 32.847599   1.323858534E-8
 32.9746284   1.807694971E-8
 33.1016617   2.268941302E-8
 33.2286949   2.691269785E-8
 33.3557281   3.058925202E-8
 33.4827614   3.357290623E-8
 33.6097946   3.573414986E-8
 33.7368279   3.696484185E-8
 33.8638573   3.718217911E-8
 33.9908905   3.63317163E-8
 34.1179237   3.438941221E-8
 34.244957   3.136257831E-8
 34.3719902   2.728977577E-8
 34.4990234   2.223966789E-8
 34.6260529   1.630898439E-8
 34.7530861   9.619673058E-9
 34.8801193   2.315440062E-9
 35.0071526   -5.442167605E-9
 35.1341858   -1.347792278E-8
 35.261219   -2.160717294E-8
 35.3882523   -2.96400291E-8
 35.5152817   -3.738534815E-8
 35.6423149   -4.465443126E-8
 35.7693481   -5.126441494E-8
 35.8963814   -5.704130146E-8
 36.0234146   -6.182271051E-8
 36.1504478   -6.54604051E-8
 36.2774773   -6.782268969E-8
 36.4045105   -6.87967372E-8
 36.5315437   -6.829102972E-8
 36.658577   -6.623790227E-8
 36.7856102   -6.259629259E-8
 36.9126434   -5.735468989E-8
 37.0396767   -5.053418661E-8
 37.1667061   -4.219159067E-8
 37.2937393   -3.24223457E-8
 37.4207726   -2.136310329E-8
 37.5478058   -9.193637851E-9
 37.674839   3.862232312E-9
 37.8018723   1.753700829E-8
 37.9289017   3.152144146E-8
 38.0559349   4.546837928E-8
 38.1829681   5.899867261E-8
 38.3100014   7.17092945E-8
 38.4370346   8.318372124E-8
 38.5640678   9.30043953E-8
 38.6911011   1.007670889E-7
 38.8181305   1.060968415E-7
 38.9451637   1.086647856E-7
 39.072197   1.082054197E-7
 39.1992302   1.045333846E-7
 39.3262634   9.755913766E-8
 39.4532967   8.730241774E-8
 39.5803261   7.390290335E-8
 39.7073593   5.762696631E-8
 39.8343925   3.88700343E-8
 39.9614258   1.815386241E-8
 40.088459   -3.881736266E-9
 40.2154922   -2.649279374E-8
 40.3425255   -4.8850751E-8
 40.4695549   -7.006735814E-8
 40.5965881   -8.922432215E-8
 40.7236214   -1.054068264E-7
 40.8506546   -1.177400009E-7
 40.9776878   -1.254268369E-7
 41.1047211   -1.277862935E-7
 41.2317505   -1.242899259E-7
 41.3587837   -1.145955295E-7
 41.485817   -9.857621563E-8
 41.6128502   -7.634336896E-8
 41.7398834   -4.826241096E-8
 41.8669167   -1.496009361E-8
 41.9939499   2.267719879E-8
 42.1209793   6.351470461E-8
 42.2480125   1.061899297E-7
 42.3750458   1.491424655E-7
 42.502079   1.906519316E-7
 42.6291122   2.288832377E-7
 42.7561455   2.619370321E-7
 42.8831749   2.879042711E-7
 43.0102081   3.04921997E-7
 43.1372414   3.112290017E-7
 43.2642746   3.052182365E-7
 43.3913078   2.854845604E-7
 43.5183411   2.508651278E-7
 43.6453743   2.004712059E-7
 43.7724037   1.337091931E-7
 43.899437   5.02903994E-8
 44.0264702   -4.977127688E-8
 44.1535034   -1.661740043E-7
 44.2805367   -2.983543084E-7
 44.4075699   -4.45524222E-7
 44.5345993   -6.067177196E-7
 44.6616325   -7.808443456E-7
 44.7886658   -9.667483027E-7
 44.915699   -1.163269189E-6
 45.0427322   -1.369302595E-6
 45.1697655   -1.583857056E-6
 45.2967987   -1.806104933E-6
 45.4238281   -2.035422767E-6
 45.5508614   -2.271421636E-6
 45.6778946   -2.513962727E-6
 45.8049278   -2.763156772E-6
 45.9319611   -3.019349151E-6
 46.0589943   -3.283086926E-6
 46.1860237   -3.555069497E-6
 46.3130569   -3.836086307E-6
 46.4400902   -4.126939075E-6
 46.5671234   -4.428357443E-6
 46.6941566   -4.740902568E-6
 46.8211899   -5.064872312E-6
 46.9482231   -5.400207101E-6
 47.0752525   -5.746398074E-6
 47.2022858   -6.102407951E-6
 47.329319   -6.466608738E-6
 47.4563522   -6.836731245E-6
 47.5833855   -7.209844625E-6
 47.7104187   -7.582355011E-6
 47.8374481   -7.950035069E-6
 47.9644814   -8.308079487E-6
 48.0915146   -8.651190001E-6
 48.2185478   -8.973685908E-6
 48.3455811   -9.269639122E-6
 48.4726143   -9.533035154E-6
 48.5996475   -9.757940461E-6
 48.7266769   -9.938694348E-6
 48.8537102   -1.007008996E-5
 48.9807434   -1.014757072E-5
 49.1077766   -1.016740316E-5
 49.2348099   -1.012684061E-5
 49.3618431   -1.002426234E-5
 49.4888725   -9.859288184E-6
 49.6159058   -9.632849469E-6
 49.742939   -9.347229934E-6
 49.8699722   -9.00606392E-6
 49.9970055   -8.614282706E-6
 50.1240387   -8.178032658E-6
 50.2510719   -7.704533346E-6
 50.3781013   -7.20191747E-6
 50.5051346   -6.679019407E-6
 50.6321678   -6.145148291E-6
 50.759201   -5.609837444E-6
 50.8862343   -5.082581993E-6
 51.0132675   -4.572575563E-6
 51.1402969   -4.088452442E-6
 51.2673302   -3.63804611E-6
 51.3943634   -3.228172091E-6
 51.5213966   -2.864442649E-6
 51.6484299   -2.551118541E-6
 51.7754631   -2.291008286E-6
 51.9024925   -2.085411779E-6
 52.0295258   -1.934109832E-6
 52.156559   -1.835410785E-6
 52.2835922   -1.786237476E-6
 52.4106255   -1.782260483E-6
 52.5376587   -1.818066835E-6
 52.6646919   -1.887363737E-6
 52.7917213   -1.983203902E-6
 52.9187546   -2.098227014E-6
 53.0457878   -2.224903255E-6
 53.172821   -2.355779088E-6
 53.2998543   -2.483714525E-6
 53.4268875   -2.602091627E-6
 53.5539169   -2.705005272E-6
 53.6809502   -2.78742209E-6
 53.8079834   -2.845305744E-6
 53.9350166   -2.875697874E-6
 54.0620499   -2.876766303E-6
 54.1890831   -2.847813903E-6
 54.3161163   -2.789250857E-6
 54.4431458   -2.702530765E-6
 54.570179   -2.590064923E-6
 54.6972122   -2.45510455E-6
 54.8242455   -2.301617997E-6
 54.9512787   -2.13413864E-6
 55.0783119   -1.957622999E-6
 55.2053413   -1.777302032E-6
 55.3323746   -1.598535277E-6
 55.4594078   -1.42667659E-6
 55.586441   -1.266941013E-6
 55.7134743   -1.124301207E-6
 55.8405075   -1.003381954E-6
 55.9675407   -9.08373579E-7
 56.0945702   -8.429622653E-7
 56.2216034   -8.102695119E-7
 56.3486366   -8.128006925E-7
 56.4756699   -8.524003761E-7
 56.6027031   -9.302183344E-7
 56.7297363   -1.046671855E-6
 56.8567657   -1.201421128E-6
 56.983799   -1.39333531E-6
 57.1108322   -1.620471153E-6
 57.2378654   -1.880046511E-6
 57.3648987   -2.168425226E-6
 57.4919319   -2.481102911E-6
 57.6189651   -2.812709909E-6
 57.7459946   -3.157024139E-6
 57.8730278   -3.507004294E-6
 58.000061   -3.854848273E-6
 58.1270943   -4.192068445E-6
 58.2541275   -4.509605787E-6
 58.3811607   -4.797962902E-6
 58.5081902   -5.047375453E-6
 58.6352234   -5.24800862E-6
 58.7622566   -5.390184015E-6
 58.8892899   -5.464625247E-6
 59.0163231   -5.46272895E-6
 59.1433563   -5.376841273E-6
 59.2703896   -5.200544365E-6
 59.397419   -4.928926046E-6
 59.5244522   -4.558841283E-6
 59.6514854   -4.089143204E-6
 59.7785187   -3.520878408E-6
 59.9055519   -2.85742999E-6
 60.0325851   -2.104603027E-6
 60.1596146   -1.270663688E-6
 60.2866478   -3.662737527E-7
 60.413681   5.95615802E-7
 60.5407143   1.599962957E-6
 60.6677475   2.629914434E-6
 60.7947807   3.667130386E-6
 60.921814   4.692203674E-6
 61.0488434   5.685118595E-6
 61.1758766   6.625748483E-6
 61.3029099   7.494391866E-6
 61.4299431   8.272324521E-6
 61.5569763   8.942340173E-6
 61.6840096   9.48926845E-6
 61.811039   9.900461919E-6
 61.9380722   1.016622537E-5
 62.0651054   1.028016504E-5
 62.1921387   1.02394597E-5
 62.3191719   1.004503338E-5
 62.4462051   9.701617273E-6
 62.5732384   9.217696061E-6
 62.7002678   8.605350558E-6
 62.827301   7.879965779E-6
 62.9543343   7.059859399E-6
 63.0813675   6.16578609E-6
 63.2084007   5.220368621E-6
 63.335434   4.247462584E-6
 63.4624634   3.27146563E-6
 63.5894966   2.316606924E-6
 63.7165298   1.406219894E-6
 63.8435631   5.620536854E-7
 63.9705963   -1.963918379E-7
 64.0976257   -8.524507962E-7
 64.2246628   -1.392800527E-6
 64.3516922   -1.807856961E-6
 64.4787292   -2.09206064E-6
 64.6057587   -2.244023563E-6
 64.7327881   -2.266550609E-6
 64.8598251   -2.166512104E-6
 64.9868546   -1.95459188E-6
 65.1138916   -1.644907798E-6
 65.240921   -1.254517542E-6
 65.3679581   -8.028316074E-7
 65.4949875   -3.109505542E-7
 65.6220169   1.990475482E-7
 65.749054   7.048448651E-7
 65.8760834   1.184618441E-6
 66.0031204   1.617752218E-6
 66.1301498   1.98548446E-6
 66.2571869   2.271489166E-6
 66.3842163   2.462352768E-6
 66.5112457   2.547945314E-6
 66.6382828   2.521656143E-6
 66.7653122   2.380502565E-6
 66.8923492   2.125109404E-6
 67.0193787   1.759548923E-6
 67.1464081   1.291065018E-6
 67.2734451   7.296969784E-7
 67.4004745   8.780346406E-8
 67.5275116   -6.204698479E-7
 67.654541   -1.379780997E-6
 67.7815781   -2.174185283E-6
 67.9086075   -2.987729431E-6
 68.0356369   -3.805008419E-6
 68.162674   -4.611675195E-6
 68.2897034   -5.394866093E-6
 68.4167404   -6.143551218E-6
 68.5437698   -6.848751582E-6
 68.6708069   -7.503678717E-6
 68.7978363   -8.103749678E-6
 68.9248657   -8.646509741E-6
 69.0519028   -9.131420484E-6
 69.1789322   -9.559604223E-6
 69.3059692   -9.93350568E-6
 69.4329987   -1.025648726E-5
 69.5600357   -1.053240612E-5
 69.6870651   -1.076521039E-5
 69.8140945   -1.095850166E-5
 69.9411316   -1.111518577E-5
 70.068161   -1.123713628E-5
 70.1951981   -1.132495981E-5
 70.3222275   -1.137782783E-5
 70.4492569   -1.139342294E-5
 70.5762939   -1.136794253E-5
 70.7033234   -1.129622979E-5
 70.8303604   -1.117198462E-5
 70.9573898   -1.098802568E-5
 71.0844269   -1.073666772E-5
 71.2114563   -1.041009818E-5
 71.3384857   -1.000082466E-5
 71.4655228   -9.502104149E-6
 71.5925522   -8.908397831E-6
 71.7195892   -8.215771231E-6
 71.8466187   -7.422263479E-6
 71.9736557   -6.528201538E-6
 72.1006851   -5.536433036E-6
 72.2277145   -4.452486337E-6
 72.3547516   -3.284626018E-6
 72.481781   -2.043836957E-6
 72.6088181   -7.437017757E-7
 72.7358475   5.998059009E-7
 72.8628845   1.968600827E-6
 72.9899139   3.342844366E-6
 73.1169434   4.70135592E-6
 73.2439804   6.022070011E-6
 73.3710098   7.282525075E-6
 73.4980469   8.460367098E-6
 73.6250763   9.53385188E-6
 73.7521057   1.048234571E-5
 73.8791428   1.128678377E-5
 74.0061722   1.193010303E-5
 74.1332092   1.239762241E-5
 74.2602386   1.267737753E-5
 74.3872757   1.276038074E-5
 74.5143051   1.264083312E-5
 74.6413345   1.231625993E-5
 74.7683716   1.178759521E-5
 74.895401   1.105920182E-5
 75.022438   1.01388232E-5
 75.1494675   9.037499694E-6
 75.2765045   7.76943034E-6
 75.4035339   6.351782758E-6
 75.5305634   4.804481705E-6
 75.6576004   3.149946679E-6
 75.7846298   1.412806682E-6
 75.9116669   -3.804000812E-7
 76.0386963   -2.201564712E-6
 76.1657333   -4.02136493E-6
 76.2927628   -5.809624781E-6
 76.4197922   -7.535712029E-6
 76.5468292   -9.168928955E-6
 76.6738586   -1.067894118E-5
 76.8008957   -1.203620195E-5
 76.9279251   -1.321239233E-5
 77.0549545   -1.418086504E-5
 77.1819916   -1.491709099E-5
 77.309021   -1.539910409E-5
 77.436058   -1.560790406E-5
 77.5630875   -1.552787762E-5
 77.6901245   -1.514718224E-5
 77.8171539   -1.445803446E-5
 77.9441833   -1.345703276E-5
 78.0712204   -1.214534313E-5
 78.1982498   -1.052883545E-5
 78.3252869   -8.618156244E-6
 78.4523163   -6.428701909E-6
 78.5793533   -3.980476777E-6
 78.7063828   -1.297883728E-6
 78.8334122   1.590601642E-6
 78.9604492   4.652828011E-6
 79.0874786   7.853489478E-6
 79.2145157   1.115466421E-5
 79.3415451   1.451648404E-5
 79.4685822   1.789782073E-5
 79.5956116   2.125700667E-5
 79.722641   2.455256072E-5
 79.849678   2.774394488E-5
 79.9767075   3.079226008E-5
 80.1037445   3.36608864E-5
 80.2307739   3.63161198E-5
 80.3578033   3.872769594E-5
 80.4848404   4.08692249E-5
 80.6118698   4.271857688E-5
 80.7389069   4.42581113E-5
 80.8659363   4.547480421E-5
 80.9929733   4.636034646E-5
 81.1200027   4.691104914E-5
 81.2470322   4.712771261E-5
 81.3740692   4.70154082E-5
 81.5010986   4.65831763E-5
 81.6281357   4.584370254E-5
 81.7551651   4.481291035E-5
 81.8822021   4.350955714E-5
 82.0092316   4.195481233E-5
 82.136261   4.017183528E-5
 82.263298   3.818535333E-5
 82.3903275   3.602125435E-5
 82.5173645   3.370623745E-5
 82.6443939   3.126742013E-5
 82.771431   2.873205267E-5
 82.8984604   2.612721073E-5
 83.0254898   2.347953705E-5
 83.1525269   2.08149595E-5
 83.2795563   1.815854375E-5
 83.4065933   1.553419133E-5
 83.5336227   1.296447772E-5
 83.6606522   1.047040678E-5
 83.7876892   8.071270713E-6
 83.9147186   5.784384484E-6
 84.0417557   3.624930514E-6
 84.1687851   1.605762577E-6
 84.2958221   -2.628127618E-7
 84.4228516   -1.973185363E-6
 84.549881   -3.520611472E-6
 84.676918   -4.903291028E-6
 84.8039474   -6.122490504E-6
 84.9309845   -7.182531135E-6
 85.0580139   -8.090767551E-6
 85.185051   -8.85746158E-6
 85.3120804   -9.495644917E-6
 85.4391098   -1.002082172E-5
 85.5661469   -1.045071895E-5
 85.6931763   -1.08048398E-5
 85.8202133   -1.110399899E-5
 85.9472427   -1.13698552E-5
 86.0742722   -1.162433819E-5
 86.2013092   -1.188908936E-5
 86.3283386   -1.218484249E-5
 86.4553757   -1.253086793E-5
 86.5824051   -1.294442518E-5
 86.7094421   -1.34402344E-5
 86.8364716   -1.403009628E-5
 86.963501   -1.472251188E-5
 87.090538   -1.552243884E-5
 87.2175674   -1.643116411E-5
 87.3446045   -1.744629117E-5
 87.4716339   -1.856180825E-5
 87.598671   -1.97683421E-5
 87.7257004   -2.105348176E-5
 87.8527298   -2.240222966E-5
 87.9797668   -2.379749458E-5
 88.1067963   -2.522074101E-5
 88.2338333   -2.665261491E-5
 88.3608627   -2.807367309E-5
 88.4878998   -2.946501081E-5
 88.6149292   -3.080896568E-5
 88.7419586   -3.208972703E-5
 88.8689957   -3.32939162E-5
 88.9960251   -3.441102308E-5
 89.1230621   -3.54337717E-5
 89.2500916   -3.635834946E-5
 89.377121   -3.718455991E-5
 89.504158   -3.79157209E-5
 89.6311874   -3.85585372E-5
 89.7582245   -3.912277316E-5
 89.8852539   -3.962087067E-5
 90.012291   -4.006736708E-5
 90.1393204   -4.047832772E-5
 90.2663498   -4.087062916E-5
 90.3933868   -4.126130807E-5
 90.5204163   -4.166677536E-5
 90.6474533   -4.210216139E-5
 90.7744827   -4.258061381E-5
 90.9015198   -4.311271914E-5
 91.0285492   -4.370602983E-5
 91.1555786   -4.436462405E-5
 91.2826157   -4.508886195E-5
 91.4096451   -4.587531294E-5
 91.5366821   -4.67167265E-5
 91.6637115   -4.760225056E-5
 91.7907486   -4.851771882E-5
 91.917778   -4.944613465E-5
 92.0448074   -5.036812945E-5
 92.1718445   -5.126267934E-5
 92.2988739   -5.210776726E-5
 92.4259109   -5.288112152E-5
 92.5529404   -5.356096881E-5
 92.6799698   -5.412675819E-5
 92.8070068   -5.455983046E-5
 92.9340363   -5.484404028E-5
 93.0610733   -5.496627637E-5
 93.1881027   -5.491682896E-5
 93.3151398   -5.468966992E-5
 93.4421692   -5.428258373E-5
 93.5691986   -5.369715291E-5
 93.6962357   -5.293859067E-5
 93.8232651   -5.201551539E-5
 93.9503021   -5.093950676E-5
 94.0773315   -4.972464376E-5
 94.2043686   -4.838694076E-5
 94.331398   -4.694376548E-5
 94.4584274   -4.541320595E-5
 94.5854645   -4.381343024E-5
 94.7124939   -4.216211892E-5
 94.8395309   -4.047594484E-5
 94.9665604   -3.877004929E-5
 95.0935974   -3.705771815E-5
 95.2206268   -3.535005089E-5
 95.3476563   -3.36557714E-5
 95.4746933   -3.198119884E-5
 95.6017227   -3.033020403E-5
 95.7287598   -2.870438038E-5
 95.8557892   -2.710321314E-5
 95.9828186   -2.552433943E-5
 96.1098557   -2.396383752E-5
 96.2368851   -2.241657603E-5
 96.3639221   -2.087650319E-5
 96.4909515   -1.933699241E-5
 96.6179886   -1.779116246E-5
 96.745018   -1.623209027E-5
 96.8720474   -1.465306013E-5
 96.9990845   -1.304772559E-5
 97.1261139   -1.141023131E-5
 97.2531509   -9.735288586E-6
 97.3801804   -8.018207154E-6
 97.5072174   -6.254885648E-6
 97.6342468   -4.441792044E-6
 97.7612762   -2.575939334E-6
 97.8883133   -6.548482361E-7
 98.0153427   1.323449624E-6
 98.1423798   3.360405117E-6
 98.2694092   5.456869076E-6
 98.3964462   7.613008165E-6
 98.5234756   9.828157999E-6
 98.6505051   1.210063238E-5
 98.7775421   1.442751E-5
 98.9045715   1.680439709E-5
 99.0316086   1.922519368E-5
 99.158638   2.16818371E-5
 99.2856674   2.416412281E-5
 99.4127045   2.665951433E-5
 99.5397339   2.91530614E-5
 99.6667709   3.162735811E-5
 99.7938004   3.406261021E-5
 99.9208374   3.643681339E-5
 100.047867   3.872601155E-5
 100.174896   4.090470247E-5
 100.301933   4.29463289E-5
 100.428963   4.48238643E-5
 100.556   4.651051495E-5
 100.683029   4.798042937E-5
 100.810066   4.920948777E-5
 100.937096   5.017608419E-5
 101.064125   5.086190504E-5
 101.191162   5.125263488E-5
 101.318192   5.133860759E-5
 101.445229   5.111535938E-5
 101.572258   5.058400711E-5
 101.699295   4.97515648E-5
 101.826324   4.863099093E-5
 101.953354   4.724117389E-5
 102.080391   4.560662637E-5
 102.20742   4.375709977E-5
 102.334457   4.172695481E-5
 102.461487   3.955441935E-5
 102.588516   3.728067531E-5
 102.715553   3.494887642E-5
 102.842583   3.26030713E-5
 102.96962   3.028706305E-5
 103.096649   2.804330688E-5
 103.223686   2.591179509E-5
 103.350716   2.392901661E-5
 103.477745   2.212701293E-5
 103.604782   2.053252501E-5
 103.731812   1.916629662E-5
 103.858849   1.804255044E-5
 103.985878   1.716863699E-5
 104.112915   1.654487642E-5
 104.239944   1.616460941E-5
 104.366974   1.601443182E-5
 104.494011   1.607462764E-5
 104.62104   1.631977466E-5
 104.748077   1.671950486E-5
 104.875107   1.723939204E-5
 105.002144   1.784195592E-5
 105.129173   1.848772263E-5
 105.256203   1.91363506E-5
 105.38324   1.974775842E-5
 105.510269   2.028325798E-5
 105.637306   2.070662231E-5
 105.764336   2.098510595E-5
 105.891365   2.109033812E-5
 106.018402   2.099911944E-5
 106.145432   2.069404763E-5
 106.272469   2.01640014E-5
 106.399498   1.940444599E-5
 106.526535   1.841756966E-5
 106.653564   1.721223271E-5
 106.780594   1.580377102E-5
 106.907631   1.421361867E-5
 107.03466   1.24687931E-5
 107.161697   1.06012476E-5
 107.288727   8.64710637E-6
 107.415764   6.645806025E-6
 107.542793   4.639164672E-6
 107.669823   2.670392405E-6
 107.79686   7.830914228E-7
 107.923889   -9.797565781E-7
 108.050926   -2.576774477E-6
 108.177956   -3.969124919E-6
 108.304985   -5.12138331E-6
 108.432022   -6.002315786E-6
 108.559052   -6.585564734E-6
 108.686089   -6.850224963E-6
 108.813118   -6.781276625E-6
 108.940155   -6.369918083E-6
 109.067184   -5.613749181E-6
 109.194214   -4.516819899E-6
 109.321251   -3.089553275E-6
 109.44828   -1.348524165E-6
 109.575317   6.838816944E-7
 109.702347   2.979925739E-6
 109.829384   5.507085461E-6
 109.956413   8.228707884E-6
 110.083443   1.110474477E-5
 110.21048   1.409254764E-5
 110.337509   1.714769314E-5
 110.464546   2.022483022E-5
 110.591576   2.327855873E-5
 110.718613   2.626425339E-5
 110.845642   2.913888602E-5
 110.972672   3.186177491E-5
 111.099709   3.439531429E-5
 111.226738   3.670556907E-5
 111.353775   3.876280607E-5
 111.480804   4.054195597E-5
 111.607834   4.202288619E-5
 111.734871   4.319064101E-5
 111.8619   4.403553248E-5
 111.988937   4.455311864E-5
 112.115967   4.47440616E-5
 112.243004   4.461394201E-5
 112.370033   4.41729062E-5
 112.497063   4.343530964E-5
 112.6241   4.241924762E-5
 112.751129   4.114605326E-5
 112.878166   3.963973359E-5
 113.005196   3.792641655E-5
 113.132233   3.603373261E-5
 113.259262   3.399025445E-5
 113.386292   3.1824904E-5
 113.513329   2.956640492E-5
 113.640358   2.72427751E-5
 113.767395   2.488086648E-5
 113.894424   2.250594298E-5
 114.021461   2.014133315E-5
 114.148491   1.780813545E-5
 114.27552   1.552497815E-5
 114.402557   1.330785472E-5
 114.529587   1.117002284E-5
 114.656624   9.121963558E-6
 114.783653   7.171401649E-6
 114.910683   5.323387995E-6
 115.03772   3.58045304E-6
 115.164749   1.942797326E-6
 115.291786   4.085270291E-7
 115.418816   -1.026050654E-6
 115.545853   -2.366111403E-6
 115.672882   -3.617989478E-6
 115.799911   -4.788815204E-6
 115.926949   -5.886121016E-6
 116.053978   -6.91753894E-6
 116.181015   -7.890395864E-6
 116.308044   -8.811396583E-6
 116.435081   -9.686329577E-6
 116.562111   -1.051977142E-5
 116.68914   -1.131491172E-5
 116.816177   -1.207335936E-5
 116.943207   -1.279503795E-5
 117.070244   -1.347815578E-5
 117.197273   -1.41192495E-5
 117.32431   -1.471326686E-5
 117.45134   -1.52537541E-5
 117.578369   -1.573306508E-5
 117.705406   -1.61426542E-5
 117.832436   -1.647338649E-5
 117.959473   -1.671592509E-5
 118.086502   -1.686109499E-5
 118.213531   -1.690030513E-5
 118.340569   -1.682593393E-5
 118.467598   -1.663172043E-5
 118.594635   -1.63131208E-5
 118.721664   -1.586762119E-5
 118.848701   -1.529498877E-5
 118.975731   -1.459747546E-5
 119.10276   -1.377992703E-5
 119.229797   -1.284983227E-5
 119.356827   -1.181726748E-5
 119.483864   -1.069478367E-5
 119.610893   -9.497198334E-6
 119.73793   -8.241318938E-6
 119.86496   -6.945586847E-6
 119.991989   -5.629688985E-6
 120.119026   -4.314083526E-6
 120.246056   -3.019524002E-6
 120.373093   -1.766521905E-6
 120.500122   -5.748374292E-7
 120.627159   5.370274039E-7
 120.754189   1.552333288E-6
 120.881218   2.456544053E-6
 121.008255   3.237729516E-6
 121.135284   3.886892046E-6
 121.262321   4.398227247E-6
 121.389351   4.769309726E-6
 121.51638   5.001173577E-6
 121.643417   5.098318525E-6
 121.770447   5.068614428E-6
 121.897484   4.923125289E-6
 122.024513   4.675834589E-6
 122.15155   4.3433065E-6
 122.27858   3.94426479E-6
 122.405609   3.499125796E-6
 122.532646   3.029469326E-6
 122.659676   2.557485686E-6
 122.786713   2.10541657E-6
 122.913742   1.694967295E-6
 123.040779   1.346749173E-6
 123.167809   1.07974904E-6
 123.294838   9.108246672E-7
 123.421875   8.54265636E-7
 123.548904   9.214022043E-7
 123.675941   1.120282491E-6
 123.802971   1.455418897E-6
 123.930008   1.927657422E-6
 124.057037   2.534098485E-6
 124.184067   3.268091177E-6