  -4.50000000         0.00000000    
  -4.37500000         0.00000000    
  -4.25000000         0.00000000    
  -4.12500000         0.00000000    
  -4.00000000         0.00000000    
  -3.87500000         0.00000000    
  -3.75000000         1.00447807E-32
  -3.62500000         1.34489190E-31
  -3.50000000         3.11242504E-31
  -3.37500000        -3.36315893E-31
  -3.25000000        -3.92462242E-30
  -3.12500000        -3.18508609E-29
  -3.00000000        -1.47641489E-28
  -2.87500000        -3.85238856E-28
  -2.75000000        -5.88471120E-28
  -2.62500000        -9.82191049E-29
  -2.50000000         2.51405175E-27
  -2.37500000         9.02362813E-27
  -2.25000000         1.95453601E-26
  -2.12500000         2.84656883E-26
  -2.00000000         1.97793190E-26
  -1.87500000        -3.30604764E-26
  -1.75000000        -1.53641101E-25
  -1.62500000        -3.25581064E-25
  -1.50000000        -4.30293746E-25
  -1.37500000        -1.79556316E-25
  -1.25000000         9.02864815E-25
  -1.12500000         3.36240996E-24
  -1.00000000         7.46334282E-24
 -0.875000000         1.25701120E-23
 -0.750000000         1.63744158E-23
 -0.625000000         1.43201494E-23
 -0.500000000        -1.62825858E-25
 -0.375000000        -3.38679854E-23
 -0.250000000        -8.98967397E-23
 -0.125000000        -1.61732326E-22
   0.00000000        -2.26660438E-22
  0.125000000        -2.41510132E-22
  0.250000000        -1.45145837E-22
  0.375000000         1.27425308E-22
  0.500000000         6.16067500E-22
  0.625000000         1.29281070E-21
  0.750000000         2.01385158E-21
  0.875000000         2.48354274E-21
   1.00000000         2.25525463E-21
   1.12500000         7.96211019E-22
   1.25000000        -2.36427747E-21
   1.37500000        -7.40437639E-21
   1.50000000        -1.39314308E-20
   1.62500000        -2.07299895E-20
   1.75000000        -2.56452889E-20
   1.87500000        -2.57250989E-20
   2.00000000        -1.77192459E-20
   2.12500000         1.03573908E-21
   2.25000000         3.14377811E-20
   2.37500000         7.13826108E-20
   2.50000000         1.14840961E-19
   2.62500000         1.51695722E-19
   2.75000000         1.68747507E-19
   2.87500000         1.52113733E-19
   3.00000000         9.09153953E-20
   3.12500000        -1.82826755E-20
   3.25000000        -1.67244869E-19
   3.37500000        -3.33321010E-19
   3.50000000        -4.79495249E-19
   3.62500000        -5.58214668E-19
   3.75000000        -5.19279638E-19
   3.87500000        -3.21082795E-19
   4.00000000         5.66030711E-20
   4.12500000         6.00985851E-19
   4.25000000         1.25887180E-18
   4.37500000         1.93635557E-18
   4.50000000         2.50733085E-18
   4.62500000         2.83086683E-18
   4.75000000         2.77549743E-18
   4.87500000         2.24664508E-18
   5.00000000         1.21221582E-18
   5.12500000        -2.78790886E-19
   5.25000000        -2.08895406E-18
   5.37500000        -3.99893188E-18
   5.50000000        -5.72818935E-18
   5.62500000        -6.96826047E-18
   5.75000000        -7.42527610E-18
   5.87500000        -6.86756157E-18
   6.00000000        -5.17363754E-18
   6.12500000        -2.37562136E-18
   6.25000000         1.30761807E-18
   6.37500000         5.45414482E-18
   6.50000000         9.44698079E-18
   6.62500000         1.25138522E-17
   6.75000000         1.38038015E-17
   6.87500000         1.25004725E-17
   7.00000000         7.96361765E-18
   7.12500000        -1.19823690E-19
   7.25000000        -1.16028575E-17
   7.37500000        -2.57964711E-17
   7.50000000        -4.14683310E-17
   7.62500000        -5.69394936E-17
   7.75000000        -7.02752002E-17
   7.87500000        -7.95399672E-17
   8.00000000        -8.30633066E-17
   8.12500000        -7.96492079E-17
   8.25000000        -6.86664729E-17
   8.37500000        -4.99821801E-17
   8.50000000        -2.37445470E-17
   8.62500000         9.92485131E-18
   8.75000000         5.12199003E-17
   8.87500000         1.00781072E-16
   9.00000000         1.59536909E-16
   9.12500000         2.28173365E-16
   9.25000000         3.06240474E-16
   9.37500000         3.91024290E-16
   9.50000000         4.76434486E-16
   9.62500000         5.52251982E-16
   9.75000000         6.04115915E-16
   9.87500000         6.14579631E-16
   10.0000000         5.65423503E-16
   10.1250000         4.41181690E-16
   10.2500000         2.33555042E-16
   10.3750000        -5.39154768E-17
   10.5000000        -4.01787934E-16
   10.6250000        -7.72285519E-16
   10.7500000        -1.10948071E-15
   10.8750000        -1.34287598E-15
   11.0000000        -1.39475007E-15
   11.1250000        -1.19106840E-15
   11.2500000        -6.75096165E-16
   11.3750000         1.77802764E-16
   11.5000000         1.34623616E-15
   11.6250000         2.75207336E-15
   11.7500000         4.25529193E-15
   11.8750000         5.65632636E-15
   12.0000000         6.70711604E-15
   12.1250000         7.13101961E-15
   12.2500000         6.65057321E-15
   12.3750000         5.02089113E-15
   12.5000000         2.06553283E-15
   12.6250000        -2.28897377E-15
   12.7500000        -7.98390894E-15
   12.8750000        -1.48080672E-14
   13.0000000        -2.23891950E-14
   13.1250000        -3.01988625E-14
   13.2500000        -3.75711933E-14
   13.3750000        -4.37346692E-14
   13.5000000        -4.78552710E-14
   13.6250000        -4.90885984E-14
   13.7500000        -4.66384642E-14
   13.8750000        -3.98194932E-14
   14.0000000        -2.81216124E-14
   14.1250000        -1.12744651E-14
   14.2500000         1.06902478E-14
   14.3750000         3.73810920E-14
   14.5000000         6.79974672E-14
   14.6250000         1.01293594E-13
   14.7500000         1.35562677E-13
   14.8750000         1.68649464E-13
   15.0000000         1.98000280E-13
   15.1250000         2.20758619E-13
   15.2500000         2.33912851E-13
   15.3750000         2.34497643E-13
   15.5000000         2.19845450E-13
   15.6250000         1.87876285E-13
   15.7500000         1.37406539E-13
   15.8750000         6.84491052E-14
   16.0000000        -1.75282254E-14
   16.1250000        -1.17423500E-13
   16.2500000        -2.26436450E-13
   16.3750000        -3.38151111E-13
   16.5000000        -4.44787002E-13
   16.6250000        -5.37626638E-13
   16.7500000        -6.07611726E-13
   16.8750000        -6.46080140E-13
   17.0000000        -6.45599839E-13
   17.1250000        -6.00839094E-13
   17.2500000        -5.09400736E-13
   17.3750000        -3.72540730E-13
   17.5000000        -1.95690821E-13
   17.6250000         1.12925458E-14
   17.7500000         2.34219003E-13
   17.8750000         4.55046049E-13
   18.0000000         6.52783220E-13
   18.1250000         8.04823114E-13
   18.2500000         8.88673792E-13
   18.3750000         8.84030587E-13
   18.5000000         7.75085779E-13
   18.6250000         5.52932537E-13
   18.7500000         2.17877013E-13
   18.8750000        -2.18561985E-13
   19.0000000        -7.32214582E-13
   19.1250000        -1.28563685E-12
   19.2500000        -1.82854188E-12
   19.3750000        -2.29948244E-12
   19.5000000        -2.62890534E-12
   19.6250000        -2.74359572E-12
   19.7500000        -2.57240670E-12
   19.8750000        -2.05302550E-12
   20.0000000        -1.13939446E-12
   20.1250000         1.90733632E-13
   20.2500000         1.92871066E-12
   20.3750000         4.02905313E-12
   20.5000000         6.40533633E-12
   20.6250000         8.92855321E-12
   20.7500000         1.14284953E-11
   20.8750000         1.36985458E-11
   21.0000000         1.55040963E-11
   21.1250000         1.65946007E-11
   21.2500000         1.67189509E-11
   21.3750000         1.56437190E-11
   21.5000000         1.31734294E-11
   21.6250000         9.17185425E-12
   21.7500000         3.58303296E-12
   21.8750000        -3.54945001E-12
   22.0000000        -1.20665335E-11
   22.1250000        -2.16827684E-11
   22.2500000        -3.19820767E-11
   22.3750000        -4.24216010E-11
   22.5000000        -5.23448715E-11
   22.6250000        -6.10049997E-11
   22.7500000        -6.75980105E-11
   22.8750000        -7.13058501E-11
   23.0000000        -7.13476778E-11
   23.1250000        -6.70373201E-11
   23.2500000        -5.78439831E-11
   23.3750000        -4.34526339E-11
   23.5000000        -2.38199113E-11
   23.6250000         7.78942015E-13
   23.7500000         2.97164689E-11
   23.8750000         6.19968729E-11
   24.0000000         9.62610269E-11
   24.1250000         1.30815095E-10
   24.2500000         1.63684080E-10
   24.3750000         1.92690530E-10
   24.5000000         2.15556184E-10
   24.6250000         2.30023681E-10
   24.7500000         2.33993130E-10
   24.8750000         2.25666708E-10
   25.0000000         2.03694298E-10
   25.1250000         1.67310860E-10
   25.2500000         1.16456803E-10
   25.3750000         5.18722149E-11
   25.5000000        -2.48435664E-11
   25.6250000        -1.11214128E-10
   25.7500000        -2.03915579E-10
   25.8750000        -2.98857328E-10
   26.0000000        -3.91314675E-10
   26.1250000        -4.76111262E-10
   26.2500000        -5.47846823E-10
   26.3750000        -6.01161954E-10
   26.5000000        -6.31029784E-10
   26.6250000        -6.33060215E-10
   26.7500000        -6.03803507E-10
   26.8750000        -5.41034773E-10
   27.0000000        -4.44003306E-10
   27.1250000        -3.13630039E-10
   27.2500000        -1.52636820E-10
   27.3750000         3.44064395E-11
   27.5000000         2.41126591E-10
   27.6250000         4.59491667E-10
   27.7500000         6.80057455E-10
   27.8750000         8.92313057E-10
   28.0000000         1.08511733E-09
   28.1250000         1.24721233E-09
   28.2500000         1.36779343E-09
   28.3750000         1.43711076E-09
   28.5000000         1.44707413E-09
   28.6250000         1.39182665E-09
   28.7500000         1.26825350E-09
   28.8750000         1.07639075E-09
   29.0000000         8.19703361E-10
   29.1250000         5.05200326E-10
   29.2500000         1.43367748E-10
   29.3750000        -2.52091986E-10
   29.5000000        -6.64724054E-10
   29.6250000        -1.07597486E-09
   29.7500000        -1.46601931E-09
   29.8750000        -1.81472626E-09
   30.0000000        -2.10272244E-09
   30.1250000        -2.31249908E-09
   30.2500000        -2.42950438E-09
   30.3750000        -2.44315079E-09
   30.5000000        -2.34767872E-09
   30.6250000        -2.14280926E-09
   30.7500000        -1.83413118E-09
   30.8750000        -1.43317980E-09
   31.0000000        -9.57179003E-10
   31.1250000        -4.28426489E-10
   31.2500000         1.26651023E-10
   31.3750000         6.78763989E-10
   31.5000000         1.19727928E-09
   31.6250000         1.65193192E-09
   31.7500000         2.01463601E-09
   31.8750000         2.26130403E-09
   32.0000000         2.37355069E-09
   32.1250000         2.34019337E-09
   32.2500000         2.15842522E-09
   32.3750000         1.83458393E-09
   32.5000000         1.38443501E-09
   32.6250000         8.32920288E-10
   32.7500000         2.13350657E-10
   32.8750000        -4.33947267E-10
   33.0000000        -1.06349429E-09
   33.1250000        -1.62694946E-09
   33.2500000        -2.07573669E-09
   33.3750000        -2.36387976E-09
   33.5000000        -2.45088305E-09
   33.6250000        -2.30453812E-09
   33.7500000        -1.90345650E-09
   33.8750000        -1.23920074E-09
   34.0000000        -3.17871590E-10
   34.1250000         8.38965175E-10
   34.2500000         2.19409801E-09
   34.3750000         3.69529585E-09
   34.5000000         5.27672217E-09
   34.6250000         6.86113788E-09
   34.7500000         8.36279934E-09
   34.8750000         9.69094849E-09
   35.0000000         1.07537534E-08
   35.1250000         1.14625269E-08
   35.2500000         1.17360202E-08
   35.3750000         1.15046292E-08
   35.5000000         1.07142615E-08
   35.6250000         9.32973254E-09
   35.7500000         7.33748395E-09
   35.8750000         4.74748330E-09
   36.0000000         1.59423974E-09
   36.1250000        -2.06317985E-09
   36.2500000        -6.14211304E-09
   36.3750000        -1.05382600E-08
   36.5000000        -1.51285278E-08
   36.6250000        -1.97746939E-08
   36.7500000        -2.43277203E-08
   36.8750000        -2.86325914E-08
   37.0000000        -3.25334177E-08
   37.1250000        -3.58787240E-08
   37.2500000        -3.85266006E-08
   37.3750000        -4.03496294E-08
   37.5000000        -4.12393391E-08
   37.6250000        -4.11101091E-08
   37.7500000        -3.99023143E-08
   37.8750000        -3.75846838E-08
   38.0000000        -3.41557822E-08
   38.1250000        -2.96446085E-08
   38.2500000        -2.41102640E-08
   38.3750000        -1.76408186E-08
   38.5000000        -1.03513340E-08
   38.6250000        -2.38119968E-09
   38.7500000         6.10914563E-09
   38.8750000         1.49419765E-08
   39.0000000         2.39264342E-08
   39.1250000         3.28629284E-08
   39.2500000         4.15476755E-08
   39.3750000         4.97772739E-08
   39.5000000         5.73531942E-08
   39.6250000         6.40861089E-08
   39.7500000         6.97999738E-08
   39.8750000         7.43358655E-08
   40.0000000         7.75554057E-08
   40.1250000         7.93438630E-08
   40.2500000         7.96128177E-08
   40.3750000         7.83024632E-08
   40.5000000         7.53833547E-08
   40.6250000         7.08578440E-08
   40.7500000         6.47609468E-08
   40.8750000         5.71607472E-08
   41.0000000         4.81582312E-08
   41.1250000         3.78865401E-08
   41.2500000         2.65095643E-08
   41.3750000         1.42198084E-08
   41.5000000         1.23542188E-09
   41.6250000        -1.22036710E-08
   41.7500000        -2.58406114E-08
   41.8750000        -3.94075137E-08
   42.0000000        -5.26325081E-08
   42.1250000        -6.52479315E-08
   42.2500000        -7.69996902E-08
   42.3750000        -8.76577460E-08
   42.5000000        -9.70276446E-08
   42.6250000        -1.04963050E-07
   42.7500000        -1.11378952E-07
   42.8750000        -1.16265475E-07
   43.0000000        -1.19702037E-07
   43.1250000        -1.21871338E-07
   43.2500000        -1.23073136E-07
   43.3750000        -1.23737181E-07
   43.5000000        -1.24435161E-07
   43.6250000        -1.25890992E-07
   43.7500000        -1.28989200E-07
   43.8750000        -1.34781075E-07
   44.0000000        -1.44487970E-07
   44.1250000        -1.59501553E-07
   44.2500000        -1.81380628E-07
   44.3750000        -2.11844281E-07
   44.5000000        -2.52760799E-07
   44.6250000        -3.06132790E-07
   44.7500000        -3.74077700E-07
   44.8750000        -4.58803754E-07
   45.0000000        -5.62582045E-07
   45.1250000        -6.87713452E-07
   45.2500000        -8.36492291E-07
   45.3750000        -1.01116530E-06
   45.5000000        -1.21388757E-06
   45.6250000        -1.44667536E-06
   45.7500000        -1.71135616E-06
   45.8750000        -2.00951786E-06
   46.0000000        -2.34245681E-06
   46.1250000        -2.71112526E-06
   46.2500000        -3.11608278E-06
   46.3750000        -3.55744851E-06
   46.5000000        -4.03485637E-06
   46.6250000        -4.54741939E-06
   46.7500000        -5.09370011E-06
   46.8750000        -5.67168581E-06
   47.0000000        -6.27877989E-06
   47.1250000        -6.91179866E-06
   47.2500000        -7.56698637E-06
   47.3750000        -8.24003928E-06
   47.5000000        -8.92614480E-06
   47.6250000        -9.62003833E-06
   47.7500000        -1.03160701E-05
   47.8750000        -1.10082901E-05
   48.0000000        -1.16905412E-05
   48.1250000        -1.23565715E-05
   48.2500000        -1.30001481E-05
   48.3750000        -1.36151848E-05
   48.5000000        -1.41958735E-05
   48.6250000        -1.47368128E-05
   48.7500000        -1.52331449E-05
   48.8750000        -1.56806709E-05
   49.0000000        -1.60759791E-05
   49.1250000        -1.64165449E-05
   49.2500000        -1.67008184E-05
   49.3750000        -1.69282939E-05
   49.5000000        -1.70995627E-05
   49.6250000        -1.72163309E-05
   49.7500000        -1.72814216E-05
   49.8750000        -1.72987420E-05
   50.0000000        -1.72732252E-05
   50.1250000        -1.72107593E-05
   50.2500000        -1.71180563E-05
   50.3750000        -1.70025396E-05
   50.5000000        -1.68721745E-05
   50.6250000        -1.67353119E-05
   50.7500000        -1.66004938E-05
   50.8750000        -1.64762714E-05
   51.0000000        -1.63710010E-05
   51.1250000        -1.62926553E-05
   51.2500000        -1.62486376E-05
   51.3750000        -1.62456054E-05
   51.5000000        -1.62893120E-05
   51.6250000        -1.63844797E-05
   51.7500000        -1.65346755E-05
   51.8750000        -1.67422331E-05
   52.0000000        -1.70082039E-05
   52.1250000        -1.73323206E-05
   52.2500000        -1.77130187E-05
   52.3750000        -1.81474643E-05
   52.5000000        -1.86316265E-05
   52.6250000        -1.91603722E-05
   52.7500000        -1.97275767E-05
   52.8750000        -2.03262734E-05
   53.0000000        -2.09487971E-05
   53.1250000        -2.15869550E-05
   53.2500000        -2.22321996E-05
   53.3750000        -2.28758090E-05
   53.5000000        -2.35090556E-05
   53.6250000        -2.41233847E-05
   53.7500000        -2.47105636E-05
   53.8750000        -2.52628433E-05
   54.0000000        -2.57730862E-05
   54.1250000        -2.62348822E-05
   54.2500000        -2.66426596E-05
   54.3750000        -2.69917509E-05
   54.5000000        -2.72784691E-05
   54.6250000        -2.75001457E-05
   54.7500000        -2.76551546E-05
   54.8750000        -2.77429281E-05
   55.0000000        -2.77639465E-05
   55.1250000        -2.77197159E-05
   55.2500000        -2.76127412E-05
   55.3750000        -2.74464710E-05
   55.5000000        -2.72252473E-05
   55.6250000        -2.69542379E-05
   55.7500000        -2.66393654E-05
   55.8750000        -2.62872218E-05
   56.0000000        -2.59049702E-05
   56.1250000        -2.55002597E-05
   56.2500000        -2.50811136E-05
   56.3750000        -2.46558193E-05
   56.5000000        -2.42328097E-05
   56.6250000        -2.38205412E-05
   56.7500000        -2.34273721E-05
   56.8750000        -2.30614241E-05
   57.0000000        -2.27304627E-05
   57.1250000        -2.24417599E-05
   57.2500000        -2.22019789E-05
   57.3750000        -2.20170405E-05
   57.5000000        -2.18920268E-05
   57.6250000        -2.18310779E-05
   57.7500000        -2.18373098E-05
   57.8750000        -2.19127487E-05
   58.0000000        -2.20582915E-05
   58.1250000        -2.22736817E-05
   58.2500000        -2.25575168E-05
   58.3750000        -2.29072793E-05
   58.5000000        -2.33193859E-05
   58.6250000        -2.37892709E-05
   58.7500000        -2.43114955E-05
   58.8750000        -2.48798624E-05
   59.0000000        -2.54875704E-05
   59.1250000        -2.61273472E-05
   59.2500000        -2.67916366E-05
   59.3750000        -2.74727481E-05
   59.5000000        -2.81630237E-05
   59.6250000        -2.88549836E-05
   59.7500000        -2.95414793E-05
   59.8750000        -3.02158005E-05
   60.0000000        -3.08717790E-05
   60.1250000        -3.15038524E-05
   60.2500000        -3.21071093E-05
   60.3750000        -3.26772861E-05
   60.5000000        -3.32107629E-05
   60.6250000        -3.37044949E-05
   60.7500000        -3.41559426E-05
   60.8750000        -3.45629815E-05
   61.0000000        -3.49237707E-05
   61.1250000        -3.52366478E-05
   61.2500000        -3.54999938E-05
   61.3750000        -3.57121098E-05
   61.5000000        -3.58711113E-05
   61.6250000        -3.59748556E-05
   61.7500000        -3.60208505E-05
   61.8750000        -3.60062477E-05
   62.0000000        -3.59278492E-05
   62.1250000        -3.57821446E-05
   62.2500000        -3.55654047E-05
   62.3750000        -3.52738170E-05
   62.5000000        -3.49036345E-05
   62.6250000        -3.44513937E-05
   62.7500000        -3.39141297E-05
   62.8750000        -3.32896161E-05
   63.0000000        -3.25766232E-05
   63.1250000        -3.17751692E-05
   63.2500000        -3.08867529E-05
   63.3750000        -2.99145740E-05
   63.5000000        -2.88637166E-05
   63.6250000        -2.77412801E-05
   63.7500000        -2.65564722E-05
   63.8750000        -2.53206272E-05
   64.0000000        -2.40471709E-05
   64.1250000        -2.27515138E-05
   64.2500000        -2.14508709E-05
   64.3750000        -2.01640214E-05
   64.5000000        -1.89110106E-05
   64.6250000        -1.77127695E-05
   64.7500000        -1.65907277E-05
   64.8750000        -1.55663583E-05
   65.0000000        -1.46607190E-05
   65.1250000        -1.38939740E-05
   65.2500000        -1.32849227E-05
   65.3750000        -1.28505562E-05
   65.5000000        -1.26056348E-05
   65.6250000        -1.25623264E-05
   65.7500000        -1.27298918E-05
   65.8750000        -1.31144498E-05
   66.0000000        -1.37188172E-05
   66.1250000        -1.45424219E-05
   66.2500000        -1.55813177E-05
   66.3750000        -1.68282659E-05
   66.5000000        -1.82729218E-05
   66.6250000        -1.99020669E-05
   66.7500000        -2.16999451E-05
   66.8750000        -2.36486158E-05
   67.0000000        -2.57283900E-05
   67.1250000        -2.79182659E-05
   67.2500000        -3.01963937E-05
   67.3750000        -3.25405417E-05
   67.5000000        -3.49285438E-05
   67.6250000        -3.73387084E-05
   67.7500000        -3.97502154E-05
   67.8750000        -4.21434015E-05
   68.0000000        -4.45000587E-05
   68.1250000        -4.68036051E-05
   68.2500000        -4.90392013E-05
   68.3750000        -5.11938015E-05
   68.5000000        -5.32561207E-05
   68.6250000        -5.52165511E-05
   68.7500000        -5.70669945E-05
   68.8750000        -5.88006733E-05
   69.0000000        -6.04118904E-05
   69.1250000        -6.18957711E-05
   69.2500000        -6.32479787E-05
   69.3750000        -6.44644606E-05
   69.5000000        -6.55412077E-05
   69.6250000        -6.64740219E-05
   69.7500000        -6.72583628E-05
   69.8750000        -6.78892029E-05
   70.0000000        -6.83610051E-05
   70.1250000        -6.86677231E-05
   70.2500000        -6.88028667E-05
   70.3750000        -6.87596767E-05
   70.5000000        -6.85312916E-05
   70.6250000        -6.81110614E-05
   70.7500000        -6.74928378E-05
   70.8750000        -6.66713386E-05
   71.0000000        -6.56425327E-05
   71.1250000        -6.44040047E-05
   71.2500000        -6.29553688E-05
   71.3750000        -6.12986041E-05
   71.5000000        -5.94383928E-05
   71.6250000        -5.73823891E-05
   71.7500000        -5.51414450E-05
   71.8750000        -5.27297561E-05
   72.0000000        -5.01649338E-05
   72.1250000        -4.74679582E-05
   72.2500000        -4.46631238E-05
   72.3750000        -4.17778137E-05
   72.5000000        -3.88422413E-05
   72.6250000        -3.58891157E-05
   72.7500000        -3.29532086E-05
   72.8750000        -3.00709016E-05
   73.0000000        -2.72796497E-05
   73.1250000        -2.46174477E-05
   73.2500000        -2.21222399E-05
   73.3750000        -1.98313555E-05
   73.5000000        -1.77809288E-05
   73.6250000        -1.60053296E-05
   73.7500000        -1.45366485E-05
   73.8750000        -1.34041902E-05
   74.0000000        -1.26340256E-05
   74.1250000        -1.22485944E-05
   74.2500000        -1.22663560E-05
   74.3750000        -1.27014982E-05
   74.5000000        -1.35637101E-05
   74.6250000        -1.48580093E-05
   74.7500000        -1.65846250E-05
   74.8750000        -1.87389396E-05
   75.0000000        -2.13114927E-05
   75.1250000        -2.42880233E-05
   75.2500000        -2.76495721E-05
   75.3750000        -3.13726305E-05
   75.5000000        -3.54293297E-05
   75.6250000        -3.97877011E-05
   75.7500000        -4.44119250E-05
   75.8750000        -4.92626932E-05
   76.0000000        -5.42975467E-05
   76.1250000        -5.94712983E-05
   76.2500000        -6.47364432E-05
   76.3750000        -7.00436722E-05
   76.5000000        -7.53422864E-05
   76.6250000        -8.05808086E-05
   76.7500000        -8.57074338E-05
   76.8750000        -9.06705900E-05
   77.0000000        -9.54194838E-05
   77.1250000        -9.99045951E-05
   77.2500000        -1.04078194E-04
   77.3750000        -1.07894812E-04
   77.5000000        -1.11311652E-04
   77.6250000        -1.14289011E-04
   77.7500000        -1.16790616E-04
   77.8750000        -1.18783864E-04
   78.0000000        -1.20240096E-04
   78.1250000        -1.21134726E-04
   78.2500000        -1.21447352E-04
   78.3750000        -1.21161822E-04
   78.5000000        -1.20266202E-04
   78.6250000        -1.18752760E-04
   78.7500000        -1.16617892E-04
   78.8750000        -1.13861999E-04
   79.0000000        -1.10489389E-04
   79.1250000        -1.06508152E-04
   79.2500000        -1.01930047E-04
   79.3750000        -9.67703963E-05
   79.5000000        -9.10479794E-05
   79.6250000        -8.47850097E-05
   79.7500000        -7.80070113E-05
   79.8750000        -7.07428408E-05
   80.0000000        -6.30246650E-05
   80.1250000        -5.48879070E-05
   80.2500000        -4.63712640E-05
   80.3750000        -3.75166601E-05
   80.5000000        -2.83691643E-05
   80.6250000        -1.89769034E-05
   80.7500000        -9.39088295E-06
   80.8750000         3.35232244E-07
   81.0000000         1.01454298E-05
   81.1250000         1.99817496E-05
   81.2500000         2.97847528E-05
   81.3750000         3.94941126E-05
   81.5000000         4.90492748E-05
   81.6250000         5.83902001E-05
   81.7500000         6.74581752E-05
   81.8750000         7.61966803E-05
   82.0000000         8.45522954E-05
   82.1250000         9.24755805E-05
   82.2500000         9.99220138E-05
   82.3750000         1.06852793E-04
   82.5000000         1.13235641E-04
   82.6250000         1.19045450E-04
   82.7500000         1.24264887E-04
   82.8750000         1.28884712E-04
   83.0000000         1.32904053E-04
   83.1250000         1.36330433E-04
   83.2500000         1.39179581E-04
   83.3750000         1.41475117E-04
   83.5000000         1.43247977E-04
   83.6250000         1.44535617E-04
   83.7500000         1.45381186E-04
   83.8750000         1.45832324E-04
   84.0000000         1.45940066E-04
   84.1250000         1.45757513E-04
   84.2500000         1.45338432E-04
   84.3750000         1.44735968E-04
   84.5000000         1.44001286E-04
   84.6250000         1.43182275E-04
   84.7500000         1.42322388E-04
   84.8750000         1.41459619E-04
   85.0000000         1.40625605E-04
   85.1250000         1.39845055E-04
   85.2500000         1.39135140E-04
   85.3750000         1.38505406E-04
   85.5000000         1.37957730E-04
   85.6250000         1.37486553E-04
   85.7500000         1.37079332E-04
   85.8750000         1.36717223E-04
   86.0000000         1.36375893E-04
   86.1250000         1.36026531E-04
   86.2500000         1.35636947E-04
   86.3750000         1.35172741E-04
   86.5000000         1.34598580E-04
   86.6250000         1.33879395E-04
   86.7500000         1.32981600E-04
   86.8750000         1.31874272E-04
   87.0000000         1.30530127E-04
   87.1250000         1.28926476E-04
   87.2500000         1.27046034E-04
   87.3750000         1.24877479E-04
   87.5000000         1.22415906E-04
   87.6250000         1.19663076E-04
   87.7500000         1.16627540E-04
   87.8750000         1.13324459E-04
   88.0000000         1.09775385E-04
   88.1250000         1.06007843E-04
   88.2500000         1.02054742E-04
   88.3750000         9.79537290E-05
   88.5000000         9.37463992E-05
   88.6250000         8.94774348E-05
   88.7500000         8.51937366E-05
   88.8750000         8.09434350E-05
   89.0000000         7.67750098E-05
   89.1250000         7.27362785E-05
   89.2500000         6.88735599E-05
   89.3750000         6.52307717E-05
   89.5000000         6.18486592E-05
   89.6250000         5.87640789E-05
   89.7500000         5.60093758E-05
   89.8750000         5.36118714E-05
   90.0000000         5.15934589E-05
   90.1250000         4.99703056E-05
   90.2500000         4.87526777E-05
   90.3750000         4.79449081E-05
   90.5000000         4.75454653E-05
   90.6250000         4.75471315E-05
   90.7500000         4.79373193E-05
   90.8750000         4.86984609E-05
   91.0000000         4.98085028E-05
   91.1250000         5.12414699E-05
   91.2500000         5.29681165E-05
   91.3750000         5.49565702E-05
   91.5000000         5.71730452E-05
   91.6250000         5.95825513E-05
   91.7500000         6.21495783E-05
   91.8750000         6.48387868E-05
   92.0000000         6.76155760E-05
   92.1250000         7.04466729E-05
   92.2500000         7.33005945E-05
   92.3750000         7.61480624E-05
   92.5000000         7.89622572E-05
   92.6250000         8.17190594E-05
   92.7500000         8.43971284E-05
   92.8750000         8.69779178E-05
   93.0000000         8.94456243E-05
   93.1250000         9.17869620E-05
   93.2500000         9.39910242E-05
   93.3750000         9.60489342E-05
   93.5000000         9.79535835E-05
   93.6250000         9.96992894E-05
   93.7500000         1.01281461E-04
   93.8750000         1.02696285E-04
   94.0000000         1.03940452E-04
   94.1250000         1.05010906E-04
   94.2500000         1.05904634E-04
   94.3750000         1.06618565E-04
   94.5000000         1.07149448E-04
   94.6250000         1.07493906E-04
   94.7500000         1.07648440E-04
   94.8750000         1.07609587E-04
   95.0000000         1.07374035E-04
   95.1250000         1.06938889E-04
   95.2500000         1.06301857E-04
   95.3750000         1.05461477E-04
   95.5000000         1.04417413E-04
   95.6250000         1.03170627E-04
   95.7500000         1.01723592E-04
   95.8750000         1.00080440E-04
   96.0000000         9.82470592E-05
   96.1250000         9.62311096E-05
   96.2500000         9.40420068E-05
   96.3750000         9.16908029E-05
   96.5000000         8.91900199E-05
   96.6250000         8.65534166E-05