 -4.5   2.901068612E-18
 -4.37296724   2.901103147E-18
 -4.24593449   2.901167254E-18
 -4.11890221   2.901255555E-18
 -3.99186945   2.901359366E-18
 -3.86483669   2.901469381E-18
 -3.73780417   2.901575881E-18
 -3.61077142   2.901670179E-18
 -3.4837389   2.901746694E-18
 -3.35670614   2.901802115E-18
 -3.22967362   2.90183665E-18
 -3.10264087   2.901854641E-18
 -2.97560835   2.901861879E-18
 -2.84857559   2.901866015E-18
 -2.72154307   2.901876354E-18
 -2.59451032   2.901900136E-18
 -2.46747756   2.90194501E-18
 -2.34044504   2.90201408E-18
 -2.21341228   2.902108172E-18
 -2.08637977   2.902223563E-18
 -1.95934713   2.902355705E-18
 -1.83231449   2.902494879E-18
 -1.70528185   2.902633018E-18
 -1.57824922   2.902760404E-18
 -1.45121646   2.902868971E-18
 -1.32418382   2.902953137E-18
 -1.19715118   2.903011246E-18
 -1.07011855   2.903044126E-18
 -0.943085909   2.903055293E-18
 -0.816053271   2.903050537E-18
 -0.689020634   2.903035648E-18
 -0.561987996   2.903013521E-18
 -0.434955359   2.902986637E-18
 -0.307922721   2.902956445E-18
 -0.180890068   2.902929355E-18
 -5.385742337E-2   2.902922945E-18
 7.317522168E-2   2.902971955E-18
 0.200207874   2.903128499E-18
 0.327240527   2.903454822E-18
 0.454273164   2.903998073E-18
 0.581305802   2.904752461E-18
 0.708338439   2.905605284E-18
 0.835371077   2.906294119E-18
 0.962403715   2.906390279E-18
 1.08943641   2.905344929E-18
 1.21646905   2.902622678E-18
 1.34350169   2.897930496E-18
 1.47053432   2.891512402E-18
 1.59756696   2.884441455E-18
 1.7245996   2.878789123E-18
 1.85163224   2.877543182E-18
 1.97866488   2.884142843E-18
 2.10569763   2.901586221E-18
 2.23273015   2.931182123E-18
 2.35976291   2.971190367E-18
 2.48679543   3.015742729E-18
 2.61382818   3.054551975E-18
 2.7408607   3.073868917E-18
 2.86789346   3.058977598E-18
 2.99492598   2.998139912E-18
 3.12195873   2.887413308E-18
 3.24899125   2.735279904E-18
 3.37602401   2.565657007E-18
 3.50305653   2.417826803E-18
 3.63008928   2.342164593E-18
 3.75712204   2.391393006E-18
 3.88415456   2.608196011E-18
 4.01118708   3.011301803E-18
 4.13821983   3.583110254E-18
 4.26525259   4.262362848E-18
 4.39228535   4.944924166E-18
 4.51931763   5.494423969E-18
 4.64635038   5.762490458E-18
 4.77338314   5.6160311E-18
 4.9004159   4.967024364E-18
 5.02744818   3.799129298E-18
 5.15448093   2.185462877E-18
 5.28151369   2.931257189E-19
 5.40854645   -1.627795803E-18
 5.53557873   -3.270545997E-18
 5.66261148   -4.310908424E-18
 5.78964424   -4.455317616E-18
 5.916677   -3.49304476E-18
 6.04370975   -1.34720094E-18
 6.17074203   1.881176837E-18
 6.29777479   5.882642578E-18
 6.42480755   1.013034034E-17
 6.55184031   1.390118544E-17
 6.67887259   1.633501881E-17
 6.80590534   1.653555386E-17
 6.9329381   1.370931759E-17
 7.05997086   7.327890476E-18
 7.18700314   -2.71277294E-18
 7.31403589   -1.597096669E-17
 7.44106865   -3.141229626E-17
 7.56810141   -4.746480807E-17
 7.69513416   -6.218379886E-17
 7.82216644   -7.35057243E-17
 7.9491992   -7.954114507E-17
 8.07623196   -7.883538134E-17
 8.20326424   -7.052122357E-17
 8.33029747   -5.430801041E-17
 8.45732975   -3.029421277E-17
 8.58436203   1.349724978E-18
 8.71139526   4.072107916E-17
 8.83842754   8.839709291E-17
 8.96546078   1.453635725E-16
 9.09249306   2.125460701E-16
 9.21952534   2.899228342E-16
 9.34655857   3.753290604E-16
 9.47359085   4.63203673E-16
 9.60062313   5.436486154E-16
 9.72765636   6.022261848E-16
 9.85468864   6.208846265E-16
 9.98172188   5.802574853E-16
 10.1087542   4.633348572E-16
 10.2357864   2.601839045E-16
 10.3628197   -2.694505607E-17
 10.489852   -3.790825811E-16
 10.6168852   -7.577066526E-16
 10.7439175   -1.104734569E-15
 10.8709497   -1.346234356E-15
 10.997983   -1.400293057E-15
 11.1250153   -1.188835517E-15
 11.2520475   -6.524321569E-16
 11.3790808   2.336112633E-16
 11.5061131   1.444196469E-15
 11.6331463   2.893051831E-15
 11.7601786   4.427634762E-15
 11.8872108   5.832445258E-15
 12.0142441   6.842002229E-15
 12.1412764   7.163531277E-15
 12.2683096   6.508044243E-15
 12.3953419   4.627188525E-15
 12.5223742   1.352158292E-15
 12.6494074   -3.369648471E-15
 12.7764397   -9.444626579E-15
 12.9034719   -1.661350772E-14
 13.0305052   -2.444532173E-14
 13.1575375   -3.234635189E-14
 13.2845707   -3.958416711E-14
 13.411603   -4.53255631E-14
 13.5386353   -4.868619681E-14
 13.6656685   -4.878926039E-14
 13.7927008   -4.483039103E-14
 13.919734   -3.614619929E-14
 14.0467663   -2.228425947E-14
 14.1737986   -3.0723632E-15
 14.3008318   2.13152453E-14
 14.4278641   5.029800903E-14
 14.5548964   8.284020171E-14
 14.6819296   1.174197051E-13
 14.8089619   1.520229119E-13
 14.9359951   1.84175483E-13
 15.0630274   2.110191226E-13
 15.1900597   2.29442794E-13
 15.3170929   2.362733219E-13
 15.4441252   2.285243663E-13
 15.5711575   2.036949575E-13
 15.6981907   1.600995947E-13
 15.825223   9.720290572E-14
 15.9522562   1.59237366E-14
 16.0792885   -8.113191244E-14
 16.2063217   -1.895504695E-13
 16.333353   -3.031409759E-13
 16.4603863   -4.141444945E-13
 16.5874195   -5.136374724E-13
 16.7144508   -5.921257408E-13
 16.8414841   -6.403045412E-13
 16.9685173   -6.499413637E-13
 17.0955505   -6.148173333E-13
 17.2225819   -5.316493231E-13
 17.3496151   -4.009058981E-13
 17.4766483   -2.274253106E-13
 17.6036797   -2.074944085E-14
 17.7307129   2.049050084E-13
 17.8577461   4.310978928E-13
 17.9847775   6.360795137E-13
 18.1118107   7.96176547E-13
 18.2388439   8.876267234E-13
 18.3658752   8.887980412E-13
 18.4929085   7.826832173E-13
 18.6199417   5.595117468E-13
 18.7469749   2.192740889E-13
 18.8740063   -2.260902782E-13
 19.0010395   -7.511169421E-13
 19.1280727   -1.316141857E-12
 19.2551041   -1.867793897E-12
 19.3821373   -2.340876191E-12
 19.5091705   -2.661764906E-12
 19.6362019   -2.75334291E-12
 19.7632351   -2.54133368E-12
 19.8902683   -1.961746304E-12
 20.0172997   -9.689835739E-13
 20.1443329   4.559813898E-13
 20.2713661   2.298053674E-12
 20.3983994   4.501851582E-12
 20.5254307   6.967691181E-12
 20.6524639   9.550415146E-12
 20.7794971   1.206165723E-11
 20.9065285   1.427594241E-11
 21.0335617   1.594080076E-11
 21.1605949   1.679082394E-11
 21.2876263   1.656531162E-11
 21.4146595   1.502879245E-11
 21.5416927   1.199352423E-11
 21.6687241   7.342672477E-12
 21.7957573   1.052677368E-12
 21.9227905   -6.786900469E-12
 22.0498238   -1.595791381E-11
 22.1768551   -2.610438428E-11
 22.3038883   -3.673132284E-11
 22.4309216   -4.721302516E-11
 22.5579529   -5.681213486E-11
 22.6849861   -6.470987635E-11
 22.8120193   -7.004734986E-11
 22.9390507   -7.197688973E-11
 23.0660839   -6.972147165E-11
 23.1931171   -6.263947E-11
 23.3201485   -5.029086869E-11
 23.4471817   -3.250072433E-11
 23.5742149   -9.414878599E-12
 23.7012463   1.845701543E-11
 23.8282795   5.021599109E-11
 23.9553127   8.457014256E-11
 24.082346   1.198561111E-10
 24.2093773   1.540878813E-10
 24.3364105   1.850332387E-10
 24.4634438   2.103166669E-10
 24.5904751   2.275454269E-10
 24.7175083   2.34453873E-10
 24.8445415   2.290589524E-10
 24.9715729   2.098188429E-10
 25.0986061   1.757847895E-10
 25.2256393   1.2673676E-10
 25.3526707   6.32918995E-11
 25.4797039   -1.302309736E-11
 25.6067371   -9.974474025E-11
 25.7337704   -1.934969268E-10
 25.8608017   -2.900709117E-10
 25.9878349   -3.84562715E-10
 26.1148682   -4.715657864E-10
 26.2418995   -5.454142138E-10
 26.3689327   -6.004677311E-10
 26.495966   -6.314264667E-10
 26.6229973   -6.336617897E-10
 26.7500305   -6.035447697E-10
 26.8770638   -5.387558177E-10
 27.0040951   -4.385539154E-10
 27.1311283   -3.039893615E-10
 27.2581615   -1.380399267E-10
 27.3851948   5.434351233E-11
 27.5122261   2.662940146E-10
 27.6392593   4.89196017E-10
 27.7662926   7.129646873E-10
 27.8933239   9.264344847E-10
 28.0203571   1.117845594E-9
 28.1473904   1.275412331E-9
 28.2744217   1.387949977E-9
 28.4014549   1.445531583E-9
 28.5284882   1.44013923E-9
 28.6555195   1.366274538E-9
 28.7825527   1.221487023E-9
 28.909586   1.006784323E-9
 29.0366192   7.268880498E-10
 29.1636505   3.90302568E-10
 29.2906837   9.179812292E-12
 29.417717   -4.010389243E-10
 29.5447483   -8.221950343E-10
 29.6717815   -1.23419408E-9
 29.7988148   -1.615964362E-9
 29.9258461   -1.946552253E-9
 30.0528793   -2.20630314E-9
 30.1799126   -2.378063746E-9
 30.3069439   -2.44833509E-9
 30.4339771   -2.408303112E-9
 30.5610104   -2.254675113E-9
 30.6880436   -1.990252851E-9
 30.8150749   -1.624188561E-9
 30.9421082   -1.171880593E-9
 31.0691414   -6.544853548E-10
 31.1961727   -9.805018603E-11
 31.3232059   4.677216392E-10
 31.4502392   1.011009831E-9
 31.5772705   1.499665614E-9
 31.7043037   1.90314875E-9
 31.831337   2.194505688E-9
 31.9583683   2.352281037E-9
 32.0854034   2.36222597E-9
 32.2124329   2.218697448E-9
 32.3394661   1.925626769E-9
 32.4664993   1.49698498E-9
 32.5935326   9.56662416E-10
 32.7205658   3.377459423E-10
 32.847599   -3.18821386E-10
 32.9746284   -9.661419442E-10
 33.1016617   -1.553773554E-9
 33.2286949   -2.030517088E-9
 33.3557281   -2.347467554E-9
 33.4827614   -2.46114884E-9
 33.6097946   -2.33656694E-9
 33.7368279   -1.95001415E-9
 33.8638573   -1.291421858E-9
 33.9908905   -3.66148889E-10
 34.1179237   8.039731658E-10
 34.244957   2.180403635E-9
 34.3719902   3.708526819E-9
 34.4990234   5.319190866E-9
 34.6260529   6.931085039E-9
 34.7530861   8.453898026E-9
 34.8801193   9.792125333E-9
 35.0071526   1.084936319E-8
 35.1341858   1.153288842E-8
 35.261219   1.175833475E-8
 35.3882523   1.145421002E-8
 35.5152817   1.056606092E-8
 35.6423149   9.060062922E-9
 35.7693481   6.92585056E-9
 35.8963814   4.178433599E-9
 36.0234146   8.591106715E-10
 36.1504478   -2.964730239E-9
 36.2774773   -7.200875896E-9
 36.4045105   -1.173464792E-8
 36.5315437   -1.643221026E-8
 36.658577   -2.114475173E-8
 36.7856102   -2.571334967E-8
 36.9126434   -2.997430926E-8
 37.0396767   -3.376482027E-8
 37.1667061   -3.692864325E-8
 37.2937393   -3.93216375E-8
 37.4207726   -4.081696403E-8
 37.5478058   -4.130970055E-8
 37.674839   -4.072077786E-8
 37.8018723   -3.900003875E-8
 37.9289017   -3.612840871E-8
 38.0559349   -3.21190754E-8
 38.1829681   -2.701766988E-8
 38.3100014   -2.090149032E-8
 38.4370346   -1.387779669E-8
 38.5640678   -6.081283477E-9
 38.6911011   2.329190174E-9
 38.8181305   1.117445425E-8
 38.9451637   2.025937995E-8
 39.072197   2.937755283E-8
 39.1992302   3.83161769E-8
 39.3262634   4.686102173E-8
 39.4532967   5.480136167E-8
 39.5803261   6.193474889E-8
 39.7073593   6.807154307E-8
 39.8343925   7.30391605E-8
 39.9614258   7.668595003E-8
 40.088459   7.888463927E-8
 40.2154922   7.953536141E-8
 40.3425255   7.856822037E-8
 40.4695549   7.594536555E-8
 40.5965881   7.166259053E-8
 40.7236214   6.575037759E-8
 40.8506546   5.827445904E-8
 40.9776878   4.933568931E-8
 41.1047211   3.906937351E-8
 41.2317505   2.764382501E-8
 41.3587837   1.525814497E-8
 41.485817   2.139117328E-9
 41.6128502   -1.146287509E-8
 41.7398834   -2.527902154E-8
 41.8669167   -3.902840717E-8
 41.9939499   -5.242554835E-8
 42.1209793   -6.518924778E-8
 42.2480125   -7.705267535E-8
 42.3750458   -8.77747226E-8
 42.502079   -9.715250116E-8
 42.6291122   -1.050348999E-7
 42.7561455   -1.113369237E-7
 42.8831749   -1.160546717E-7
 43.0102081   -1.192805996E-7
 43.1372414   -1.212187328E-7
 43.2642746   -1.221993955E-7
 43.3913078   -1.226931943E-7
 43.5183411   -1.233236446E-7
 43.6453743   -1.248780848E-7
 43.7724037   -1.283163584E-7
 43.899437   -1.34776883E-7
 44.0264702   -1.455796337E-7
 44.1535034   -1.622257457E-7
 44.2805367   -1.863930237E-7
 44.4075699   -2.199275144E-7
 44.5345993   -2.64830561E-7
 44.6616325   -3.23241153E-7
 44.7886658   -3.974136291E-7
 44.915699   -4.896900236E-7
 45.0427322   -6.024685604E-7
 45.1697655   -7.381659657E-7
 45.2967987   -8.991769391E-7
 45.4238281   -1.087827627E-6
 45.5508614   -1.306327476E-6
 45.6778946   -1.556715915E-6
 45.8049278   -1.840808295E-6
 45.9319611   -2.160139729E-6
 46.0589943   -2.515909273E-6
 46.1860237   -2.908923079E-6
 46.3130569   -3.3395429E-6
 46.4400902   -3.807636631E-6
 46.5671234   -4.312534202E-6
 46.6941566   -4.852990969E-6
 46.8211899   -5.427157703E-6
 46.9482231   -6.032566034E-6
 47.0752525   -6.666121408E-6
 47.2022858   -7.324109447E-6
 47.329319   -8.002220966E-6
 47.4563522   -8.695586075E-6
 47.5833855   -9.398830116E-6
 47.7104187   -1.010614142E-5
 47.8374481   -1.081135997E-5
 47.9644814   -1.150807293E-5
 48.0915146   -1.218973011E-5
 48.2185478   -1.284977225E-5
 48.3455811   -1.348176102E-5
 48.4726143   -1.407951822E-5
 48.5996475   -1.463727494E-5
 48.7266769   -1.51498125E-5
 48.8537102   -1.561259523E-5
 48.9807434   -1.602190423E-5
 49.1077766   -1.637495188E-5
 49.2348099   -1.666998287E-5
 49.3618431   -1.690634417E-5
 49.4888725   -1.708455238E-5
 49.6159058   -1.720631371E-5
 49.742939   -1.727452218E-5
 49.8699722   -1.729323594E-5
 49.9970055   -1.726761366E-5
 50.1240387   -1.720381988E-5
 50.2510719   -1.710891411E-5
 50.3781013   -1.699070526E-5
 50.5051346   -1.68575807E-5
 50.6321678   -1.671831888E-5
 50.759201   -1.658190376E-5
 50.8862343   -1.64572939E-5
 51.0132675   -1.635323315E-5
 51.1402969   -1.627802703E-5
 51.2673302   -1.623934804E-5
 51.3943634   -1.624405013E-5
 51.5213966   -1.62979959E-5
 51.6484299   -1.640592018E-5
 51.7754631   -1.657131179E-5
 51.9024925   -1.679632624E-5
 52.0295258   -1.708173659E-5
 52.156559   -1.742691711E-5
 52.2835922   -1.782985964E-5
 52.4106255   -1.828722088E-5
 52.5376587   -1.879440242E-5
 52.6646919   -1.934566899E-5
 52.7917213   -1.993427759E-5
 52.9187546   -2.055263212E-5
 53.0457878   -2.119246346E-5
 53.172821   -2.184500408E-5
 53.2998543   -2.250118268E-5
 53.4268875   -2.315182064E-5
 53.5539169   -2.378780846E-5
 53.6809502   -2.440029675E-5
 53.8079834   -2.498086178E-5
 53.9350166   -2.552166188E-5
 54.0620499   -2.601556844E-5
 54.1890831   -2.645629138E-5
 54.3161163   -2.683847561E-5
 54.4431458   -2.715777555E-5
 54.570179   -2.741091885E-5
 54.6972122   -2.759573545E-5
 54.8242455   -2.771118488E-5
 54.9512787   -2.775734356E-5
 55.0783119   -2.773540109E-5
 55.2053413   -2.764762212E-5
 55.3323746   -2.749730447E-5
 55.4594078   -2.72887155E-5
 55.586441   -2.70270375E-5
 55.7134743   -2.671826951E-5
 55.8405075   -2.636915997E-5
 55.9675407   -2.598709216E-5
 56.0945702   -2.557999323E-5
 56.2216034   -2.5156216E-5
 56.3486366   -2.472442065E-5
 56.4756699   -2.429344568E-5
 56.6027031   -2.387218228E-5
 56.7297363   -2.346943438E-5
 56.8567657   -2.309377487E-5
 56.983799   -2.275341285E-5
 57.1108322   -2.245604628E-5
 57.2378654   -2.220872921E-5
 57.3648987   -2.201773896E-5
 57.4919319   -2.18884561E-5
 57.6189651   -2.182526623E-5
 57.7459946   -2.183145443E-5
 57.8730278   -2.190914893E-5
 58.000061   -2.205926467E-5
 58.1270943   -2.228149242E-5
 58.2541275   -2.257429696E-5
 58.3811607   -2.293495163E-5
 58.5081902   -2.335960198E-5
 58.6352234   -2.384335676E-5
 58.7622566   -2.43804061E-5
 58.8892899   -2.496414709E-5
 59.0163231   -2.558735468E-5
 59.1433563   -2.624233275E-5
 59.2703896   -2.692111411E-5
 59.397419   -2.761562064E-5
 59.5244522   -2.83178415E-5
 59.6514854   -2.902000415E-5
 59.7785187   -2.97147144E-5
 59.9055519   -3.03950801E-5
 60.0325851   -3.105480573E-5
 60.1596146   -3.168826879E-5
 60.2866478   -3.229053618E-5
 60.413681   -3.28573733E-5
 60.5407143   -3.338521492E-5
 60.6677475   -3.38710779E-5
 60.7947807   -3.431248842E-5
 60.921814   -3.470736556E-5
 61.0488434   -3.505388304E-5
 61.1758766   -3.535033829E-5
 61.3029099   -3.559501783E-5
 61.4299431   -3.578607357E-5
 61.5569763   -3.59213991E-5
 61.6840096   -3.599857155E-5
 61.811039   -3.601478602E-5
 61.9380722   -3.596683746E-5
 62.0651054   -3.585117156E-5
 62.1921387   -3.566394298E-5
 62.3191719   -3.540114631E-5
 62.4462051   -3.505876884E-5
 62.5732384   -3.463300891E-5
 62.7002678   -3.412049409E-5
 62.827301   -3.351853593E-5
 62.9543343   -3.282542093E-5
 63.0813675   -3.204067252E-5
 63.2084007   -3.116530934E-5
 63.335434   -3.020211261E-5
 63.4624634   -2.915580262E-5
 63.5894966   -2.803323514E-5
 63.7165298   -2.684348692E-5
 63.8435631   -2.559791392E-5
 63.9705963   -2.431012035E-5
 64.0976257   -2.299586231E-5
 64.2246628   -2.167286766E-5
 64.3516922   -2.036058504E-5
 64.4787292   -1.907987462E-5
 64.6057587   -1.785260974E-5
 64.7327881   -1.670125312E-5
 64.8598251   -1.564838021E-5
 64.9868546   -1.471617179E-5
 65.1138916   -1.39258982E-5
 65.240921   -1.329741553E-5
 65.3679581   -1.284867176E-5
 65.4949875   -1.259525197E-5
 65.6220169   -1.254998278E-5
 65.749054   -1.272259306E-5
 65.8760834   -1.311945744E-5
 66.0031204   -1.374342082E-5
 66.1301498   -1.459371742E-5
 66.2571869   -1.566598075E-5
 66.3842163   -1.695235369E-5
 66.5112457   -1.844168037E-5
 66.6382828   -2.011977813E-5
 66.7653122   -2.196979949E-5
 66.8923492   -2.397263779E-5
 67.0193787   -2.610738375E-5
 67.1464081   -2.835181294E-5
 67.2734451   -3.068290243E-5
 67.4004745   -3.307730367E-5
 67.5275116   -3.551184273E-5
 67.654541   -3.796396049E-5
 67.7815781   -4.041210195E-5
 67.9086075   -4.283603994E-5
 68.0356369   -4.521715528E-5
 68.162674   -4.753859321E-5
 68.2897034   -4.978539073E-5
 68.4167404   -5.194448386E-5
 68.5437698   -5.40046567E-5
 68.6708069   -5.595641414E-5
 68.7978363   -5.779179992E-5
 68.9248657   -5.950415652E-5
 69.0519028   -6.108786329E-5
 69.1789322   -6.25380344E-5
 69.3059692   -6.38502388E-5
 69.4329987   -6.502022734E-5
 69.5600357   -6.604365626E-5
 69.6870651   -6.691589806E-5
 69.8140945   -6.763186684E-5
 69.9411316   -6.818594557E-5
 70.068161   -6.85719715E-5
 70.1951981   -6.878327258E-5
 70.3222275   -6.881279842E-5
 70.4492569   -6.865332398E-5
 70.5762939   -6.829774793E-5
 70.7033234   -6.773936184E-5
 70.8303604   -6.69722649E-5
 70.9573898   -6.599174958E-5
 71.0844269   -6.479473814E-5
 71.2114563   -6.338016101E-5
 71.3384857   -6.174940063E-5
 71.4655228   -5.990662612E-5
 71.5925522   -5.785913163E-5
 71.7195892   -5.561756916E-5
 71.8466187   -5.319612683E-5
 71.9736557   -5.061263073E-5
 72.1006851   -4.788853767E-5
 72.2277145   -4.504882963E-5
 72.3547516   -4.212183921E-5
 72.481781   -3.913896217E-5
 72.6088181   -3.613428999E-5
 72.7358475   -3.314416972E-5
 72.8628845   -3.02067092E-5
 72.9899139   -2.736119859E-5
 73.1169434   -2.464752833E-5
 73.2439804   -2.210556158E-5
 73.3710098   -1.977451939E-5
 73.4980469   -1.769234041E-5
 73.6250763   -1.589508065E-5
 73.7521057   -1.441634868E-5
 73.8791428   -1.328675808E-5
 74.0061722   -1.253344635E-5
 74.1332092   -1.217964655E-5
 74.2602386   -1.224431435E-5
 74.3872757   -1.274182523E-5
 74.5143051   -1.368172616E-5
 74.6413345   -1.506856188E-5
 74.7683716   -1.690175668E-5
 74.895401   -1.917556619E-5
 75.022438   -2.187908103E-5
 75.1494675   -2.499628317E-5
 75.2765045   -2.85061833E-5
 75.4035339   -3.238296995E-5
 75.5305634   -3.659625145E-5
 75.6576004   -4.111132512E-5
 75.7846298   -4.588948286E-5
 75.9116669   -5.088838952E-5
 76.0386963   -5.606249397E-5
 76.1657333   -6.136345473E-5
 76.2927628   -6.67406639E-5
 76.4197922   -7.214171637E-5
 76.5468292   -7.751299563E-5
 76.6738586   -8.280022303E-5
 76.8008957   -8.794902533E-5
 76.9279251   -9.290552407E-5
 77.0549545   -9.761691035E-5
 77.1819916   -1.020319905E-4
 77.309021   -1.061017392E-4
 77.436058   -1.097797431E-4
 77.5630875   -1.130227029E-4
 77.6901245   -1.157907973E-4
 77.8171539   -1.180480176E-4
 77.9441833   -1.19762437E-4
 78.0712204   -1.209064285E-4
 78.1982498   -1.214567965E-4
 78.3252869   -1.213948344E-4
 78.4523163   -1.207063688E-4
 78.5793533   -1.193817225E-4
 78.7063828   -1.174156423E-4
 78.8334122   -1.148072115E-4
 78.9604492   -1.11559697E-4
 79.0874786   -1.07680462E-4
 79.2145157   -1.03180806E-4
 79.3415451   -9.807585593E-5
 79.4685822   -9.238447092E-5
 79.5956116   -8.612916281E-5
 79.722641   -7.933600864E-5
 79.849678   -7.203465793E-5
 79.9767075   -6.425827451E-5
 80.1037445   -5.604353282E-5
 80.2307739   -4.743058889E-5
 80.3578033   -3.846305844E-5
 80.4848404   -2.918794235E-5
 80.6118698   -1.965551928E-5
 80.7389069   -9.919172953E-6
 80.8659363   -3.513622815E-8
 80.9929733   9.937823961E-6
 81.1200027   1.993885053E-5
 81.2470322   2.99054991E-5
 81.3740692   3.977438973E-5
 81.5010986   4.948189599E-5
 81.6281357   5.896500443E-5
 81.7551651   6.816215318E-5
 81.8822021   7.701419236E-5
 82.0092316   8.546535537E-5
 82.136261   9.346425941E-5
 82.263298   1.009648622E-4
 82.3903275   1.07927357E-4
 82.5173645   1.143190311E-4
 82.6443939   1.201149207E-4
 82.771431   1.252984221E-4
 82.8984604   1.29861699E-4
 83.0254898   1.338058355E-4
 83.1525269   1.371408289E-4
 83.2795563   1.398854511E-4
 83.4065933   1.420666813E-4
 83.5336227   1.437190804E-4
 83.6606522   1.448839612E-4
 83.7876892   1.456082682E-4
 83.9147186   1.459433843E-4
 84.0417557   1.459437917E-4
 84.1687851   1.456656319E-4
 84.2958221   1.451652497E-4
 84.4228516   1.444977242E-4
 84.549881   1.437153696E-4
 84.676918   1.428665273E-4
 84.8039474   1.419942419E-4
 84.9309845   1.41135286E-4
 85.0580139   1.403193019E-4
 85.185051   1.395682048E-4
 85.3120804   1.388957753E-4
 85.4391098   1.38307616E-4
 85.5661469   1.37801253E-4
 85.6931763   1.373665145E-4
 85.8202133   1.369862148E-4
 85.9472427   1.366368961E-4
 86.0742722   1.362899784E-4
 86.2013092   1.359127637E-4
 86.3283386   1.354698034E-4
 86.4553757   1.349241938E-4
 86.5824051   1.342388859E-4
 86.7094421   1.333780674E-4
 86.8364716   1.323083852E-4
 86.963501   1.310001244E-4
 87.090538   1.294282411E-4
 87.2175674   1.275732357E-4
 87.3446045   1.254218805E-4
 87.4716339   1.229677146E-4
 87.598671   1.202113417E-4
 87.7257004   1.171606127E-4
 87.8527298   1.138304724E-4
 87.9797668   1.102427268E-4
 88.1067963   1.064256139E-4
 88.2338333   1.024132143E-4
 88.3608627   9.824470908E-5
 88.4878998   9.396356472E-5
 88.6149292   8.961660205E-5
 88.7419586   8.525304293E-5
 88.8689957   8.09234698E-5
 88.9960251   7.667882164E-5
 89.1230621   7.256937533E-5
 89.2500916   6.864374154E-5
 89.377121   6.494796253E-5
 89.504158   6.15246754E-5
 89.6311874   5.841227539E-5
 89.7582245   5.564432649E-5
 89.8852539   5.324896847E-5
 90.012291   5.124848758E-5
 90.1393204   4.965903645E-5
 90.2663498   4.849044126E-5
 90.3933868   4.774619811E-5
 90.5204163   4.742356396E-5
 90.6474533   4.751378583E-5
 90.7744827   4.800243551E-5
 90.9015198   4.8869897E-5
 91.0285492   5.009189772E-5
 91.1555786   5.164014874E-5
 91.2826157   5.34830433E-5
 91.4096451   5.558639532E-5
 91.5366821   5.791420699E-5
 91.6637115   6.042941823E-5
 91.7907486   6.309465971E-5
 91.917778   6.587298412E-5
 92.0448074   6.872845552E-5
 92.1718445   7.162674592E-5
 92.2988739   7.453564467E-5
 92.4259109   7.742540765E-5
 92.5529404   8.026904106E-5
 92.6799698   8.304249059E-5
 92.8070068   8.572467777E-5
 92.9340363   8.829748549E-5
 93.0610733   9.074563422E-5
 93.1881027   9.305644926E-5
 93.3151398   9.521960601E-5
 93.4421692   9.722680261E-5
 93.5691986   9.907142521E-5
 93.6962357   1.007481624E-4
 93.8232651   1.022527067E-4
 93.9503021   1.035813912E-4
 94.0773315   1.047309052E-4
 94.2043686   1.056980909E-4
 94.331398   1.064797616E-4
 94.4584274   1.070725921E-4
 94.5854645   1.074730826E-4
 94.7124939   1.076776316E-4
 94.8395309   1.076826375E-4
 94.9665604   1.074846296E-4
 95.0935974   1.070805083E-4
 95.2206268   1.064677926E-4
 95.3476563   1.056448382E-4
 95.4746933   1.046111502E-4
 95.6017227   1.033675871E-4
 95.7287598   1.019165866E-4
 95.8557892   1.002623394E-4
 95.9828186   9.841089923E-5
 96.1098557   9.637019684E-5
 96.2368851   9.415004024E-5
 96.3639221   9.176199092E-5
 96.4909515   8.921918197E-5
 96.6179886   8.653604164E-5
 96.745018   8.372805314E-5
 96.8720474   8.081133274E-5
 96.9990845   7.780223677E-5
 97.1261139   7.471701247E-5
 97.2531509   7.157135406E-5
 97.3801804   6.838003901E-5
 97.5072174   6.515660789E-5
 97.6342468   6.191308057E-5
 97.7612762   5.865976709E-5
 97.8883133   5.540516213E-5
 98.0153427   5.215592682E-5
 98.1423798   4.891696881E-5
 98.2694092   4.569161683E-5
 98.3964462   4.248187543E-5
 98.5234756   3.928877413E-5
 98.6505051   3.611275679E-5
 98.7775421   3.295413262E-5
 98.9045715   2.981351463E-5
 99.0316086   2.66922907E-5
 99.158638   2.359302744E-5
 99.2856674   2.051985757E-5
 99.4127045   1.747876377E-5
 99.5397339   1.447777868E-5
 99.6667709   1.152708228E-5
 99.7938004   8.638969121E-6
 99.9208374   5.827703262E-6
 100.047867   3.109233603E-6
 100.174896   5.008274115E-7
 100.301933   -1.979432909E-6
 100.428963   -4.313229056E-6
 100.556   -6.482644949E-6
 100.683029   -8.470837201E-6
 100.810066   -1.026273549E-5
 100.937096   -1.184569737E-5
 101.064125   -1.321014861E-5
 101.191162   -1.435010017E-5
 101.318192   -1.526360393E-5
 101.445229   -1.595306094E-5
 101.572258   -1.642539974E-5
 101.699295   -1.669210178E-5
 101.826324   -1.676904867E-5
 101.953354   -1.667625475E-5
 102.080391   -1.643739779E-5
 102.20742   -1.607928789E-5
 102.334457   -1.5631118E-5
 102.461487   -1.512372546E-5
 102.588516   -1.458870247E-5
 102.715553   -1.405751391E-5
 102.842583   -1.35606042E-5
 102.96962   -1.312650602E-5
 103.096649   -1.278102172E-5
 103.223686   -1.254646668E-5
 103.350716   -1.244103805E-5
 103.477745   -1.247828732E-5
 103.604782   -1.266673917E-5
 103.731812   -1.300964959E-5
 103.858849   -1.350491766E-5
 103.985878   -1.414514736E-5
 104.112915   -1.491785042E-5
 104.239944   -1.5805781E-5
 104.366974   -1.678737681E-5
 104.494011   -1.783733023E-5
 104.62104   -1.892721775E-5
 104.748077   -2.002620204E-5
 104.875107   -2.110178139E-5
 105.002144   -2.212057007E-5
 105.129173   -2.304908776E-5
 105.256203   -2.385454172E-5
 105.38324   -2.450558895E-5
 105.510269   -2.497309106E-5
 105.637306   -2.523081457E-5
 105.764336   -2.525609489E-5
 105.891365   -2.503046198E-5
 106.018402   -2.45402025E-5
 106.145432   -2.377686542E-5
 106.272469   -2.273770951E-5
 106.399498   -2.142607991E-5
 106.526535   -1.985169729E-5
 106.653564   -1.803086343E-5
 106.780594   -1.598657218E-5
 106.907631   -1.374850217E-5
 107.03466   -1.135287766E-5
 107.161697   -8.842202078E-6
 107.288727   -6.264837793E-6
 107.415764   -3.674423624E-6
 107.542793   -1.129126872E-6
 107.669823   1.309276968E-6
 107.79686   3.576486279E-6
 107.923889   5.606920695E-6
 108.050926   7.335105238E-6
 108.177956   8.69717951E-6
 108.304985   9.63248749E-6
 108.432022   1.00852285E-5
 108.559052   1.000610973E-5
 108.686089   9.353964742E-6
 108.813118   8.097270438E-6
 108.940155   6.215527719E-6
 109.067184   3.700437901E-6
 109.194214   5.568271604E-7
 109.321251   -3.19671949E-6
 109.44828   -7.527568869E-6
 109.575317   -1.238911318E-5
 109.702347   -1.772122596E-5
 109.829384   -2.345112262E-5
 109.956413   -2.949458576E-5
 110.083443   -3.575757E-5
 110.21048   -4.2138141E-5
 110.337509   -4.852868005E-5
 110.464546   -5.481830885E-5
 110.591576   -6.089549788E-5
 110.718613   -6.665068213E-5
 110.845642   -7.197893137E-5
 110.972672   -7.678247493E-5
 111.099709   -8.097304817E-5
 111.226738   -8.447401342E-5
 111.353775   -8.722207713E-5
 111.480804   -8.916868683E-5
 111.607834   -9.028093336E-5
 111.734871   -9.054199472E-5
 111.8619   -8.995114331E-5
 111.988937   -8.852317114E-5
 112.115967   -8.628746582E-5
 112.243004   -8.328663534E-5
 112.370033   -7.957476919E-5
 112.497063   -7.521541556E-5
 112.6241   -7.027936226E-5
 112.751129   -6.484233745E-5
 112.878166   -5.89826559E-5
 113.005196   -5.277892342E-5
 113.132233   -4.630797775E-5
 113.259262   -3.964300777E-5
 113.386292   -3.285201092E-5
 113.513329   -2.599663276E-5
 113.640358   -1.913138476E-5
 113.767395   -1.230330417E-5
 113.894424   -5.552011316E-6
 114.021461   1.089806346E-6
 114.148491   7.595583156E-6
 114.27552   1.394374249E-5
 114.402557   2.011634751E-5
 114.529587   2.609760304E-5
 114.656624   3.187229231E-5
 114.783653   3.742427725E-5
 114.910683   4.273508239E-5
 115.03772   4.778272705E-5
 115.164749   5.254083226E-5
 115.291786   5.697806409E-5
 115.418816   6.105797365E-5
 115.545853   6.473924441E-5
 115.672882   6.797640526E-5
 115.799911   7.072083099E-5
 115.926949   7.2922252E-5
 116.053978   7.453045691E-5
 116.181015   7.549730799E-5
 116.308044   7.577884389E-5
 116.435081   7.53374843E-5
 116.562111   7.414419088E-5
 116.68914   7.21804463E-5
 116.816177   6.943997869E-5
 116.943207   6.593023136E-5
 117.070244   6.167329411E-5
 117.197273   5.670648534E-5
 117.32431   5.108234836E-5
 117.45134   4.486814578E-5
 117.578369   3.814481897E-5
 117.705406   3.100546746E-5
 117.832436   2.35533771E-5
 117.959473   1.589965541E-5
 118.086502   8.160584002E-6
 118.213531   4.54789415E-7
 118.340569   -7.099706181E-6
 118.467598   -1.438838626E-5
 118.594635   -2.130302528E-5
 118.721664   -2.774424502E-5
 118.848701   -3.362372445E-5
 118.975731   -3.886604463E-5
 119.10276   -4.341002204E-5
 119.229797   -4.720958896E-5
 119.356827   -5.023413178E-5
 119.483864   -5.24683237E-5
 119.610893   -5.391149534E-5
 119.73793   -5.457652514E-5
 119.86496   -5.448843513E-5
 119.991989   -5.36826301E-5
 120.119026   -5.220298044E-5
 120.246056   -5.009981032E-5
 120.373093   -4.742785313E-5
 120.500122   -4.424430517E-5
 120.627159   -4.06070576E-5
 120.754189   -3.657318302E-5
 120.881218   -3.219769496E-5
 121.008255   -2.753268018E-5
 121.135284   -2.262677117E-5
 121.262321   -1.752498611E-5
 121.389351   -1.22689089E-5
 121.51638   -6.897162166E-6
 121.643417   -1.446131364E-6
 121.770447   4.04913726E-6
 121.897484   9.553935342E-6
 122.024513   1.503287149E-5
 122.15155   2.044890243E-5
 122.27858   2.576250154E-5
 122.405609   3.093102714E-5
 122.532646   3.590834604E-5
 122.659676   4.064475434E-5
 122.786713   4.508723578E-5
 122.913742   4.918004197E-5
 123.040779   5.286558007E-5
 123.167809   5.608563515E-5
 123.294838   5.878280353E-5
 123.421875   6.090212992E-5
 123.548904   6.239288632E-5
 123.675941   6.321038381E-5
 123.802971   6.331774784E-5