 -4.5   3.382550388E-19
 -4.37296724   3.382519627E-19
 -4.24593449   3.382456296E-19
 -4.11890221   3.382367633E-19
 -3.99186945   3.382252344E-19
 -3.86483669   3.382122839E-19
 -3.73780417   3.381987905E-19
 -3.61077142   3.381852454E-19
 -3.4837389   3.381731738E-19
 -3.35670614   3.381630666E-19
 -3.22967362   3.38154071E-19
 -3.10264087   3.381469883E-19
 -2.97560835   3.381413273E-19
 -2.84857559   3.381353561E-19
 -2.72154307   3.381288679E-19
 -2.59451032   3.381205444E-19
 -2.46747756   3.381086795E-19
 -2.34044504   3.380921618E-19
 -2.21341228   3.380694143E-19
 -2.08637977   3.380402045E-19
 -1.95934713   3.380037568E-19
 -1.83231449   3.379600972E-19
 -1.70528185   3.37910699E-19
 -1.57824922   3.378578628E-19
 -1.45121646   3.378030363E-19
 -1.32418382   3.377480029E-19
 -1.19715118   3.376957613E-19
 -1.07011855   3.376472937E-19
 -0.943085909   3.376035824E-19
 -0.816053271   3.375652219E-19
 -0.689020634   3.37531902E-19
 -0.561987996   3.375033643E-19
 -0.434955359   3.374804617E-19
 -0.307922721   3.374664772E-19
 -0.180890068   3.374664255E-19
 -5.385742337E-2   3.374853989E-19
 7.317522168E-2   3.375259308E-19
 0.200207874   3.375812485E-19
 0.327240527   3.376327663E-19
 0.454273164   3.376451482E-19
 0.581305802   3.375687632E-19
 0.708338439   3.373510079E-19
 0.835371077   3.369569339E-19
 0.962403715   3.363947871E-19
 1.08943641   3.357466394E-19
 1.21646905   3.3518563E-19
 1.34350169   3.349683659E-19
 1.47053432   3.353932007E-19
 1.59756696   3.367067893E-19
 1.7245996   3.389794939E-19
 1.85163224   3.419609113E-19
 1.97866488   3.449673251E-19
 2.10569763   3.468481012E-19
 2.23273015   3.460879739E-19
 2.35976291   3.410779994E-19
 2.48679543   3.305432339E-19
 2.61382818   3.140688722E-19
 2.7408607   2.92600666E-19
 2.86789346   2.687703939E-19
 2.99492598   2.468816439E-19
 3.12195873   2.324541148E-19
 3.24899125   2.313123471E-19
 3.37602401   2.48330761E-19
 3.50305653   2.860616482E-19
 3.63008928   3.435351394E-19
 3.75712204   4.155135012E-19
 3.88415456   4.923810691E-19
 4.01118708   5.607151833E-19
 4.13821983   6.044515827E-19
 4.26525259   6.064986479E-19
 4.39228535   5.507213939E-19
 4.51931763   4.243505302E-19
 4.64635038   2.210201523E-19
 4.77338314   -5.538516392E-20
 4.9004159   -3.862062078E-19
 5.02744818   -7.335889003E-19
 5.15448093   -1.037800959E-18
 5.28151369   -1.218688402E-18
 5.40854645   -1.183859135E-18
 5.53557873   -8.453635417E-19
 5.66261148   -1.446133628E-19
 5.78964424   9.178136549E-19
 5.916677   2.254225367E-18
 6.04370975   3.673040503E-18
 6.17074203   4.882935664E-18
 6.29777479   5.525031306E-18
 6.42480755   5.234257882E-18
 6.55184031   3.722732551E-18
 6.67887259   8.693023037E-19
 6.80590534   -3.206891761E-18
 6.9329381   -8.112278554E-18
 7.05997086   -1.320222196E-17
 7.18700314   -1.766806338E-17
 7.31403589   -2.067778154E-17
 7.44106865   -2.154362127E-17
 7.56810141   -1.987790616E-17
 7.69513416   -1.569482899E-17
 7.82216644   -9.423758526E-18
 7.9491992   -1.818252588E-18
 8.07623196   6.229044312E-18
 8.20326424   1.392726975E-17
 8.33029747   2.082272178E-17
 8.45732975   2.695551329E-17
 8.58436203   3.286870324E-17
 8.71139526   3.942344785E-17
 8.83842754   4.741351956E-17
 8.96546078   5.702508366E-17
 9.09249306   6.724592583E-17
 9.21952534   7.538168391E-17
 9.34655857   7.68707943E-17
 9.47359085   6.559149181E-17
 9.60062313   3.480743261E-17
 9.72765636   -2.120428035E-17
 9.85468864   -1.049558922E-16
 9.98172188   -2.13292015E-16
 10.1087542   -3.351809428E-16
 10.2357864   -4.504146931E-16
 10.3628197   -5.299260464E-16
 10.489852   -5.38321837E-16
 10.6168852   -4.389325262E-16
 10.7439175   -2.01205093E-16
 10.8709497   1.903326046E-16
 10.997983   7.269192814E-16
 11.1250153   1.368088335E-15
 11.2520475   2.037957459E-15
 11.3790808   2.627176024E-15
 11.5061131   3.001788839E-15
 11.6331463   3.019219506E-15
 11.7601786   2.550230704E-15
 11.8872108   1.504318656E-15
 12.0142441   -1.451919821E-16
 12.1412764   -2.340771103E-15
 12.2683096   -4.929417927E-15
 12.3953419   -7.664043045E-15
 12.5223742   -1.021940592E-14
 12.6494074   -1.222231443E-14
 12.7764397   -1.329337404E-14
 12.9034719   -1.309535637E-14
 13.0305052   -1.138172147E-14
 13.1575375   -8.038248649E-15
 13.2845707   -3.11140549E-15
 13.411603   3.181101267E-15
 13.5386353   1.045940339E-14
 13.6656685   1.820880957E-14
 13.7927008   2.582103368E-14
 13.919734   3.264272533E-14
 14.0467663   3.802389515E-14
 14.1737986   4.135951428E-14
 14.3008318   4.212004823E-14
 14.4278641   3.987015592E-14
 14.5548964   3.427871526E-14
 14.6819296   2.512707653E-14
 14.8089619   1.232401513E-14
 14.9359951   -4.064172501E-15
 15.0630274   -2.376340939E-14
 15.1900597   -4.622212715E-14
 15.3170929   -7.053042774E-14
 15.4441252   -9.534456287E-14
 15.5711575   -1.188398067E-13
 15.6981907   -1.387183012E-13
 15.825223   -1.522968221E-13
 15.9522562   -1.566919744E-13
 16.0792885   -1.491075465E-13
 16.2063217   -1.272104302E-13
 16.333353   -8.956263465E-14
 16.4603863   -3.605708465E-14
 16.5874195   3.170757046E-14
 16.7144508   1.101847698E-13
 16.8414841   1.938366324E-13
 16.9685173   2.753391048E-13
 17.0955505   3.460581431E-13
 17.2225819   3.967853064E-13
 17.3496151   4.186828564E-13
 17.4766483   4.043524413E-13
 17.6036797   3.489153682E-13
 17.7307129   2.509761604E-13
 17.8577461   1.133438029E-13
 17.9847775   -5.659799615E-14
 18.1118107   -2.469476175E-13
 18.2388439   -4.41803549E-13
 18.3658752   -6.222292104E-13
 18.4929085   -7.676079282E-13
 18.6199417   -8.572913429E-13
 18.7469749   -8.724247995E-13
 18.8740063   -7.978161859E-13
 19.0010395   -6.237236747E-13
 19.1280727   -3.474416393E-13
 19.2551041   2.541392254E-14
 19.3821373   4.800098036E-13
 19.5091705   9.918677208E-13
 19.6362019   1.526981666E-12
 19.7632351   2.042558397E-12
 19.8902683   2.488464296E-12
 20.0172997   2.809455142E-12
 20.1443329   2.948247983E-12
 20.2713661   2.849445723E-12
 20.3983994   2.464258181E-12
 20.5254307   1.755858588E-12
 20.6524639   7.051011793E-13
 20.7794971   -6.838155801E-13
 20.9065285   -2.378259915E-12
 21.0335617   -4.313268059E-12
 21.1605949   -6.389480958E-12
 21.2876263   -8.47354565E-12
 21.4146595   -1.040146008E-11
 21.5416927   -1.198519756E-11
 21.6687241   -1.30226524E-11
 21.7957573   -1.331064946E-11
 21.9227905   -1.266046729E-11
 22.0498238   -1.091498072E-11
 22.1768551   -7.966311638E-12
 22.3038883   -3.772683121E-12
 22.4309216   1.62688309E-12
 22.5579529   8.101390218E-12
 22.6849861   1.54213968E-11
 22.8120193   2.325823041E-11
 22.9390507   3.118962033E-11
 23.0660839   3.871203705E-11
 23.1931171   4.525980979E-11
 23.3201485   5.023062868E-11
 23.4471817   5.301665357E-11
 23.5742149   5.304027356E-11
 23.7012463   4.979304122E-11
 23.8282795   4.287608116E-11
 23.9553127   3.204007545E-11
 24.082346   1.722257753E-11
 24.2093773   -1.419690537E-12
 24.3364105   -2.348603777E-11
 24.4634438   -4.831683664E-11
 24.5904751   -7.499055543E-11
 24.7175083   -1.023347379E-10
 24.8445415   -1.289521129E-10
 24.9715729   -1.532626387E-10
 25.0986061   -1.735608185E-10
 25.2256393   -1.880879896E-10
 25.3526707   -1.951166867E-10
 25.4797039   -1.930446775E-10
 25.6067371   -1.804948135E-10
 25.7337704   -1.564162827E-10
 25.8608017   -1.201823918E-10
 25.9878349   -7.167996058E-11
 26.1148682   -1.138512722E-11
 26.2418995   5.957946636E-11
 26.3689327   1.394105387E-10
 26.495966   2.256174414E-10
 26.6229973   3.150457117E-10
 26.7500305   4.039339974E-10
 26.8770638   4.880054694E-10
 27.0040951   5.625944155E-10
 27.1311283   6.228061955E-10
 27.2581615   6.637090322E-10
 27.3851948   6.805522812E-10
 27.5122261   6.690057397E-10
 27.6392593   6.254112783E-10
 27.7662926   5.470371933E-10
 27.8933239   4.323247316E-10
 28.0203571   2.811127997E-10
 28.1473904   9.482849228E-11
 28.2744217   -1.233698699E-10
 28.4014549   -3.685106942E-10
 28.5284882   -6.337980696E-10
 28.6555195   -9.106822518E-10
 28.7825527   -1.189018106E-9
 28.909586   -1.457311161E-9
 29.0366192   -1.703055363E-9
 29.1636505   -1.913151859E-9
 29.2906837   -2.074399097E-9
 29.417717   -2.174044056E-9
 29.5447483   -2.200369442E-9
 29.6717815   -2.143297095E-9
 29.7988148   -1.994982401E-9
 29.9258461   -1.750370737E-9
 30.0528793   -1.407688077E-9
 30.1799126   -9.688394531E-10
 30.3069439   -4.396872866E-10
 30.4339771   1.698095831E-10
 30.5610104   8.456159661E-10
 30.6880436   1.569806951E-9
 30.8150749   2.320928782E-9
 30.9421082   3.074525079E-9
 31.0691414   3.803822146E-9
 31.1961727   4.480548377E-9
 31.3232059   5.075861953E-9
 31.4502392   5.561359817E-9
 31.5772705   5.910121725E-9
 31.7043037   6.097755634E-9
 31.831337   6.103402228E-9
 31.9583683   5.910658629E-9
 32.0854034   5.508384415E-9
 32.2124329   4.891365979E-9
 32.3394661   4.060792147E-9
 32.4664993   3.024553497E-9
 32.5935326   1.797328841E-9
 32.7205658   4.004666598E-10
 32.847599   -1.138330763E-9
 32.9746284   -2.785520037E-9
 33.1016617   -4.502396234E-9
 33.2286949   -6.245927331E-9
 33.3557281   -7.969715554E-9
 33.4827614   -9.625063413E-9
 33.6097946   -1.11621139E-8
 33.7368279   -1.253104376E-8
 33.8638573   -1.368328206E-8
 33.9908905   -1.457273946E-8
 34.1179237   -1.515702408E-8
 34.244957   -1.539862104E-8
 34.3719902   -1.526603199E-8
 34.4990234   -1.473483824E-8
 34.6260529   -1.378867331E-8
 34.7530861   -1.24201005E-8
 34.8801193   -1.06313518E-8
 35.0071526   -8.434898113E-9
 35.1341858   -5.853854734E-9
 35.261219   -2.922151632E-9
 35.3882523   3.155274098E-10
 35.5152817   3.804083715E-9
 35.6423149   7.478624831E-9
 35.7693481   1.126541349E-8
 35.8963814   1.50831081E-8
 36.0234146   1.88443412E-8
 36.1504478   2.245757891E-8
 36.2774773   2.582924807E-8
 36.4045105   2.886610417E-8
 36.5315437   3.147775018E-8
 36.658577   3.357928691E-8
 36.7856102   3.50939402E-8
 36.9126434   3.595569709E-8
 37.0396767   3.611172872E-8
 37.1667061   3.55246037E-8
 37.2937393   3.41741675E-8
 37.4207726   3.205899546E-8
 37.5478058   2.919735742E-8
 37.674839   2.562764045E-8
 37.8018723   2.140813926E-8
 37.9289017   1.661624083E-8
 38.0559349   1.134695893E-8
 38.1829681   5.710822482E-9
 38.3100014   -1.688116313E-10
 38.4370346   -6.159006194E-9
 38.5640678   -1.21209327E-8
 38.6911011   -1.791395654E-8
 38.8181305   -2.339995753E-8
 38.9451637   -2.844779878E-8
 39.072197   -3.293776984E-8
 39.1992302   -3.676588278E-8
 39.3262634   -3.984790808E-8
 39.4532967   -4.212292737E-8
 39.5803261   -4.355637628E-8
 39.7073593   -4.41423289E-8
 39.8343925   -4.39050325E-8
 39.9614258   -4.289952926E-8
 40.088459   -4.121128327E-8
 40.2154922   -3.895483403E-8
 40.3425255   -3.627134859E-8
 40.4695549   -3.332514709E-8
 40.5965881   -3.029921558E-8
 40.7236214   -2.738975091E-8
 40.8506546   -2.479976935E-8
 40.9776878   -2.273203492E-8
 41.1047211   -2.138126831E-8
 41.2317505   -2.092589213E-8
 41.3587837   -2.151954703E-8
 41.485817   -2.328242665E-8
 41.6128502   -2.629282925E-8
 41.7398834   -3.057903086E-8
 41.8669167   -3.611179977E-8
 41.9939499   -4.279776533E-8
 42.1209793   -5.047389351E-8
 42.2480125   -5.890336041E-8
 42.3750458   -6.777300143E-8
 42.502079   -7.669256519E-8
 42.6291122   -8.51960138E-8
 42.7561455   -9.27449193E-8
 42.8831749   -9.873415507E-8
 43.0102081   -1.024999108E-7
 43.1372414   -1.033299952E-7
 43.2642746   -1.004763561E-7
 43.3913078   -9.316972438E-8
 43.5183411   -8.063616974E-8
 43.6453743   -6.211511305E-8
 43.7724037   -3.687866013E-8
 43.899437   -4.251643926E-9
 44.0264702   3.636800727E-8
 44.1535034   8.548920505E-8
 44.2805367   1.4350843E-7
 44.4075699   2.106918799E-7
 44.5345993   2.871596223E-7
 44.6616325   3.728721367E-7
 44.7886658   4.676200547E-7
 44.915699   5.710171536E-7
 45.0427322   6.824971024E-7
 45.1697655   8.013140587E-7
 45.2967987   9.265476137E-7
 45.4238281   1.057111376E-6
 45.5508614   1.191765136E-6
 45.6778946   1.329131578E-6
 45.8049278   1.467714128E-6
 45.9319611   1.605920261E-6
 46.0589943   1.742083668E-6
 46.1860237   1.874489953E-6
 46.3130569   2.001402663E-6
 46.4400902   2.121088073E-6
 46.5671234   2.231842245E-6
 46.6941566   2.332013537E-6
 46.8211899   2.420025567E-6
 46.9482231   2.494399951E-6
 47.0752525   2.553773811E-6
 47.2022858   2.596916147E-6
 47.329319   2.622745114E-6
 47.4563522   2.630337576E-6
 47.5833855   2.61894229E-6
 47.7104187   2.58798832E-6
 47.8374481   2.537093451E-6
 47.9644814   2.466070782E-6
 48.0915146   2.374933047E-6
 48.2185478   2.26389875E-6
 48.3455811   2.13339581E-6
 48.4726143   1.984060873E-6
 48.5996475   1.816743406E-6
 48.7266769   1.632502745E-6
 48.8537102   1.432604449E-6
 48.9807434   1.218514512E-6
 49.1077766   9.918875321E-7
 49.2348099   7.545535823E-7
 49.3618431   5.084975214E-7
 49.4888725   2.558354026E-7
 49.6159058   -1.217603129E-9
 49.742939   -2.603833877E-7
 49.8699722   -5.193617199E-7
 49.9970055   -7.75879073E-7
 50.1240387   -1.02774311E-6
 50.2510719   -1.272897293E-6
 50.3781013   -1.509481535E-6
 50.5051346   -1.735894443E-6
 50.6321678   -1.950852038E-6
 50.759201   -2.153449486E-6
 50.8862343   -2.343214192E-6
 51.0132675   -2.52015252E-6
 51.1402969   -2.684792207E-6
 51.2673302   -2.838208502E-6
 51.3943634   -2.982040769E-6
 51.5213966   -3.118493623E-6
 51.6484299   -3.250321242E-6
 51.7754631   -3.380794851E-6
 51.9024925   -3.513652018E-6
 52.0295258   -3.653028216E-6
 52.156559   -3.803371328E-6
 52.2835922   -3.969336376E-6
 52.4106255   -4.155668648E-6
 52.5376587   -4.367071597E-6
 52.6646919   -4.608065865E-6
 52.7917213   -4.882841495E-6
 52.9187546   -5.195101949E-6
 53.0457878   -5.547919045E-6
 53.172821   -5.943585165E-6
 53.2998543   -6.38347592E-6
 53.4268875   -6.867930551E-6
 53.5539169   -7.39615416E-6
 53.6809502   -7.966134035E-6
 53.8079834   -8.574589629E-6
 53.9350166   -9.216952094E-6
 54.0620499   -9.887379747E-6
 54.1890831   -1.057880036E-5
 54.3161163   -1.1282993E-5
 54.4431458   -1.199070994E-5
 54.570179   -1.269182485E-5
 54.6972122   -1.337552112E-5
 54.8242455   -1.403050464E-5
 54.9512787   -1.464523939E-5
 55.0783119   -1.520821479E-5
 55.2053413   -1.570820859E-5
 55.3323746   -1.613457243E-5
 55.4594078   -1.64775247E-5
 55.586441   -1.672840699E-5
 55.7134743   -1.687996701E-5
 55.8405075   -1.692658952E-5
 55.9675407   -1.686451833E-5
 56.0945702   -1.669204175E-5
 56.2216034   -1.640963274E-5
 56.3486366   -1.602004886E-5
 56.4756699   -1.552839785E-5
 56.6027031   -1.494212756E-5
 56.7297363   -1.427099414E-5
 56.8567657   -1.352695381E-5
 56.983799   -1.272402278E-5
 57.1108322   -1.18780772E-5
 57.2378654   -1.10066112E-5
 57.3648987   -1.012845314E-5
 57.4919319   -9.263452739E-6
 57.6189651   -8.432128197E-6
 57.7459946   -7.655295121E-6
 57.8730278   -6.953676348E-6
 58.000061   -6.347504495E-6
 58.1270943   -5.856124517E-6
 58.2541275   -5.49759352E-6
 58.3811607   -5.288303782E-6
 58.5081902   -5.242617135E-6
 58.6352234   -5.372536179E-6
 58.7622566   -5.687398698E-6
 58.8892899   -6.193619811E-6
 59.0163231   -6.894475518E-6
 59.1433563   -7.789936717E-6
 59.2703896   -8.876560059E-6
 59.397419   -1.01474343E-5
 59.5244522   -1.1592183E-5
 59.6514854   -1.319704006E-5
 59.7785187   -1.494497974E-5
 59.9055519   -1.681590766E-5
 60.0325851   -1.878692819E-5
 60.1596146   -2.083264735E-5
 60.2866478   -2.292556201E-5
 60.413681   -2.503646829E-5
 60.5407143   -2.713493996E-5
 60.6677475   -2.918983773E-5
 60.7947807   -3.11698459E-5
 60.921814   -3.30440198E-5
 61.0488434   -3.478238068E-5
 61.1758766   -3.635645771E-5
 61.3029099   -3.773986464E-5
 61.4299431   -3.890882363E-5
 61.5569763   -3.984266004E-5
 61.6840096   -4.052425356E-5
 61.811039   -4.094042015E-5
 61.9380722   -4.10822322E-5
 62.0651054   -4.094524411E-5
 62.1921387   -4.052965596E-5
 62.3191719   -3.984034629E-5
 62.4462051   -3.888685387E-5
 62.5732384   -3.768321767E-5
 62.7002678   -3.624774399E-5
 62.827301   -3.460268272E-5
 62.9543343   -3.277380893E-5
 63.0813675   -3.078994268E-5
 63.2084007   -2.868238698E-5
 63.335434   -2.648433838E-5
 63.4624634   -2.423024125E-5
 63.5894966   -2.195514207E-5
 63.7165298   -1.969403274E-5
 63.8435631   -1.748121576E-5
 63.9705963   -1.53496967E-5
 64.0976257   -1.333063483E-5
 64.2246628   -1.145284023E-5
 64.3516922   -9.742358088E-6
 64.4787292   -8.222129509E-6
 64.6057587   -6.911735909E-6
 64.7327881   -5.827241239E-6
 64.8598251   -4.981113307E-6
 64.9868546   -4.382242878E-6
 65.1138916   -4.036027349E-6
 65.240921   -3.944536275E-6
 65.3679581   -4.106724646E-6
 65.4949875   -4.518697551E-6
 65.6220169   -5.173999853E-6
 65.749054   -6.063921319E-6
 65.8760834   -7.177804946E-6
 66.0031204   -8.503343452E-6
 66.1301498   -1.002684166E-5
 66.2571869   -1.173345845E-5
 66.3842163   -1.360739316E-5
 66.5112457   -1.563203114E-5
 66.6382828   -1.77900456E-5
 66.7653122   -2.006344039E-5
 66.8923492   -2.243356539E-5
 67.0193787   -2.488108294E-5
 67.1464081   -2.738592775E-5
 67.2734451   -2.992723967E-5
 67.4004745   -3.248329813E-5
 67.5275116   -3.503146945E-5
 67.654541   -3.754819772E-5
 67.7815781   -4.000902118E-5
 67.9086075   -4.238861948E-5
 68.0356369   -4.466096289E-5
 68.162674   -4.67994978E-5
 68.2897034   -4.877741594E-5
 68.4167404   -5.056797454E-5
 68.5437698   -5.214489283E-5
 68.6708069   -5.348281775E-5
 68.7978363   -5.455780411E-5
 68.9248657   -5.534785669E-5
 69.0519028   -5.583347956E-5
 69.1789322   -5.599820361E-5
 69.3059692   -5.582912127E-5
 69.4329987   -5.531735951E-5
 69.5600357   -5.445849456E-5
 69.6870651   -5.325288657E-5
 69.8140945   -5.17059234E-5
 69.9411316   -4.982815517E-5
 70.068161   -4.76353016E-5
 70.1951981   -4.514813554E-5
 70.3222275   -4.239225746E-5
 70.4492569   -3.939770249E-5
 70.5762939   -3.619847485E-5
 70.7033234   -3.283195838E-5
 70.8303604   -2.933823089E-5
 70.9573898   -2.575930739E-5
 71.0844269   -2.213833613E-5
 71.2114563   -1.85187746E-5
 71.3384857   -1.494355001E-5
 71.4655228   -1.145424449E-5
 71.5925522   -8.090328265E-6
 71.7195892   -4.888468084E-6
 71.8466187   -1.881914841E-6
 71.9736557   9.00001794E-7
 72.1006851   3.432245876E-6
 72.2277145   5.694334504E-6
 72.3547516   7.670447303E-6
 72.481781   9.349412721E-6
 72.6088181   1.072456234E-5
 72.7358475   1.179345054E-5
 72.8628845   1.255749157E-5
 72.9899139   1.302147939E-5
 73.1169434   1.31930492E-5
 73.2439804   1.308209539E-5
 73.3710098   1.270014764E-5
 73.4980469   1.205975695E-5
 73.6250763   1.11738982E-5
 73.7521057   1.00554189E-5
 73.8791428   8.71654629E-6
 74.0061722   7.168482625E-6
 74.1332092   5.421093192E-6
 74.2602386   3.482692819E-6
 74.3872757   1.359951966E-6
 74.5143051   -9.420874676E-7
 74.6413345   -3.419892892E-6
 74.7683716   -6.071215012E-6
 74.895401   -8.894771781E-6
 75.022438   -1.188985607E-5
 75.1494675   -1.505588989E-5
 75.2765045   -1.839193101E-5
 75.4035339   -2.189617408E-5
 75.5305634   -2.55654395E-5
 75.6576004   -2.93946905E-5
 75.7846298   -3.337661838E-5
 75.9116669   -3.750124597E-5
 76.0386963   -4.175564391E-5
 76.1657333   -4.612372504E-5
 76.2927628   -5.058612078E-5
 76.4197922   -5.512020289E-5
 76.5468292   -5.970017082E-5
 76.6738586   -6.429725909E-5
 76.8008957   -6.888003554E-5
 76.9279251   -7.34148125E-5
 77.0549545   -7.786609058E-5
 77.1819916   -8.219711162E-5
 77.309021   -8.637044812E-5
 77.436058   -9.034857794E-5
 77.5630875   -9.409454651E-5
 77.6901245   -9.757251973E-5
 77.8171539   -1.007484243E-4
 77.9441833   -1.03590457E-4
 78.0712204   -1.06069594E-4
 78.1982498   -1.081599912E-4
 78.3252869   -1.098393259E-4
 78.4523163   -1.110890516E-4
 78.5793533   -1.118945293E-4
 78.7063828   -1.122451358E-4
 78.8334122   -1.121342066E-4
 78.9604492   -1.115589257E-4
 79.0874786   -1.105201445E-4
 79.2145157   -1.090221049E-4
 79.3415451   -1.0707209E-4
 79.4685822   -1.046800971E-4
 79.5956116   -1.01858408E-4
 79.722641   -9.862115985E-5
 79.849678   -9.498391591E-5
 79.9767075   -9.096325812E-5
 80.1037445   -8.657637227E-5
 80.2307739   -8.184069156E-5
 80.3578033   -7.677360554E-5
 80.4848404   -7.139217632E-5
 80.6118698   -6.571297854E-5
 80.7389069   -5.9751972E-5
 80.8659363   -5.352442895E-5
 80.9929733   -4.704497769E-5
 81.1200027   -4.032768629E-5
 81.2470322   -3.338621536E-5
 81.3740692   -2.623401451E-5
 81.5010986   -1.888457882E-5
 81.6281357   -1.135172624E-5
 81.7551651   -3.649895461E-6
 81.8822021   4.205546702E-6
 82.0092316   1.219800197E-5
 82.136261   2.030937503E-5
 82.263298   2.851982026E-5
 82.3903275   3.680756345E-5
 82.5173645   4.514876491E-5
 82.6443939   5.351745131E-5
 82.771431   6.188555562E-5
 82.8984604   7.022297359E-5
 83.0254898   7.849776739E-5
 83.1525269   8.667639486E-5
 83.2795563   9.472409147E-5
 83.4065933   1.026051832E-4
 83.5336227   1.102836613E-4
 83.6606522   1.177235754E-4
 83.7876892   1.248896297E-4
 83.9147186   1.317477727E-4
 84.0417557   1.382656483E-4
 84.1687851   1.444133086E-4
 84.2958221   1.501635561E-4
 84.4228516   1.554925839E-4
 84.549881   1.60380223E-4
 84.676918   1.648104371E-4
 84.8039474   1.68771483E-4
 84.9309845   1.722561428E-4
 85.0580139   1.752617536E-4
 85.185051   1.777902362E-4
 85.3120804   1.79847877E-4
 85.4391098   1.814452407E-4
 85.5661469   1.825968066E-4
 85.6931763   1.833205752E-4
 85.8202133   1.836376759E-4
 85.9472427   1.835718867E-4
 86.0742722   1.831490954E-4
 86.2013092   1.823967323E-4
 86.3283386   1.813433046E-4
 86.4553757   1.800178288E-4
 86.5824051   1.784493506E-4
 86.7094421   1.766665519E-4
 86.8364716   1.74697343E-4
 86.963501   1.725685142E-4
 87.090538   1.703056623E-4
 87.2175674   1.67932827E-4
 87.3446045   1.654726075E-4
 87.4716339   1.629460749E-4
 87.598671   1.603728742E-4
 87.7257004   1.577713992E-4
 87.8527298   1.551589376E-4
 87.9797668   1.525519183E-4
 88.1067963   1.499661303E-4
 88.2338333   1.474169985E-4
 88.3608627   1.449198026E-4
 88.4878998   1.424897928E-4
 88.6149292   1.401424815E-4
 88.7419586   1.378936286E-4
 88.8689957   1.357592555E-4
 88.9960251   1.337556314E-4
 89.1230621   1.318991708E-4
 89.2500916   1.302061137E-4
 89.377121   1.286923216E-4
 89.504158   1.273729285E-4
 89.6311874   1.262618607E-4
 89.7582245   1.253715018E-4
 89.8852539   1.247121545E-4
 90.012291   1.24291575E-4
 90.1393204   1.24114551E-4
 90.2663498   1.241824648E-4
 90.3933868   1.244929736E-4
 90.5204163   1.250396454E-4
 90.6474533   1.258118573E-4
 90.7744827   1.267946354E-4
 90.9015198   1.27968684E-4
 91.0285492   1.293105161E-4
 91.1555786   1.307926868E-4
 91.2826157   1.323841716E-4
 91.4096451   1.340508898E-4
 91.5366821   1.357561996E-4
 91.6637115   1.374615968E-4
 91.7907486   1.391274564E-4
 91.917778   1.40713877E-4
 92.0448074   1.421814086E-4
 92.1718445   1.434919104E-4
 92.2988739   1.446094539E-4
 92.4259109   1.455009333E-4
 92.5529404   1.461369393E-4
 92.6799698   1.464922825E-4
 92.8070068   1.465466194E-4
 92.9340363   1.462847868E-4
 93.0610733   1.456971368E-4
 93.1881027   1.447796967E-4
 93.3151398   1.435342274E-4
 93.4421692   1.419680484E-4
 93.5691986   1.400938345E-4
 93.6962357   1.379292808E-4
 93.8232651   1.354965352E-4
 93.9503021   1.328217331E-4
 94.0773315   1.299342694E-4
 94.2043686   1.268661144E-4
 94.331398   1.236510143E-4
 94.4584274   1.203237916E-4
 94.5854645   1.169194657E-4
 94.7124939   1.134725535E-4
 94.8395309   1.100163208E-4
 94.9665604   1.065820979E-4
 95.0935974   1.031986394E-4
 95.2206268   9.989162209E-5
 95.3476563   9.66830994E-5
 95.4746933   9.359123214E-5
 95.6017227   9.062991012E-5
 95.7287598   8.780859207E-5
 95.8557892   8.513222565E-5
 95.9828186   8.260117465E-5
 96.1098557   8.021129179E-5
 96.2368851   7.795410056E-5
 96.3639221   7.581693353E-5
 96.4909515   7.378325245E-5
 96.6179886   7.183293201E-5
 96.745018   6.994266005E-5
 96.8720474   6.808633771E-5
 96.9990845   6.623553782E-5
 97.1261139   6.435998512E-5
 97.2531509   6.242808013E-5
 97.3801804   6.040741209E-5
 97.5072174   5.826535562E-5
 97.6342468   5.596959818E-5
 97.7612762   5.348875857E-5
 97.8883133   5.079298353E-5
 98.0153427   4.785453348E-5
 98.1423798   4.464840822E-5
 98.2694092   4.115292541E-5
 98.3964462   3.735031351E-5
 98.5234756   3.322727571E-5
 98.6505051   2.87754865E-5
 98.7775421   2.399207915E-5
 98.9045715   1.888004408E-5
 99.0316086   1.344855264E-5
 99.158638   7.713197192E-6
 99.2856674   1.696119398E-6
 99.4127045   -4.573981187E-6
 99.5397339   -1.106196396E-5
 99.6667709   -1.772649739E-5
 99.7938004   -2.452044646E-5
 99.9208374   -3.1391417E-5
 100.047867   -3.828243644E-5
 100.174896   -4.513274689E-5
 100.301933   -5.187874922E-5
 100.428963   -5.845504347E-5
 100.556   -6.479555304E-5
 100.683029   -7.083472156E-5
 100.810066   -7.650875341E-5
 100.937096   -8.175682888E-5
 101.064125   -8.652236284E-5
 101.191162   -9.075413254E-5
 101.318192   -9.440740541E-5
 101.445229   -9.744486306E-5
 101.572258   -9.983746713E-5
 101.699295   -1.015650923E-4
 101.826324   -1.026170357E-4
 101.953354   -1.029922496E-4
 102.080391   -1.026994214E-4
 102.20742   -1.017568356E-4
 102.334457   -1.001919445E-4
 102.461487   -9.804086585E-5
 102.588516   -9.534754645E-5
 102.715553   -9.21628598E-5
 102.842583   -8.854347834E-5
 102.96962   -8.455073839E-5
 103.096649   -8.024931594E-5
 103.223686   -7.570593152E-5
 103.350716   -7.098800415E-5
 103.477745   -6.616237806E-5
 103.604782   -6.129408575E-5
 103.731812   -5.644518387E-5
 103.858849   -5.167378913E-5
 103.985878   -4.703319792E-5
 104.112915   -4.257118053E-5
 104.239944   -3.832949733E-5
 104.366974   -3.43435313E-5
 104.494011   -3.064216071E-5
 104.62104   -2.724777551E-5
 104.748077   -2.417647738E-5
 104.875107   -2.143838356E-5
 105.002144   -1.903809971E-5
 105.129173   -1.697524385E-5
 105.256203   -1.524505115E-5
 105.38324   -1.383901963E-5
 105.510269   -1.274554324E-5
 105.637306   -1.195054574E-5
 105.764336   -1.143804548E-5
 105.891365   -1.119067474E-5
 106.018402   -1.119010903E-5
 106.145432   -1.141740631E-5
 106.272469   -1.185326255E-5
 106.399498   -1.247817181E-5
 106.526535   -1.327250538E-5
 106.653564   -1.421653087E-5
 106.780594   -1.529037036E-5
 106.907631   -1.647393765E-5
 107.03466   -1.774686825E-5
 107.161697   -1.908845297E-5
 107.288727   -2.047761882E-5
 107.415764   -2.18929581E-5
 107.542793   -2.331282667E-5
 107.669823   -2.471552943E-5
 107.79686   -2.607958413E-5
 107.923889   -2.738406511E-5
 108.050926   -2.860904169E-5
 108.177956   -2.973606934E-5
 108.304985   -3.074872802E-5
 108.432022   -3.16331716E-5
 108.559052   -3.237869532E-5
 108.686089   -3.297823787E-5
 108.813118   -3.34288161E-5
 108.940155   -3.373186701E-5
 109.067184   -3.389343692E-5
 109.194214   -3.392423605E-5
 109.321251   -3.38394857E-5
 109.44828   -3.365859448E-5
 109.575317   -3.340463445E-5
 109.702347   -3.310362808E-5
 109.829384   -3.278365693E-5
 109.956413   -3.247381028E-5
 110.083443   -3.220304643E-5
 110.21048   -3.199893763E-5
 110.337509   -3.188638584E-5
 110.464546   -3.188636401E-5
 110.591576   -3.201470827E-5
 110.718613   -3.228102287E-5
 110.845642   -3.26877489E-5
 110.972672   -3.322943667E-5
 111.099709   -3.389225094E-5
 111.226738   -3.465375994E-5
 111.353775   -3.548301174E-5
 111.480804   -3.63408908E-5
 111.607834   -3.718079461E-5
 111.734871   -3.794959775E-5
 111.8619   -3.858885975E-5
 111.988937   -3.903627658E-5
 112.115967   -3.922729957E-5
 112.243004   -3.90969326E-5
 112.370033   -3.858155833E-5
 112.497063   -3.762083725E-5
 112.6241   -3.615954847E-5
 112.751129   -3.414933963E-5
 112.878166   -3.155035301E-5
 113.005196   -2.833261897E-5
 113.132233   -2.447726001E-5
 113.259262   -1.9977384E-5
 113.386292   -1.483870437E-5
 113.513329   -9.079832125E-6
 113.640358   -2.732265102E-6
 113.767395   4.159939181E-6
 113.894424   1.15408011E-5
 114.021461   1.934330976E-5
 114.148491   2.749058876E-5
 114.27552   3.589725748E-5
 114.402557   4.447095853E-5
 114.529587   5.311402856E-5
 114.656624   6.172524445E-5
 114.783653   7.0201575E-5
 114.910683   7.844001084E-5
 115.03772   8.633924153E-5
 115.164749   9.380133997E-5
 115.291786   1.007332903E-4
 115.418816   1.070483922E-4
 115.545853   1.126674979E-4
 115.672882   1.175201105E-4
 115.799911   1.215452503E-4
 115.926949   1.246921893E-4
 116.053978   1.269209752E-4
 116.181015   1.282027661E-4
 116.308044   1.285200706E-4
 116.435081   1.278667187E-4
 116.562111   1.262477599E-4
 116.68914   1.236792596E-4
 116.816177   1.201878695E-4
 116.943207   1.158103332E-4
 117.070244   1.105929987E-4
 117.197273   1.045910612E-4
 117.32431   9.786791634E-5
 117.45134   9.049431537E-5
 117.578369   8.25475654E-5
 117.705406   7.411060506E-5
 117.832436   6.527110963E-5
 117.959473   5.612053428E-5
 118.086502   4.675312448E-5
 118.213531   3.726493742E-5
 118.340569   2.775282883E-5
 118.467598   1.831344525E-5
 118.594635   9.042209058E-6
 118.721664   3.232390711E-8
 118.848701   -8.626202543E-6
 118.975731   -1.684751987E-5
 119.10276   -2.455085632E-5
 119.229797   -3.166138049E-5
 119.356827   -3.811104034E-5
 119.483864   -4.383931446E-5
 119.610893   -4.879389235E-5
 119.73793   -5.293129288E-5
 119.86496   -5.621738455E-5
 119.991989   -5.862780745E-5
 120.119026   -6.014829341E-5
 120.246056   -6.077489888E-5
 120.373093   -6.051409582E-5
 120.500122   -5.938274626E-5
 120.627159   -5.740796041E-5
 120.754189   -5.462685658E-5
 120.881218   -5.10861355E-5
 121.008255   -4.684156374E-5
 121.135284   -4.195730799E-5
 121.262321   -3.650517101E-5
 121.389351   -3.056366768E-5
 121.51638   -2.421700265E-5
 121.643417   -1.755395351E-5
 121.770447   -1.066663208E-5
 121.897484   -3.649183554E-6
 122.024513   3.40358315E-6
 122.15155   1.039760082E-5
 122.27858   1.724097638E-5
 122.405609   2.384540676E-5
 122.532646   3.012755042E-5
 122.659676   3.60103586E-5
 122.786713   4.142426769E-5
 122.913742   4.630830153E-5
 123.040779   5.061100455E-5
 123.167809   5.4291173E-5
 123.294838   5.731839701E-5
 123.421875   5.967338802E-5
 123.548904   6.134805881E-5
 123.675941   6.234534521E-5
 123.802971   6.26788169E-5