  -4.50000000       0.00000000    
  -4.37500000       0.00000000    
  -4.25000000       0.00000000    
  -4.12500000       0.00000000    
  -4.00000000       0.00000000    
  -3.87500000       0.00000000    
  -3.75000000      -2.68877221E-36
  -3.62500000      -6.25539434E-35
  -3.50000000      -8.40613826E-34
  -3.37500000      -1.04460408E-32
  -3.25000000      -8.44328322E-32
  -3.12500000      -4.54608052E-31
  -3.00000000      -1.76675955E-30
  -2.87500000      -5.27281326E-30
  -2.75000000      -1.27549751E-29
  -2.62500000      -2.69475787E-29
  -2.50000000      -5.65042026E-29
  -2.37500000      -1.34441743E-28
  -2.25000000      -3.59184851E-28
  -2.12500000      -9.48914543E-28
  -2.00000000      -2.24638215E-27
  -1.87500000      -4.52003162E-27
  -1.75000000      -7.31499239E-27
  -1.62500000      -8.11109556E-27
  -1.50000000      -2.89173326E-28
  -1.37500000       2.89919140E-26
  -1.25000000       9.95044679E-26
  -1.12500000       2.34940576E-25
  -1.00000000       4.53945472E-25
 -0.875000000       7.54833785E-25
 -0.750000000       1.09778140E-24
 -0.625000000       1.39400932E-24
 -0.500000000       1.51642732E-24
 -0.375000000       1.34683741E-24
 -0.250000000       8.67793144E-25
 -0.125000000       2.91415671E-25
   0.00000000       1.95098614E-25
  0.125000000       1.61048103E-24
  0.250000000       5.99405467E-24
  0.375000000       1.50020124E-23
  0.500000000       3.00053974E-23
  0.625000000       5.13243476E-23
  0.750000000       7.72463327E-23
  0.875000000       1.03036051E-22
   1.00000000       1.20339633E-22
   1.12500000       1.17586773E-22
   1.25000000       8.20927533E-23
   1.37500000       4.38987565E-24
   1.50000000      -1.15301942E-22
   1.62500000      -2.59710655E-22
   1.75000000      -3.89048553E-22
   1.87500000      -4.41710055E-22
   2.00000000      -3.45915684E-22
   2.12500000      -4.56178351E-23
   2.25000000       4.60343530E-22
   2.37500000       1.07410140E-21
   2.50000000       1.56665645E-21
   2.62500000       1.58185650E-21
   2.75000000       7.01015829E-22
   2.87500000      -1.41823246E-21
   3.00000000      -4.84042103E-21
   3.12500000      -9.13674624E-21
   3.25000000      -1.32435631E-20
   3.37500000      -1.55075734E-20
   3.50000000      -1.40199165E-20
   3.62500000      -7.27874753E-21
   3.75000000       4.89778124E-21
   3.87500000       2.04393486E-20
   4.00000000       3.44458945E-20
   4.12500000       3.94046613E-20
   4.25000000       2.65648359E-20
   4.37500000      -1.14282094E-20
   4.50000000      -7.69668748E-20
   4.62500000      -1.63820820E-19
   4.75000000      -2.54649775E-19
   4.87500000      -3.21115443E-19
   5.00000000      -3.27734930E-19
   5.12500000      -2.39827551E-19
   5.25000000      -3.46984786E-20
   5.37500000       2.86154551E-19
   5.50000000       6.87130301E-19
   5.62500000       1.09465081E-18
   5.75000000       1.40249145E-18
   5.87500000       1.48783136E-18
   6.00000000       1.23706680E-18
   6.12500000       5.77660237E-19
   6.25000000      -4.90061551E-19
   6.37500000      -1.86855261E-18
   6.50000000      -3.35335133E-18
   6.62500000      -4.64356531E-18
   6.75000000      -5.37514287E-18
   6.87500000      -5.17596316E-18
   7.00000000      -3.73804615E-18
   7.12500000      -8.98690480E-19
   7.25000000       3.28078525E-18
   7.37500000       8.45277256E-18
   7.50000000       1.39537792E-17
   7.62500000       1.88244817E-17
   7.75000000       2.18945245E-17
   7.87500000       2.19408946E-17
   8.00000000       1.79167718E-17
   8.12500000       9.22997079E-18
   8.25000000      -3.97129371E-18
   8.37500000      -2.05678840E-17
   8.50000000      -3.83693286E-17
   8.62500000      -5.42150485E-17
   8.75000000      -6.43243636E-17
   8.87500000      -6.48957866E-17
   9.00000000      -5.28929592E-17
   9.12500000      -2.68879674E-17
   9.25000000       1.22193784E-17
   9.37500000       6.08059542E-17
   9.50000000       1.12622983E-16
   9.62500000       1.59473249E-16
   9.75000000       1.92429461E-16
   9.87500000       2.03412951E-16
   10.0000000       1.86829104E-16
   10.1250000       1.40890418E-16
   10.2500000       6.82811457E-17
   10.3750000      -2.40625897E-17
   10.5000000      -1.26079094E-16
   10.6250000      -2.26393351E-16
   10.7500000      -3.14375114E-16
   10.8750000      -3.81874799E-16
   11.0000000      -4.24089280E-16
   11.1250000      -4.39200109E-16
   11.2500000      -4.26764633E-16
   11.3750000      -3.85261739E-16
   11.5000000      -3.09584587E-16
   11.6250000      -1.89519029E-16
   11.7500000      -1.02370475E-17
   11.8750000       2.44485763E-16
   12.0000000       5.86235367E-16
   12.1250000       1.01383068E-15
   12.2500000       1.50466933E-15
   12.3750000       2.00777492E-15
   12.5000000       2.44104011E-15
   12.6250000       2.69486984E-15
   12.7500000       2.64355277E-15
   12.8750000       2.16426955E-15
   13.0000000       1.16195239E-15
   13.1250000      -4.03481392E-16
   13.2500000      -2.49228857E-15
   13.3750000      -4.96776692E-15
   13.5000000      -7.59172507E-15
   13.6250000      -1.00359759E-14
   13.7500000      -1.19109527E-14
   13.8750000      -1.28096361E-14
   14.0000000      -1.23620706E-14
   14.1250000      -1.02933765E-14
   14.2500000      -6.47674553E-15
   14.3750000      -9.72984523E-16
   14.5000000       5.95039248E-15
   14.6250000       1.38247483E-14
   14.7500000       2.20111913E-14
   14.8750000       2.97536010E-14
   15.0000000       3.62474096E-14
   15.1250000       4.07156100E-14
   15.2500000       4.24829375E-14
   15.3750000       4.10401930E-14
   15.5000000       3.60930327E-14
   15.6250000       2.75927488E-14
   15.7500000       1.57496713E-14
   15.8750000       1.03202113E-15
   16.0000000      -1.58459570E-14
   16.1250000      -3.39437849E-14
   16.2500000      -5.21219861E-14
   16.3750000      -6.90796636E-14
   16.5000000      -8.34083982E-14
   16.6250000      -9.36702295E-14
   16.7500000      -9.85068418E-14
   16.8750000      -9.67829265E-14
   17.0000000      -8.77596810E-14
   17.1250000      -7.12844971E-14
   17.2500000      -4.79721616E-14
   17.3750000      -1.93435271E-14
   17.5000000       1.21181472E-14
   17.6250000       4.30324416E-14
   17.7500000       6.93397908E-14
   17.8750000       8.66870527E-14
   18.0000000       9.09719213E-14
   18.1250000       7.90092682E-14
   18.2500000       4.92543255E-14
   18.3750000       2.49189978E-15
   18.5000000      -5.76139546E-14
   18.6250000      -1.24219997E-13
   18.7500000      -1.87351504E-13
   18.8750000      -2.34368677E-13
   19.0000000      -2.50882702E-13
   19.1250000      -2.22103098E-13
   19.2500000      -1.34543676E-13
   19.3750000       2.20350827E-14
   19.5000000       2.52612330E-13
   19.6250000       5.55014530E-13
   19.7500000       9.18351658E-13
   19.8750000       1.32197855E-12
   20.0000000       1.73516258E-12
   20.1250000       2.11759625E-12
   20.2500000       2.42085171E-12
   20.3750000       2.59081580E-12
   20.5000000       2.57108874E-12
   20.6250000       2.30726029E-12
   20.7500000       1.75191784E-12
   20.8750000       8.70163750E-13
   21.0000000      -3.54649036E-13
   21.1250000      -1.91533378E-12
   21.2500000      -3.77587328E-12
   21.3750000      -5.86750743E-12
   21.5000000      -8.08644731E-12
   21.6250000      -1.02937468E-11
   21.7500000      -1.23178369E-11
   21.8750000      -1.39601247E-11
   22.0000000      -1.50038957E-11
   22.1250000      -1.52265405E-11
   22.2500000      -1.44148391E-11
   22.3750000      -1.23827433E-11
   22.5000000      -8.99076213E-12
   22.6250000      -4.16573460E-12
   22.7500000       2.08044150E-12
   22.8750000       9.63475046E-12
   23.0000000       1.82713289E-11
   23.1250000       2.76456375E-11
   23.2500000       3.72959268E-11
   23.3750000       4.66529419E-11
   23.5000000       5.50584335E-11
   23.6250000       6.17924600E-11
   23.7500000       6.61088059E-11
   23.8750000       6.72773087E-11
   24.0000000       6.46313281E-11
   24.1250000       5.76179555E-11
   24.2500000       4.58483806E-11
   24.3750000       2.91454846E-11
   24.5000000       7.58560489E-12
   24.6250000      -1.84684906E-11
   24.7500000      -4.83461222E-11
   24.8750000      -8.10611092E-11
   25.0000000      -1.15319969E-10
   25.1250000      -1.49547236E-10
   25.2500000      -1.81928278E-10
   25.3750000      -2.10469725E-10
   25.5000000      -2.33076169E-10
   25.6250000      -2.47641269E-10
   25.7500000      -2.52150689E-10
   25.8750000      -2.44793213E-10
   26.0000000      -2.24075369E-10
   26.1250000      -1.88935451E-10
   26.2500000      -1.38850667E-10
   26.3750000      -7.39323325E-11
   26.5000000       4.99670140E-12
   26.6250000       9.63478325E-11
   26.7500000       1.97740727E-10
   26.8750000       3.06009523E-10
   27.0000000       4.17244544E-10
   27.1250000       5.26871657E-10
   27.2500000       6.29769070E-10
   27.3750000       7.20421500E-10
   27.5000000       7.93108024E-10
   27.6250000       8.42120484E-10
   27.7500000       8.62006189E-10
   27.8750000       8.47826698E-10
   28.0000000       7.95427113E-10
   28.1250000       7.01702862E-10
   28.2500000       5.64856217E-10
   28.3750000       3.84630688E-10
   28.5000000       1.62511907E-10
   28.6250000      -9.81163067E-11
   28.7500000      -3.91871091E-10
   28.8750000      -7.11336545E-10
   29.0000000      -1.04710474E-09
   29.1250000      -1.38790057E-09
   29.2500000      -1.72079540E-09
   29.3750000      -2.03151251E-09
   29.5000000      -2.30482589E-09
   29.6250000      -2.52504662E-09
   29.7500000      -2.67658895E-09
   29.8750000      -2.74460432E-09
   30.0000000      -2.71566325E-09
   30.1250000      -2.57846589E-09
   30.2500000      -2.32455188E-09
   30.3750000      -1.94897987E-09
   30.5000000      -1.45094392E-09
   30.6250000      -8.34292913E-10
   30.7500000      -1.07916918E-10
   30.8750000       7.14027226E-10
   31.0000000       1.61208202E-09
   31.1250000       2.56166710E-09
   31.2500000       3.53348040E-09
   31.3750000       4.49413617E-09
   31.5000000       5.40701928E-09
   31.6250000       6.23336049E-09
   31.7500000       6.93348934E-09
   31.8750000       7.46823403E-09
   32.0000000       7.80043496E-09
   32.1250000       7.89650390E-09
   32.2500000       7.72798536E-09
   32.3750000       7.27305105E-09
   32.5000000       6.51787024E-09
   32.6250000       5.45779910E-09
   32.7500000       4.09832879E-09
   32.8750000       2.45574228E-09
   33.0000000       5.57440094E-10
   33.1250000      -1.55810342E-09
   33.2500000      -3.84176868E-09
   33.3750000      -6.23462038E-09
   33.5000000      -8.66913652E-09
   33.6250000      -1.10708109E-08
   33.7500000      -1.33601121E-08
   33.8750000      -1.54547379E-08
   34.0000000      -1.72721251E-08
   34.1250000      -1.87321394E-08
   34.2500000      -1.97598489E-08
   34.3750000      -2.02883150E-08
   34.5000000      -2.02612931E-08
   34.6250000      -1.96357490E-08
   34.7500000      -1.83840907E-08
   34.8750000      -1.64960277E-08
   35.0000000      -1.39799621E-08
   35.1250000      -1.08638387E-08
   35.2500000      -7.19540427E-09
   35.3750000      -3.04181835E-09
   35.5000000       1.51140334E-09
   35.6250000       6.36211039E-09
   35.7500000       1.13938858E-08
   35.8750000       1.64790173E-08
   36.0000000       2.14819824E-08
   36.1250000       2.62633773E-08
   36.2500000       3.06841592E-08
   36.3750000       3.46100357E-08
   36.5000000       3.79159353E-08
   36.6250000       4.04902742E-08
   36.7500000       4.22389803E-08
   36.8750000       4.30889990E-08
   37.0000000       4.29912284E-08
   37.1250000       4.19226502E-08
   37.2500000       3.98876416E-08
   37.3750000       3.69183120E-08
   37.5000000       3.30738565E-08
   37.6250000       2.84389294E-08
   37.7500000       2.31210446E-08
   37.8750000       1.72471033E-08
   38.0000000       1.09591785E-08
   38.1250000       4.40967662E-09
   38.2500000      -2.24390329E-09
   38.3750000      -8.84444162E-09
   38.5000000      -1.52406443E-08
   38.6250000      -2.12922888E-08
   38.7500000      -2.68750018E-08
   38.8750000      -3.18844222E-08
   39.0000000      -3.62395376E-08
   39.1250000      -3.98850695E-08
   39.2500000      -4.27928164E-08
   39.3750000      -4.49618618E-08
   39.5000000      -4.64177212E-08
   39.6250000      -4.72103814E-08
   39.7500000      -4.74113584E-08
   39.8750000      -4.71099462E-08
   40.0000000      -4.64087684E-08
   40.1250000      -4.54188545E-08
   40.2500000      -4.42544845E-08
   40.3750000      -4.30279563E-08
   40.5000000      -4.18445865E-08
   40.6250000      -4.07980991E-08
   40.7500000      -3.99665687E-08
   40.8750000      -3.94090698E-08
   41.0000000      -3.91631652E-08
   41.1250000      -3.92432433E-08
   41.2500000      -3.96397013E-08
   41.3750000      -4.03189304E-08
   41.5000000      -4.12240126E-08
   41.6250000      -4.22759854E-08
   41.7500000      -4.33755005E-08
   41.8750000      -4.44046577E-08
   42.0000000      -4.52288909E-08
   42.1250000      -4.56986378E-08
   42.2500000      -4.56506299E-08
   42.3750000      -4.49087487E-08
   42.5000000      -4.32842207E-08
   42.6250000      -4.05752019E-08
   42.7500000      -3.65657691E-08
   42.8750000      -3.10243387E-08
   43.0000000      -2.37017552E-08
   43.1250000      -1.43291805E-08
   43.2500000      -2.61615196E-09
   43.3750000       1.17510108E-08
   43.5000000       2.91099695E-08
   43.6250000       4.98220381E-08
   43.7500000       7.42704529E-08
   43.8750000       1.02856816E-07
   44.0000000       1.35995677E-07
   44.1250000       1.74106844E-07
   44.2500000       2.17605631E-07
   44.3750000       2.66890794E-07
   44.5000000       3.22330635E-07
   44.6250000       3.84247272E-07
   44.7500000       4.52899599E-07
   44.8750000       5.28465250E-07
   45.0000000       6.11022813E-07
   45.1250000       7.00533690E-07
   45.2500000       7.96825589E-07
   45.3750000       8.99577401E-07
   45.5000000       1.00830744E-06
   45.6250000       1.12236285E-06
   45.7500000       1.24091514E-06
   45.8750000       1.36295819E-06
   46.0000000       1.48731124E-06
   46.1250000       1.61262653E-06
   46.2500000       1.73740250E-06
   46.3750000       1.86000034E-06
   46.5000000       1.97866621E-06
   46.6250000       2.09155723E-06
   46.7500000       2.19677167E-06
   46.8750000       2.29238003E-06
   47.0000000       2.37646077E-06
   47.1250000       2.44713738E-06
   47.2500000       2.50261405E-06
   47.3750000       2.54121414E-06
   47.5000000       2.56141379E-06
   47.6250000       2.56187786E-06
   47.7500000       2.54149086E-06
   47.8750000       2.49938466E-06
   48.0000000       2.43496220E-06
   48.1250000       2.34791719E-06
   48.2500000       2.23824918E-06
   48.3750000       2.10627218E-06
   48.5000000       1.95261805E-06
   48.6250000       1.77823358E-06
   48.7500000       1.58437274E-06
   48.8750000       1.37258326E-06
   49.0000000       1.14468560E-06
   49.1250000       9.02746706E-07
   49.2500000       6.49051287E-07
   49.3750000       3.86063732E-07
   49.5000000       1.16389728E-07
   49.6250000      -1.57270392E-07
   49.7500000      -4.32167099E-07
   49.8750000      -7.05555578E-07
   50.0000000      -9.74745831E-07
   50.1250000      -1.23716063E-06
   50.2500000      -1.49038885E-06
   50.3750000      -1.73224191E-06
   50.5000000      -1.96080759E-06
   50.6250000      -2.17450270E-06
   50.7500000      -2.37212316E-06
   50.8750000      -2.55288774E-06
   51.0000000      -2.71647923E-06
   51.1250000      -2.86307613E-06
   51.2500000      -2.99337898E-06
   51.3750000      -3.10862515E-06
   51.5000000      -3.21059497E-06
   51.6250000      -3.30160628E-06
   51.7500000      -3.38449604E-06
   51.8750000      -3.46259003E-06
   52.0000000      -3.53965788E-06
   52.1250000      -3.61985531E-06
   52.2500000      -3.70765270E-06
   52.3750000      -3.80774895E-06
   52.5000000      -3.92497623E-06
   52.6250000      -4.06419122E-06
   52.7500000      -4.23015854E-06
   52.8750000      -4.42742612E-06
   53.0000000      -4.66019765E-06
   53.1250000      -4.93220159E-06
   53.2500000      -5.24656389E-06
   53.3750000      -5.60568469E-06
   53.5000000      -6.01112288E-06
   53.6250000      -6.46349599E-06
   53.7500000      -6.96238976E-06
   53.8750000      -7.50629488E-06
   54.0000000      -8.09256017E-06
   54.1250000      -8.71737393E-06
   54.2500000      -9.37576897E-06
   54.3750000      -1.00616608E-05
   54.5000000      -1.07679125E-05
   54.6250000      -1.14864288E-05
   54.7500000      -1.22082765E-05
   54.8750000      -1.29238442E-05
   55.0000000      -1.36230101E-05
   55.1250000      -1.42953440E-05
   55.2500000      -1.49303196E-05
   55.3750000      -1.55175512E-05
   55.5000000      -1.60470227E-05
   55.6250000      -1.65093388E-05
   55.7500000      -1.68959541E-05
   55.8750000      -1.71994106E-05
   56.0000000      -1.74135475E-05
   56.1250000      -1.75336972E-05
   56.2500000      -1.75568548E-05
   56.3750000      -1.74818160E-05
   56.5000000      -1.73092849E-05
   56.6250000      -1.70419244E-05
   56.7500000      -1.66843893E-05
   56.8750000      -1.62433043E-05
   57.0000000      -1.57271952E-05
   57.1250000      -1.51463837E-05
   57.2500000      -1.45128333E-05
   57.3750000      -1.38399628E-05
   57.5000000      -1.31424131E-05
   57.6250000      -1.24357985E-05
   57.7500000      -1.17364143E-05
   57.8750000      -1.10609335E-05
   58.0000000      -1.04260898E-05
   58.1250000      -9.84834969E-06
   58.2500000      -9.34358741E-06
   58.3750000      -8.92676508E-06
   58.5000000      -8.61163244E-06
   58.6250000      -8.41043493E-06
   58.7500000      -8.33366721E-06
   58.8750000      -8.38983760E-06
   59.0000000      -8.58528801E-06
   59.1250000      -8.92404205E-06
   59.2500000      -9.40770224E-06
   59.3750000      -1.00353927E-05
   59.5000000      -1.08037520E-05
   59.6250000      -1.17069576E-05
   59.7500000      -1.27368212E-05
   59.8750000      -1.38828991E-05
   60.0000000      -1.51326740E-05
   60.1250000      -1.64717421E-05
   60.2500000      -1.78840619E-05
   60.3750000      -1.93522137E-05
   60.5000000      -2.08576876E-05
   60.6250000      -2.23811894E-05
   60.7500000      -2.39029578E-05
   60.8750000      -2.54030892E-05
   61.0000000      -2.68618624E-05
   61.1250000      -2.82600413E-05
   61.2500000      -2.95792051E-05
   61.3750000      -3.08020171E-05
   61.5000000      -3.19125065E-05
   61.6250000      -3.28963069E-05
   61.7500000      -3.37408710E-05
   61.8750000      -3.44356449E-05
   62.0000000      -3.49722395E-05
   62.1250000      -3.53445139E-05
   62.2500000      -3.55486627E-05
   62.3750000      -3.55832490E-05
   62.5000000      -3.54492076E-05
   62.6250000      -3.51497984E-05
   62.7500000      -3.46905254E-05
   62.8750000      -3.40790430E-05
   63.0000000      -3.33249955E-05
   63.1250000      -3.24398679E-05
   63.2500000      -3.14367717E-05
   63.3750000      -3.03302550E-05
   63.5000000      -2.91360448E-05
   63.6250000      -2.78708194E-05
   63.7500000      -2.65519539E-05
   63.8750000      -2.51972651E-05
   64.0000000      -2.38247612E-05
   64.1250000      -2.24524047E-05
   64.2500000      -2.10978742E-05
   64.3750000      -1.97783465E-05
   64.5000000      -1.85103090E-05
   64.6250000      -1.73093777E-05
   64.7500000      -1.61901498E-05
   64.8750000      -1.51660834E-05
   65.0000000      -1.42493955E-05
   65.1250000      -1.34509937E-05
   65.2500000      -1.27804233E-05
   65.3750000      -1.22458468E-05
   65.5000000      -1.18540302E-05
   65.6250000      -1.16103538E-05
   65.7500000      -1.15188304E-05
   65.8750000      -1.15821267E-05
   66.0000000      -1.18015960E-05
   66.1250000      -1.21773046E-05
   66.2500000      -1.27080484E-05
   66.3750000      -1.33913745E-05
   66.5000000      -1.42235849E-05
   66.6250000      -1.51997365E-05
   66.7500000      -1.63136265E-05
   66.8750000      -1.75577734E-05
   67.0000000      -1.89233997E-05
   67.1250000      -2.04003882E-05
   67.2500000      -2.19772792E-05
   67.3750000      -2.36412452E-05
   67.5000000      -2.53780909E-05
   67.6250000      -2.71722765E-05
   67.7500000      -2.90069474E-05
   67.8750000      -3.08640265E-05
   68.0000000      -3.27242997E-05
   68.1250000      -3.45675689E-05
   68.2500000      -3.63728323E-05
   68.3750000      -3.81184836E-05
   68.5000000      -3.97825970E-05
   68.6250000      -4.13431844E-05
   68.7500000      -4.27785380E-05
   68.8750000      -4.40675540E-05
   69.0000000      -4.51900887E-05
   69.1250000      -4.61273448E-05
   69.2500000      -4.68622020E-05
   69.3750000      -4.73796063E-05
   69.5000000      -4.76668611E-05
   69.6250000      -4.77139583E-05
   69.7500000      -4.75138186E-05
   69.8750000      -4.70625127E-05
   70.0000000      -4.63594151E-05
   70.1250000      -4.54072906E-05
   70.2500000      -4.42123237E-05
   70.3750000      -4.27840678E-05
   70.5000000      -4.11353612E-05
   70.6250000      -3.92821203E-05
   70.7500000      -3.72431023E-05
   70.8750000      -3.50396149E-05
   71.0000000      -3.26951449E-05
   71.1250000      -3.02349781E-05
   71.2500000      -2.76857572E-05
   71.3750000      -2.50750327E-05
   71.5000000      -2.24308078E-05
   71.6250000      -1.97810732E-05
   71.7500000      -1.71533557E-05
   71.8750000      -1.45743079E-05
   72.0000000      -1.20693194E-05
   72.1250000      -9.66218067E-06
   72.2500000      -7.37479832E-06
   72.3750000      -5.22697610E-06
   72.5000000      -3.23624931E-06
   72.6250000      -1.41780424E-06
   72.7500000       2.15557961E-07
   72.8750000       1.65337451E-06
   73.0000000       2.88741876E-06
   73.1250000       3.91155436E-06
   73.2500000       4.72153170E-06
   73.3750000       5.31475416E-06
   73.5000000       5.69001941E-06
   73.6250000       5.84724557E-06
   73.7500000       5.78719846E-06
   73.8750000       5.51122548E-06
   74.0000000       5.02101011E-06
   74.1250000       4.31835997E-06
   74.2500000       3.40503288E-06
   74.3750000       2.28260888E-06
   74.5000000       9.52414837E-07
   74.6250000      -5.84501265E-07
   74.7500000      -2.32732691E-06
   74.8750000      -4.27540590E-06
   75.0000000      -6.42809482E-06
   75.1250000      -8.78457922E-06
   75.2500000      -1.13436490E-05
   75.3750000      -1.41034425E-05
   75.5000000      -1.70611765E-05
   75.6250000      -2.02128667E-05
   75.7500000      -2.35530333E-05
   75.8750000      -2.70744513E-05
   76.0000000      -3.07678856E-05
   76.1250000      -3.46218912E-05
   76.2500000      -3.86226420E-05
   76.3750000      -4.27538180E-05
   76.5000000      -4.69965198E-05
   76.6250000      -5.13292980E-05
   76.7500000      -5.57281674E-05
   76.8750000      -6.01667671E-05
   77.0000000      -6.46165136E-05
   77.1250000      -6.90468514E-05
   77.2500000      -7.34255154E-05
   77.3750000      -7.77188907E-05
   77.5000000      -8.18923581E-05
   77.6250000      -8.59107095E-05
   77.7500000      -8.97385544E-05
   77.8750000      -9.33407428E-05
   78.0000000      -9.66828084E-05
   78.1250000      -9.97313909E-05
   78.2500000      -1.02454622E-04
   78.3750000      -1.04822553E-04
   78.5000000      -1.06807471E-04
   78.6250000      -1.08384229E-04
   78.7500000      -1.09530556E-04
   78.8750000      -1.10227265E-04
   79.0000000      -1.10458474E-04
   79.1250000      -1.10211768E-04
   79.2500000      -1.09478256E-04
   79.3750000      -1.08252694E-04
   79.5000000      -1.06533465E-04
   79.6250000      -1.04322549E-04
   79.7500000      -1.01625454E-04
   79.8750000      -9.84511207E-05
   80.0000000      -9.48117449E-05
   80.1250000      -9.07226204E-05
   80.2500000      -8.62018787E-05
   80.3750000      -8.12702929E-05
   80.5000000      -7.59509276E-05
   80.6250000      -7.02689067E-05
   80.7500000      -6.42510422E-05
   80.8750000      -5.79255211E-05
   81.0000000      -5.13215455E-05
   81.1250000      -4.44689977E-05
   81.2500000      -3.73980693E-05
   81.3750000      -3.01389264E-05
   81.5000000      -2.27213968E-05
   81.6250000      -1.51746435E-05
   81.7500000      -7.52690221E-06
   81.8750000       1.94766784E-07
   82.0000000       7.96466884E-06
   82.1250000       1.57586546E-05
   82.2500000       2.35541993E-05
   82.3750000       3.13304699E-05
   82.5000000       3.90683344E-05
   82.6250000       4.67502978E-05
   82.7500000       5.43604219E-05
   82.8750000       6.18841659E-05
   83.0000000       6.93082329E-05
   83.1250000       7.66203520E-05
   83.2500000       8.38090127E-05
   83.3750000       9.08632865E-05
   83.5000000       9.77725358E-05
   83.6250000       1.04526211E-04
   83.7500000       1.11113593E-04
   83.8750000       1.17523676E-04
   84.0000000       1.23744947E-04
   84.1250000       1.29765351E-04
   84.2500000       1.35572147E-04
   84.3750000       1.41152021E-04
   84.5000000       1.46491046E-04
   84.6250000       1.51574844E-04
   84.7500000       1.56388734E-04
   84.8750000       1.60917931E-04
   85.0000000       1.65147794E-04
   85.1250000       1.69064078E-04
   85.2500000       1.72653279E-04
   85.3750000       1.75902896E-04
   85.5000000       1.78801783E-04
   85.6250000       1.81340409E-04
   85.7500000       1.83511162E-04
   85.8750000       1.85308585E-04
   86.0000000       1.86729638E-04
   86.1250000       1.87773840E-04
   86.2500000       1.88443388E-04
   86.3750000       1.88743346E-04
   86.5000000       1.88681530E-04
   86.6250000       1.88268619E-04
   86.7500000       1.87518061E-04
   86.8750000       1.86445919E-04
   87.0000000       1.85070749E-04
   87.1250000       1.83413475E-04
   87.2500000       1.81497031E-04
   87.3750000       1.79346200E-04
   87.5000000       1.76987363E-04
   87.6250000       1.74448098E-04
   87.7500000       1.71756983E-04
   87.8750000       1.68943210E-04
   88.0000000       1.66036320E-04
   88.1250000       1.63065823E-04
   88.2500000       1.60060925E-04
   88.3750000       1.57050250E-04
   88.5000000       1.54061461E-04
   88.6250000       1.51121028E-04
   88.7500000       1.48254010E-04
   88.8750000       1.45483733E-04
   89.0000000       1.42831646E-04
   89.1250000       1.40317046E-04
   89.2500000       1.37957002E-04
   89.3750000       1.35766153E-04
   89.5000000       1.33756665E-04
   89.6250000       1.31938097E-04
   89.7500000       1.30317450E-04
   89.8750000       1.28899104E-04
   90.0000000       1.27684878E-04
   90.1250000       1.26674175E-04
   90.2500000       1.25863968E-04
   90.3750000       1.25249004E-04
   90.5000000       1.24821978E-04
   90.6250000       1.24573649E-04
   90.7500000       1.24493090E-04
   90.8750000       1.24567872E-04
   91.0000000       1.24784288E-04
   91.1250000       1.25127495E-04
   91.2500000       1.25581806E-04
   91.3750000       1.26130835E-04
   91.5000000       1.26757644E-04
   91.6250000       1.27444975E-04
   91.7500000       1.28175307E-04
   91.8750000       1.28931046E-04
   92.0000000       1.29694556E-04
   92.1250000       1.30448287E-04
   92.2500000       1.31174864E-04
   92.3750000       1.31857116E-04
   92.5000000       1.32478119E-04
   92.6250000       1.33021356E-04
   92.7500000       1.33470647E-04
   92.8750000       1.33810376E-04
   93.0000000       1.34025497E-04
   93.1250000       1.34101705E-04
   93.2500000       1.34025569E-04
   93.3750000       1.33784692E-04
   93.5000000       1.33367954E-04
   93.6250000       1.32765635E-04
   93.7500000       1.31969704E-04
   93.8750000       1.30974004E-04
   94.0000000       1.29774489E-04
   94.1250000       1.28369415E-04
   94.2500000       1.26759536E-04
   94.3750000       1.24948201E-04
   94.5000000       1.22941463E-04
   94.6250000       1.20748147E-04
   94.7500000       1.18379721E-04
   94.8750000       1.15850235E-04
   95.0000000       1.13176102E-04
   95.1250000       1.10375826E-04
   95.2500000       1.07469627E-04
   95.3750000       1.04479004E-04
   95.5000000       1.01426216E-04
   95.6250000       9.83337304E-05
   95.7500000       9.52236151E-05
   95.8750000       9.21168394E-05
   96.0000000       8.90327356E-05
   96.1250000       8.59882566E-05
   96.2500000       8.29974524E-05
   96.3750000       8.00709240E-05
   96.5000000       7.72152925E-05
   96.6250000       7.44329154E-05
   96.7500000       7.17215953E-05
   96.8750000       6.90744637E-05
   97.0000000       6.64799954E-05
   97.1250000       6.39221471E-05
   97.2500000       6.13807133E-05
   97.3750000       5.88317198E-05
   97.5000000       5.62480309E-05
   97.6250000       5.36000334E-05
   97.7500000       5.08564517E-05
   97.8750000       4.79852279E-05
   98.0000000       4.49544714E-05
   98.1250000       4.17334413E-05
   98.2500000       3.82935323E-05
   98.3750000       3.46092456E-05
   98.5000000       3.06590991E-05
   98.6250000       2.64264818E-05
   98.7500000       2.19003887E-05
   98.8750000       1.70760504E-05
   99.0000000       1.19554152E-05
   99.1250000       6.54747373E-06
   99.2500000       8.68432096E-07
   99.3750000      -5.05829757E-06
   99.5000000      -1.12022735E-05
   99.6250000      -1.75263649E-05
   99.7500000      -2.39872606E-05
   99.8750000      -3.05361209E-05
   100.000000      -3.71193782E-05
   100.125000      -4.36796290E-05
   100.250000      -5.01566392E-05
   100.375000      -5.64884285E-05
   100.500000      -6.26123874E-05
   100.625000      -6.84664265E-05
   100.750000      -7.39901225E-05
   100.875000      -7.91258572E-05
   101.000000      -8.38198685E-05
   101.125000      -8.80232983E-05
   101.250000      -9.16930730E-05
   101.375000      -9.47927474E-05
   101.500000      -9.72931812E-05
   101.625000      -9.91731140E-05
   101.750000      -1.00419551E-04
   101.875000      -1.01028047E-04
   102.000000      -1.01002785E-04
   102.125000      -1.00356556E-04
   102.250000      -9.91105189E-05
   102.375000      -9.72938215E-05
   102.500000      -9.49431269E-05