  -4.50000000         0.00000000    
  -4.37320757         0.00000000    
  -4.24641466         0.00000000    
  -4.11962223         0.00000000    
  -3.99282932         0.00000000    
  -3.86603665         0.00000000    
  -3.73924398         1.19176944E-32
  -3.61245155         1.53396664E-31
  -3.48565888         3.21984806E-31
  -3.35886621        -5.37498789E-31
  -3.23207355        -7.16012906E-30
  -3.10528088        -4.25565578E-29
  -2.97848821        -1.65256850E-28
  -2.85169554        -4.14538317E-28
  -2.72490287        -5.66606327E-28
  -2.59811020         2.27200631E-28
  -2.47131753         3.63306962E-27
  -2.34452486         1.14205165E-26
  -2.21773219         2.27762078E-26
  -2.09093952         2.94379193E-26
  -1.96414697         1.11000710E-26
  -1.83735430        -6.19803761E-26
  -1.71056163        -2.08129930E-25
  -1.58376896        -3.85370829E-25
  -1.45697629        -4.18026663E-25
  -1.33018374         6.80561273E-26
  -1.20339108         1.62750662E-24
  -1.07659841         4.78832850E-24
 -0.949805737         9.56274939E-24
 -0.823013067         1.46841756E-23
 -0.696220458         1.67903522E-23
 -0.569427788         1.00652759E-23
 -0.442635119        -1.28869406E-23
 -0.315842479        -5.81310150E-23
 -0.189049825        -1.25077999E-22
  -6.22571707E-02    -1.99439789E-22
   6.45354837E-02    -2.46799741E-22
  0.191328138        -2.10978855E-22
  0.318120778        -2.25896899E-23
  0.444913447         3.77373008E-22
  0.571706116         9.97467535E-22
  0.698498726         1.74463539E-21
  0.825291395         2.37678414E-21
  0.952084064         2.48367946E-21
   1.07887673         1.52636048E-21
   1.20566940        -1.03835037E-21
   1.33246195        -5.53908613E-21
   1.45925462        -1.18003518E-20
   1.58604729        -1.88489840E-20
   1.71283996        -2.47266596E-20
   1.83963263        -2.65439383E-20
   1.96642530        -2.08995357E-20
   2.09321785        -4.72418479E-21
   2.22001052         2.35114812E-20
   2.34680319         6.24448079E-20
   2.47359586         1.06704671E-19
   2.60038853         1.46516227E-19
   2.72718120         1.68502235E-19
   2.85397387         1.57985216E-19
   2.98076653         1.02751885E-19
   3.10755920        -2.22856795E-21
   3.23435187        -1.50135336E-19
   3.36114454        -3.19052403E-19
   3.48793697        -4.71617492E-19
   3.61472964        -5.58718679E-19
   3.74152231        -5.27643158E-19
   3.86831498        -3.33982909E-19
   3.99510765         4.46202225E-20
   4.12190056         5.95838823E-19
   4.24869299         1.26457159E-18
   4.37548542         1.95253440E-18
   4.50227833         2.52747104E-18
   4.62907076         2.84201722E-18
   4.75586367         2.75999668E-18
   4.88265610         2.18590873E-18
   5.00944901         1.09208386E-18
   5.13624144        -4.62153201E-19
   5.26303434        -2.32391492E-18
   5.38982677        -4.25536242E-18
   5.51661968        -5.95765008E-18
   5.64341211        -7.10809866E-18
   5.77020502        -7.40683411E-18
   5.89699745        -6.62821479E-18
   6.02379036        -4.67189914E-18
   6.15058279        -1.60798090E-18
   6.27737522         2.29021765E-18
   6.40416813         6.53329127E-18
   6.53096056         1.04313456E-17
   6.65775347         1.31460274E-17
   6.78454590         1.37836480E-17
   6.91133881         1.15271134E-17
   7.03813124         5.79417602E-18
   7.16492414        -3.60205641E-18
   7.29171658        -1.63237129E-17
   7.41850948        -3.14462934E-17
   7.54530191        -4.74939314E-17
   7.67209482        -6.25835653E-17
   7.79888725        -7.46630889E-17
   7.92567968        -8.17991298E-17
   8.05247211        -8.24470306E-17
   8.17926502        -7.56274690E-17
   8.30605793        -6.09493542E-17
   8.43285084        -3.84565895E-17
   8.55964279        -8.33282476E-18
   8.68643570         2.94408966E-17
   8.81322861         7.53336677E-17
   8.94002151         1.30261174E-16
   9.06681347         1.95206366E-16
   9.19360638         2.70421859E-16
   9.32039928         3.54293871E-16
   9.44719219         4.42087539E-16
   9.57398415         5.24917699E-16
   9.70077705         5.89360390E-16
   9.82756996         6.18105776E-16
   9.95436192         5.91933887E-16
   10.0811548         4.93070796E-16
   10.2079477         3.09679772E-16
   10.3347406         4.09043658E-17
   10.4615326        -2.98423392E-16
   10.5883255        -6.74501812E-16
   10.7151184        -1.03383389E-15
   10.8419113        -1.30600844E-15
   10.9687033        -1.41054216E-15
   11.0954962        -1.26773706E-15
   11.2222891        -8.12779994E-16
   11.3490820        -1.15644176E-17
   11.4758739         1.12392622E-15
   11.6026669         2.52324000E-15
   11.7294598         4.05069578E-15
   11.8562517         5.50649809E-15
   11.9830446         6.63720067E-15
   12.1098375         7.15588342E-15
   12.2366304         6.77107254E-15
   12.3634224         5.22212414E-15
   12.4902153         2.31764266E-15
   12.6170082        -2.02722216E-15
   12.7438011        -7.75897342E-15
   12.8705931        -1.46634837E-14
   12.9973860        -2.23563775E-14
   13.1241789        -3.02879534E-14
   13.2509708        -3.77631513E-14
   13.3777637        -4.39757009E-14
   13.5045567        -4.80544627E-14
   13.6313496        -4.91194677E-14
   13.7581415        -4.63448622E-14
   13.8849344        -3.90260402E-14
   14.0117273        -2.66488441E-14
   14.1385202        -8.95855757E-15
   14.2653122         1.39734212E-14
   14.3921051         4.16881665E-14
   14.5188980         7.32872760E-14
   14.6456909         1.07396364E-13
   14.7724829         1.42151712E-13
   14.8992758         1.75219702E-13
   15.0260687         2.03858713E-13
   15.1528606         2.25032747E-13
   15.2796535         2.35582848E-13
   15.4064465         2.32457066E-13
   15.5332394         2.12993035E-13
   15.6600313         1.75237768E-13
   15.7868242         1.18281199E-13
   15.9136171         4.25702428E-14
   16.0404091        -4.98345431E-14
   16.1672020        -1.55101599E-13
   16.2939949        -2.67608770E-13
   16.4207878        -3.80093607E-13
   16.5475807        -4.83992566E-13
   16.6743736        -5.69971804E-13
   16.8011646        -6.28632075E-13
   16.9279575        -6.51350664E-13
   17.0547504        -6.31202718E-13
   17.1815434        -5.63890080E-13
   17.3083363        -4.48592688E-13
   17.4351292        -2.88653948E-13
   17.5619221        -9.20119151E-14
   17.6887150         1.28704176E-13
   17.8155060         3.56477760E-13
   17.9422989         5.70655556E-13
   18.0690918         7.48165419E-13
   18.1958847         8.65189376E-13
   18.3226776         8.99242757E-13
   18.4494705         8.31567129E-13
   18.5762634         6.49697581E-13
   18.7030544         3.50017704E-13
   18.8298473        -5.99294106E-14
   18.9566402        -5.59638761E-13
   19.0834332        -1.11463302E-12
   19.2102261        -1.67651808E-12
   19.3370190        -2.18434212E-12
   19.4638119        -2.56742175E-12
   19.5906048        -2.74969327E-12
   19.7173958        -2.65551448E-12
   19.8441887        -2.21668365E-12
   19.9709816        -1.38029204E-12
   20.0977745        -1.16871885E-13
   20.2245674         1.57181440E-12
   20.3513603         3.64607823E-12
   20.4781532         6.02345344E-12
   20.6049442         8.57642169E-12
   20.7317371         1.11333252E-11
   20.8585300         1.34829474E-11
   20.9853230         1.53830334E-11
   21.1121159         1.65727640E-11
   21.2389088         1.67889244E-11
   21.3657017         1.57852498E-11
   21.4924946         1.33540843E-11
   21.6192856         9.34924360E-12
   21.7460785         3.70866749E-12
   21.8728714        -3.52474061E-12
   21.9996643        -1.21858678E-11
   22.1264572        -2.19756071E-11
   22.2532501        -3.24563154E-11
   22.3800430        -4.30561593E-11
   22.5068340        -5.30836312E-11
   22.6336269        -6.17530402E-11
   22.7604198        -6.82210607E-11
   22.8872128        -7.16337545E-11
   23.0140057        -7.11824349E-11
   23.1407986        -6.61660518E-11
   23.2675915        -5.60566593E-11
   23.3943844        -4.05639550E-11
   23.5211754        -1.96942011E-11
   23.6479683         6.20125392E-12
   23.7747612         3.63929858E-11
   23.9015541         6.97602948E-11
   24.0283470         1.04801674E-10
   24.1551399         1.39671524E-10
   24.2819328         1.72244274E-10
   24.4087238         2.00205325E-10
   24.5355167         2.21166627E-10
   24.6623096         2.32802583E-10
   24.7891026         2.32999980E-10
   24.9158955         2.20015214E-10
   25.0426884         1.92628510E-10
   25.1694813         1.50286783E-10
   25.2962742         9.32239425E-11
   25.4230652         2.25497572E-11
   25.5498581        -5.97025901E-11
   25.6766510        -1.50576884E-10
   25.8034439        -2.46248022E-10
   25.9302368        -3.42132461E-10
   26.0570297        -4.33054897E-10
   26.1838226        -5.13467047E-10
   26.3106136        -5.77712433E-10
   26.4374065        -6.20326235E-10
   26.5641994        -6.36357578E-10
   26.6909924        -6.21698026E-10
   26.8177853        -5.73399384E-10
   26.9445782        -4.89961405E-10
   27.0713711        -3.71570830E-10
   27.1981640        -2.20273924E-10
   27.3249550        -4.00654961E-11
   27.4517479         1.63118241E-10
   27.5785408         3.81512849E-10
   27.7053337         6.05749562E-10
   27.8321266         8.25189306E-10
   27.9589195         1.02835940E-09
   28.0857124         1.20347998E-09
   28.2125034         1.33906031E-09
   28.3392963         1.42453804E-09
   28.4660892         1.45093204E-09
   28.5928822         1.41147161E-09
   28.7196751         1.30216327E-09
   28.8464680         1.12226239E-09
   28.9732609         8.74604000E-10
   29.1000538         5.65767655E-10
   29.2268448         2.06045431E-10
   29.3536377        -1.90799279E-10
   29.4804306        -6.07993211E-10
   29.6072235        -1.02642650E-09
   29.7340164        -1.42551515E-09
   29.8608093        -1.78422299E-09
   29.9876022        -2.08219708E-09
   30.1143932        -2.30095409E-09
   30.2411861        -2.42505704E-09
   30.3679790        -2.44320875E-09
   30.4947720        -2.34918707E-09
   30.6215649        -2.14255791E-09
   30.7483578        -1.82909765E-09
   30.8751507        -1.42088252E-09
   31.0019417        -9.36004829E-10
   31.1287346        -3.97911898E-10
   31.2555275         1.65625944E-10
   31.3823204         7.23890115E-10
   31.5091133         1.24486188E-09
   31.6359062         1.69707060E-09
   31.7626991         2.05155204E-09
   31.8894920         2.28378871E-09
   32.0162849         2.37552444E-09
   32.1430779         2.31633179E-09
   32.2698708         2.10481832E-09
   32.3966637         1.74936776E-09
   32.5234528         1.26834632E-09
   32.6502457         6.89717061E-10
   32.7770386         5.00493397E-11
   32.9038315        -6.07063400E-10
   33.0306244        -1.23312205E-09
   33.1574173        -1.77729031E-09
   33.2842102        -2.18928253E-09
   33.4110031        -2.42244891E-09
   33.5377960        -2.43686160E-09
   33.6645889        -2.20225971E-09
   33.7913818        -1.70064895E-09
   33.9181747        -9.28410016E-10
   34.0449677         1.02230863E-10
   34.1717606         1.36249734E-09
   34.2985535         2.80719004E-09
   34.4253426         4.37569447E-09
   34.5521355         5.99385785E-09
   34.6789284         7.57669216E-09
   34.8057213         9.03176822E-09
   34.9325142         1.02632267E-08
   35.0593071         1.11761613E-08
   35.1861000         1.16812258E-08
   35.3128929         1.16992291E-08
   35.4396858         1.11654943E-08
   35.5664787         1.00337711E-08
   35.6932716         8.27951840E-09
   35.8200645         5.90235238E-09
   35.9468575         2.92756175E-09
   36.0736504        -5.93420590E-10
   36.2004433        -4.58363747E-09
   36.3272324        -8.94229402E-09
   36.4540253        -1.35474751E-08
   36.5808182        -1.82597812E-08
   36.7076111        -2.29267521E-08
   36.8344040        -2.73878875E-08
   36.9611969        -3.14800950E-08
   37.0879898        -3.50433105E-08
   37.2147827        -3.79261174E-08
   37.3415756        -3.99911215E-08
   37.4683685        -4.11198862E-08
   37.5951614        -4.12172874E-08
   37.7219543        -4.02150881E-08
   37.8487473        -3.80746634E-08
   37.9755402        -3.47887870E-08
   38.1023293        -3.03824272E-08
   38.2291222        -2.49125893E-08
   38.3559151        -1.84671887E-08
   38.4827080        -1.11630660E-08
   38.6095009        -3.14319415E-09
   38.7362938         5.42676970E-09
   38.8630867         1.43625165E-08
   38.9898796         2.34654962E-08
   39.1166725         3.25276766E-08
   39.2434654         4.13364134E-08
   39.3702583         4.96793540E-08
   39.4970512         5.73493004E-08
   39.6238441         6.41488498E-08
   39.7506371         6.98948099E-08
   39.8774300         7.44222532E-08
   40.0042191         7.75882540E-08
   40.1310120         7.92751251E-08
   40.2578049         7.93932884E-08
   40.3845978         7.78836764E-08
   40.5113907         7.47195728E-08
   40.6381836         6.99080616E-08
   40.7649765         6.34908659E-08
   40.8917694         5.55447386E-08
   41.0185623         4.61811283E-08
   41.1453552         3.55452876E-08
   41.2721481         2.38145947E-08
   41.3989410         1.11961072E-08
   41.5257339        -2.07683115E-09
   41.6525269        -1.57489541E-08
   41.7793198        -2.95485538E-08
   41.9061089        -4.31941061E-08
   42.0329018        -5.64021327E-08
   42.1596947        -6.88963624E-08
   42.2864876        -8.04180900E-08
   42.4132805        -9.07378066E-08
   42.5400734        -9.96678793E-08
   42.6668663        -1.07076289E-07
   42.7936592        -1.12900977E-07
   42.9204521        -1.17164838E-07
   43.0472450        -1.19990858E-07
   43.1740379        -1.21617077E-07
   43.3008308        -1.22411009E-07
   43.4276237        -1.22883151E-07
   43.5544167        -1.23699024E-07
   43.6812096        -1.25689411E-07
   43.8079987        -1.29858307E-07
   43.9347916        -1.37388071E-07
   44.0615845        -1.49641480E-07
   44.1883774        -1.68160213E-07
   44.3151703        -1.94659478E-07
   44.4419632        -2.31018291E-07
   44.5687561        -2.79265578E-07
   44.6955490        -3.41561218E-07
   44.8223419        -4.20172938E-07
   44.9491348        -5.17447461E-07
   45.0759277        -6.35777724E-07
   45.2027206        -7.77565162E-07
   45.3295135        -9.45177476E-07
   45.4563065        -1.14090244E-06
   45.5830994        -1.36689869E-06
   45.7098885        -1.62514243E-06
   45.8366814        -1.91737331E-06
   45.9634743        -2.24503992E-06
   46.0902672        -2.60924162E-06
   46.2170601        -3.01067666E-06
   46.3438530        -3.44958880E-06
   46.4706459        -3.92572110E-06
   46.5974388        -4.43827184E-06
   46.7242317        -4.98586132E-06
   46.8510246        -5.56650866E-06
   46.9778175        -6.17761179E-06
   47.1046104        -6.81594975E-06
   47.2314034        -7.47768991E-06
   47.3581963        -8.15841668E-06
   47.4849892        -8.85316695E-06
   47.6117783        -9.55649284E-06
   47.7385712        -1.02625336E-05
   47.8653641        -1.09650964E-05
   47.9921570        -1.16577658E-05
   48.1189499        -1.23340178E-05
   48.2457428        -1.29873415E-05
   48.3725357        -1.36113795E-05
   48.4993286        -1.42000654E-05
   48.6261215        -1.47477658E-05
   48.7529144        -1.52494204E-05
   48.8797073        -1.57006780E-05
   49.0065002        -1.60980235E-05
   49.1332932        -1.64388839E-05
   49.2600861        -1.67217295E-05
   49.3868790        -1.69461382E-05
   49.5136681        -1.71128540E-05
   49.6404610        -1.72238033E-05
   49.7672539        -1.72820928E-05
   49.8940468        -1.72919717E-05
   50.0208397        -1.72587606E-05
   50.1476326        -1.71887732E-05
   50.2744255        -1.70891744E-05
   50.4012184        -1.69678460E-05
   50.5280113        -1.68332153E-05
   50.6548042        -1.66940608E-05
   50.7815971        -1.65593265E-05
   50.9083900        -1.64378998E-05
   51.0351830        -1.63384138E-05
   51.1619759        -1.62690339E-05
   51.2887688        -1.62372598E-05
   51.4155579        -1.62497545E-05
   51.5423508        -1.63121695E-05
   51.6691437        -1.64290159E-05
   51.7959366        -1.66035497E-05
   51.9227295        -1.68376973E-05
   52.0495224        -1.71320080E-05
   52.1763153        -1.74856414E-05
   52.3031082        -1.78963855E-05
   52.4299011        -1.83607226E-05
   52.5566940        -1.88739050E-05
   52.6834869        -1.94300665E-05
   52.8102798        -2.00223694E-05
   52.9370728        -2.06431541E-05
   53.0638657        -2.12841132E-05
   53.1906586        -2.19364774E-05
   53.3174477        -2.25911990E-05
   53.4442406        -2.32391485E-05
   53.5710335        -2.38712892E-05
   53.6978264        -2.44788735E-05
   53.8246193        -2.50535868E-05
   53.9514122        -2.55877185E-05
   54.0782051        -2.60742818E-05
   54.2049980        -2.65071321E-05
   54.3317909        -2.68810709E-05
   54.4585838        -2.71919071E-05
   54.5853767        -2.74365138E-05
   54.7121696        -2.76128703E-05
   54.8389626        -2.77200743E-05
   54.9657555        -2.77583295E-05
   55.0925484        -2.77289437E-05
   55.2193375        -2.76342889E-05
   55.3461304        -2.74777485E-05
   55.4729233        -2.72636717E-05
   55.5997162        -2.69972952E-05
   55.7265091        -2.66846728E-05
   55.8533020        -2.63325765E-05
   55.9800949        -2.59484113E-05
   56.1068878        -2.55401064E-05
   56.2336807        -2.51160018E-05
   56.3604736        -2.46847285E-05
   56.4872665        -2.42550868E-05
   56.6140594        -2.38359189E-05
   56.7408524        -2.34359577E-05
   56.8676453        -2.30637070E-05
   56.9944382        -2.27272885E-05
   57.1212273        -2.24343094E-05
   57.2480202        -2.21917235E-05
   57.3748131        -2.20057063E-05
   57.5016060        -2.18815367E-05
   57.6283989        -2.18234891E-05
   57.7551918        -2.18347523E-05
   57.8819847        -2.19173526E-05
   58.0087776        -2.20721195E-05
   58.1355705        -2.22986600E-05
   58.2623634        -2.25953645E-05
   58.3891563        -2.29594516E-05
   58.5159492        -2.33870232E-05
   58.6427422        -2.38731573E-05
   58.7695351        -2.44120238E-05
   58.8963280        -2.49970253E-05
   59.0231171        -2.56209405E-05
   59.1499100        -2.62761096E-05
   59.2767029        -2.69545872E-05
   59.4034958        -2.76483479E-05
   59.5302887        -2.83494319E-05
   59.6570816        -2.90501248E-05
   59.7838745        -2.97430906E-05
   59.9106674        -3.04214955E-05
   60.0374603        -3.10791038E-05
   60.1642532        -3.17103477E-05
   60.2910461        -3.23103486E-05
   60.4178391        -3.28749156E-05
   60.5446320        -3.34005199E-05
   60.6714249        -3.38842146E-05
   60.7982178        -3.43235552E-05
   60.9250069        -3.47164751E-05
   61.0517998        -3.50611663E-05
   61.1785927        -3.53559408E-05
   61.3053856        -3.55990924E-05
   61.4321785        -3.57887729E-05
   61.5589714        -3.59228980E-05
   61.6857643        -3.59990445E-05
   61.8125572        -3.60144186E-05
   61.9393501        -3.59658370E-05
   62.0661430        -3.58497564E-05
   62.1929359        -3.56623605E-05
   62.3197289        -3.53996656E-05
   62.4465218        -3.50576884E-05
   62.5733147        -3.46326487E-05
   62.7001076        -3.41211889E-05
   62.8268967        -3.35206460E-05
   62.9536896        -3.28293099E-05
   63.0804825        -3.20466970E-05
   63.2072754        -3.11738186E-05
   63.3340683        -3.02134104E-05
   63.4608612        -2.91701508E-05
   63.5876541        -2.80508229E-05
   63.7144470        -2.68644180E-05
   63.8412399        -2.56221938E-05
   63.9680328        -2.43376307E-05
   64.0948257        -2.30263522E-05
   64.2216187        -2.17059387E-05
   64.3484116        -2.03956934E-05
   64.4752045        -1.91163181E-05
   64.6019974        -1.78895389E-05
   64.7287903        -1.67376784E-05
   64.8555832        -1.56831866E-05
   64.9823761        -1.47481351E-05
   65.1091690        -1.39537178E-05
   65.2359619        -1.33197400E-05
   65.3627548        -1.28641313E-05
   65.4895477        -1.26024997E-05
   65.6163330        -1.25477263E-05
   65.7431259        -1.27096346E-05
   65.8699188        -1.30947283E-05
   65.9967117        -1.37060142E-05
   66.1235046        -1.45429158E-05
   66.2502975        -1.56012811E-05
   66.3770905        -1.68734823E-05
   66.5038834        -1.83486045E-05
   66.6306763        -2.00127124E-05
   66.7574692        -2.18492041E-05
   66.8842621        -2.38392040E-05
   67.0110550        -2.59620156E-05
   67.1378479        -2.81956218E-05
   67.2646408        -3.05171543E-05
   67.3914337        -3.29034083E-05
   67.5182266        -3.53313117E-05
   67.6450195        -3.77783726E-05
   67.7718124        -4.02230544E-05
   67.8986053        -4.26451443E-05
   68.0253983        -4.50259759E-05
   68.1521912        -4.73486471E-05
   68.2789841        -4.95981185E-05
   68.4057770        -5.17612280E-05
   68.5325699        -5.38266686E-05
   68.6593628        -5.57848543E-05
   68.7861557        -5.76277380E-05
   68.9129486        -5.93485929E-05
   69.0397415        -6.09417439E-05
   69.1665344        -6.24022723E-05
   69.2933273        -6.37257472E-05
   69.4201126        -6.49079448E-05
   69.5469055        -6.59445577E-05
   69.6736984        -6.68310386E-05
   69.8004913        -6.75623960E-05
   69.9272842        -6.81331003E-05
   70.0540771        -6.85370978E-05
   70.1808701        -6.87677893E-05
   70.3076630        -6.88182190E-05
   70.4344559        -6.86812273E-05
   70.5612488        -6.83497055E-05
   70.6880417        -6.78169308E-05
   70.8148346        -6.70769150E-05
   70.9416275        -6.61248196E-05
   71.0684204        -6.49573485E-05
   71.1952133        -6.35731776E-05
   71.3220062        -6.19733401E-05
   71.4487991        -6.01616157E-05
   71.5755920        -5.81448112E-05
   71.7023849        -5.59330620E-05
   71.8291779        -5.35399886E-05
   71.9559708        -5.09828205E-05
   72.0827637        -4.82823853E-05
   72.2095566        -4.54630390E-05
   72.3363495        -4.25524850E-05
   72.4631424        -3.95815186E-05
   72.5899353        -3.65836677E-05
   72.7167282        -3.35947734E-05
   72.8435211        -3.06524817E-05
   72.9703140        -2.77957261E-05
   73.0971069        -2.50641151E-05
   73.2238922        -2.24973337E-05
   73.3506851        -2.01345192E-05
   73.4774780        -1.80136394E-05
   73.6042709        -1.61708958E-05
   73.7310638        -1.46401399E-05
   73.8578568        -1.34523398E-05
   73.9846497        -1.26350942E-05
   74.1114426        -1.22121910E-05
   74.2382355        -1.22032334E-05
   74.3650284        -1.26233226E-05
   74.4918213        -1.34828088E-05
   74.6186142        -1.47871015E-05
   74.7454071        -1.65365473E-05
   74.8722000        -1.87263631E-05
   74.9989929        -2.13466337E-05
   75.1257858        -2.43823670E-05
   75.2525787        -2.78135958E-05
   75.3793716        -3.16155492E-05
   75.5061646        -3.57588506E-05
   75.6329575        -4.02097867E-05
   75.7597504        -4.49306208E-05
   75.8865433        -4.98799272E-05
   76.0133362        -5.50130135E-05
   76.1401291        -6.02823238E-05
   76.2669220        -6.56379489E-05
   76.3937149        -7.10281092E-05
   76.5205078        -7.63997086E-05
   76.6473007        -8.16988468E-05
   76.7740936        -8.68714415E-05
   76.9008865        -9.18637816E-05
   77.0276718        -9.66230655E-05
   77.1544647        -1.01098012E-04
   77.2812576        -1.05239349E-04
   77.4080505        -1.09000328E-04
   77.5348434        -1.12337155E-04
   77.6616364        -1.15209426E-04
   77.7884293        -1.17580472E-04
   77.9152222        -1.19417593E-04
   78.0420151        -1.20692333E-04
   78.1688080        -1.21380595E-04
   78.2956009        -1.21462755E-04
   78.4223938        -1.20923673E-04
   78.5491867        -1.19752680E-04
   78.6759796        -1.17943513E-04
   78.8027725        -1.15494251E-04
   78.9295654        -1.12407157E-04
   79.0563583        -1.08688568E-04
   79.1831512        -1.04348772E-04
   79.3099442        -9.94018992E-05
   79.4367371        -9.38657831E-05
   79.5635300        -8.77619095E-05
   79.6903229        -8.11153295E-05
   79.8171158        -7.39546231E-05
   79.9439087        -6.63118772E-05
   80.0707016        -5.82226603E-05
   80.1974945        -4.97260116E-05
   80.3242874        -4.08644082E-05
   80.4510803        -3.16836995E-05
   80.5778732        -2.22330273E-05
   80.7046585        -1.25646557E-05
   80.8314514        -2.73375599E-06
   80.9582443         7.20189382E-06
   81.0850372         1.71823121E-05
   81.2118301         2.71457993E-05
   81.3386230         3.70295238E-05
   81.4654160         4.67702266E-05
   81.5922089         5.63049944E-05
   81.7190018         6.55721160E-05
   81.8457947         7.45119978E-05
   81.9725876         8.30681311E-05
   82.0993805         9.11880634E-05
   82.2261734         9.88243701E-05
   82.3529663         1.05935564E-04
   82.4797592         1.12486952E-04
   82.6065521         1.18451375E-04
   82.7333450         1.23809790E-04
   82.8601379         1.28551750E-04
   82.9869308         1.32675632E-04
   83.1137238         1.36188726E-04
   83.2405167         1.39107011E-04
   83.3673096         1.41454861E-04
   83.4941025         1.43264377E-04
   83.6208954         1.44574660E-04
   83.7476883         1.45430706E-04
   83.8744812         1.45882354E-04
   84.0012741         1.45982951E-04
   84.1280670         1.45787970E-04
   84.2548599         1.45353522E-04
   84.3816528         1.44734935E-04
   84.5084381         1.43985308E-04
   84.6352310         1.43154131E-04
   84.7620239         1.42286095E-04
   84.8888168         1.41419921E-04
   85.0156097         1.40587523E-04
   85.1424026         1.39813332E-04
   85.2691956         1.39113807E-04
   85.3959885         1.38497300E-04
   85.5227814         1.37964045E-04
   85.6495743         1.37506489E-04
   85.7763672         1.37109892E-04
   85.9031601         1.36752977E-04
   86.0299530         1.36408984E-04
   86.1567459         1.36046685E-04
   86.2835388         1.35631664E-04
   86.4103317         1.35127557E-04
   86.5371246         1.34497415E-04
   86.6639175         1.33705063E-04
   86.7907104         1.32716290E-04
   86.9175034         1.31500114E-04
   87.0442963         1.30029832E-04
   87.1710892         1.28283951E-04
   87.2978821         1.26246960E-04
   87.4246750         1.23909893E-04
   87.5514679         1.21270714E-04
   87.6782608         1.18334538E-04
   87.8050537         1.15113595E-04
   87.9318466         1.11627051E-04
   88.0586395         1.07900596E-04
   88.1854324         1.03966006E-04
   88.3122177         9.98603718E-05
   88.4390106         9.56254007E-05
   88.5658035         9.13064723E-05
   88.6925964         8.69517244E-05
   88.8193893         8.26110627E-05
   88.9461823         7.83351134E-05
   89.0729752         7.41742479E-05
   89.1997681         7.01775643E-05
   89.3265610         6.63919782E-05
   89.4533539         6.28613270E-05
   89.5801468         5.96255632E-05
   89.7069397         5.67200805E-05
   89.8337326         5.41750960E-05
   89.9605255         5.20151734E-05
   90.0873184         5.02589028E-05
   90.2141113         4.89186532E-05
   90.3409042         4.80005001E-05
   90.4676971         4.75042725E-05
   90.5944901         4.74237168E-05
   90.7212830         4.77468093E-05
   90.8480759         4.84561424E-05
   90.9748688         4.95294589E-05
   91.1016617         5.09402416E-05
   91.2284546         5.26583754E-05
   91.3552475         5.46508563E-05
   91.4820404         5.68825635E-05
   91.6088333         5.93169971E-05
   91.7356262         6.19170387E-05
   91.8624191         6.46456756E-05
   91.9892120         6.74666444E-05
   92.1159973         7.03450569E-05
   92.2427902         7.32479020E-05
   92.3695831         7.61444680E-05
   92.4963760         7.90066770E-05
   92.6231689         8.18092958E-05
   92.7499619         8.45300165E-05
   92.8767548         8.71495067E-05
   93.0035477         8.96513302E-05
   93.1303406         9.20217062E-05
   93.2571335         9.42493425E-05
   93.3839264         9.63251005E-05
   93.5107193         9.82416750E-05
   93.6375122         9.99932527E-05
   93.7643051         1.01575133E-04
   93.8910980         1.02983417E-04
   94.0178909         1.04214691E-04
   94.1446838         1.05265783E-04
   94.2714767         1.06133550E-04
   94.3982697         1.06814761E-04
   94.5250626         1.07306034E-04
   94.6518555         1.07603839E-04
   94.7786484         1.07704574E-04
   94.9054413         1.07604705E-04
   95.0322342         1.07300955E-04
   95.1590271         1.06790518E-04
   95.2858200         1.06071348E-04
   95.4126129         1.05142346E-04
   95.5394058         1.04003680E-04
   95.6661987         1.02656981E-04
   95.7929916         1.01105543E-04
   95.9197769         9.93544381E-05
   96.0465698         9.74106370E-05
   96.1733627         9.52829578E-05
   96.3001556         9.29820235E-05
   96.4269485         9.05201377E-05
   96.5537415         8.79110230E-05
   96.6805344         8.51695877E-05
   96.8073273         8.23115552E-05
   96.9341202         7.93531362E-05
   97.0609131         7.63105927E-05
   97.1877060         7.31998589E-05
   97.3144989         7.00361416E-05
   97.4412918         6.68335997E-05
   97.5680847         6.36050172E-05
   97.6948776         6.03615626E-05
   97.8216705         5.71126475E-05
   97.9484634         5.38658569E-05
   98.0752563         5.06269789E-05