  -4.50000000         0.00000000    
  -4.37500000         0.00000000    
  -4.25000000         0.00000000    
  -4.12500000         0.00000000    
  -4.00000000         0.00000000    
  -3.87500000         0.00000000    
  -3.75000000        -2.05356971E-33
  -3.62500000        -6.04507080E-32
  -3.50000000         2.80168852E-32
  -3.37500000         9.39190082E-31
  -3.25000000         1.78744937E-30
  -3.12500000         8.07198015E-30
  -3.00000000         5.49610212E-29
  -2.87500000         1.78190674E-28
  -2.75000000         3.49058384E-28
  -2.62500000         3.18466864E-28
  -2.50000000        -5.18513545E-28
  -2.37500000        -3.00366166E-27
  -2.25000000        -7.38808759E-27
  -2.12500000        -1.14580960E-26
  -2.00000000        -8.01821643E-27
  -1.87500000         1.63882094E-26
  -1.75000000         7.77793556E-26
  -1.62500000         1.81550902E-25
  -1.50000000         2.97825486E-25
  -1.37500000         3.31203522E-25
  -1.25000000         1.03775416E-25
  -1.12500000        -6.16496622E-25
  -1.00000000        -2.00721989E-24
 -0.875000000        -3.99077593E-24
 -0.750000000        -5.98913060E-24
 -0.625000000        -6.77636566E-24
 -0.500000000        -4.66916357E-24
 -0.375000000         1.66598233E-24
 -0.250000000         1.16171152E-23
 -0.125000000         2.03985672E-23
   0.00000000         1.69014774E-23
  0.125000000        -1.70027151E-23
  0.250000000        -1.03847189E-22
  0.375000000        -2.62900531E-22
  0.500000000        -4.96861555E-22
  0.625000000        -7.74772077E-22
  0.750000000        -1.01648138E-21
  0.875000000        -1.08758347E-21
   1.00000000        -8.15793298E-22
   1.12500000        -3.81477451E-23
   1.25000000         1.31858274E-21
   1.37500000         3.13485094E-21
   1.50000000         5.00038516E-21
   1.62500000         6.16572593E-21
   1.75000000         5.59650127E-21
   1.87500000         2.17646204E-21
   2.00000000        -4.92446428E-21
   2.12500000        -1.57540732E-20
   2.25000000        -2.90594688E-20
   2.37500000        -4.19184664E-20
   2.50000000        -4.97305540E-20
   2.62500000        -4.67581031E-20
   2.75000000        -2.73121015E-20
   2.87500000         1.24982976E-20
   3.00000000         7.27602542E-20
   3.12500000         1.48025819E-19
   3.25000000         2.26523204E-19
   3.37500000         2.90952741E-19
   3.50000000         3.21261001E-19
   3.62500000         2.99316959E-19
   3.75000000         2.14799470E-19
   3.87500000         7.09987537E-20
   4.00000000        -1.11160059E-19
   4.12500000        -2.92548786E-19
   4.25000000        -4.19858888E-19
   4.37500000        -4.34306735E-19
   4.50000000        -2.83777544E-19
   4.62500000         6.40937279E-20
   4.75000000         6.11145025E-19
   4.87500000         1.32330896E-18
   5.00000000         2.13255144E-18
   5.12500000         2.94606517E-18
   5.25000000         3.66042062E-18
   5.37500000         4.17671202E-18
   5.50000000         4.41238818E-18
   5.62500000         4.30683911E-18
   5.75000000         3.82071623E-18
   5.87500000         2.93239601E-18
   6.00000000         1.63753999E-18
   6.12500000        -4.22342426E-20
   6.25000000        -2.03883395E-18
   6.37500000        -4.20894477E-18
   6.50000000        -6.30832709E-18
   6.62500000        -7.98633369E-18
   6.75000000        -8.81870403E-18
   6.87500000        -8.38999204E-18
   7.00000000        -6.42267902E-18
   7.12500000        -2.93085146E-18
   7.25000000         1.64199363E-18
   7.37500000         6.35162090E-18
   7.50000000         9.79466549E-18
   7.62500000         1.02881151E-17
   7.75000000         6.17553648E-18
   7.87500000        -3.79335682E-18
   8.00000000        -2.00985103E-17
   8.12500000        -4.22045184E-17
   8.25000000        -6.85235294E-17
   8.37500000        -9.66282216E-17
   8.50000000        -1.23687708E-16
   8.62500000        -1.47025253E-16
   8.75000000        -1.64641434E-16
   8.87500000        -1.75530638E-16
   9.00000000        -1.79655119E-16
   9.12500000        -1.77526512E-16
   9.25000000        -1.69462441E-16
   9.37500000        -1.54704056E-16
   9.50000000        -1.30666783E-16
   9.62500000        -9.26191353E-17
   9.75000000        -3.40312394E-17
   9.87500000         5.22923863E-17
   10.0000000         1.72358235E-16
   10.1250000         3.28659398E-16
   10.2500000         5.17797117E-16
   10.3750000         7.28563743E-16
   10.5000000         9.41018664E-16
   10.6250000         1.12701259E-15
   10.7500000         1.25245108E-15
   10.8750000         1.28135746E-15
   11.0000000         1.18151662E-15
   11.1250000         9.31174341E-16
   11.2500000         5.25978132E-16
   11.3750000        -1.49094061E-17
   11.5000000        -6.44753221E-16
   11.6250000        -1.28848217E-15
   11.7500000        -1.84628491E-15
   11.8750000        -2.20220202E-15
   12.0000000        -2.23772192E-15
   12.1250000        -1.84953858E-15
   12.2500000        -9.69744304E-16
   12.3750000         4.14105752E-16
   12.5000000         2.24218706E-15
   12.6250000         4.37211768E-15
   12.7500000         6.57806168E-15
   12.8750000         8.56116274E-15
   13.0000000         9.97181057E-15
   13.1250000         1.04425940E-14
   13.2500000         9.62912645E-15
   13.3750000         7.25453226E-15
   13.5000000         3.15260898E-15
   13.6250000        -2.69545281E-15
   13.7500000        -1.01352430E-14
   13.8750000        -1.88274079E-14
   14.0000000        -2.82515100E-14
   14.1250000        -3.77253364E-14
   14.2500000        -4.64378800E-14
   14.3750000        -5.34932985E-14
   14.5000000        -5.79627356E-14
   14.6250000        -5.89410248E-14
   14.7500000        -5.56057716E-14
   14.8750000        -4.72772083E-14
   15.0000000        -3.34772561E-14
   15.1250000        -1.39865214E-14
   15.2500000         1.11030163E-14
   15.3750000         4.13429294E-14
   15.5000000         7.58958123E-14
   15.6250000         1.13521531E-13
   15.7500000         1.52589042E-13
   15.8750000         1.91120083E-13
   16.0000000         2.26868830E-13
   16.1250000         2.57437734E-13
   16.2500000         2.80425151E-13
   16.3750000         2.93593763E-13
   16.5000000         2.95044317E-13
   16.6250000         2.83373504E-13
   16.7500000         2.57794030E-13
   16.8750000         2.18194359E-13
   17.0000000         1.65121172E-13
   17.1250000         9.96736805E-14
   17.2500000         2.33103484E-14
   17.3750000        -6.24196333E-14
   17.5000000        -1.56195667E-13
   17.6250000        -2.57258055E-13
   17.7500000        -3.65707681E-13
   17.8750000        -4.82720309E-13
   18.0000000        -6.10620820E-13
   18.1250000        -7.52766501E-13
   18.2500000        -9.13198120E-13
   18.3750000        -1.09602995E-12
   18.5000000        -1.30457038E-12
   18.6250000        -1.54018866E-12
   18.7500000        -1.80097192E-12
   18.8750000        -2.08024743E-12
   19.0000000        -2.36508122E-12
   19.1250000        -2.63489664E-12
   19.2500000        -2.86038966E-12
   19.3750000        -3.00294403E-12
   19.5000000        -3.01476465E-12
   19.6250000        -2.83994594E-12
   19.7500000        -2.41667255E-12
   19.8750000        -1.68069746E-12
   20.0000000        -5.70168533E-13
   20.1250000         9.68232764E-13
   20.2500000         2.97201044E-12
   20.3750000         5.45474473E-12
   20.5000000         8.39762981E-12
   20.6250000         1.17412833E-11
   20.7500000         1.53785578E-11
   20.8750000         1.91491944E-11
   21.0000000         2.28371749E-11
   21.1250000         2.61716065E-11
   21.2500000         2.88318362E-11
   21.3750000         3.04574144E-11
   21.5000000         3.06631560E-11
   21.6250000         2.90594077E-11
   21.7500000         2.52771484E-11
   21.8750000         1.89972985E-11
   22.0000000         9.98310028E-12
   22.1250000        -1.88585844E-12
   22.2500000        -1.65798555E-11
   22.3750000        -3.38876566E-11
   22.5000000        -5.33900320E-11
   22.6250000        -7.44407869E-11
   22.7500000        -9.61579427E-11
   22.8750000        -1.17427706E-10
   23.0000000        -1.36923320E-10
   23.1250000        -1.53140695E-10
   23.2500000        -1.64451675E-10
   23.3750000        -1.69175118E-10
   23.5000000        -1.65664787E-10
   23.6250000        -1.52411792E-10
   23.7500000        -1.28158179E-10
   23.8750000        -9.20166165E-11
   24.0000000        -4.35907005E-11
   24.1250000         1.69117116E-11
   24.2500000         8.85794008E-11
   24.3750000         1.69721445E-10
   24.5000000         2.57821597E-10
   24.6250000         3.49531071E-10
   24.7500000         4.40706499E-10
   24.8750000         5.26497734E-10
   25.0000000         6.01489081E-10
   25.1250000         6.59893862E-10
   25.2500000         6.95800029E-10
   25.3750000         7.03460956E-10
   25.5000000         6.77622680E-10
   25.6250000         6.13875062E-10
   25.7500000         5.09011056E-10
   25.8750000         3.61377289E-10
   26.0000000         1.71195461E-10
   26.1250000        -5.91664148E-11
   26.2500000        -3.24993116E-10
   26.3750000        -6.19112261E-10
   26.5000000        -9.31892230E-10
   26.6250000        -1.25136301E-09
   26.7500000        -1.56346813E-09
   26.8750000        -1.85245397E-09
   27.0000000        -2.10139262E-09
   27.1250000        -2.29283037E-09
   27.2500000        -2.40954345E-09
   27.3750000        -2.43538256E-09
   27.5000000        -2.35616748E-09
   27.6250000        -2.16060547E-09
   27.7500000        -1.84118354E-09
   27.8750000        -1.39499434E-09
   28.0000000        -8.24447899E-10
   28.1250000        -1.37822004E-10
   28.2500000         6.50392407E-10
   28.3750000         1.51938973E-09
   28.5000000         2.44222509E-09
   28.6250000         3.38628703E-09
   28.7500000         4.31408154E-09
   28.8750000         5.18432053E-09
   29.0000000         5.95330274E-09
   29.1250000         6.57654864E-09
   29.2500000         7.01064540E-09
   29.3750000         7.21523996E-09
   29.5000000         7.15509874E-09
   29.6250000         6.80215528E-09
   29.7500000         6.13744744E-09
   29.8750000         5.15284437E-09
   30.0000000         3.85247212E-09
   30.1250000         2.25374075E-09
   30.2500000         3.87893773E-10
   30.3750000        -1.69998837E-09
   30.5000000        -3.95157551E-09
   30.6250000        -6.29649000E-09
   30.7500000        -8.65412630E-09
   30.8750000        -1.09360441E-08
   31.0000000        -1.30488864E-08
   31.1250000        -1.48977302E-08
   31.2500000        -1.63897482E-08
   31.3750000        -1.74380475E-08
   31.5000000        -1.79655384E-08
   31.6250000        -1.79086488E-08
   31.7500000        -1.72207280E-08
   31.8750000        -1.58749760E-08
   32.0000000        -1.38667282E-08
   32.1250000        -1.12149952E-08
   32.2500000        -7.96312349E-09
   32.3750000        -4.17852819E-09
   32.5000000         4.85309813E-11
   32.6250000         4.60712002E-09
   32.7500000         9.36868627E-09
   32.8750000         1.41908991E-08
   33.0000000         1.89221385E-08
   33.1250000         2.34064590E-08
   33.2500000         2.74888201E-08
   33.3750000         3.10204236E-08
   33.5000000         3.38638557E-08
   33.6250000         3.58979371E-08
   33.7500000         3.70219695E-08
   33.8750000         3.71593210E-08
   34.0000000         3.62601540E-08
   34.1250000         3.43032198E-08
   34.2500000         3.12967074E-08
   34.3750000         2.72780909E-08
   34.5000000         2.23130687E-08
   34.6250000         1.64936722E-08
   34.7500000         9.93564164E-09
   34.8750000         2.77524426E-09
   35.0000000        -4.83432450E-09
   35.1250000        -1.27267867E-08
   35.2500000        -2.07267039E-08
   35.3750000        -2.86533641E-08
   35.5000000        -3.63244901E-08
   35.6250000        -4.35596945E-08
   35.7500000        -5.01836581E-08
   35.8750000        -5.60289770E-08
   36.0000000        -6.09387598E-08
   36.1250000        -6.47689831E-08
   36.2500000        -6.73907081E-08
   36.3750000        -6.86922732E-08
   36.5000000        -6.85814570E-08
   36.6250000        -6.69878304E-08
   36.7500000        -6.38652011E-08
   36.8750000        -5.91942779E-08
   37.0000000        -5.29854560E-08
   37.1250000        -4.52816451E-08
   37.2500000        -3.61610546E-08
   37.3750000        -2.57396593E-08
   37.5000000        -1.41732022E-08
   37.6250000        -1.65841074E-09
   37.7500000         1.15668479E-08
   37.8750000         2.52247307E-08
   38.0000000         3.90001986E-08
   38.1250000         5.25455910E-08
   38.2500000         6.54871712E-08
   38.3750000         7.74337039E-08
   38.5000000         8.79869759E-08
   38.6250000         9.67542277E-08
   38.7500000         1.03362083E-07
   38.8750000         1.07471635E-07
   39.0000000         1.08794247E-07
   39.1250000         1.07107283E-07
   39.2500000         1.02269269E-07
   39.3750000         9.42335774E-08
   39.5000000         8.30599305E-08
   39.6250000         6.89229580E-08
   39.7500000         5.21171160E-08
   39.8750000         3.30572902E-08
   40.0000000         1.22747128E-08
   40.1250000        -9.59222657E-09
   40.2500000        -3.18122666E-08
   40.3750000        -5.35806812E-08
   40.5000000        -7.40433563E-08
   40.6250000        -9.23250312E-08
   40.7500000        -1.07560879E-07
   40.8750000        -1.18930416E-07
   41.0000000        -1.25692623E-07
   41.1250000        -1.27220844E-07
   41.2500000        -1.23036244E-07
   41.3750000        -1.12838251E-07
   41.5000000        -9.65306910E-08
   41.6250000        -7.42423225E-08
   41.7500000        -4.63405598E-08
   41.8750000        -1.34377123E-08
   42.0000000         2.36112250E-08
   42.1250000         6.37192699E-08
   42.2500000         1.05586764E-07
   42.3750000         1.47728855E-07
   42.5000000         1.88510569E-07
   42.6250000         2.26188234E-07
   42.7500000         2.58955936E-07
   42.8750000         2.84995480E-07
   43.0000000         3.02528065E-07
   43.1250000         3.09865300E-07
   43.2500000         3.05458201E-07
   43.3750000         2.87941589E-07
   43.5000000         2.56172456E-07
   43.6250000         2.09260349E-07
   43.7500000         1.46588661E-07
   43.8750000         6.78254892E-08
   44.0000000        -2.70762737E-08
   44.1250000        -1.37890069E-07
   44.2500000        -2.64137441E-07
   44.3750000        -4.05119948E-07
   44.5000000        -5.59959744E-07
   44.6250000        -7.27647773E-07
   44.7500000        -9.07096307E-07
   44.8750000        -1.09719542E-06
   45.0000000        -1.29686873E-06
   45.1250000        -1.50512744E-06
   45.2500000        -1.72111936E-06
   45.3750000        -1.94416998E-06
   45.5000000        -2.17381489E-06
   45.6250000        -2.40981922E-06
   45.7500000        -2.65218341E-06
   45.8750000        -2.90113599E-06
   46.0000000        -3.15710986E-06
   46.1250000        -3.42070462E-06
   46.2500000        -3.69263421E-06
   46.3750000        -3.97366284E-06
   46.5000000        -4.26452925E-06
   46.6250000        -4.56586304E-06
   46.7500000        -4.87809803E-06
   46.8750000        -5.20138383E-06
   47.0000000        -5.53549717E-06
   47.1250000        -5.87976501E-06
   47.2500000        -6.23299547E-06
   47.3750000        -6.59342368E-06
   47.5000000        -6.95867629E-06
   47.6250000        -7.32575609E-06
   47.7500000        -7.69105282E-06
   47.8750000        -8.05037416E-06
   48.0000000        -8.39900622E-06
   48.1250000        -8.73180215E-06
   48.2500000        -9.04328499E-06
   48.3750000        -9.32777857E-06
   48.5000000        -9.57956217E-06
   48.6250000        -9.79302513E-06
   48.7500000        -9.96284507E-06
   48.8750000        -1.00841571E-05
   49.0000000        -1.01527276E-05
   49.1250000        -1.01651212E-05
   49.2500000        -1.01188434E-05
   49.3750000        -1.00124653E-05
   49.5000000        -9.84573035E-06
   49.6250000        -9.61961450E-06
   49.7500000        -9.33636147E-06
   49.8750000        -8.99947827E-06
   50.0000000        -8.61368699E-06
   50.1250000        -8.18484477E-06
   50.2500000        -7.71981740E-06
   50.3750000        -7.22632694E-06
   50.5000000        -6.71276302E-06
   50.6250000        -6.18797230E-06
   50.7500000        -5.66102790E-06
   50.8750000        -5.14098838E-06
   51.0000000        -4.63665583E-06
   51.1250000        -4.15633212E-06
   51.2500000        -3.70760040E-06
   51.3750000        -3.29711634E-06
   51.5000000        -2.93043377E-06
   51.6250000        -2.61186233E-06
   51.7500000        -2.34436470E-06
   51.8750000        -2.12949612E-06
   52.0000000        -1.96738824E-06
   52.1250000        -1.85677720E-06
   52.2500000        -1.79507458E-06
   52.3750000        -1.77847880E-06
   52.5000000        -1.80212430E-06
   52.6250000        -1.86025818E-06
   52.7500000        -1.94644167E-06
   52.8750000        -2.05376909E-06
   53.0000000        -2.17509296E-06
   53.1250000        -2.30325713E-06
   53.2500000        -2.43130762E-06
   53.3750000        -2.55270993E-06
   53.5000000        -2.66152529E-06
   53.6250000        -2.75257275E-06
   53.7500000        -2.82155588E-06
   53.8750000        -2.86515956E-06
   54.0000000        -2.88110959E-06
   54.1250000        -2.86819204E-06
   54.2500000        -2.82625183E-06
   54.3750000        -2.75614298E-06
   54.5000000        -2.65966901E-06
   54.6250000        -2.53948610E-06
   54.7500000        -2.39899123E-06
   54.8750000        -2.24219798E-06
   55.0000000        -2.07359972E-06
   55.1250000        -1.89803495E-06
   55.2500000        -1.72054627E-06
   55.3750000        -1.54625309E-06
   55.5000000        -1.38022517E-06
   55.6250000        -1.22737083E-06
   55.7500000        -1.09233565E-06
   55.8750000        -9.79416768E-07
   56.0000000        -8.92486241E-07
   56.1250000        -8.34928414E-07
   56.2500000        -8.09583582E-07
   56.3750000        -8.18707861E-07
   56.5000000        -8.63931859E-07
   56.6250000        -9.46224759E-07
   56.7500000        -1.06586765E-06
   56.8750000        -1.22242636E-06
   57.0000000        -1.41472765E-06
   57.1250000        -1.64083121E-06
   57.2500000        -1.89801335E-06
   57.3750000        -2.18275295E-06
   57.5000000        -2.49071809E-06
   57.6250000        -2.81676807E-06
   57.7500000        -3.15496823E-06
   57.8750000        -3.49861966E-06
   58.0000000        -3.84030955E-06
   58.1250000        -4.17198498E-06
   58.2500000        -4.48505352E-06
   58.3750000        -4.77050435E-06
   58.5000000        -5.01906698E-06
   58.6250000        -5.22138771E-06
   58.7500000        -5.36823791E-06
   58.8750000        -5.45073635E-06
   59.0000000        -5.46060073E-06
   59.1250000        -5.39039638E-06
   59.2500000        -5.23379867E-06
   59.3750000        -4.98584768E-06
   59.5000000        -4.64318964E-06
   59.6250000        -4.20429433E-06
   59.7500000        -3.66964855E-06
   59.8750000        -3.04189734E-06
   60.0000000        -2.32594107E-06
   60.1250000        -1.52897314E-06
   60.2500000        -6.60463627E-07
   60.3750000         2.67936315E-07
   60.5000000         1.24255519E-06
   60.6250000         2.24791825E-06
   60.7500000         3.26705208E-06
   60.8750000         4.28182921E-06
   61.0000000         5.27336897E-06
   61.1250000         6.22250491E-06
   61.2500000         7.11024904E-06
   61.3750000         7.91830007E-06
   61.5000000         8.62954403E-06
   61.6250000         9.22855634E-06
   61.7500000         9.70205110E-06
   61.8750000         1.00393190E-05
   62.0000000         1.02325803E-05
   62.1250000         1.02772792E-05
   62.2500000         1.01722917E-05
   62.3750000         9.92004243E-06
   62.5000000         9.52650771E-06
   62.6250000         9.00114355E-06
   62.7500000         8.35667106E-06
   62.8750000         7.60879720E-06
   63.0000000         6.77582011E-06
   63.1250000         5.87814793E-06
   63.2500000         4.93775724E-06
   63.3750000         3.97758095E-06
   63.5000000         3.02087324E-06
   63.6250000         2.09054633E-06
   63.7500000         1.20850484E-06
   63.8750000         3.95013956E-07
   64.0000000        -3.31900765E-07
   64.1250000        -9.56972599E-07
   64.2500000        -1.46815114E-06
   64.3750000        -1.85694569E-06
   64.5000000        -2.11866882E-06
   64.6250000        -2.25255280E-06
   64.7500000        -2.26174734E-06
   64.8750000        -2.15319824E-06
   65.0000000        -1.93739038E-06
   65.1250000        -1.62799336E-06
   65.2500000        -1.24139888E-06
   65.3750000        -7.96174220E-07
   65.5000000        -3.12448805E-07
   65.6250000         1.88743002E-07
   65.7500000         6.86143323E-07
   65.8750000         1.15894886E-06
   66.0000000         1.58746252E-06
   66.1250000         1.95370581E-06
   66.2500000         2.24194923E-06
   66.3750000         2.43916475E-06
   66.5000000         2.53537246E-06
   66.6250000         2.52387827E-06
   66.7500000         2.40138252E-06
   66.8750000         2.16797480E-06
   67.0000000         1.82701410E-06
   67.1250000         1.38488338E-06
   67.2500000         8.50658637E-07
   67.3750000         2.35694415E-07
   67.5000000        -4.46868597E-07
   67.6250000        -1.18263210E-06
   67.7500000        -1.95649227E-06
   67.8750000        -2.75318530E-06
   68.0000000        -3.55781935E-06
   68.1250000        -4.35635275E-06
   68.2500000        -5.13602254E-06
   68.3750000        -5.88567855E-06
   68.5000000        -6.59605030E-06
   68.6250000        -7.25988002E-06
   68.7500000        -7.87199588E-06
   68.8750000        -8.42925238E-06
   69.0000000        -8.93041124E-06
   69.1250000        -9.37590357E-06
   69.2500000        -9.76754563E-06
   69.3750000        -1.01081951E-05
   69.5000000        -1.04013725E-05
   69.6250000        -1.06508714E-05
   69.7500000        -1.08603608E-05
   69.8750000        -1.10330284E-05
   70.0000000        -1.11712570E-05
   70.1250000        -1.12763555E-05
   70.2500000        -1.13483675E-05
   70.3750000        -1.13859578E-05
   70.5000000        -1.13863716E-05
   70.6250000        -1.13455044E-05
   70.7500000        -1.12580274E-05
   70.8750000        -1.11176132E-05
   71.0000000        -1.09172188E-05
   71.1250000        -1.06494181E-05
   71.2500000        -1.03067987E-05
   71.3750000        -9.88235479E-06
   71.5000000        -9.36989363E-06
   71.6250000        -8.76444392E-06
   71.7500000        -8.06262688E-06
   71.8750000        -7.26298003E-06
   72.0000000        -6.36623645E-06
   72.1250000        -5.37552523E-06
   72.2500000        -4.29650299E-06
   72.3750000        -3.13740725E-06
   72.5000000        -1.90901096E-06
   72.6250000        -6.24515394E-07
   72.7500000         7.00654198E-07
   72.8750000         2.04911589E-06
   73.0000000         3.40186239E-06
   73.1250000         4.73864429E-06
   73.2500000         6.03839999E-06
   73.3750000         7.27970473E-06
   73.5000000         8.44123770E-06
   73.6250000         9.50224694E-06
   73.7500000         1.04430055E-05
   73.8750000         1.12452426E-05
   74.0000000         1.18925409E-05
   74.1250000         1.23706950E-05
   74.2500000         1.26680161E-05
   74.3750000         1.27755911E-05
   74.5000000         1.26874793E-05
   74.6250000         1.24008466E-05
   74.7500000         1.19160559E-05
   74.8750000         1.12366843E-05
   75.0000000         1.03695020E-05
   75.1250000         9.32439070E-06
   75.2500000         8.11423160E-06
   75.3750000         6.75473257E-06
   75.5000000         5.26424355E-06
   75.6250000         3.66351946E-06
   75.7500000         1.97547502E-06
   75.8750000         2.24892503E-07
   76.0000000        -1.56186320E-06
   76.1250000        -3.35718596E-06
   76.2500000        -5.13254690E-06
   76.3750000        -6.85885152E-06
   76.5000000        -8.50681590E-06
   76.6250000        -1.00473435E-05
   76.7500000        -1.14519016E-05
   76.8750000        -1.26929408E-05
   77.0000000        -1.37443103E-05
   77.1250000        -1.45816475E-05
   77.2500000        -1.51828071E-05
   77.3750000        -1.55282323E-05
   77.5000000        -1.56013648E-05
   77.6250000        -1.53889923E-05
   77.7500000        -1.48815643E-05
   77.8750000        -1.40734837E-05
   78.0000000        -1.29633536E-05
   78.1250000        -1.15540961E-05
   78.2500000        -9.85310635E-06
   78.3750000        -7.87225417E-06
   78.5000000        -5.62780133E-06
   78.6250000        -3.14030490E-06
   78.7500000        -4.34321919E-07
   78.8750000         2.46185004E-06
   79.0000000         5.51663015E-06
   79.1250000         8.69560881E-06
   79.2500000         1.19621091E-05
   79.3750000         1.52777957E-05
   79.5000000         1.86033103E-05
   79.6250000         2.18989426E-05
   79.7500000         2.51252859E-05
   79.8750000         2.82439432E-05
   80.0000000         3.12181728E-05
   80.1250000         3.40134684E-05
   80.2500000         3.65981396E-05
   80.3750000         3.89437773E-05
   80.5000000         4.10256653E-05
   80.6250000         4.28230996E-05
   80.7500000         4.43195895E-05
   80.8750000         4.55030095E-05
   81.0000000         4.63656179E-05
   81.1250000         4.69040206E-05
   81.2500000         4.71190178E-05
   81.3750000         4.70154118E-05
   81.5000000         4.66017482E-05
   81.6250000         4.58899813E-05
   81.7500000         4.48951287E-05
   81.8750000         4.36348964E-05
   82.0000000         4.21292752E-05
   82.1250000         4.04001512E-05
   82.2500000         3.84709201E-05
   82.3750000         3.63661129E-05
   82.5000000         3.41110499E-05
   82.6250000         3.17315025E-05
   82.7500000         2.92534132E-05
   82.8750000         2.67026062E-05
   83.0000000         2.41045509E-05
   83.1250000         2.14841039E-05
   83.2500000         1.88653503E-05
   83.3750000         1.62713477E-05
   83.5000000         1.37239504E-05
   83.6250000         1.12436510E-05
   83.7500000         8.84934252E-06
   83.8750000         6.55815074E-06
   84.0000000         4.38527422E-06
   84.1250000         2.34377535E-06
   84.2500000         4.44417168E-07
   84.3750000        -1.30449951E-06
   84.5000000        -2.89729041E-06
   84.6250000        -4.33100240E-06
   84.7500000        -5.60548824E-06
   84.8750000        -6.72347142E-06
   85.0000000        -7.69054441E-06
   85.1250000        -8.51511140E-06
   85.2500000        -9.20820730E-06
   85.3750000        -9.78338903E-06
   85.5000000        -1.02564118E-05
   85.6250000        -1.06449370E-05
   85.7500000        -1.09681296E-05
   85.8750000        -1.12461939E-05
   86.0000000        -1.14999339E-05
   86.1250000        -1.17502068E-05
   86.2500000        -1.20173763E-05
   86.3750000        -1.23208029E-05
   86.5000000        -1.26782916E-05
   86.6250000        -1.31056249E-05
   86.7500000        -1.36161052E-05
   86.8750000        -1.42201907E-05
   87.0000000        -1.49251509E-05
   87.1250000        -1.57349186E-05
   87.2500000        -1.66499376E-05
   87.3750000        -1.76671965E-05
   87.5000000        -1.87803598E-05
   87.6250000        -1.99799506E-05
   87.7500000        -2.12537343E-05
   87.8750000        -2.25871063E-05
   88.0000000        -2.39635974E-05
   88.1250000        -2.53654198E-05
   88.2500000        -2.67740979E-05
   88.3750000        -2.81711145E-05
   88.5000000        -2.95384816E-05
   88.6250000        -3.08594354E-05
   88.7500000        -3.21189618E-05
   88.8750000        -3.33043172E-05
   89.0000000        -3.44054679E-05
   89.1250000        -3.54154181E-05
   89.2500000        -3.63304134E-05
   89.3750000        -3.71500719E-05
   89.5000000        -3.78773220E-05
   89.6250000        -3.85183012E-05
   89.7500000        -3.90820278E-05
   89.8750000        -3.95800671E-05
   90.0000000        -4.00260396E-05
   90.1250000        -4.04350649E-05
   90.2500000        -4.08231317E-05
   90.3750000        -4.12064692E-05
   90.5000000        -4.16008988E-05
   90.6250000        -4.20211218E-05
   90.7500000        -4.24801474E-05
   90.8750000        -4.29886968E-05
   91.0000000        -4.35547372E-05
   91.1250000        -4.41830671E-05
   91.2500000        -4.48750943E-05
   91.3750000        -4.56286398E-05
   91.5000000        -4.64379482E-05
   91.6250000        -4.72938082E-05
   91.7500000        -4.81837924E-05
   91.8750000        -4.90926323E-05
   92.0000000        -5.00026836E-05
   92.1250000        -5.08944722E-05
   92.2500000        -5.17473163E-05
   92.3750000        -5.25400355E-05
   92.5000000        -5.32515769E-05
   92.6250000        -5.38617387E-05
   92.7500000        -5.43518072E-05
   92.8750000        -5.47051604E-05
   93.0000000        -5.49077777E-05
   93.1250000        -5.49486613E-05
   93.2500000        -5.48201606E-05
   93.3750000        -5.45181356E-05
   93.5000000        -5.40420297E-05
   93.6250000        -5.33948114E-05
   93.7500000        -5.25827709E-05
   93.8750000        -5.16152431E-05
   94.0000000        -5.05041935E-05
   94.1250000        -4.92637773E-05
   94.2500000        -4.79097725E-05
   94.3750000        -4.64590339E-05
   94.5000000        -4.49289219E-05
   94.6250000        -4.33367131E-05
   94.7500000        -4.16990952E-05
   94.8750000        -4.00316421E-05
   95.0000000        -3.83484330E-05
   95.1250000        -3.66617278E-05
   95.2500000        -3.49816801E-05
   95.3750000        -3.33162134E-05
   95.5000000        -3.16709629E-05
   95.6250000        -3.00493102E-05
   95.7500000        -2.84524904E-05
   95.8750000        -2.68797921E-05
   96.0000000        -2.53287944E-05
   96.1250000        -2.37956465E-05
   96.2500000        -2.22753442E-05
   96.3750000        -2.07620833E-05
   96.5000000        -1.92495099E-05
   96.6250000        -1.77310267E-05