  -4.50000000       0.00000000    
  -4.37500000       0.00000000    
  -4.25000000       0.00000000    
  -4.12500000       0.00000000    
  -4.00000000       0.00000000    
  -3.87500000       0.00000000    
  -3.75000000       8.18296228E-35
  -3.62500000       7.14291806E-34
  -3.50000000       6.53811648E-33
  -3.37500000       5.07906835E-32
  -3.25000000       2.72241906E-31
  -3.12500000       1.02036502E-30
  -3.00000000       2.72751816E-30
  -2.87500000       4.95879264E-30
  -2.75000000       4.35314221E-30
  -2.62500000      -6.43961986E-30
  -2.50000000      -3.13842863E-29
  -2.37500000      -4.28448695E-29
  -2.25000000       7.27126364E-29
  -2.12500000       5.62070088E-28
  -2.00000000       1.73288936E-27
  -1.87500000       3.56002950E-27
  -1.75000000       4.78174124E-27
  -1.62500000       1.59143568E-27
  -1.50000000      -1.32542899E-26
  -1.37500000      -4.90867589E-26
  -1.25000000      -1.11263617E-25
  -1.12500000      -1.88817679E-25
  -1.00000000      -2.37915839E-25
 -0.875000000      -1.69874466E-25
 -0.750000000       1.40137676E-25
 -0.625000000       8.04888932E-25
 -0.500000000       1.82812697E-24
 -0.375000000       2.97758822E-24
 -0.250000000       3.69176254E-24
 -0.125000000       3.13195036E-24
   0.00000000       5.11846876E-25
  0.125000000      -4.20889518E-24
  0.250000000      -9.32605009E-24
  0.375000000      -1.03934815E-23
  0.500000000       1.70941992E-25
  0.625000000       3.20550852E-23
  0.750000000       9.38177192E-23
  0.875000000       1.87160531E-22
   1.00000000       2.99468816E-22
   1.12500000       3.96899979E-22
   1.25000000       4.21893238E-22
   1.37500000       2.99934635E-22
   1.50000000      -4.01815074E-23
   1.62500000      -6.31338231E-22
   1.75000000      -1.42275691E-21
   1.87500000      -2.23643506E-21
   2.00000000      -2.74505662E-21
   2.12500000      -2.49522788E-21
   2.25000000      -9.96673979E-22
   2.37500000       2.11566527E-21
   2.50000000       6.86437124E-21
   2.62500000       1.27065088E-20
   2.75000000       1.83839615E-20
   2.87500000       2.19410595E-20
   3.00000000       2.09898955E-20
   3.12500000       1.32534594E-20
   3.25000000      -2.66803249E-21
   3.37500000      -2.64643496E-20
   3.50000000      -5.54607992E-20
   3.62500000      -8.44229257E-20
   3.75000000      -1.06051818E-19
   3.87500000      -1.12255414E-19
   4.00000000      -9.60591016E-20
   4.12500000      -5.37788600E-20
   4.25000000       1.30970729E-20
   4.37500000       9.69057210E-20
   4.50000000       1.84118876E-19
   4.62500000       2.57070545E-19
   4.75000000       2.96800340E-19
   4.87500000       2.86364758E-19
   5.00000000       2.13832780E-19
   5.12500000       7.43456622E-20
   5.25000000      -1.28942232E-19
   5.37500000      -3.84679026E-19
   5.50000000      -6.73128512E-19
   5.62500000      -9.65241503E-19
   5.75000000      -1.22081932E-18
   5.87500000      -1.38664774E-18
   6.00000000      -1.39663046E-18
   6.12500000      -1.17665698E-18
   6.25000000      -6.56636546E-19
   6.37500000       2.09515026E-19
   6.50000000       1.41800760E-18
   6.62500000       2.88887742E-18
   6.75000000       4.44749414E-18
   6.87500000       5.82303594E-18
   7.00000000       6.67125341E-18
   7.12500000       6.62406235E-18
   7.25000000       5.36163873E-18
   7.37500000       2.69548549E-18
   7.50000000      -1.35444249E-18
   7.62500000      -6.50709818E-18
   7.75000000      -1.22076448E-17
   7.87500000      -1.76629944E-17
   8.00000000      -2.19243626E-17
   8.12500000      -2.40066624E-17
   8.25000000      -2.30284965E-17
   8.37500000      -1.83548367E-17
   8.50000000      -9.72665635E-18
   8.62500000       2.63431486E-18
   8.75000000       1.79547377E-17
   8.87500000       3.48824480E-17
   9.00000000       5.15168549E-17
   9.12500000       6.55161522E-17
   9.25000000       7.43020412E-17
   9.37500000       7.53748150E-17
   9.50000000       6.67311416E-17
   9.62500000       4.73450522E-17
   9.75000000       1.76361855E-17
   9.87500000      -2.01797957E-17
   10.0000000      -6.19723252E-17
   10.1250000      -1.01899592E-16
   10.2500000      -1.32970263E-16
   10.3750000      -1.47919547E-16
   10.5000000      -1.40272362E-16
   10.6250000      -1.05407076E-16
   10.7500000      -4.14196795E-17
   10.8750000       5.03639669E-17
   11.0000000       1.65279316E-16
   11.1250000       2.95542183E-16
   11.2500000       4.30611883E-16
   11.3750000       5.57472405E-16
   11.5000000       6.60664576E-16
   11.6250000       7.22067371E-16
   11.7500000       7.20663996E-16
   11.8750000       6.32762781E-16
   12.0000000       4.33284325E-16
   12.1250000       9.86798214E-17
   12.2500000      -3.88237710E-16
   12.3750000      -1.03177644E-15
   12.5000000      -1.81603419E-15
   12.6250000      -2.69824103E-15
   12.7500000      -3.60466390E-15
   12.8750000      -4.43096572E-15
   13.0000000      -5.04840742E-15
   13.1250000      -5.31630277E-15
   13.2500000      -5.09982275E-15
   13.3750000      -4.29089230E-15
   13.5000000      -2.82885309E-15
   13.6250000      -7.17121175E-16
   13.7500000       1.96757326E-15
   13.8750000       5.07556880E-15
   14.0000000       8.39469621E-15
   14.1250000       1.16690943E-14
   14.2500000       1.46230650E-14
   14.3750000       1.69856059E-14
   14.5000000       1.85114104E-14
   14.6250000       1.89953491E-14
   14.7500000       1.82795555E-14
   14.8750000       1.62546554E-14
   15.0000000       1.28586776E-14
   15.1250000       8.07812950E-15
   15.2500000       1.95517926E-15
   15.3750000      -5.39724100E-15
   15.5000000      -1.37737908E-14
   15.6250000      -2.28534809E-14
   15.7500000      -3.21826204E-14
   15.8750000      -4.11728350E-14
   16.0000000      -4.91219309E-14
   16.1250000      -5.52615645E-14
   16.2500000      -5.88302668E-14
   16.3750000      -5.91638080E-14
   16.5000000      -5.57893406E-14
   16.6250000      -4.85062802E-14
   16.7500000      -3.74366370E-14
   16.8750000      -2.30313442E-14
   17.0000000      -6.02606259E-15
   17.1250000       1.26507310E-14
   17.2500000       3.20048655E-14
   17.3750000       5.11181978E-14
   17.5000000       6.92794549E-14
   17.6250000       8.60779072E-14
   17.7500000       1.01437813E-13
   17.8750000       1.15579150E-13
   18.0000000       1.28900268E-13
   18.1250000       1.41789548E-13
   18.2500000       1.54383654E-13
   18.3750000       1.66298724E-13
   18.5000000       1.76367005E-13
   18.6250000       1.82416514E-13
   18.7500000       1.81132344E-13
   18.8750000       1.68038408E-13
   19.0000000       1.37637243E-13
   19.1250000       8.37392967E-14
   19.2500000       5.04495098E-18
   19.3750000      -1.19290022E-13
   19.5000000      -2.78279759E-13
   19.6250000      -4.78354823E-13
   19.7500000      -7.16904997E-13
   19.8750000      -9.86055638E-13
   20.0000000      -1.27153778E-12
   20.1250000      -1.55185348E-12
   20.2500000      -1.79792314E-12
   20.3750000      -1.97339909E-12
   20.5000000      -2.03582008E-12
   20.6250000      -1.93873737E-12
   20.7500000      -1.63488971E-12
   20.8750000      -1.08042449E-12
   21.0000000      -2.40049164E-13
   21.1250000       9.07104253E-13
   21.2500000       2.36124488E-12
   21.3750000       4.09578491E-12
   21.5000000       6.05187298E-12
   21.6250000       8.13424068E-12
   21.7500000       1.02090584E-11
   21.8750000       1.21044867E-11
   22.0000000       1.36145210E-11
   22.1250000       1.45066173E-11
   22.2500000       1.45333502E-11
   22.3750000       1.34480977E-11
   22.5000000       1.10244305E-11
   22.6250000       7.07851312E-12
   22.7500000       1.49343320E-12
   22.8750000      -5.75594043E-12
   23.0000000      -1.45793377E-11
   23.1250000      -2.47507015E-11
   23.2500000      -3.58932120E-11
   23.3750000      -4.74718008E-11
   23.5000000      -5.87953644E-11
   23.6250000      -6.90302537E-11
   23.7500000      -7.72264405E-11
   23.8750000      -8.23569962E-11
   24.0000000      -8.33706229E-11
   24.1250000      -7.92562196E-11
   24.2500000      -6.91173646E-11
   24.3750000      -5.22534481E-11
   24.5000000      -2.82433972E-11
   24.6250000       2.97312370E-12
   24.7500000       4.10227893E-11
   24.8750000       8.50399196E-11
   25.0000000       1.33628275E-10
   25.1250000       1.84849053E-10
   25.2500000       2.36239778E-10
   25.3750000       2.84868101E-10
   25.5000000       3.27422339E-10
   25.6250000       3.60338537E-10
   25.7500000       3.79962450E-10
   25.8750000       3.82741228E-10
   26.0000000       3.65438568E-10
   26.1250000       3.25363542E-10
   26.2500000       2.60602651E-10
   26.3750000       1.70242348E-10
   26.5000000       5.45684678E-11
   26.6250000      -8.47707390E-11
   26.7500000      -2.44651605E-10
   26.8750000      -4.20423668E-10
   27.0000000      -6.05930417E-10
   27.1250000      -7.93609178E-10
   27.2500000      -9.74673675E-10
   27.3750000      -1.13938126E-09
   27.5000000      -1.27737754E-09
   27.6250000      -1.37811462E-09
   27.7500000      -1.43132639E-09
   27.8750000      -1.42754597E-09
   28.0000000      -1.35864653E-09
   28.1250000      -1.21838017E-09
   28.2500000      -1.00289177E-09
   28.3750000      -7.11180392E-10
   28.5000000      -3.45484114E-10
   28.6250000       8.84375351E-11
   28.7500000       5.81144632E-10
   28.8750000       1.11950138E-09
   29.0000000       1.68681646E-09
   29.1250000       2.26314789E-09
   29.2500000       2.82577650E-09
   29.3750000       3.34983996E-09
   29.5000000       3.80912235E-09
   29.6250000       4.17697477E-09
   29.7500000       4.42734560E-09
   29.8750000       4.53589033E-09
   30.0000000       4.48111903E-09
   30.1250000       4.24554836E-09
   30.2500000       3.81680332E-09
   30.3750000       3.18863269E-09
   30.5000000       2.36177944E-09
   30.6250000       1.34466771E-09
   30.7500000       1.53857899E-10
   30.8750000      -1.18576460E-09
   31.0000000      -2.64110378E-09
   31.1250000      -4.17128909E-09
   31.2500000      -5.72844572E-09
   31.3750000      -7.25880511E-09
   31.5000000      -8.70413341E-09
   31.6250000      -1.00034594E-08
   31.7500000      -1.10950573E-08
   31.8750000      -1.19186270E-08
   32.0000000      -1.24176074E-08
   32.1250000      -1.25415527E-08
   32.2500000      -1.22484654E-08
   32.3750000      -1.15070202E-08
   32.5000000      -1.02985487E-08
   32.6250000      -8.61873950E-09
   32.7500000      -6.47893117E-09
   32.8750000      -3.90693700E-09
   33.0000000      -9.47345646E-10
   33.1250000       2.33875341E-09
   33.2500000       5.87463633E-09
   33.3750000       9.56940394E-09
   33.5000000       1.33200171E-08
   33.6250000       1.70138499E-08
   33.7500000       2.05317043E-08
   33.8750000       2.37511930E-08
   34.0000000       2.65503868E-08
   34.1250000       2.88116180E-08
   34.2500000       3.04253014E-08
   34.3750000       3.12936663E-08
   34.5000000       3.13342596E-08
   34.6250000       3.04831076E-08
   34.7500000       2.86974782E-08
   34.8750000       2.59580641E-08
   35.0000000       2.22706174E-08
   35.1250000       1.76669221E-08
   35.2500000       1.22051045E-08
   35.3750000       5.96927663E-09
   35.5000000      -9.31491551E-10
   35.6250000      -8.36483505E-09
   35.7500000      -1.61773546E-08
   35.8750000      -2.41974369E-08
   36.0000000      -3.22385354E-08
   36.1250000      -4.01029432E-08
   36.2500000      -4.75858783E-08
   36.3750000      -5.44799299E-08
   36.5000000      -6.05797084E-08
   36.6250000      -6.56867272E-08
   36.7500000      -6.96143729E-08
   36.8750000      -7.21929396E-08
   37.0000000      -7.32746273E-08
   37.1250000      -7.27384304E-08
   37.2500000      -7.04948278E-08
   37.3750000      -6.64900952E-08
   37.5000000      -6.07102209E-08
   37.6250000      -5.31841700E-08
   37.7500000      -4.39863683E-08
   37.8750000      -3.32383010E-08
   38.0000000      -2.11089368E-08
   38.1250000      -7.81395926E-09
   38.2500000       6.38648068E-09
   38.3750000       2.11915090E-08
   38.5000000       3.62648827E-08
   38.6250000       5.12419760E-08
   38.7500000       6.57383765E-08
   38.8750000       7.93599852E-08
   39.0000000       9.17143694E-08
   39.1250000       1.02423265E-07
   39.2500000       1.11135677E-07
   39.3750000       1.17541340E-07
   39.5000000       1.21383962E-07
   39.6250000       1.22473750E-07
   39.7500000       1.20698687E-07
   39.8750000       1.16033817E-07
   40.0000000       1.08548278E-07
   40.1250000       9.84092381E-08
   40.2500000       8.58825189E-08
   40.3750000       7.13294313E-08
   40.5000000       5.51996742E-08
   40.6250000       3.80201648E-08
   40.7500000       2.03798862E-08
   40.8750000       2.91104718E-09
   41.0000000      -1.37330636E-08
   41.1250000      -2.89028694E-08
   41.2500000      -4.19792237E-08
   41.3750000      -5.24011554E-08
   41.5000000      -5.96935266E-08
   41.6250000      -6.34937081E-08
   41.7500000      -6.35759818E-08
   41.8750000      -5.98727183E-08
   42.0000000      -5.24912167E-08
   42.1250000      -4.17253787E-08
   42.2500000      -2.80615282E-08
   42.3750000      -1.21777228E-08
   42.5000000       5.06354203E-09
   42.6250000       2.26293402E-08
   42.7500000       3.93367507E-08
   42.8750000       5.38790843E-08
   43.0000000       6.48571614E-08
   43.1250000       7.08145080E-08
   43.2500000       7.02752274E-08
   43.3750000       6.17830835E-08
   43.5000000       4.39403678E-08
   43.6250000       1.54448756E-08
   43.7500000      -2.48764067E-08
   43.8750000      -7.80382337E-08
   44.0000000      -1.44874093E-07
   44.1250000      -2.26019793E-07
   44.2500000      -3.21904707E-07
   44.3750000      -4.32750625E-07
   44.5000000      -5.58578449E-07
   44.6250000      -6.99222198E-07
   44.7500000      -8.54349196E-07
   44.8750000      -1.02348611E-06
   45.0000000      -1.20604864E-06
   45.1250000      -1.40137365E-06
   45.2500000      -1.60875186E-06
   45.3750000      -1.82745953E-06
   45.5000000      -2.05678771E-06
   45.6250000      -2.29606462E-06
   45.7500000      -2.54467454E-06
   45.8750000      -2.80206814E-06
   46.0000000      -3.06776383E-06
   46.1250000      -3.34134097E-06
   46.2500000      -3.62242599E-06
   46.3750000      -3.91066715E-06
   46.5000000      -4.20570404E-06
   46.6250000      -4.50712969E-06
   46.7500000      -4.81445068E-06
   46.8750000      -5.12704037E-06
   47.0000000      -5.44409477E-06
   47.1250000      -5.76459206E-06
   47.2500000      -6.08725259E-06
   47.3750000      -6.41050838E-06
   47.5000000      -6.73248178E-06
   47.6250000      -7.05097182E-06
   47.7500000      -7.36345737E-06
   47.8750000      -7.66711401E-06
   48.0000000      -7.95883898E-06
   48.1250000      -8.23529626E-06
   48.2500000      -8.49297612E-06
   48.3750000      -8.72826240E-06
   48.5000000      -8.93751530E-06
   48.6250000      -9.11716415E-06
   48.7500000      -9.26380108E-06
   48.8750000      -9.37428285E-06
   49.0000000      -9.44583735E-06
   49.1250000      -9.47615445E-06
   49.2500000      -9.46348700E-06
   49.3750000      -9.40672453E-06
   49.5000000      -9.30547139E-06
   49.6250000      -9.16009685E-06
   49.7500000      -8.97176778E-06
   49.8750000      -8.74247235E-06
   50.0000000      -8.47500451E-06
   50.1250000      -8.17294040E-06
   50.2500000      -7.84058284E-06
   50.3750000      -7.48288721E-06
   50.5000000      -7.10536642E-06
   50.6250000      -6.71397129E-06
   50.7500000      -6.31496687E-06
   50.8750000      -5.91477828E-06
   51.0000000      -5.51984385E-06
   51.1250000      -5.13645182E-06
   51.2500000      -4.77058029E-06
   51.3750000      -4.42774490E-06
   51.5000000      -4.11284555E-06
   51.6250000      -3.83003771E-06
   51.7500000      -3.58261377E-06
   51.8750000      -3.37290862E-06
   52.0000000      -3.20222944E-06
   52.1250000      -3.07081450E-06
   52.2500000      -2.97782117E-06
   52.3750000      -2.92134587E-06
   52.5000000      -2.89847185E-06
   52.6250000      -2.90535013E-06
   52.7500000      -2.93730454E-06
   52.8750000      -2.98896748E-06
   53.0000000      -3.05442859E-06
   53.1250000      -3.12741122E-06
   53.2500000      -3.20145500E-06
   53.3750000      -3.27010548E-06
   53.5000000      -3.32710829E-06
   53.6250000      -3.36659309E-06
   53.7500000      -3.38325708E-06
   53.8750000      -3.37252254E-06
   54.0000000      -3.33067942E-06
   54.1250000      -3.25500014E-06
   54.2500000      -3.14383260E-06
   54.3750000      -2.99665112E-06
   54.5000000      -2.81408757E-06
   54.6250000      -2.59791932E-06
   54.7500000      -2.35102971E-06
   54.8750000      -2.07733683E-06
   55.0000000      -1.78169296E-06
   55.1250000      -1.46976095E-06
   55.2500000      -1.14786087E-06
   55.3750000      -8.22809682E-07
   55.5000000      -5.01738100E-07
   55.6250000      -1.91914964E-07
   55.7500000       9.94478739E-08
   55.8750000       3.65376536E-07
   56.0000000       5.99313751E-07
   56.1250000       7.95282119E-07
   56.2500000       9.48036984E-07
   56.3750000       1.05319566E-06
   56.5000000       1.10735016E-06
   56.6250000       1.10815063E-06
   56.7500000       1.05436879E-06
   56.8750000       9.45932698E-07
   57.0000000       7.83938447E-07
   57.1250000       5.70636303E-07
   57.2500000       3.09392362E-07
   57.3750000       4.62661820E-09
   57.5000000      -3.38266176E-07
   57.6250000      -7.13016789E-07
   57.7500000      -1.11259658E-06
   57.8750000      -1.52934683E-06
   58.0000000      -1.95512393E-06
   58.1250000      -2.38144457E-06
   58.2500000      -2.79964434E-06
   58.3750000      -3.20103732E-06
   58.5000000      -3.57707518E-06
   58.6250000      -3.91950789E-06
   58.7500000      -4.22053017E-06
   58.8750000      -4.47293723E-06
   59.0000000      -4.67025529E-06
   59.1250000      -4.80687095E-06
   59.2500000      -4.87814350E-06
   59.3750000      -4.88050227E-06
   59.5000000      -4.81152301E-06
   59.6250000      -4.66998972E-06
   59.7500000      -4.45593605E-06
   59.8750000      -4.17065394E-06
   60.0000000      -3.81669497E-06
   60.1250000      -3.39783742E-06
   60.2500000      -2.91903416E-06
   60.3750000      -2.38633220E-06
   60.5000000      -1.80677512E-06
   60.6250000      -1.18828189E-06
   60.7500000      -5.39505493E-07
   60.8750000       1.30323841E-07
   61.0000000       8.11573727E-07
   61.1250000       1.49439950E-06
   61.2500000       2.16892977E-06
   61.3750000       2.82546966E-06
   61.5000000       3.45470062E-06
   61.6250000       4.04786442E-06
   61.7500000       4.59695457E-06
   61.8750000       5.09487381E-06
   62.0000000       5.53558948E-06
   62.1250000       5.91426397E-06
   62.2500000       6.22734206E-06
   62.3750000       6.47262959E-06
   62.5000000       6.64932531E-06
   62.6250000       6.75802266E-06
   62.7500000       6.80068570E-06
   62.8750000       6.78055721E-06
   63.0000000       6.70207373E-06
   63.1250000       6.57071860E-06
   63.2500000       6.39285736E-06
   63.3750000       6.17554588E-06
   63.5000000       5.92632341E-06
   63.6250000       5.65298524E-06
   63.7500000       5.36335301E-06
   63.8750000       5.06503784E-06
   64.0000000       4.76521700E-06
   64.1250000       4.47042339E-06
   64.2500000       4.18635454E-06
   64.3750000       3.91770527E-06
   64.5000000       3.66803442E-06
   64.6250000       3.43967599E-06
   64.7500000       3.23367681E-06
   64.8750000       3.04979540E-06
   65.0000000       2.88652836E-06
   65.1250000       2.74118747E-06
   65.2500000       2.61001560E-06
   65.3750000       2.48833953E-06
   65.5000000       2.37075437E-06
   65.6250000       2.25132476E-06
   65.7500000       2.12382292E-06
   65.8750000       1.98195426E-06
   66.0000000       1.81960104E-06
   66.1250000       1.63104983E-06
   66.2500000       1.41120904E-06
   66.3750000       1.15580281E-06
   66.5000000       8.61531078E-07
   66.6250000       5.26205099E-07
   66.7500000       1.48827354E-07
   66.8750000      -2.70354832E-07
   67.0000000      -7.29845453E-07
   67.1250000      -1.22694507E-06
   67.2500000      -1.75783123E-06
   67.3750000      -2.31766148E-06
   67.5000000      -2.90073444E-06
   67.6250000      -3.50066011E-06
   67.7500000      -4.11054589E-06
   67.8750000      -4.72320744E-06
   68.0000000      -5.33136608E-06
   68.1250000      -5.92786182E-06
   68.2500000      -6.50583024E-06
   68.3750000      -7.05888806E-06
   68.5000000      -7.58127453E-06
   68.6250000      -8.06796743E-06
   68.7500000      -8.51477398E-06
   68.8750000      -8.91838863E-06
   69.0000000      -9.27640303E-06
   69.1250000      -9.58729197E-06
   69.2500000      -9.85037059E-06
   69.3750000      -1.00657180E-05
   69.5000000      -1.02340737E-05
   69.6250000      -1.03567208E-05
   69.7500000      -1.04353539E-05
   69.8750000      -1.04719384E-05
   70.0000000      -1.04685632E-05
   70.1250000      -1.04272940E-05
   70.2500000      -1.03500524E-05
   70.3750000      -1.02384865E-05
   70.5000000      -1.00938769E-05
   70.6250000      -9.91705019E-06
   70.7500000      -9.70834753E-06
   70.8750000      -9.46759064E-06
   71.0000000      -9.19410104E-06
   71.1250000      -8.88673367E-06
   71.2500000      -8.54394784E-06
   71.3750000      -8.16390639E-06
   71.5000000      -7.74459022E-06
   71.6250000      -7.28393888E-06
   71.7500000      -6.78002334E-06
   71.8750000      -6.23120559E-06
   72.0000000      -5.63632693E-06
   72.1250000      -4.99488397E-06
   72.2500000      -4.30721047E-06
   72.3750000      -3.57463114E-06
   72.5000000      -2.79961523E-06
   72.6250000      -1.98588350E-06
   72.7500000      -1.13850183E-06
   72.8750000      -2.63926324E-07
   73.0000000       6.29991064E-07
   73.1250000       1.53403528E-06
   73.2500000       2.43770978E-06
   73.3750000       3.32936997E-06
   73.5000000       4.19639173E-06
   73.6250000       5.02539251E-06
   73.7500000       5.80248661E-06
   73.8750000       6.51358096E-06
   74.0000000       7.14469479E-06
   74.1250000       7.68230802E-06
   74.2500000       8.11371228E-06
   74.3750000       8.42737700E-06
   74.5000000       8.61329863E-06
   74.6250000       8.66334176E-06
   74.7500000       8.57154009E-06
   74.8750000       8.33437389E-06
   75.0000000       7.95099731E-06
   75.1250000       7.42340399E-06
   75.2500000       6.75654928E-06
   75.3750000       5.95838856E-06
   75.5000000       5.03986575E-06
   75.6250000       4.01482384E-06
   75.7500000       2.89984337E-06
   75.8750000       1.71401598E-06
   76.0000000       4.78648985E-07
   76.1250000      -7.83079770E-07
   76.2500000      -2.04652815E-06
   76.3750000      -3.28604551E-06
   76.5000000      -4.47543198E-06
   76.6250000      -5.58844113E-06
   76.7500000      -6.59931857E-06
   76.8750000      -7.48326420E-06
   77.0000000      -8.21695994E-06
   77.1250000      -8.77902585E-06
   77.2500000      -9.15045894E-06
   77.3750000      -9.31500745E-06
   77.5000000      -9.25952190E-06
   77.6250000      -8.97421796E-06
   77.7500000      -8.45287286E-06
   77.8750000      -7.69298367E-06
   78.0000000      -6.69580322E-06
   78.1250000      -5.46634465E-06
   78.2500000      -4.01326952E-06
   78.3750000      -2.34875301E-06
   78.5000000      -4.88261094E-07
   78.6250000       1.54975385E-06
   78.7500000       3.74415276E-06
   78.8750000       6.07152879E-06
   79.0000000       8.50657125E-06
   79.1250000       1.10225537E-05
   79.2500000       1.35917317E-05
   79.3750000       1.61858334E-05
   79.5000000       1.87765036E-05
   79.6250000       2.13357180E-05
   79.7500000       2.38362409E-05
   79.8750000       2.62519989E-05
   80.0000000       2.85584356E-05
   80.1250000       3.07328228E-05
   80.2500000       3.27545422E-05
   80.3750000       3.46053166E-05
   80.5000000       3.62693499E-05
   80.6250000       3.77334618E-05
   80.7500000       3.89871566E-05
   80.8750000       4.00226236E-05
   81.0000000       4.08347332E-05
   81.1250000       4.14209462E-05
   81.2500000       4.17812225E-05
   81.3750000       4.19178432E-05
   81.5000000       4.18352793E-05
   81.6250000       4.15399481E-05
   81.7500000       4.10400135E-05
   81.8750000       4.03451450E-05
   82.0000000       3.94662784E-05
   82.1250000       3.84153500E-05
   82.2500000       3.72050818E-05
   82.3750000       3.58487196E-05
   82.5000000       3.43598222E-05
   82.6250000       3.27520575E-05
   82.7500000       3.10390133E-05
   82.8750000       2.92340137E-05
   83.0000000       2.73499900E-05
   83.1250000       2.53993258E-05
   83.2500000       2.33937990E-05
   83.3750000       2.13444255E-05
   83.5000000       1.92614207E-05
   83.6250000       1.71541597E-05
   83.7500000       1.50311298E-05
   83.8750000       1.28999245E-05
   84.0000000       1.07672467E-05
   84.1250000       8.63896366E-06
   84.2500000       6.52009157E-06
   84.3750000       4.41490010E-06
   84.5000000       2.32692196E-06
   84.6250000       2.59063199E-07
   84.7500000      -1.78636128E-06
   84.8750000      -3.80751430E-06
   85.0000000      -5.80290543E-06
   85.1250000      -7.77132300E-06
   85.2500000      -9.71165082E-06
   85.3750000      -1.16227820E-05
   85.5000000      -1.35034816E-05
   85.6250000      -1.53522360E-05
   85.7500000      -1.71671345E-05
   85.8750000      -1.89457496E-05
   86.0000000      -2.06850182E-05
   86.1250000      -2.23811894E-05
   86.2500000      -2.40297340E-05
   86.3750000      -2.56253225E-05
   86.5000000      -2.71617973E-05
   86.6250000      -2.86322083E-05
   86.7500000      -3.00288557E-05
   86.8750000      -3.13434175E-05
   87.0000000      -3.25670881E-05
   87.1250000      -3.36906996E-05
   87.2500000      -3.47049936E-05
   87.3750000      -3.56008459E-05
   87.5000000      -3.63695362E-05
   87.6250000      -3.70030466E-05
   87.7500000      -3.74943520E-05
   87.8750000      -3.78377335E-05
   88.0000000      -3.80290403E-05
   88.1250000      -3.80659912E-05
   88.2500000      -3.79484118E-05
   88.3750000      -3.76784155E-05
   88.5000000      -3.72605900E-05
   88.6250000      -3.67021130E-05
   88.7500000      -3.60127706E-05
   88.8750000      -3.52049647E-05
   89.0000000      -3.42936437E-05
   89.1250000      -3.32961245E-05
   89.2500000      -3.22318847E-05
   89.3750000      -3.11222611E-05
   89.5000000      -2.99901203E-05
   89.6250000      -2.88594529E-05
   89.7500000      -2.77548988E-05
   89.8750000      -2.67013056E-05
   90.0000000      -2.57231932E-05
   90.1250000      -2.48442593E-05
   90.2500000      -2.40868376E-05
   90.3750000      -2.34714043E-05
   90.5000000      -2.30161313E-05
   90.6250000      -2.27364089E-05
   90.7500000      -2.26444772E-05
   90.8750000      -2.27491091E-05
   91.0000000      -2.30553305E-05
   91.1250000      -2.35642765E-05
   91.2500000      -2.42730584E-05
   91.3750000      -2.51747988E-05
   91.5000000      -2.62586909E-05
   91.6250000      -2.75102029E-05
   91.7500000      -2.89113250E-05
   91.8750000      -3.04409259E-05
   92.0000000      -3.20751460E-05
   92.1250000      -3.37879028E-05
   92.2500000      -3.55513948E-05
   92.3750000      -3.73367038E-05
   92.5000000      -3.91143512E-05
   92.6250000      -4.08549422E-05
   92.7500000      -4.25297585E-05
   92.8750000      -4.41113480E-05
   93.0000000      -4.55740774E-05
   93.1250000      -4.68946637E-05
   93.2500000      -4.80526360E-05
   93.3750000      -4.90307284E-05
   93.5000000      -4.98151967E-05
   93.6250000      -5.03960437E-05
   93.7500000      -5.07671793E-05
   93.8750000      -5.09264537E-05
   94.0000000      -5.08756893E-05
   94.1250000      -5.06204888E-05
   94.2500000      -5.01700815E-05
   94.3750000      -4.95370223E-05
   94.5000000      -4.87368561E-05
   94.6250000      -4.77876820E-05
   94.7500000      -4.67096797E-05
   94.8750000      -4.55246154E-05
   95.0000000      -4.42552482E-05
   95.1250000      -4.29247993E-05
   95.2500000      -4.15563482E-05
   95.3750000      -4.01722900E-05
   95.5000000      -3.87937289E-05
   95.6250000      -3.74399860E-05
   95.7500000      -3.61281309E-05
   95.8750000      -3.48724825E-05
   96.0000000      -3.36842641E-05
   96.1250000      -3.25713008E-05
   96.2500000      -3.15377729E-05
   96.3750000      -3.05840767E-05
   96.5000000      -2.97067636E-05
   96.6250000      -2.88985775E-05
   96.7500000      -2.81486155E-05
   96.8750000      -2.74425274E-05
   97.0000000      -2.67628693E-05
   97.1250000      -2.60894813E-05
   97.2500000      -2.53999897E-05
   97.3750000      -2.46703730E-05
   97.5000000      -2.38755529E-05
   97.6250000      -2.29900525E-05
   97.7500000      -2.19886988E-05
   97.8750000      -2.08473011E-05
   98.0000000      -1.95433549E-05
   98.1250000      -1.80566985E-05
   98.2500000      -1.63701443E-05
   98.3750000      -1.44700398E-05
   98.5000000      -1.23467462E-05
   98.6250000      -9.99503936E-06
   98.7500000      -7.41438589E-06
   98.8750000      -4.60911724E-06
   99.0000000      -1.58847763E-06
   99.1250000       1.63344737E-06
   99.2500000       5.03792990E-06
   99.3750000       8.60191631E-06
   99.5000000       1.22984502E-05
   99.6250000       1.60971995E-05
   99.7500000       1.99650676E-05
   99.8750000       2.38668908E-05
   100.000000       2.77661529E-05
   100.125000       3.16257720E-05
   100.250000       3.54088515E-05
   100.375000       3.90794557E-05
   100.500000       4.26033257E-05
   100.625000       4.59485600E-05
   100.750000       4.90861785E-05
   100.875000       5.19907007E-05
   101.000000       5.46404808E-05
   101.125000       5.70180782E-05
   101.250000       5.91104363E-05
   101.375000       6.09089766E-05
   101.500000       6.24095483E-05
   101.625000       6.36123295E-05
   101.750000       6.45215259E-05
   101.875000       6.51451119E-05
   102.000000       6.54944160E-05
   102.125000       6.55836557E-05
   102.250000       6.54294126E-05
   102.375000       6.50501461E-05
   102.500000       6.44656175E-05