 -4.5   1.047208588E-17
 -4.37320757   1.047208009E-17
 -4.24641466   1.047206768E-17
 -4.11962223   1.047205527E-17
 -3.99282932   1.047204534E-17
 -3.86603665   1.047204038E-17
 -3.73924398   1.047203873E-17
 -3.61245155   1.047203955E-17
 -3.48565888   1.047203873E-17
 -3.35886621   1.047203459E-17
 -3.23207355   1.047202466E-17
 -3.10528088   1.047201226E-17
 -2.97848821   1.047199985E-17
 -2.85169554   1.047199075E-17
 -2.72490287   1.047198579E-17
 -2.5981102   1.047198496E-17
 -2.47131753   1.047198827E-17
 -2.34452486   1.047199158E-17
 -2.21773219   1.047199158E-17
 -2.09093952   1.047198744E-17
 -1.96414697   1.047197834E-17
 -1.8373543   1.047196428E-17
 -1.71056163   1.04719436E-17
 -1.58376896   1.047191796E-17
 -1.45697629   1.047189066E-17
 -1.33018374   1.047187412E-17
 -1.20339108   1.047189562E-17
 -1.07659841   1.047198661E-17
 -0.949805737   1.047215619E-17
 -0.823013067   1.047235057E-17
 -0.696220458   1.047240517E-17
 -0.569427788   1.047204948E-17
 -0.442635119   1.047099565E-17
 -0.315842479   1.046915683E-17
 -0.189049825   1.046696315E-17
 -6.225717068E-2   1.046562808E-17
 6.453548372E-2   1.046711866E-17
 0.191328138   1.047356239E-17
 0.318120778   1.048595356E-17
 0.444913447   1.050237392E-17
 0.571706116   1.051643434E-17
 0.698498726   1.051708367E-17
 0.825291395   1.049099771E-17
 0.952084064   1.042825357E-17
 1.07887673   1.033066198E-17
 1.2056694   1.022034173E-17
 1.33246195   1.014439745E-17
 1.45925462   1.017083166E-17
 1.58604729   1.037196642E-17
 1.71283996   1.0795042E-17
 1.83963263   1.142497147E-17
 1.9664253   1.215006476E-17
 2.09321785   1.274573903E-17
 2.22001052   1.28915809E-17
 2.34680319   1.223202099E-17
 2.47359586   1.048027993E-17
 2.60038853   7.551207735E-18
 2.7271812   3.69479618E-18
 2.85397387   -4.070399664E-19
 2.98076653   -3.61875388E-18
 3.1075592   -4.434396563E-18
 3.23435187   -1.179682286E-18
 3.36114454   7.672263136E-18
 3.48793697   2.309378255E-17
 3.61472964   4.503934246E-17
 3.74152231   7.197149617E-17
 3.86831498   1.004365214E-16
 3.99510765   1.247772176E-16
 4.12190056   1.371133657E-16
 4.24869299   1.277703541E-16
 4.37548542   8.63675358E-17
 4.50227833   3.751451848E-18
 4.62907076   -1.251703732E-16
 4.75586367   -2.978957701E-16
 4.8826561   -5.006667226E-16
 5.00944901   -7.056686541E-16
 5.13624144   -8.704038568E-16
 5.26303434   -9.40624794E-16
 5.38982677   -8.578674516E-16
 5.51661968   -5.71782603E-16
 5.64341211   -5.616626504E-17
 5.77020502   6.739267826E-16
 5.89699745   1.547982675E-15
 6.02379036   2.433494529E-15
 6.15058279   3.141577862E-15
 6.27737522   3.4476691E-15
 6.40416813   3.127472646E-15
 6.53096056   2.004782779E-15
 6.65775347   4.17726747E-18
 6.7845459   -2.801173108E-15
 6.91133881   -6.15749754E-15
 7.03813124   -9.624115402E-15
 7.16492414   -1.259956257E-14
 7.29171658   -1.438203838E-14
 7.41850948   -1.426048238E-14
 7.54530191   -1.162721195E-14
 7.67209482   -6.098956552E-15
 7.79888725   2.369307219E-15
 7.92567968   1.339392871E-14
 8.05247211   2.611091885E-14
 8.17926502   3.917645966E-14
 8.30605793   5.083038618E-14
 8.43285084   5.902976675E-14
 8.55964279   6.165467442E-14
 8.6864357   5.678093832E-14
 8.81322861   4.300454713E-14
 8.94002151   1.97898728E-14
 9.06681347   -1.219995699E-14
 9.19360638   -5.084440966E-14
 9.32039928   -9.244045958E-14
 9.44719219   -1.317723871E-13
 9.57398415   -1.624270244E-13
 9.70077705   -1.77382848E-13
 9.82756996   -1.6986869E-13
 9.95436192   -1.344489841E-13
 10.0811548   -6.82507436E-14
 10.2079477   2.779050556E-14
 10.3347406   1.478192839E-13
 10.4615326   2.802550943E-13
 10.5883255   4.074701188E-13
 10.7151184   5.061159282E-13
 10.8419113   5.482361527E-13
 10.9687033   5.03258134E-13
 11.0954962   3.408896971E-13
 11.2222891   3.486672553E-14
 11.349082   -4.326043918E-13
 11.4758739   -1.065979661E-12
 11.6026669   -1.851467547E-12
 11.7294598   -2.752568572E-12
 11.8562517   -3.706642198E-12
 11.9830446   -4.623116126E-12
 12.1098375   -5.383961072E-12
 12.2366304   -5.84697438E-12
 12.3634224   -5.852294344E-12
 12.4902153   -5.232375297E-12
 12.6170082   -3.825403536E-12
 12.7438011   -1.491825977E-12
 12.8705931   1.866639655E-12
 12.997386   6.286528156E-12
 13.1241789   1.172203567E-11
 13.2509708   1.802601644E-11
 13.3777637   2.493453707E-11
 13.5045567   3.205714513E-11
 13.6313496   3.887507677E-11
 13.7581415   4.474946108E-11
 13.8849344   4.89412226E-11
 14.0117273   5.064383288E-11
 14.1385202   4.902915227E-11
 14.2653122   4.330567155E-11
 14.3921051   3.278713412E-11
 14.518898   1.696848044E-11
 14.6456909   -4.395320479E-12
 14.7724829   -3.121288644E-11
 14.8992758   -6.298871147E-11
 15.0260687   -9.877075546E-11
 15.1528606   -1.371199959E-10
 15.2796535   -1.761081836E-10
 15.4064465   -2.133490051E-10
 15.5332394   -2.460665005E-10
 15.6600313   -2.712023939E-10
 15.7868242   -2.855615744E-10
 15.9136171   -2.859925907E-10
 16.0404091   -2.695966228E-10
 16.167202   -2.339556049E-10
 16.2939949   -1.773675651E-10
 16.4207878   -9.90752827E-11
 16.5475807   5.277110671E-13
 16.6743736   1.197300453E-10
 16.8011646   2.553901535E-10
 16.9279575   4.028933576E-10
 17.0547504   5.561901495E-10
 17.1815434   7.079242748E-10
 17.3083363   8.496546244E-10
 17.4351292   9.72169456E-10
 17.5619221   1.065887267E-9
 17.688715   1.121329918E-9
 17.815506   1.129652594E-9
 17.9422989   1.083204748E-9
 18.0690918   9.760950936E-10
 18.1958847   8.047320588E-10
 18.3226776   5.683035154E-10
 18.4494705   2.69166911E-10
 18.5762634   -8.688352121E-11
 18.7030544   -4.904965323E-10
 18.8298473   -9.288140257E-10
 18.9566402   -1.385704107E-9
 19.0834332   -1.842182851E-9
 19.2102261   -2.277021904E-9
 19.337019   -2.667525978E-9
 19.4638119   -2.990462322E-9
 19.5906048   -3.223104006E-9
 19.7173958   -3.344351907E-9
 19.8441887   -3.335885346E-9
 19.9709816   -3.183292074E-9
 20.0977745   -2.877118987E-9
 20.2245674   -2.413793387E-9
 20.3513603   -1.796356397E-9
 20.4781532   -1.034963559E-9
 20.6049442   -1.471072153E-10
 20.7317371   8.424675402E-10
 20.85853   1.902178859E-9
 20.985323   2.994359205E-9
 21.1121159   4.076338822E-9
 21.2389088   5.101839395E-9
 21.3657017   6.022644161E-9
 21.4924946   6.790493057E-9
 21.6192856   7.35914174E-9
 21.7460785   7.68651276E-9
 21.8728714   7.736849383E-9
 21.9996643   7.482790387E-9
 22.1264572   6.907270311E-9
 22.2532501   6.005136832E-9
 22.380043   4.784428409E-9
 22.506834   3.267183413E-9
 22.6336269   1.489750878E-9
 22.7604198   -4.974826662E-10
 22.8872128   -2.630973661E-9
 23.0140057   -4.835531087E-9
 23.1407986   -7.026444315E-9
 23.2675915   -9.112202548E-9
 23.3943844   -1.099773783E-8
 23.5211754   -1.258810922E-8
 23.6479683   -1.379252179E-8
 23.7747612   -1.452852239E-8
 23.9015541   -1.472624245E-8
 24.028347   -1.43324792E-8
 24.1551399   -1.331445976E-8
 24.2819328   -1.166307406E-8
 24.4087238   -9.395405343E-9
 24.5355167   -6.556372334E-9
 24.6623096   -3.219332578E-9
 24.7891026   5.144716875E-10
 24.9158955   4.517715535E-9
 25.0426884   8.64008598E-9
 25.1694813   1.271264605E-8
 25.2962742   1.655341997E-8
 25.4230652   1.997406684E-8
 25.5498581   2.278742883E-8
 25.676651   2.48157761E-8
 25.8034439   2.589937864E-8
 25.9302368   2.590512693E-8
 26.0570297   2.473479377E-8
 26.1838226   2.233255358E-8
 26.3106136   1.869138266E-8
 26.4374065   1.38579006E-8
 26.5641994   7.935379465E-9
 26.6909924   1.084549006E-9
 26.8177853   -6.478003023E-9
 26.9445782   -1.448399356E-8
 27.0713711   -2.262019194E-8
 27.198164   -3.053772701E-8
 27.324955   -3.786377434E-8
 27.4517479   -4.421529098E-8
 27.5785408   -4.92144494E-8
 27.7053337   -5.250521085E-8
 27.8321266   -5.377044587E-8
 27.9589195   -5.274892345E-8
 28.0857124   -4.925143315E-8
 28.2125034   -4.31752909E-8
 28.3392963   -3.451651409E-8
 28.4660892   -2.337887572E-8
 28.5928822   -9.979358673E-9
 28.7196751   5.350631938E-9
 28.846468   2.216864381E-8
 28.9732609   3.992929365E-8
 29.1000538   5.799726921E-8
 29.2268448   7.566496407E-8
 29.3536377   9.217444585E-8
 29.4804306   1.067431441E-7
 29.6072235   1.185926379E-7
 29.7340164   1.269794296E-7
 29.8608093   1.312268267E-7
 29.9876022   1.307566606E-7
 30.1143932   1.251196551E-7
 30.2411861   1.140231589E-7
 30.367979   9.73549632E-8
 30.494772   7.520211653E-8
 30.6215649   4.786369345E-8
 30.7483578   1.585660847E-8
 30.8751507   -2.008612299E-8
 31.0019417   -5.902508704E-8
 31.1287346   -9.983227045E-8
 31.2555275   -1.412167876E-7
 31.3823204   -1.817580255E-7
 31.5091133   -2.199455196E-7
 31.6359062   -2.542244886E-7
 31.7626991   -2.830456935E-7
 31.889492   -3.049181885E-7
 32.0162849   -3.184633215E-7
 32.1430779   -3.224681393E-7
 32.2698708   -3.159363757E-7
 32.3966637   -2.981354044E-7
 32.5234528   -2.686370522E-7
 32.6502457   -2.273511939E-7
 32.7770386   -1.745502374E-7
 32.9038315   -1.108836543E-7
 33.0306244   -3.738149346E-8
 33.1574173   4.455345604E-8
 33.2842102   1.331652584E-7
 33.4110031   2.263759455E-7
 33.537796   3.218275424E-7
 33.6645889   4.169343413E-7
 33.7913818   5.08944197E-7
 33.9181747   5.950069522E-7
 34.0449677   6.722490866E-7
 34.1717606   7.37851849E-7
 34.2985535   7.891310361E-7
 34.4253426   8.236168014E-7
 34.5521355   8.391300526E-7
 34.6789284   8.338541875E-7
 34.8057213   8.064002373E-7
 34.9325142   7.558627999E-7
 35.0593071   6.818649467E-7
 35.1861   5.845919304E-7
 35.3128929   4.648110234E-7
 35.4396858   3.238772877E-7
 35.5664787   1.637252609E-7
 35.6932716   -1.315440112E-8
 35.8200645   -2.037519806E-7
 35.9468575   -4.04589656E-7
 36.0736504   -6.11784742E-7
 36.2004433   -8.211239901E-7
 36.3272324   -1.02814704E-6
 36.4540253   -1.228237011E-6
 36.5808182   -1.4167166E-6
 36.7076111   -1.588946816E-6
 36.834404   -1.740424977E-6
 36.9611969   -1.866882712E-6
 37.0879898   -1.964377134E-6
 37.2147827   -2.029377811E-6
 37.3415756   -2.058843393E-6
 37.4683685   -2.050288913E-6
 37.5951614   -2.001841267E-6
 37.7219543   -1.912283096E-6
 37.8487473   -1.781082801E-6
 37.9755402   -1.608410912E-6
 38.1023293   -1.395146001E-6
 38.2291222   -1.142866267E-6
 38.3559151   -8.538326028E-7
 38.482708   -5.309610742E-7
 38.6095009   -1.777886212E-7
 38.7362938   2.015664649E-7
 38.8630867   6.024477557E-7
 38.9898796   1.019704655E-6
 39.1166725   1.44773594E-6
 39.2434654   1.880530931E-6
 39.3702583   2.311705657E-6
 39.4970512   2.734536565E-6
 39.6238441   3.141985417E-6
 39.7506371   3.526721684E-6
 39.87743   3.881137673E-6
 40.0042191   4.197361704E-6
 40.131012   4.467265626E-6
 40.2578049   4.682477538E-6
 40.3845978   4.834388619E-6
 40.5113907   4.914173132E-6
 40.6381836   4.91280889E-6
 40.7649765   4.821110906E-6
 40.8917694   4.629777322E-6
 41.0185623   4.329451258E-6
 41.1453552   3.91079675E-6
 41.2721481   3.364595841E-6
 41.398941   2.681861361E-6
 41.5257339   1.85397073E-6
 41.6525269   8.728147805E-7
 41.7793198   -2.690369456E-7
 41.9061089   -1.578159299E-6
 42.0329018   -3.060084509E-6
 42.1596947   -4.719114258E-6
 42.2864876   -6.558127552E-6
 42.4132805   -8.578393135E-6
 42.5400734   -1.077939942E-5
 42.6668663   -1.315869213E-5
 42.7936592   -1.571173743E-5
 42.9204521   -1.843181053E-5
 43.047245   -2.130991743E-5
 43.1740379   -2.433474583E-5
 43.3008308   -2.749265332E-5
 43.4276237   -3.076771463E-5
 43.5544167   -3.414177263E-5
 43.6812096   -3.759457104E-5
 43.8079987   -4.110389636E-5
 43.9347916   -4.464576705E-5
 44.0615845   -4.819467358E-5
 44.1883774   -5.17238368E-5
 44.3151703   -5.520549166E-5
 44.4419632   -5.861121099E-5
 44.5687561   -6.191225111E-5
 44.695549   -6.507988292E-5
 44.8223419   -6.808575563E-5
 44.9491348   -7.090227155E-5
 45.0759277   -7.350292435E-5
 45.2027206   -7.586263382E-5
 45.3295135   -7.795813144E-5
 45.4563065   -7.976821507E-5
 45.5830994   -8.127408364E-5
 45.7098885   -8.245957724E-5
 45.8366814   -8.331139543E-5
 45.9634743   -8.381929365E-5
 46.0902672   -8.397625788E-5
 46.2170601   -8.377853374E-5
 46.343853   -8.32257283E-5
 46.4706459   -8.232081746E-5
 46.5974388   -8.107008762E-5
 46.7242317   -7.948310667E-5
 46.8510246   -7.757252752E-5
 46.9778175   -7.535395707E-5
 47.1046104   -7.284573076E-5
 47.2314034   -7.006867236E-5
 47.3581963   -6.704581028E-5
 47.4849892   -6.380209379E-5
 47.6117783   -6.036405466E-5
 47.7385712   -5.675951252E-5
 47.8653641   -5.301720375E-5
 47.992157   -4.916651596E-5
 48.1189499   -4.523713869E-5
 48.2457428   -4.12587724E-5
 48.3725357   -3.726086288E-5
 48.4993286   -3.32723248E-5
 48.6261215   -2.932135249E-5
 48.7529144   -2.543522351E-5
 48.8797073   -2.164015314E-5
 49.0065002   -1.796115976E-5
 49.1332932   -1.442200119E-5
 49.2600861   -1.104506828E-5
 49.386879   -7.851371265E-6
 49.5136681   -4.860497938E-6
 49.640461   -2.09054997E-6
 49.7672539   4.418554909E-7
 49.8940468   2.721618557E-6
 50.0208397   4.735200946E-6
 50.1476326   6.470705102E-6
 50.2744255   7.917943549E-6
 50.4012184   9.068552572E-6
 50.5280113   9.916094314E-6
 50.6548042   1.045625231E-5
 50.7815971   1.068698566E-5
 50.90839   1.060870636E-5
 51.035183   1.02244876E-5
 51.1619759   9.540230167E-6
 51.2887688   8.564822565E-6
 51.4155579   7.310306501E-6
 51.5423508   5.791956937E-6
 51.6691437   4.028328931E-6
 51.7959366   2.041274229E-6
 51.9227295   -1.441390509E-7
 52.0495224   -2.499776656E-6
 52.1763153   -4.994662504E-6
 52.3031082   -7.595308034E-6
 52.4299011   -1.026609698E-5
 52.556694   -1.296976825E-5
 52.6834869   -1.56679489E-5
 52.8102798   -1.832174894E-5
 52.9370728   -2.089240115E-5
 53.0638657   -2.334192322E-5
 53.1906586   -2.563378985E-5
 53.3174477   -2.773359665E-5
 53.4442406   -2.960970778E-5
 53.5710335   -3.123383067E-5
 53.6978264   -3.258155994E-5
 53.8246193   -3.363282667E-5
 53.9514122   -3.437223495E-5
 54.0782051   -3.478930739E-5
 54.204998   -3.487857612E-5
 54.3317909   -3.463966277E-5
 54.4585838   -3.40771403E-5
 54.5853767   -3.320036922E-5
 54.7121696   -3.202317748E-5
 54.8389626   -3.056348214E-5
 54.9657555   -2.884284913E-5
 55.0925484   -2.688593486E-5
 55.2193375   -2.471999142E-5
 55.3461304   -2.237423723E-5
 55.4729233   -1.987934593E-5
 55.5997162   -1.726686241E-5
 55.7265091   -1.456869177E-5
 55.853302   -1.181662174E-5
 55.9800949   -9.041942576E-6
 56.1068878   -6.274997759E-6
 56.2336807   -3.544938863E-6
 56.3604736   -8.794717701E-7
 56.4872665   1.695381457E-6
 56.6140594   4.15537761E-6
 56.7408524   6.478202522E-6
 56.8676453   8.643491128E-6
 56.9944382   1.063295167E-5
 57.1212273   1.243039878E-5
 57.2480202   1.402182079E-5
 57.3748131   1.539546065E-5
 57.501606   1.654191874E-5
 57.6283989   1.745427289E-5
 57.7551918   1.812823939E-5
 57.8819847   1.856232666E-5
 58.0087776   1.875804082E-5
 58.1355705   1.872002213E-5
 58.2623634   1.845625047E-5
 58.3891563   1.797817822E-5
 58.5159492   1.730082113E-5
 58.6427422   1.644282565E-5
 58.7695351   1.542642349E-5
 58.896328   1.42773315E-5
 59.0231171   1.302452893E-5
 59.14991   1.169993629E-5
 59.2767029   1.033794979E-5
 59.4034958   8.974919183E-6
 59.5302887   7.648491192E-6
 59.6570816   6.396832759E-6
 59.7838745   5.257833436E-6
 59.9106674   4.268199518E-6
 60.0374603   3.46256229E-6
 60.1642532   2.872524647E-6
 60.2910461   2.52576865E-6
 60.4178391   2.445209248E-6
 60.544632   2.648216878E-6
 60.6714249   3.145966275E-6
 60.7982178   3.942943749E-6
 60.9250069   5.036616585E-6
 61.0517998   6.41726001E-6
 61.1785927   8.068015632E-6
 61.3053856   9.965135177E-6
 61.4321785   1.207844616E-5
 61.5589714   1.437197261E-5
 61.6857643   1.680476817E-5
 61.8125572   1.933193016E-5
 61.9393501   2.190570376E-5
 62.066143   2.447674342E-5
 62.1929359   2.699542165E-5
 62.3197289   2.941316416E-5
 62.4465218   3.168377225E-5
 62.5733147   3.376472523E-5
 62.7001076   3.561832636E-5
 62.8268967   3.721279063E-5
 62.9536896   3.852317241E-5
 63.0804825   3.953199484E-5
 63.2072754   4.022979556E-5
 63.3340683   4.061538129E-5
 63.4608612   4.069581337E-5
 63.5876541   4.048618575E-5
 63.714447   4.000914851E-5
 63.8412399   3.929415834E-5
 63.9680328   3.837659096E-5
 64.0948257   3.729660966E-5
 64.2216187   3.609791383E-5
 64.3484116   3.482636384E-5
 64.4752045   3.352850763E-5
 64.6019974   3.225011824E-5
 64.7287903   3.103470954E-5
 64.8555832   2.992213194E-5
 64.9823761   2.894726276E-5
 65.109169   2.813886385E-5
 65.2359619   2.751857028E-5
 65.3627548   2.710016997E-5
 65.4895477   2.688905988E-5
 65.616333   2.688201857E-5
 65.7431259   2.706721534E-5
 65.8699188   2.742450852E-5
 65.9967117   2.792602572E-5
 66.1235046   2.853696424E-5
 66.2502975   2.921665327E-5
 66.3770905   2.991982183E-5
 66.5038834   3.059802475E-5
 66.6306763   3.120121619E-5
 66.7574692   3.167935211E-5
 66.8842621   3.19840874E-5
 67.011055   3.2070413E-5
 67.1378479   3.189821655E-5
 67.2646408   3.143373033E-5
 67.3914337   3.065080091E-5
 67.5182266   2.953194598E-5
 67.6450195   2.806918928E-5
 67.7718124   2.626458809E-5
 67.8986053   2.413052425E-5
 68.0253983   2.168965875E-5
 68.1521912   1.897458242E-5
 68.2789841   1.602722114E-5
 68.405777   1.289784632E-5
 68.5325699   9.643997146E-6
 68.6593628   6.329075404E-6
 68.7861557   3.020776148E-6
 68.9129486   -2.105531394E-7
 69.0397415   -3.293663667E-6
 69.1665344   -6.158146789E-6
 69.2933273   -8.736251402E-6
 69.4201126   -1.096455617E-5
 69.5469055   -1.278549553E-5
 69.6736984   -1.414884991E-5
 69.8004913   -1.501287261E-5
 69.9272842   -1.534530929E-5
 70.0540771   -1.512410381E-5
 70.1808701   -1.433783291E-5
 70.307663   -1.298590996E-5
 70.4344559   -1.107839216E-5
 70.5612488   -8.635674931E-6
 70.6880417   -5.687804332E-6
 70.8148346   -2.273608743E-6
 70.9416275   1.560376631E-6
 71.0684204   5.761106422E-6
 71.1952133   1.027050166E-5
 71.3220062   1.502686064E-5
 71.4487991   1.996641186E-5
 71.575592   2.502487041E-5
 71.7023849   3.013889545E-5
 71.8291779   3.524749991E-5
 71.9559708   4.029340562E-5
 72.0827637   4.522412564E-5
 72.2095566   4.999300654E-5
 72.3363495   5.455999781E-5
 72.4631424   5.889226304E-5
 72.5899353   6.296452921E-5
 72.7167282   6.675931945E-5
 72.8435211   7.026679668E-5
 72.970314   7.348460349E-5
 73.0971069   7.641735283E-5
 73.2238922   7.90760605E-5
 73.3506851   8.147735934E-5
 73.477478   8.364269888E-5
 73.6042709   8.559743583E-5
 73.7310638   8.736985183E-5
 73.8578568   8.899024397E-5
 73.9846497   9.048992797E-5
 74.1114426   9.190036508E-5
 74.2382355   9.325230349E-5
 74.3650284   9.457505075E-5
 74.4918213   9.589581896E-5
 74.6186142   9.723922267E-5
 74.7454071   9.862693696E-5
 74.8722   1.000774355E-4
 74.9989929   1.016058814E-4
 75.1257858   1.032241416E-4
 75.2525787   1.049408602E-4
 75.3793716   1.067616395E-4
 75.5061646   1.086893535E-4
 75.6329575   1.107243952E-4
 75.7597504   1.128651566E-4
 75.8865433   1.15108327E-4
 76.0133362   1.174493082E-4
 76.1401291   1.198825339E-4
 76.266922   1.224018342E-4
 76.3937149   1.250006171E-4
 76.5205078   1.276720141E-4
 76.6473007   1.304090692E-4
 76.7740936   1.332046377E-4
 76.9008865   1.360513997E-4
 77.0276718   1.389417012E-4
 77.1544647   1.418672764E-4
 77.2812576   1.448189141E-4
 77.4080505   1.477862534E-4
 77.5348434   1.507573033E-4
 77.6616364   1.537179924E-4
 77.7884293   1.56651935E-4
 77.9152222   1.595398935E-4
 78.0420151   1.623596181E-4
 78.168808   1.65085512E-4
 78.2956009   1.676884422E-4
 78.4223938   1.701357542E-4
 78.5491867   1.723913156E-4
 78.6759796   1.744156471E-4
 78.8027725   1.761663589E-4
 78.9295654   1.775984711E-4
 79.0563583   1.786651264E-4
 79.1831512   1.793181582E-4
 79.3099442   1.79508992E-4
 79.4367371   1.791894756E-4
 79.56353   1.783128973E-4
 79.6903229   1.768349757E-4
 79.8171158   1.747147471E-4
 79.9439087   1.719157299E-4
 80.0707016   1.684067829E-4
 80.1974945   1.641630079E-4
 80.3242874   1.591664331E-4
 80.4510803   1.534067269E-4
 80.5778732   1.46881619E-4
 80.7046585   1.395973086E-4
 80.8314514   1.315685804E-4
 80.9582443   1.228187029E-4
 81.0850372   1.133793994E-4
 81.2118301   1.032903529E-4
 81.338623   9.259874059E-5
 81.465416   8.135853568E-5
 81.5922089   6.962974294E-5
 81.7190018   5.747747127E-5
 81.8457947   4.497095142E-5
 81.9725876   3.218254642E-5
 82.0993805   1.918666021E-5
 82.2261734   6.058694453E-6
 82.3529663   -7.125985576E-6
 82.4797592   -2.02930496E-5
 82.6065521   -3.337012458E-5
 82.733345   -4.628764873E-5
 82.8601379   -5.897966548E-5
 82.9869308   -7.138444926E-5
 83.1137238   -8.344511298E-5
 83.2405167   -9.511006647E-5
 83.3673096   -1.063333475E-4
 83.4941025   -1.170748801E-4
 83.6208954   -1.273005619E-4
 83.7476883   -1.369823731E-4
 83.8744812   -1.460983185E-4
 84.0012741   -1.54632231E-4
 84.128067   -1.625736768E-4
 84.2548599   -1.699176501E-4
 84.3816528   -1.766642818E-4
 84.5084381   -1.828184031E-4
 84.635231   -1.883891819E-4
 84.7620239   -1.933897584E-4
 84.8888168   -1.978367509E-4
 85.0156097   -2.017497318E-4
 85.1424026   -2.051508345E-4
 85.2691956   -2.08064288E-4
 85.3959885   -2.105159365E-4
 85.5227814   -2.125328465E-4
 85.6495743   -2.141428704E-4
 85.7763672   -2.153742971E-4
 85.9031601   -2.162555902E-4
 86.029953   -2.168149804E-4
 86.1567459   -2.170802618E-4
 86.2835388   -2.170786174E-4
 86.4103317   -2.168363862E-4
 86.5371246   -2.163790778E-4
 86.6639175   -2.157312556E-4
 86.7907104   -2.149165521E-4
 86.9175034   -2.139577118E-4
 87.0442963   -2.128766209E-4
 87.1710892   -2.11694467E-4
 87.2978821   -2.104318264E-4
 87.424675   -2.091087954E-4
 87.5514679   -2.077451645E-4
 87.6782608   -2.06360477E-4
 87.8050537   -2.049741888E-4
 87.9318466   -2.036057849E-4
 88.0586395   -2.022747649E-4
 88.1854324   -2.01000672E-4
 88.3122177   -1.998030639E-4
 88.4390106   -1.98701222E-4
 88.5658035   -1.97714151E-4
 88.6925964   -1.968602301E-4
 88.8193893   -1.961567759E-4
 88.9461823   -1.95619752E-4
 89.0729752   -1.952632156E-4
 89.1997681   -1.950987935E-4
 89.326561   -1.951351733E-4
 89.4533539   -1.953775063E-4
 89.5801468   -1.958268695E-4
 89.7069397   -1.964796684E-4
 89.8337326   -1.973272883E-4
 89.9605255   -1.983555558E-4
 90.0873184   -1.995446655E-4
 90.2141113   -2.008690062E-4
 90.3409042   -2.022971748E-4
 90.4676971   -2.037923841E-4
 90.5944901   -2.0531271E-4
 90.721283   -2.068118629E-4
 90.8480759   -2.082400169E-4
 90.9748688   -2.095447562E-4
 91.1016617   -2.10672355E-4
 91.2284546   -2.11569044E-4
 91.3552475   -2.1218248E-4
 91.4820404   -2.124631428E-4
 91.6088333   -2.12365936E-4
 91.7356262   -2.118515258E-4
 91.8624191   -2.108876215E-4
 91.989212   -2.094502997E-4
 92.1159973   -2.075247903E-4
 92.2427902   -2.051063202E-4
 92.3695831   -2.022004046E-4
 92.496376   -1.988230506E-4
 92.6231689   -1.950005681E-4
 92.7499619   -1.90768973E-4
 92.8767548   -1.861731871E-4
 93.0035477   -1.81265772E-4
 93.1303406   -1.761056192E-4
 93.2571335   -1.707562042E-4
 93.3839264   -1.652837382E-4
 93.5107193   -1.597553346E-4
 93.6375122   -1.542369573E-4
 93.7643051   -1.487916015E-4
 93.891098   -1.434773294E-4
 94.0178909   -1.383456984E-4
 94.1446838   -1.334402332E-4
 94.2714767   -1.287952618E-4
 94.3982697   -1.244349842E-4
 94.5250626   -1.203729917E-4
 94.6518555   -1.166120783E-4
 94.7786484   -1.131444515E-4
 94.9054413   -1.09952307E-4
 95.0322342   -1.070086946E-4
 95.1590271   -1.04278748E-4
 95.28582   -1.017211034E-4
 95.4126129   -9.92895657E-5
 95.5394058   -9.693488391E-5
 95.6661987   -9.460666479E-5
 95.7929916   -9.225519898E-5
 95.9197769   -8.983336738E-5
 96.0465698   -8.729834371E-5
 96.1733627   -8.461317339E-5
 96.3001556   -8.174802497E-5
 96.4269485   -7.868126704E-5
 96.5537415   -7.540016668E-5
 96.6805344   -7.19012387E-5
 96.8073273   -6.819036935E-5
 96.9341202   -6.428245251E-5
 97.0609131   -6.020086221E-5
 97.187706   -5.597652489E-5
 97.3144989   -5.164679897E-5
 97.4412918   -4.72541069E-5
 97.5680847   -4.284440365E-5
 97.6948776   -3.846553591E-5
 97.8216705   -3.416562686E-5
 97.9484634   -2.999139542E-5
 98.0752563   -2.598665014E-5
 98.2020493   -2.219089583E-5
 98.3288422   -1.863815123E-5
 98.4556351   -1.535599222E-5
 98.582428   -1.236481603E-5
 98.7092209   -9.677410162E-6
 98.8360138   -7.298765013E-6
 98.9628067   -5.226176654E-6
 99.0895996   -3.449626092E-6
 99.2163925   -1.952367938E-6
 99.3431854   -7.117814107E-7
 99.4699783   2.996845012E-7
 99.5967712   1.113416374E-6
 99.7235565   1.763515797E-6
 99.8503494   2.285685468E-6
 99.9771423   2.716149083E-6
 100.103935   3.090661039E-6
 100.230728   3.443630703E-6
 100.357521   3.807364919E-6
 100.484314   4.211466148E-6
 100.611107   4.682417057E-6
 100.7379   5.24329289E-6
 100.864693   5.913697805E-6
 100.991486   6.709788067E-6
 101.118279   7.644460311E-6
 101.245071   8.727646673E-6
 101.371864   9.966592188E-6
 101.498657   1.136619176E-5
 101.62545   1.292927755E-5
 101.752243   1.465686273E-5
 101.879036   1.654832886E-5
 102.005829   1.860154589E-5
 102.132622   2.081287494E-5
 102.259415   2.317714097E-5
 102.386208   2.568746822E-5
 102.513   2.833509825E-5
 102.639793   3.110910257E-5
 102.766586   3.399609705E-5
 102.893379   3.697991633E-5
 103.020172   4.004134462E-5
 103.146965   4.315793194E-5
 103.273758   4.630390686E-5
 103.400551   4.945022374E-5
 103.527336   5.256478107E-5
 103.654129   5.561278522E-5
 103.780922   5.85572634E-5
 103.907715   6.135976582E-5
 104.034508   6.398119876E-5
 104.161301   6.638273044E-5
 104.288094   6.852694059E-5
 104.414886   7.037889009E-5
 104.541679   7.190734323E-5
 104.668472   7.30859465E-5
 104.795265   7.389437815E-5
 104.922058   7.431933045E-5
 105.048851   7.435539737E-5
 105.175644   7.400570757E-5
 105.302437   7.328233187E-5
 105.42923   7.220644329E-5
 105.556023   7.080817886E-5
 105.682816   6.912621029E-5
 105.809608   6.720708916E-5
 105.936401   6.510419189E-5
 106.063194   6.287654105E-5
 106.189987   6.05872483E-5
 106.31678   5.830180817E-5
 106.443573   5.608628271E-5
 106.570366   5.400530426E-5
 106.697159   5.212010001E-5
 106.823952   5.048657476E-5
 106.950745   4.915347745E-5
 107.077538   4.816076398E-5
 107.20433   4.753818939E-5
 107.331116   4.730417277E-5
 107.457909   4.746499326E-5
 107.584702   4.801431351E-5
 107.711494   4.893312871E-5
 107.838287   5.019011951E-5
 107.96508   5.174240141E-5
 108.091873   5.353667802E-5
 108.218666   5.551075083E-5
 108.345459   5.759533815E-5
 108.472252   5.971613427E-5
 108.599045   6.179606862E-5
 108.725838   6.375762314E-5
 108.852631   6.552522245E-5
 108.979424   6.702755491E-5
 109.106216   6.819982809E-5
 109.233009   6.898574065E-5
 109.359802   6.933930126E-5
 109.486595   6.922622561E-5
 109.613388   6.862506416E-5
 109.740181   6.752782065E-5
 109.866974   6.594019942E-5
 109.993767   6.388142356E-5
 110.12056   6.138359458E-5
 110.247353   5.849071385E-5
 110.374146   5.525731467E-5
 110.500938   5.174677426E-5
 110.627731   4.80294766E-5
 110.754524   4.41806551E-5
 110.881317   4.027825707E-5
 111.008102   3.640062641E-5
 111.134895   3.262430255E-5
 111.261688   2.902187043E-5
 111.388481   2.565996147E-5
 111.515274   2.259750363E-5
 111.642067   1.988420627E-5
 111.76886   1.755939775E-5
 111.895653   1.565113962E-5
 112.022446   1.417575277E-5
 112.149239   1.313760185E-5
 112.276031   1.252929451E-5
 112.402824   1.233217699E-5
 112.529617   1.251714821E-5
 112.65641   1.304573016E-5
 112.783203   1.387143584E-5
 112.909996   1.494124808E-5
 113.036789   1.619733484E-5
 113.163582   1.757880455E-5
 113.290375   1.902351323E-5
 113.417168   2.04698681E-5
 113.543961   2.185853191E-5
 113.670753   2.313403638E-5
 113.797546   2.42462429E-5
 113.924339   2.515161395E-5
 114.051132   2.581427725E-5
 114.177925   2.6206857E-5
 114.304718   2.631102143E-5
 114.431511   2.611776836E-5
 114.558304   2.562745613E-5
 114.685097   2.484948709E-5
 114.811882   2.38018074E-5
 114.938675   2.251011574E-5
 115.065468   2.100687925E-5
 115.192261   1.933019485E-5
 115.319054   1.752248318E-5
 115.445847   1.562914258E-5
 115.572639   1.369709935E-5
 115.699432   1.177335616E-5
 115.826225   9.90359149E-6
 115.953018   8.130807146E-6
 116.079811   6.494102308E-6
 116.206604   5.02759849E-6
 116.333397   3.759585752E-6
 116.46019   2.711852176E-6
 116.586983   1.899285849E-6
 116.713776   1.329663178E-6
 116.840569   1.003733473E-6
 116.967361   9.15464625E-7
 117.094154   1.052536277E-6
 117.220947   1.397005803E-6
 117.34774   1.926120149E-6
 117.474533   2.61329069E-6
 117.601326   3.429130857E-6
 117.728119   4.342549801E-6
 117.854912   5.321859135E-6
 117.981705   6.335821126E-6
 118.108498   7.354630725E-6
 118.235291   8.350755706E-6
 118.362083   9.299637895E-6
 118.488876   1.018022067E-5
 118.615662   1.09753164E-5
 118.742455   1.16717838E-5
 118.869247   1.226053337E-5
 118.99604   1.273635735E-5
 119.122833   1.309760682E-5
 119.249626   1.334573517E-5
 119.376419   1.348470596E-5
 119.503212   1.352036907E-5
 119.630005   1.345975943E-5
 119.756798   1.331043768E-5
 119.883591   1.307984985E-5
 120.010384   1.277479896E-5
 120.137177   1.24010021E-5
 120.263969   1.1962793E-5
 120.390762   1.14629529E-5
 120.517555   1.090268961E-5
 120.644348   1.028176121E-5
 120.771141   9.598744327E-6
 120.897934   8.85143163E-6
 121.024727   8.037339285E-6
 121.15152   7.154303148E-6
 121.278313   6.201121778E-6
 121.405106   5.178189895E-6
 121.531898   4.088116839E-6
 121.658691   2.93625385E-6
 121.785484   1.731095381E-6
 121.912277   4.845332455E-7
 122.03907   -7.880584008E-7
 122.165863   -2.067924925E-6
 122.292656   -3.333225095E-6
 122.419441   -4.559490208E-6
 122.546234   -5.720264198E-6
 122.673027   -6.787919119E-6
 122.79982   -7.734592145E-6
 122.926613   -8.53322581E-6
 123.053406   -9.15867804E-6
 123.180199   -9.588792636E-6
 123.306992   -9.805458831E-6
 123.433784   -9.795529877E-6
 123.560577   -9.55158248E-6
 123.68737   -9.072487046E-6
 123.814163   -8.363732377E-6
 123.940956   -7.437509794E-6
 124.067749   -6.312539426E-6
 124.194542   -5.013636383E-6
 124.321335   -3.571031129E-6
 124.448128   -2.019454769E-6
 124.574921   -3.969934426E-7