  -4.50000000       0.00000000    
  -4.37500000       0.00000000    
  -4.25000000       0.00000000    
  -4.12500000       0.00000000    
  -4.00000000       0.00000000    
  -3.87500000       0.00000000    
  -3.75000000       2.47907741E-35
  -3.62500000      -3.20539743E-30
  -3.50000000      -7.06539558E-29
  -3.37500000      -6.41426635E-28
  -3.25000000      -3.51172564E-27
  -3.12500000      -1.32466987E-26
  -3.00000000      -3.57267339E-26
  -2.87500000      -6.41638629E-26
  -2.75000000      -3.73828580E-26
  -2.62500000       2.36463398E-25
  -2.50000000       1.15645490E-24
  -2.37500000       3.29123616E-24
  -2.25000000       7.03095080E-24
  -2.12500000       1.17540448E-23
  -2.00000000       1.46032605E-23
  -1.87500000       9.55344635E-24
  -1.75000000      -1.18221078E-23
  -1.62500000      -5.61999276E-23
  -1.50000000      -1.20328463E-22
  -1.37500000      -1.81242623E-22
  -1.25000000      -1.91993926E-22
  -1.12500000      -9.41326387E-23
  -1.00000000       1.42410951E-22
 -0.875000000       4.51152707E-22
 -0.750000000       5.92259198E-22
 -0.625000000       1.13286510E-22
 -0.500000000      -1.58727569E-21
 -0.375000000      -5.03571563E-21
 -0.250000000      -1.02902617E-20
 -0.125000000      -1.64658977E-20
   0.00000000      -2.13758043E-20
  0.125000000      -2.15671625E-20
  0.250000000      -1.30080468E-20
  0.375000000       7.48750481E-21
  0.500000000       4.03220563E-20
  0.625000000       8.12632638E-20
  0.750000000       1.20552062E-19
  0.875000000       1.43841267E-19
   1.00000000       1.35429823E-19
   1.12500000       8.34692963E-20
   1.25000000      -1.41403553E-20
   1.37500000      -1.45206761E-19
   1.50000000      -2.82235007E-19
   1.62500000      -3.86394340E-19
   1.75000000      -4.16340837E-19
   1.87500000      -3.39857365E-19
   2.00000000      -1.44782095E-19
   2.12500000       1.54536764E-19
   2.25000000       5.17522500E-19
   2.37500000       8.83628658E-19
   2.50000000       1.18033348E-18
   2.62500000       1.32631339E-18
   2.75000000       1.22382064E-18
   2.87500000       7.38628085E-19
   3.00000000      -3.26492892E-19
   3.12500000      -2.25023898E-18
   3.25000000      -5.38271116E-18
   3.37500000      -1.00868017E-17
   3.50000000      -1.66203068E-17
   3.62500000      -2.49658743E-17
   3.75000000      -3.46385852E-17
   3.87500000      -4.45217921E-17
   4.00000000      -5.27932045E-17
   4.12500000      -5.69982896E-17
   4.25000000      -5.43050855E-17
   4.37500000      -4.19354862E-17
   4.50000000      -1.77226606E-17
   4.62500000       1.92974719E-17
   4.75000000       6.83776611E-17
   4.87500000       1.26752697E-16
   5.00000000       1.89629779E-16
   5.12500000       2.50527888E-16
   5.25000000       3.01963937E-16
   5.37500000       3.36430237E-16
   5.50000000       3.47561944E-16
   5.62500000       3.31356695E-16
   5.75000000       2.87279589E-16
   5.87500000       2.19059873E-16
   6.00000000       1.34959679E-16
   6.12500000       4.72788347E-17
   6.25000000      -2.91281528E-17
   6.37500000      -7.94849563E-17
   6.50000000      -9.28980407E-17
   6.62500000      -6.71276125E-17
   6.75000000      -1.38213245E-17
   6.87500000       3.66212279E-17
   7.00000000       3.16721104E-17
   7.12500000      -1.03946600E-16
   7.25000000      -4.64923256E-16
   7.37500000      -1.15717650E-15
   7.50000000      -2.28455268E-15
   7.62500000      -3.93090669E-15
   7.75000000      -6.13895091E-15
   7.87500000      -8.88805224E-15
   8.00000000      -1.20737304E-14
   8.12500000      -1.54918362E-14
   8.25000000      -1.88302404E-14
   8.37500000      -2.16703266E-14
   8.50000000      -2.34998602E-14
   8.62500000      -2.37378544E-14
   8.75000000      -2.17713031E-14
   8.87500000      -1.70028515E-14
   9.00000000      -8.90793380E-15
   9.12500000       2.90050403E-15
   9.25000000       1.86020836E-14
   9.37500000       3.80967908E-14
   9.50000000       6.09340662E-14
   9.62500000       8.62479847E-14
   9.75000000       1.12704144E-13
   9.87500000       1.38465492E-13
   10.0000000       1.61185166E-13
   10.1250000       1.78035063E-13
   10.2500000       1.85779696E-13
   10.3750000       1.80902873E-13
   10.5000000       1.59794432E-13
   10.6250000       1.18999754E-13
   10.7500000       5.55314123E-14
   10.8750000      -3.27644711E-14
   11.0000000      -1.46801096E-13
   11.1250000      -2.85825210E-13
   11.2500000      -4.47002841E-13
   11.3750000      -6.25053991E-13
   11.5000000      -8.11978848E-13
   11.6250000      -9.96921404E-13
   11.7500000      -1.16621383E-12
   11.8750000      -1.30364090E-12
   12.0000000      -1.39095137E-12
   12.1250000      -1.40862918E-12
   12.2500000      -1.33692135E-12
   12.3750000      -1.15709439E-12
   12.5000000      -8.52874683E-13
   12.6250000      -4.12004252E-13
   12.7500000       1.72170438E-13
   12.8750000       8.99176838E-13
   13.0000000       1.76006681E-12
   13.1250000       2.73634804E-12
   13.2500000       3.79929898E-12
   13.3750000       4.90976140E-12
   13.5000000       6.01847652E-12
   13.6250000       7.06701841E-12
   13.7500000       7.98933402E-12
   13.8750000       8.71388291E-12
   14.0000000       9.16630920E-12
   14.1250000       9.27257576E-12
   14.2500000       8.96244710E-12
   14.3750000       8.17317134E-12
   14.5000000       6.85322719E-12
   14.6250000       4.96595993E-12
   14.7500000       2.49295853E-12
   14.8750000      -5.62989000E-13
   15.0000000      -4.17548418E-12
   15.1250000      -8.29277706E-12
   15.2500000      -1.28367516E-11
   15.3750000      -1.77027178E-11
   15.5000000      -2.27599745E-11
   15.6250000      -2.78531625E-11
   15.7500000      -3.28042905E-11
   15.8750000      -3.74153937E-11
   16.0000000      -4.14717254E-11
   16.1250000      -4.47453914E-11
   16.2500000      -4.69994044E-11
   16.3750000      -4.79921346E-11
   16.5000000      -4.74822889E-11
   16.6250000      -4.52344932E-11
   16.7500000      -4.10258008E-11
   16.8750000      -3.46532768E-11
   17.0000000      -2.59430515E-11
   17.1250000      -1.47610101E-11
   17.2500000      -1.02535569E-12
   17.3750000       1.52789864E-11
   17.5000000       3.40842493E-11
   17.6250000       5.52224759E-11
   17.7500000       7.84076346E-11
   17.8750000       1.03218156E-10
   18.0000000       1.29081301E-10
   18.1250000       1.55260901E-10
   18.2500000       1.80850196E-10
   18.3750000       2.04771741E-10
   18.5000000       2.25786306E-10
   18.6250000       2.42512455E-10
   18.7500000       2.53458560E-10
   18.8750000       2.57067978E-10
   19.0000000       2.51778265E-10
   19.1250000       2.36093950E-10
   19.2500000       2.08671358E-10
   19.3750000       1.68413672E-10
   19.5000000       1.14572345E-10
   19.6250000       4.68506345E-11
   19.7500000      -3.44965896E-11
   19.8750000      -1.28572888E-10
   20.0000000      -2.33767450E-10
   20.1250000      -3.47706031E-10
   20.2500000      -4.67232919E-10
   20.3750000      -5.88429749E-10
   20.5000000      -7.06675773E-10
   20.6250000      -8.16752554E-10
   20.7500000      -9.12994347E-10
   20.8750000      -9.89481941E-10
   21.0000000      -1.04027631E-09
   21.1250000      -1.05968456E-09
   21.2500000      -1.04254916E-09
   21.3750000      -9.84549331E-10
   21.5000000      -8.82500184E-10
   21.6250000      -7.34634686E-10
   21.7500000      -5.40854861E-10
   21.8750000      -3.02933595E-10
   22.0000000      -2.46556074E-11
   22.1250000       2.88117197E-10
   22.2500000       6.27467356E-10
   22.3750000       9.83535475E-10
   22.5000000       1.34473266E-09
   22.6250000       1.69804915E-09
   22.7500000       2.02945549E-09
   22.8750000       2.32438579E-09
   23.0000000       2.56828803E-09
   23.1250000       2.74722511E-09
   23.2500000       2.84850055E-09
   23.3750000       2.86128699E-09
   23.5000000       2.77722711E-09
   23.6250000       2.59098076E-09
   23.7500000       2.30068853E-09
   23.8750000       1.90832861E-09
   24.0000000       1.41993839E-09
   24.1250000       8.45690462E-10
   24.2500000       1.99797665E-10
   24.3750000      -4.99750075E-10
   24.5000000      -1.23162547E-09
   24.6250000      -1.97176919E-09
   24.7500000      -2.69415223E-09
   24.8750000      -3.37167183E-09
   25.0000000      -3.97715327E-09
   25.1250000      -4.48442883E-09
   25.2500000      -4.86944662E-09
   25.3750000      -5.11137621E-09
   25.5000000      -5.19365750E-09
   25.6250000      -5.10495202E-09
   25.7500000      -4.83994711E-09
   25.8750000      -4.39996661E-09
   26.0000000      -3.79335896E-09
   26.1250000      -3.03561931E-09
   26.2500000      -2.14922702E-09
   26.3750000      -1.16318566E-09
   26.5000000      -1.12261200E-10
   26.6250000       9.64077485E-10
   26.7500000       2.02297801E-09
   26.8750000       3.01976866E-09
   27.0000000       3.90969923E-09
   27.1250000       4.64980809E-09
   27.2500000       5.20084198E-09
   27.3750000       5.52915536E-09
   27.5000000       5.60849811E-09
   27.6250000       5.42161960E-09
   27.7500000       4.96159691E-09
   27.8750000       4.23281765E-09
   28.0000000       3.25155902E-09
   28.1250000       2.04610240E-09
   28.2500000       6.56364019E-10
   28.3750000      -8.66984873E-10
   28.5000000      -2.46388865E-09
   28.6250000      -4.06674339E-09
   28.7500000      -5.60264857E-09
   28.8750000      -6.99601133E-09
   29.0000000      -8.17138268E-09
   29.1250000      -9.05647735E-09
   29.2500000      -9.58519397E-09
   29.3750000      -9.70058966E-09
   29.5000000      -9.35762934E-09
   29.6250000      -8.52562820E-09
   29.7500000      -7.19025639E-09
   29.8750000      -5.35503597E-09
   30.0000000      -3.04223979E-09
   30.1250000      -2.93142982E-10
   30.2500000       2.83240031E-09
   30.3750000       6.25704955E-09
   30.5000000       9.88771376E-09
   30.6250000       1.36178970E-08
   30.7500000       1.73305530E-08
   30.8750000       2.09013482E-08
   31.0000000       2.42022562E-08
   31.1250000       2.71053171E-08
   31.2500000       2.94864773E-08
   31.3750000       3.12293267E-08
   31.5000000       3.22287050E-08
   31.6250000       3.23939631E-08
   31.7500000       3.16518864E-08
   31.8750000       2.99491170E-08
   32.0000000       2.72541421E-08
   32.1250000       2.35587336E-08
   32.2500000       1.88787865E-08
   32.3750000       1.32547529E-08
   32.5000000       6.75149847E-09
   32.6250000      -5.42282275E-10
   32.7500000      -8.51502868E-09
   32.8750000      -1.70336598E-08
   33.0000000      -2.59452140E-08
   33.1250000      -3.50787523E-08
   33.2500000      -4.42474608E-08
   33.3750000      -5.32509503E-08
   33.5000000      -6.18777420E-08
   33.6250000      -6.99078058E-08
   33.7500000      -7.71153807E-08
   33.8750000      -8.32718854E-08
   34.0000000      -8.81490578E-08
   34.1250000      -9.15221818E-08
   34.2500000      -9.31737603E-08
   34.3750000      -9.28972597E-08
   34.5000000      -9.05012598E-08
   34.6250000      -8.58138733E-08
   34.7500000      -7.86874423E-08
   34.8750000      -6.90035051E-08
   35.0000000      -5.66779512E-08
   35.1250000      -4.16663433E-08
   35.2500000      -2.39692817E-08
   35.3750000      -3.63755470E-09
   35.5000000       1.92228455E-08
   35.6250000       4.44462600E-08
   35.7500000       7.18035480E-08
   35.8750000       1.00999316E-07
   36.0000000       1.31669879E-07
   36.1250000       1.63383078E-07
   36.2500000       1.95639444E-07
   36.3750000       2.27875248E-07
   36.5000000       2.59467413E-07
   36.6250000       2.89740939E-07
   36.7500000       3.17978021E-07
   36.8750000       3.43430145E-07
   37.0000000       3.65331744E-07
   37.1250000       3.82916454E-07
   37.2500000       3.95435080E-07
   37.3750000       4.02175289E-07
   37.5000000       4.02482499E-07
   37.6250000       3.95781257E-07
   37.7500000       3.81597317E-07
   37.8750000       3.59578564E-07
   38.0000000       3.29515188E-07
   38.1250000       2.91357480E-07
   38.2500000       2.45231178E-07
   38.3750000       1.91449189E-07
   38.5000000       1.30518842E-07
   38.6250000       6.31447605E-08
   38.7500000      -9.77376757E-09
   38.8750000      -8.71510437E-08
   39.0000000      -1.67728999E-07
   39.1250000      -2.50096690E-07
   39.2500000      -3.32715445E-07
   39.3750000      -4.13948527E-07
   39.5000000      -4.92095182E-07
   39.6250000      -5.65427683E-07
   39.7500000      -6.32230297E-07
   39.8750000      -6.90839215E-07
   40.0000000      -7.39681411E-07
   40.1250000      -7.77312096E-07
   40.2500000      -8.02448028E-07
   40.3750000      -8.13996508E-07
   40.5000000      -8.11078507E-07
   40.6250000      -7.93044364E-07
   40.7500000      -7.59482589E-07
   40.8750000      -7.10219808E-07
   41.0000000      -6.45313435E-07
   41.1250000      -5.65035236E-07
   41.2500000      -4.69848374E-07
   41.3750000      -3.60377527E-07
   41.5000000      -2.37373627E-07
   41.6250000      -1.01674324E-07
   41.7500000       4.58374672E-08
   41.8750000       2.04276219E-07
   42.0000000       3.72795142E-07
   42.1250000       5.50624748E-07
   42.2500000       7.37107030E-07
   42.3750000       9.31723605E-07
   42.5000000       1.13411647E-06
   42.6250000       1.34410095E-06
   42.7500000       1.56166868E-06
   42.8750000       1.78698224E-06
   43.0000000       2.02035994E-06
   43.1250000       2.26225234E-06
   43.2500000       2.51320898E-06
   43.3750000       2.77383992E-06
   43.5000000       3.04477112E-06
   43.6250000       3.32659488E-06
   43.7500000       3.61981915E-06
   43.8750000       3.92481570E-06
   44.0000000       4.24177233E-06
   44.1250000       4.57064698E-06
   44.2500000       4.91112769E-06
   44.3750000       5.26260101E-06
   44.5000000       5.62412970E-06
   44.6250000       5.99444047E-06
   44.7500000       6.37192261E-06
   44.8750000       6.75463798E-06
   45.0000000       7.14034104E-06
   45.1250000       7.52651431E-06
   45.2500000       7.91040839E-06
   45.3750000       8.28909742E-06
   45.5000000       8.65953280E-06
   45.6250000       9.01861222E-06
   45.7500000       9.36324614E-06
   45.8750000       9.69042685E-06
   46.0000000       9.99729855E-06
   46.1250000       1.02812237E-05
   46.2500000       1.05398431E-05
   46.3750000       1.07711357E-05
   46.5000000       1.09734583E-05
   46.6250000       1.11455838E-05
   46.7500000       1.12867319E-05
   46.8750000       1.13965798E-05
   47.0000000       1.14752656E-05
   47.1250000       1.15233870E-05
   47.2500000       1.15419743E-05
   47.3750000       1.15324738E-05
   47.5000000       1.14967006E-05
   47.6250000       1.14368004E-05
   47.7500000       1.13552005E-05
   47.8750000       1.12545522E-05
   48.0000000       1.11376803E-05
   48.1250000       1.10075198E-05
   48.2500000       1.08670638E-05
   48.3750000       1.07193073E-05
   48.5000000       1.05672007E-05
   48.6250000       1.04136034E-05
   48.7500000       1.02612385E-05
   48.8750000       1.01126598E-05
   49.0000000       9.97023108E-06
   49.1250000       9.83608879E-06
   49.2500000       9.71213649E-06
   49.3750000       9.60003399E-06
   49.5000000       9.50118192E-06
   49.6250000       9.41672533E-06
   49.7500000       9.34755190E-06
   49.8750000       9.29429916E-06
   50.0000000       9.25735276E-06
   50.1250000       9.23685639E-06
   50.2500000       9.23271364E-06
   50.3750000       9.24459891E-06
   50.5000000       9.27195470E-06
   50.6250000       9.31400700E-06
   50.7500000       9.36976176E-06
   50.8750000       9.43802388E-06
   51.0000000       9.51738457E-06
   51.1250000       9.60624402E-06
   51.2500000       9.70280689E-06
   51.3750000       9.80508685E-06
   51.5000000       9.91093839E-06
   51.6250000       1.00180596E-05
   51.7500000       1.01240012E-05
   51.8750000       1.02262047E-05
   52.0000000       1.03220291E-05
   52.1250000       1.04087785E-05
   52.2500000       1.04837318E-05
   52.3750000       1.05442077E-05
   52.5000000       1.05875943E-05
   52.6250000       1.06114094E-05
   52.7500000       1.06133530E-05
   52.8750000       1.05913723E-05
   53.0000000       1.05437121E-05
   53.1250000       1.04689880E-05
   53.2500000       1.03662260E-05
   53.3750000       1.02349213E-05
   53.5000000       1.00750967E-05
   53.6250000       9.88732063E-06
   53.7500000       9.67275992E-06
   53.8750000       9.43317900E-06
   54.0000000       9.17097077E-06
   54.1250000       8.88912655E-06
   54.2500000       8.59124248E-06
   54.3750000       8.28146767E-06
   54.5000000       7.96446966E-06
   54.6250000       7.64536890E-06
   54.7500000       7.32966691E-06
   54.8750000       7.02316220E-06
   55.0000000       6.73185514E-06
   55.1250000       6.46184571E-06
   55.2500000       6.21921845E-06
   55.3750000       6.00992962E-06
   55.5000000       5.83969995E-06
   55.6250000       5.71387591E-06
   55.7500000       5.63733101E-06
   55.8750000       5.61435490E-06
   56.0000000       5.64855327E-06
   56.1250000       5.74274691E-06
   56.2500000       5.89890305E-06
   56.3750000       6.11806263E-06
   56.5000000       6.40029475E-06
   56.6250000       6.74466310E-06
   56.7500000       7.14921407E-06
   56.8750000       7.61097272E-06
   57.0000000       8.12597500E-06
   57.1250000       8.68931329E-06
   57.2500000       9.29519047E-06
   57.3750000       9.93701269E-06
   57.5000000       1.06074749E-05
   57.6250000       1.12986636E-05
   57.7500000       1.20021950E-05
   57.8750000       1.27093344E-05
   58.0000000       1.34111369E-05
   58.1250000       1.40985849E-05
   58.2500000       1.47627352E-05
   58.3750000       1.53948513E-05
   58.5000000       1.59865431E-05
   58.6250000       1.65298934E-05
   58.7500000       1.70175699E-05
   58.8750000       1.74429479E-05
   59.0000000       1.78001774E-05
   59.1250000       1.80842962E-05
   59.2500000       1.82912663E-05
   59.3750000       1.84180408E-05
   59.5000000       1.84625897E-05
   59.6250000       1.84239270E-05
   59.7500000       1.83021129E-05
   59.8750000       1.80982388E-05
   60.0000000       1.78144073E-05
   60.1250000       1.74537035E-05
   60.2500000       1.70201220E-05
   60.3750000       1.65185302E-05
   60.5000000       1.59545853E-05
   60.6250000       1.53346537E-05
   60.7500000       1.46657476E-05
   60.8750000       1.39554031E-05
   61.0000000       1.32116120E-05
   61.1250000       1.24427052E-05
   61.2500000       1.16572455E-05
   61.3750000       1.08639397E-05
   61.5000000       1.00715179E-05
   61.6250000       9.28863119E-06
   61.7500000       8.52376616E-06
   61.8750000       7.78511367E-06
   62.0000000       7.08048401E-06
   62.1250000       6.41721863E-06
   62.2500000       5.80209462E-06
   62.3750000       5.24124061E-06
   62.5000000       4.74006310E-06
   62.6250000       4.30316959E-06
   62.7500000       3.93432174E-06
   62.8750000       3.63638082E-06
   63.0000000       3.41125724E-06
   63.1250000       3.25991618E-06
   63.2500000       3.18234129E-06
   63.3750000       3.17754348E-06
   63.5000000       3.24358780E-06
   63.6250000       3.37762708E-06
   63.7500000       3.57594558E-06
   63.8750000       3.83404540E-06
   64.0000000       4.14671331E-06
   64.1250000       4.50814287E-06
   64.2500000       4.91202945E-06
   64.3750000       5.35170147E-06
   64.5000000       5.82025905E-06
   64.6250000       6.31072544E-06
   64.7500000       6.81615802E-06
   64.8750000       7.32982971E-06
   65.0000000       7.84536223E-06
   65.1250000       8.35684023E-06
   65.2500000       8.85893769E-06
   65.3750000       9.34703257E-06
   65.5000000       9.81728317E-06
   65.6250000       1.02666927E-05
   65.7500000       1.06931566E-05
   65.8750000       1.10954752E-05
   66.0000000       1.14733521E-05
   66.1250000       1.18273492E-05
   66.2500000       1.21588237E-05
   66.3750000       1.24698790E-05
   66.5000000       1.27632275E-05
   66.6250000       1.30420831E-05
   66.7500000       1.33100575E-05
   66.8750000       1.35709752E-05
   67.0000000       1.38287769E-05
   67.1250000       1.40873317E-05
   67.2500000       1.43503275E-05
   67.3750000       1.46211405E-05
   67.5000000       1.49027137E-05
   67.6250000       1.51974518E-05
   67.7500000       1.55071648E-05
   67.8750000       1.58329858E-05
   68.0000000       1.61753705E-05
   68.1250000       1.65340625E-05
   68.2500000       1.69081304E-05
   68.3750000       1.72959972E-05
   68.5000000       1.76955200E-05
   68.6250000       1.81040468E-05
   68.7500000       1.85185436E-05
   68.8750000       1.89356742E-05
   69.0000000       1.93519336E-05
   69.1250000       1.97637746E-05
   69.2500000       2.01676885E-05
   69.3750000       2.05603446E-05
   69.5000000       2.09386762E-05
   69.6250000       2.12999530E-05
   69.7500000       2.16418630E-05
   69.8750000       2.19625435E-05
   70.0000000       2.22606159E-05
   70.1250000       2.25351796E-05
   70.2500000       2.27857945E-05
   70.3750000       2.30124569E-05
   70.5000000       2.32155217E-05
   70.6250000       2.33956471E-05
   70.7500000       2.35537154E-05
   70.8750000       2.36907272E-05
   71.0000000       2.38077318E-05
   71.1250000       2.39057117E-05
   71.2500000       2.39854944E-05
   71.3750000       2.40476838E-05
   71.5000000       2.40925674E-05
   71.6250000       2.41200378E-05
   71.7500000       2.41295820E-05
   71.8750000       2.41202379E-05
   72.0000000       2.40905374E-05
   72.1250000       2.40385561E-05
   72.2500000       2.39619185E-05
   72.3750000       2.38578432E-05
   72.5000000       2.37232089E-05
   72.6250000       2.35546304E-05
   72.7500000       2.33485171E-05
   72.8750000       2.31012455E-05
   73.0000000       2.28092085E-05
   73.1250000       2.24689647E-05
   73.2500000       2.20773709E-05
   73.3750000       2.16316712E-05
   73.5000000       2.11296647E-05
   73.6250000       2.05697725E-05
   73.7500000       1.99511705E-05
   73.8750000       1.92738426E-05
   74.0000000       1.85387253E-05
   74.1250000       1.77476686E-05
   74.2500000       1.69035284E-05
   74.3750000       1.60101645E-05
   74.5000000       1.50724054E-05
   74.6250000       1.40960483E-05
   74.7500000       1.30877497E-05
   74.8750000       1.20549639E-05
   75.0000000       1.10058445E-05
   75.1250000       9.94909988E-06
   75.2500000       8.89386683E-06
   75.3750000       7.84952135E-06
   75.5000000       6.82555219E-06
   75.6250000       5.83138262E-06
   75.7500000       4.87615853E-06
   75.8750000       3.96860378E-06
   76.0000000       3.11686358E-06
   76.1250000       2.32832599E-06
   76.2500000       1.60950447E-06
   76.3750000       9.65909976E-07
   76.5000000       4.01947375E-07
   76.6250000      -7.91284975E-08
   76.7500000      -4.75281638E-07
   76.8750000      -7.85690929E-07
   77.0000000      -1.01073852E-06
   77.1250000      -1.15193643E-06
   77.2500000      -1.21187031E-06
   77.3750000      -1.19407002E-06
   77.5000000      -1.10286828E-06
   77.6250000      -9.43250086E-07
   77.7500000      -7.20666037E-07
   77.8750000      -4.40822078E-07
   78.0000000      -1.09485136E-07
   78.1250000       2.67728240E-07
   78.2500000       6.85575969E-07
   78.3750000       1.13934868E-06
   78.5000000       1.62510389E-06
   78.6250000       2.13979797E-06
   78.7500000       2.68140320E-06
   78.8750000       3.24905500E-06
   79.0000000       3.84304394E-06
   79.1250000       4.46490549E-06
   79.2500000       5.11733879E-06
   79.3750000       5.80417372E-06
   79.5000000       6.53025427E-06
   79.6250000       7.30127431E-06
   79.7500000       8.12357393E-06
   79.8750000       9.00394480E-06
   80.0000000       9.94935726E-06
   80.1250000       1.09667126E-05
   80.2500000       1.20625054E-05
   80.3750000       1.32425757E-05
   80.5000000       1.45117729E-05
   80.6250000       1.58737021E-05
   80.7500000       1.73304525E-05
   80.8750000       1.88823524E-05
   81.0000000       2.05277720E-05
   81.1250000       2.22629606E-05
   81.2500000       2.40819354E-05
   81.3750000       2.59764129E-05
   81.5000000       2.79358101E-05
   81.6250000       2.99473340E-05
   81.7500000       3.19960600E-05
   81.8750000       3.40651568E-05
   82.0000000       3.61360944E-05
   82.1250000       3.81889877E-05
   82.2500000       4.02029254E-05
   82.3750000       4.21563927E-05
   82.5000000       4.40276999E-05
   82.6250000       4.57954484E-05
   82.7500000       4.74390508E-05
   82.8750000       4.89391641E-05
   83.0000000       5.02781877E-05
   83.1250000       5.14407329E-05
   83.2500000       5.24140305E-05
   83.3750000       5.31882761E-05
   83.5000000       5.37569686E-05
   83.6250000       5.41171285E-05
   83.7500000       5.42694543E-05
   83.8750000       5.42183843E-05
   84.0000000       5.39720641E-05
   84.1250000       5.35422150E-05
   84.2500000       5.29439021E-05
   84.3750000       5.21952388E-05
   84.5000000       5.13169507E-05
   84.6250000       5.03319243E-05
   84.7500000       4.92646432E-05
   84.8750000       4.81405841E-05
   85.0000000       4.69855877E-05
   85.1250000       4.58251998E-05
   85.2500000       4.46840277E-05
   85.3750000       4.35851107E-05
   85.5000000       4.25493308E-05
   85.6250000       4.15948780E-05
   85.7500000       4.07368279E-05
   85.8750000       3.99867749E-05
   86.0000000       3.93525806E-05
   86.1250000       3.88382505E-05
   86.2500000       3.84439263E-05
   86.3750000       3.81659702E-05
   86.5000000       3.79972225E-05
   86.6250000       3.79273042E-05
   86.7500000       3.79430712E-05
   86.8750000       3.80291276E-05
   87.0000000       3.81684149E-05
   87.1250000       3.83428305E-05
   87.2500000       3.85339044E-05
   87.3750000       3.87234359E-05
   87.5000000       3.88941189E-05
   87.6250000       3.90301539E-05
   87.7500000       3.91177564E-05
   87.8750000       3.91455833E-05
   88.0000000       3.91050999E-05
   88.1250000       3.89907873E-05
   88.2500000       3.88002627E-05
   88.3750000       3.85342828E-05
   88.5000000       3.81965910E-05
   88.6250000       3.77936885E-05
   88.7500000       3.73344810E-05
   88.8750000       3.68298497E-05
   89.0000000       3.62921128E-05
   89.1250000       3.57344870E-05
   89.2500000       3.51704657E-05
   89.3750000       3.46132110E-05
   89.5000000       3.40749502E-05
   89.6250000       3.35664081E-05
   89.7500000       3.30962794E-05
   89.8750000       3.26707814E-05
   90.0000000       3.22932865E-05
   90.1250000       3.19640458E-05
   90.2500000       3.16800542E-05
   90.3750000       3.14349636E-05
   90.5000000       3.12191769E-05
   90.6250000       3.10200121E-05
   90.7500000       3.08219751E-05
   90.8750000       3.06071597E-05
   91.0000000       3.03556590E-05
   91.1250000       3.00461397E-05
   91.2500000       2.96563885E-05
   91.3750000       2.91639517E-05
   91.5000000       2.85467540E-05
   91.6250000       2.77837335E-05
   91.7500000       2.68554595E-05
   91.8750000       2.57446973E-05
   92.0000000       2.44369166E-05
   92.1250000       2.29207490E-05
   92.2500000       2.11883544E-05
   92.3750000       1.92356802E-05
   92.5000000       1.70626554E-05
   92.6250000       1.46732764E-05
   92.7500000       1.20755740E-05
   92.8750000       9.28152440E-06
   93.0000000       6.30683144E-06
   93.1250000       3.17068680E-06
   93.2500000      -1.04614813E-07
   93.3750000      -3.49405968E-06
   93.5000000      -6.97036967E-06
   93.6250000      -1.05044810E-05
   93.7500000      -1.40660504E-05
   93.8750000      -1.76239464E-05
   94.0000000      -2.11467577E-05
   94.1250000      -2.46032687E-05
   94.2500000      -2.79629367E-05
   94.3750000      -3.11962976E-05
   94.5000000      -3.42753810E-05
   94.6250000      -3.71740171E-05
   94.7500000      -3.98681623E-05
   94.8750000      -4.23361416E-05
   95.0000000      -4.45588485E-05
   95.1250000      -4.65198937E-05
   95.2500000      -4.82057148E-05
   95.3750000      -4.96056455E-05
   95.5000000      -5.07119366E-05
   95.6250000      -5.15197862E-05
   95.7500000      -5.20272770E-05
   95.8750000      -5.22353621E-05
   96.0000000      -5.21477486E-05
   96.1250000      -5.17708540E-05
   96.2500000      -5.11136932E-05
   96.3750000      -5.01877512E-05
   96.5000000      -4.90068596E-05
   96.6250000      -4.75870802E-05
   96.7500000      -4.59465300E-05
   96.8750000      -4.41052398E-05
   97.0000000      -4.20849974E-05
   97.1250000      -3.99091259E-05
   97.2500000      -3.76023127E-05
   97.3750000      -3.51903655E-05
   97.5000000      -3.26999834E-05
   97.6250000      -3.01584787E-05
   97.7500000      -2.75934908E-05
   97.8750000      -2.50326866E-05
   98.0000000      -2.25034382E-05
   98.1250000      -2.00324866E-05
   98.2500000      -1.76455833E-05
   98.3750000      -1.53671372E-05
   98.5000000      -1.32198438E-05
   98.6250000      -1.12243333E-05
   98.7500000      -9.39884831E-06
   98.8750000      -7.75892386E-06
   99.0000000      -6.31710327E-06
   99.1250000      -5.08271069E-06
   99.2500000      -4.06165918E-06
   99.3750000      -3.25633800E-06
   99.5000000      -2.66555321E-06
   99.6250000      -2.28452791E-06
   99.7500000      -2.10499093E-06
   99.8750000      -2.11533893E-06
   100.000000      -2.30087448E-06
   100.125000      -2.64411324E-06
   100.250000      -3.12513794E-06
   100.375000      -3.72204977E-06
   100.500000      -4.41142902E-06
   100.625000      -5.16886621E-06
   100.750000      -5.96947120E-06
   100.875000      -6.78843753E-06
   101.000000      -7.60158082E-06
   101.125000      -8.38586129E-06
   101.250000      -9.11987718E-06
   101.375000      -9.78432945E-06
   101.500000      -1.03624052E-05
   101.625000      -1.08401400E-05
   101.750000      -1.12066655E-05
   101.875000      -1.14544127E-05
   102.000000      -1.15792027E-05
   102.125000      -1.15802759E-05
   102.250000      -1.14602344E-05
   102.375000      -1.12248808E-05
   102.500000      -1.08830109E-05