  -4.50000000         0.00000000    
  -4.37320757         0.00000000    
  -4.24641466         0.00000000    
  -4.11962223         0.00000000    
  -3.99282932         0.00000000    
  -3.86603665         0.00000000    
  -3.73924398         0.00000000    
  -3.61245155         6.46024236E-31
  -3.48565888         3.72165913E-30
  -3.35886621         3.32132908E-29
  -3.23207355         1.45573425E-28
  -3.10528088         6.39644716E-28
  -2.97848821         3.29213650E-27
  -2.85169554         1.66033018E-26
  -2.72490287         7.06515845E-26
  -2.59811020         2.46664726E-25
  -2.47131753         7.13505164E-25
  -2.34452486         1.72878572E-24
  -2.21773219         3.51332812E-24
  -2.09093952         5.88989979E-24
  -1.96414697         7.68070476E-24
  -1.83735430         6.16863866E-24
  -1.71056163        -2.59833131E-24
  -1.58376896        -2.15665405E-23
  -1.45697629        -4.78913101E-23
  -1.33018374        -6.69377950E-23
  -1.20339108        -4.97529430E-23
  -1.07659841         3.81548480E-23
 -0.949805737         2.09441586E-22
 -0.823013067         4.10080292E-22
 -0.696220458         4.76001195E-22
 -0.569427788         1.32154485E-22
 -0.442635119        -9.13594228E-22
 -0.315842479        -2.74915860E-21
 -0.189049825        -4.94377620E-21
  -6.22571707E-02    -6.28206840E-21
   6.45354837E-02    -4.79340462E-21
  0.191328138         1.65164906E-21
  0.318120778         1.40464218E-20
  0.444913447         3.04698829E-20
  0.571706116         4.45299273E-20
  0.698498726         4.51698905E-20
  0.825291395         1.90673355E-20
  0.952084064        -4.36943554E-20
   1.07887673        -1.41293034E-19
   1.20566940        -2.51596858E-19
   1.33246195        -3.27492799E-19
   1.45925462        -3.00977395E-19
   1.58604729        -9.97426403E-20
   1.71283996         3.23422812E-19
   1.83963263         9.53396277E-19
   1.96642530         1.67845183E-18
   2.09321785         2.27398423E-18
   2.22001052         2.41958374E-18
   2.34680319         1.75971115E-18
   2.47359586         7.64181196E-21
   2.60038853        -2.92170594E-18
   2.72718120        -6.77827983E-18
   2.85397387        -1.08801283E-17
   2.98076653        -1.40916934E-17
   3.10755920        -1.49070321E-17
   3.23435187        -1.16518622E-17
   3.36114454        -2.79927866E-18
   3.48793697         1.26231500E-17
   3.61472964         3.45700252E-17
   3.74152231         6.15040417E-17
   3.86831498         8.99714691E-17
   3.99510765         1.14314839E-16
   4.12190056         1.26653290E-16
   4.24869299         1.17311085E-16
   4.37548542         7.59061363E-17
   4.50227833        -6.71650226E-18
   4.62907076        -1.35650222E-16
   4.75586367        -3.08392494E-16
   4.88265610        -5.11183378E-16
   5.00944901        -7.16204262E-16
   5.13624144        -8.80951799E-16
   5.26303434        -9.51171836E-16
   5.38982677        -8.68394377E-16
   5.51661968        -5.82265906E-16
   5.64341211        -6.65827321E-17
   5.77020502         6.63595469E-16
   5.89699745         1.53774332E-15
   6.02379036         2.42333691E-15
   6.15058279         3.13147064E-15
   6.27737522         3.43755891E-15
   6.40416813         3.11728856E-15
   6.53096056         1.99444114E-15
   6.65775347        -6.40373080E-18
   6.78454590        -2.81206193E-15
   6.91133881        -6.16873301E-15
   7.03813124        -9.63569265E-15
   7.16492414        -1.26114202E-14
   7.29171658        -1.43940595E-14
   7.41850948        -1.42724950E-14
   7.54530191        -1.16390026E-14
   7.67209482        -6.11029112E-15
   7.79888725         2.35865091E-15
   7.92567968         1.33841277E-14
   8.05247211         2.61020657E-14
   8.17926502         3.91685247E-14
   8.30605793         5.08231932E-14
   8.43285084         5.90229702E-14
   8.55964279         6.16477830E-14
   8.68643570         5.67732913E-14
   8.81322861         4.29954026E-14
   8.94002151         1.97784717E-14
   9.06681347        -1.22142193E-14
   9.19360638        -5.08618314E-14
   9.32039928        -9.24607816E-14
   9.44719219        -1.31794613E-13
   9.57398415        -1.62449332E-13
   9.70077705        -1.77402567E-13
   9.82756996        -1.69882514E-13
   9.95436192        -1.34453334E-13
   10.0811548        -6.82422462E-14
   10.2079477         2.78144309E-14
   10.3347406         1.47859711E-13
   10.4615326         2.80311039E-13
   10.5883255         4.07538207E-13
   10.7151184         5.06190142E-13
   10.8419113         5.48308089E-13
   10.9687033         5.03317115E-13
   11.0954962         3.40923443E-13
   11.2222891         3.48623413E-14
   11.3490820        -4.32660174E-13
   11.4758739        -1.06609882E-12
   11.6026669        -1.85166032E-12
   11.7294598        -2.75284179E-12
   11.8562517        -3.70699782E-12
   11.9830446        -4.62355024E-12
   12.1098375        -5.38446154E-12
   12.2366304        -5.84751952E-12
   12.3634224        -5.85285292E-12
   12.4902153        -5.23290309E-12
   12.6170082        -3.82584459E-12
   12.7438011        -1.49211427E-12
   12.8705931         1.86657612E-12
   12.9973860         6.28676191E-12
   13.1241789         1.17226368E-11
   13.2509708         1.80270434E-11
   13.3777637         2.49360359E-11
   13.5045567         3.20591435E-11
   13.6313496         3.88775782E-11
   13.7581415         4.47524309E-11
   13.8849344         4.89445949E-11
   14.0117273         5.06474793E-11
   14.1385202         4.90328889E-11
   14.2653122         4.33092312E-11
   14.3921051         3.27901872E-11
   14.5188980         1.69706228E-11
   14.6456909        -4.39453465E-12
   14.7724829        -3.12139065E-11
   14.8992758        -6.29919381E-11
   15.0260687        -9.87764939E-11
   15.1528606        -1.37128420E-10
   15.2796535        -1.76119300E-10
   15.4064465        -2.13362661E-10
   15.5332394        -2.46082349E-10
   15.6600313        -2.71219797E-10
   15.7868242        -2.85579727E-10
   15.9136171        -2.86010576E-10
   16.0404091        -2.69613415E-10
   16.1672020        -2.33970038E-10
   16.2939949        -1.77378459E-10
   16.4207878        -9.90814653E-11
   16.5475807         5.27381036E-13
   16.6743736         1.19736554E-10
   16.8011646         2.55404281E-10
   16.9279575         4.02915562E-10
   17.0547504         5.56220514E-10
   17.1815434         7.07962355E-10
   17.3083363         8.49699588E-10
   17.4351292         9.72220193E-10
   17.5619221         1.06594200E-09
   17.6887150         1.12138687E-09
   17.8155060         1.12970988E-09
   17.9422989         1.08325970E-09
   18.0690918         9.76145609E-10
   18.1958847         8.04775691E-10
   18.3226776         5.68337988E-10
   18.4494705         2.69189837E-10
   18.5762634        -8.68743480E-11
   18.7030544        -4.90503416E-10
   18.8298473        -9.28839228E-10
   18.9566402        -1.38574952E-09
   19.0834332        -1.84224991E-09
   19.2102261        -2.27711094E-09
   19.3370190        -2.66763700E-09
   19.4638119        -2.99059355E-09
   19.5906048        -3.22325278E-09
   19.7173958        -3.34451422E-09
   19.8441887        -3.33605610E-09
   19.9709816        -3.18346460E-09
   20.0977745        -2.87728663E-09
   20.2245674        -2.41394882E-09
   20.3513603        -1.79649207E-09
   20.4781532        -1.03507170E-09
   20.6049442        -1.47180212E-10
   20.7317371         8.42437176E-10
   20.8585300         1.90219729E-09
   20.9853230         2.99443093E-09
   21.1121159         4.07646583E-09
   21.2389088         5.10202103E-09
   21.3657017         6.02287731E-09
   21.4924946         6.79077106E-09
   21.6192856         7.35945704E-09
   21.7460785         7.68685382E-09
   21.8728714         7.73720465E-09
   21.9996643         7.48314832E-09
   22.1264572         6.90761626E-09
   22.2532501         6.00545969E-09
   22.3800430         4.78471573E-09
   22.5068340         3.26742366E-09
   22.6336269         1.48993218E-09
   22.7604198        -4.97371200E-10
   22.8872128        -2.63094124E-09
   23.0140057        -4.83558171E-09
   23.1407986        -7.02658021E-09
   23.2675915        -9.11242015E-09
   23.3943844        -1.09980318E-08
   23.5211754        -1.25884725E-08
   23.6479683        -1.37929437E-08
   23.7747612        -1.45289931E-08
   23.9015541        -1.47267469E-08
   24.0283470        -1.43330050E-08
   24.1551399        -1.33149882E-08
   24.2819328        -1.16635839E-08
   24.4087238        -9.39587697E-09
   24.5355167        -6.55678223E-09
   24.6623096        -3.21965987E-09
   24.7891026         5.14245035E-10
   24.9158955         4.51760318E-09
   25.0426884         8.64009664E-09
   25.1694813         1.27127890E-08
   25.2962742         1.65537006E-08
   25.4230652         1.99744790E-08
   25.5498581         2.27879653E-08
   25.6766510         2.48164191E-08
   25.8034439         2.59001087E-08
   25.9302368         2.59059174E-08
   26.0570297         2.47356109E-08
   26.1838226         2.23333689E-08
   26.3106136         1.86921607E-08
   26.4374065         1.38586094E-08
   26.5641994         7.93597632E-09
   26.6909924         1.08499598E-09
   26.8177853        -6.47774945E-09
   26.9445782        -1.44839687E-08
   27.0713711        -2.26204335E-08
   27.1981640        -3.05382564E-08
   27.3249550        -3.78645986E-08
   27.4517479        -4.42164065E-08
   27.5785408        -4.92158421E-08
   27.7053337        -5.25068593E-08
   27.8321266        -5.37723253E-08
   27.9589195        -5.27509911E-08
   28.0857124        -4.92536287E-08
   28.2125034        -4.31775540E-08
   28.3392963        -3.45187559E-08
   28.4660892        -2.33810056E-08
   28.5928822        -9.98126914E-09
   28.7196751         5.34907008E-09
   28.8464680         2.21675549E-08
   28.9732609         3.99287963E-08
   29.1000538         5.79974646E-08
   29.2268448         7.56659446E-08
   29.3536377         9.21762719E-08
   29.4804306         1.06745880E-07
   29.6072235         1.18596297E-07
   29.7340164         1.26984020E-07
   29.8608093         1.31232341E-07
   29.9876022         1.30763041E-07
   30.1143932         1.25126817E-07
   30.2411861         1.14030939E-07
   30.3679790         9.73631842E-08
   30.4947720         7.52105294E-08
   30.6215649         4.78720317E-08
   30.7483578         1.58645648E-08
   30.8751507        -2.00788683E-08
   31.0019417        -5.90188556E-08
   31.1287346        -9.98273890E-08
   31.2555275        -1.41213576E-07
   31.3823204        -1.81756818E-07
   31.5091133        -2.19946614E-07
   31.6359062        -2.54228127E-07
   31.7626991        -2.83052117E-07
   31.8894920        -3.04927539E-07
   32.0162849        -3.18475685E-07
   32.1430779        -3.22483459E-07
   32.2698708        -3.15954509E-07
   32.3966637        -2.98156010E-07
   32.5234528        -2.68659818E-07
   32.6502457        -2.27375622E-07
   32.7770386        -1.74575788E-07
   32.9038315        -1.10909660E-07
   33.0306244        -3.74072542E-08
   33.1574173         4.45287078E-08
   33.2842102         1.33142336E-07
   33.4110031         2.26355638E-07
   33.5377960         3.21810631E-07
   33.6645889         4.16921608E-07
   33.7913818         5.08936239E-07
   33.9181747         5.95004337E-07
   34.0449677         6.72252327E-07
   34.1717606         7.37861285E-07
   34.2985535         7.89147009E-07
   34.4253426         8.23639311E-07
   34.5521355         8.39159043E-07
   34.6789284         8.33889487E-07
   34.8057213         8.06441506E-07
   34.9325142         7.55909412E-07
   35.0593071         6.81916447E-07
   35.1861000         5.84647523E-07
   35.3128929         4.64869686E-07
   35.4396858         3.23937940E-07
   35.5664787         1.63786595E-07
   35.6932716        -1.30935982E-08
   35.8200645        -2.03693048E-07
   35.9468575        -4.04533949E-07
   36.0736504        -6.11733640E-07
   36.2004433        -8.21078743E-07
   36.3272324        -1.02810884E-06
   36.4540253        -1.22820700E-06
   36.5808182        -1.41669614E-06
   36.7076111        -1.58893636E-06
   36.8344040        -1.74042532E-06
   36.9611969        -1.86689442E-06
   37.0879898        -1.96440055E-06
   37.2147827        -2.02941283E-06
   37.3415756        -2.05889000E-06
   37.4683685        -2.05034644E-06
   37.5951614        -2.00190948E-06
   37.7219543        -1.91236177E-06
   37.8487473        -1.78117068E-06
   37.9755402        -1.60850709E-06
   38.1023293        -1.39524889E-06
   38.2291222        -1.14297472E-06
   38.3559151        -8.53945153E-07
   38.4827080        -5.31076353E-07
   38.6095009        -1.77905193E-07
   38.7362938         2.01450007E-07
   38.8630867         6.02332648E-07
   38.9898796         1.01959210E-06
   39.1166725         1.44762726E-06
   39.2434654         1.88042702E-06
   39.3702583         2.31160789E-06
   39.4970512         2.73444630E-06
   39.6238441         3.14190402E-06
   39.7506371         3.52665074E-06
   39.8774300         3.88107856E-06
   40.0042191         4.19731668E-06
   40.1310120         4.46723743E-06
   40.2578049         4.68246799E-06
   40.3845978         4.83440135E-06
   40.5113907         4.91421042E-06
   40.6381836         4.91287346E-06
   40.7649765         4.82120549E-06
   40.8917694         4.62990556E-06
   41.0185623         4.32961542E-06
   41.1453552         3.91100048E-06
   41.2721481         3.36484072E-06
   41.3989410         2.68214944E-06
   41.5257339         1.85430338E-06
   41.6525269         8.73193699E-07
   41.7793198        -2.68609767E-07
   41.9061089        -1.57768227E-06
   42.0329018        -3.05955768E-06
   42.1596947        -4.71853855E-06
   42.2864876        -6.55750273E-06
   42.4132805        -8.57772102E-06
   42.5400734        -1.07786827E-05
   42.6668663        -1.31579309E-05
   42.7936592        -1.57109353E-05
   42.9204521        -1.84309720E-05
   43.0472450        -2.13090443E-05
   43.1740379        -2.43338454E-05
   43.3008308        -2.74917384E-05
   43.4276237        -3.07667906E-05
   43.5544167        -3.41408486E-05
   43.6812096        -3.75936543E-05
   43.8079987        -4.11029905E-05
   43.9347916        -4.46448794E-05
   44.0615845        -4.81938114E-05
   44.1883774        -5.17230073E-05
   44.3151703        -5.52047059E-05
   44.4419632        -5.86104798E-05
   44.5687561        -6.19115817E-05
   44.6955490        -6.50792790E-05
   44.8223419        -6.80852245E-05
   44.9491348        -7.09017986E-05
   45.0759277        -7.35025096E-05
   45.2027206        -7.58622919E-05
   45.3295135        -7.79578550E-05
   45.4563065        -7.97680186E-05
   45.5830994        -8.12739818E-05
   45.7098885        -8.24595772E-05
   45.8366814        -8.33114973E-05
   45.9634743        -8.38195119E-05
   46.0902672        -8.39765635E-05
   46.2170601        -8.37788975E-05
   46.3438530        -8.32261503E-05
   46.4706459        -8.23212977E-05
   46.5974388        -8.10706406E-05
   46.7242317        -7.94837324E-05
   46.8510246        -7.75732260E-05
   46.9778175        -7.53547210E-05
   47.1046104        -7.28465675E-05
   47.2314034        -7.00695673E-05
   47.3581963        -6.70467562E-05
   47.4849892        -6.38030760E-05
   47.6117783        -6.03650769E-05
   47.7385712        -5.67605603E-05
   47.8653641        -5.30182770E-05
   47.9921570        -4.91676074E-05
   48.1189499        -4.52382446E-05
   48.2457428        -4.12598820E-05
   48.3725357        -3.72619616E-05
   48.4993286        -3.32734089E-05
   48.6261215        -2.93224184E-05
   48.7529144        -2.54362640E-05
   48.8797073        -2.16411590E-05
   49.0065002        -1.79621147E-05
   49.1332932        -1.44228979E-05
   49.2600861        -1.10459086E-05
   49.3868790        -7.85216071E-06
   49.5136681        -4.86122281E-06
   49.6404610        -2.09121026E-06
   49.7672539         4.41254855E-07
   49.8940468         2.72107832E-06
   50.0208397         4.73473983E-06
   50.1476326         6.47033085E-06
   50.2744255         7.91766888E-06
   50.4012184         9.06837431E-06
   50.5280113         9.91602155E-06
   50.6548042         1.04562778E-05
   50.7815971         1.06871012E-05
   50.9083900         1.06089074E-05
   51.0351830         1.02247668E-05
   51.1619759         9.54057668E-06
   51.2887688         8.56523093E-06
   51.4155579         7.31077262E-06
   51.5423508         5.79246762E-06
   51.6691437         4.02887463E-06
   51.7959366         2.04184471E-06
   51.9227295        -1.43552654E-07
   52.0495224        -2.49919049E-06
   52.1763153        -4.99409953E-06
   52.3031082        -7.59478462E-06
   52.4299011        -1.02656340E-05
   52.5566940        -1.29693781E-05
   52.6834869        -1.56676360E-05
   52.8102798        -1.83215161E-05
   52.9370728        -2.08922393E-05
   53.0638657        -2.33418286E-05
   53.1906586        -2.56337735E-05
   53.3174477        -2.77336712E-05
   53.4442406        -2.96098860E-05
   53.5710335        -3.12341144E-05
   53.6978264        -3.25819492E-05
   53.8246193        -3.36333178E-05
   53.9514122        -3.43727988E-05
   54.0782051        -3.47899113E-05
   54.2049980        -3.48792018E-05
   54.3317909        -3.46403031E-05
   54.4585838        -3.40777951E-05
   54.5853767        -3.32010459E-05
   54.7121696        -3.20238796E-05
   54.8389626        -3.05641952E-05
   54.9657555        -2.88435531E-05
   55.0925484        -2.68866006E-05
   55.2193375        -2.47205789E-05
   55.3461304        -2.23747356E-05
   55.4729233        -1.98797516E-05
   55.5997162        -1.72671844E-05
   55.7265091        -1.45689492E-05
   55.8533020        -1.18168482E-05
   55.9800949        -9.04211538E-06
   56.1068878        -6.27510963E-06
   56.2336807        -3.54497320E-06
   56.3604736        -8.79396850E-07
   56.4872665         1.69557245E-06
   56.6140594         4.15569093E-06
   56.7408524         6.47862134E-06
   56.8676453         8.64400772E-06
   56.9944382         1.06335519E-05
   57.1212273         1.24310654E-05
   57.2480202         1.40225548E-05
   57.3748131         1.53962774E-05
   57.5016060         1.65428282E-05
   57.6283989         1.74552861E-05
   57.7551918         1.81293562E-05
   57.8819847         1.85635363E-05
   58.0087776         1.87593105E-05
   58.1355705         1.87213172E-05
   58.2623634         1.84575492E-05
   58.3891563         1.79794552E-05
   58.5159492         1.73020726E-05
   58.6427422         1.64440517E-05
   58.7695351         1.54276368E-05
   58.8963280         1.42785357E-05
   59.0231171         1.30257031E-05
   59.1499100         1.17010495E-05
   59.2767029         1.03389721E-05
   59.4034958         8.97582686E-06
   59.5302887         7.64926790E-06
   59.6570816         6.39747850E-06
   59.7838745         5.25835731E-06
   59.9106674         4.26862061E-06
   60.0374603         3.46289448E-06
   60.1642532         2.87276430E-06
   60.2910461         2.52590462E-06
   60.4178391         2.44521129E-06
   60.5446320         2.64805249E-06
   60.6714249         3.14562408E-06
   60.7982178         3.94243852E-06
   60.9250069         5.03596539E-06
   61.0517998         6.41649785E-06
   61.1785927         8.06717890E-06
   61.3053856         9.96425661E-06
   61.4321785         1.20775312E-05
   61.5589714         1.43710131E-05
   61.6857643         1.68037550E-05
   61.8125572         1.93308497E-05
   61.9393501         2.19045669E-05
   62.0661430         2.44755829E-05
   62.1929359         2.69942757E-05
   62.3197289         2.94120655E-05
   62.4465218         3.16827391E-05
   62.5733147         3.37637612E-05
   62.7001076         3.56174278E-05
   62.8268967         3.72119575E-05
   62.9536896         3.85223757E-05
   63.0804825         3.95312309E-05
   63.2072754         4.02290680E-05
   63.3340683         4.06147192E-05
   63.4608612         4.06952349E-05
   63.5876541         4.04857055E-05
   63.7144470         4.00087556E-05
   63.8412399         3.92938309E-05
   63.9680328         3.83762890E-05
   64.0948257         3.72963077E-05
   64.2216187         3.60975937E-05
   64.3484116         3.48260110E-05
   64.4752045         3.35281366E-05
   64.6019974         3.22497472E-05
   64.7287903         3.10343567E-05
   64.8555832         2.99218136E-05
   64.9823761         2.89469790E-05
   65.1091690         2.81385928E-05
   65.2359619         2.75182992E-05
   65.3627548         2.70998844E-05
   65.4895477         2.68887652E-05
   65.6163330         2.68817439E-05
   65.7431259         2.70669898E-05
   65.8699188         2.74243666E-05
   65.9967117         2.79259766E-05
   66.1235046         2.85370097E-05
   66.2502975         2.92167788E-05
   66.3770905         2.99200128E-05
   66.5038834         3.05982649E-05
   66.6306763         3.12014890E-05
   66.7574692         3.16796650E-05
   66.8842621         3.19844657E-05
   67.0110550         3.20708641E-05
   67.1378479         3.18987513E-05
   67.2646408         3.14343379E-05
   67.3914337         3.06514630E-05
   67.5182266         2.95326208E-05
   67.6450195         2.80698405E-05
   67.7718124         2.62651956E-05
   67.8986053         2.41311009E-05
   68.0253983         2.16901954E-05
   68.1521912         1.89750881E-05
   68.2789841         1.60276795E-05
   68.4057770         1.28982447E-05
   68.5325699         9.64429728E-06
   68.6593628         6.32922229E-06
   68.7861557         3.02073431E-06
   68.9129486        -2.10799868E-07
   69.0397415        -3.29409886E-06
   69.1665344        -6.15877298E-06
   69.2933273        -8.73706813E-06
   69.4201126        -1.09655302E-05
   69.5469055        -1.27866297E-05
   69.6736984        -1.41501469E-05
   69.8004913        -1.50143551E-05
   69.9272842        -1.53469900E-05
   70.0540771        -1.51259792E-05
   70.1808701        -1.43398884E-05
   70.3076630        -1.29881264E-05
   70.4344559        -1.10807496E-05
   70.5612488        -8.63814330E-06
   70.6880417        -5.69036774E-06
   70.8148346        -2.27624923E-06
   70.9416275         1.55763689E-06
   71.0684204         5.75829017E-06
   71.1952133         1.02676104E-05
   71.3220062         1.50239339E-05
   71.4487991         1.99634978E-05
   71.5755920         2.50219946E-05
   71.7023849         3.01360797E-05
   71.8291779         3.52447569E-05
   71.9559708         4.02907244E-05
   72.0827637         4.52214917E-05
   72.2095566         4.99904199E-05
   72.3363495         5.45574549E-05
   72.4631424         5.88897565E-05
   72.5899353         6.29620845E-05
   72.7167282         6.67569402E-05
   72.8435211         7.02645048E-05
   72.9703140         7.34823843E-05
   73.0971069         7.64151991E-05
   73.2238922         7.90739432E-05
   73.3506851         8.14752711E-05
   73.4774780         8.36406107E-05
   73.6042709         8.55953404E-05
   73.7310638         8.73677564E-05
   73.8578568         8.89881485E-05
   73.9846497         9.04878616E-05
   74.1114426         9.18983205E-05
   74.2382355         9.32502662E-05
   74.3650284         9.45729989E-05
   74.4918213         9.58937380E-05
   74.6186142         9.72371272E-05
   74.7454071         9.86248415E-05
   74.8722000         1.00075369E-04
   74.9989929         1.01603866E-04
   75.1257858         1.03222177E-04
   75.2525787         1.04938939E-04
   75.3793716         1.06759762E-04
   75.5061646         1.08687498E-04
   75.6329575         1.10722562E-04
   75.7597504         1.12863338E-04
   75.8865433         1.15106574E-04
   76.0133362         1.17447642E-04
   76.1401291         1.19880984E-04
   76.2669220         1.22400379E-04
   76.3937149         1.24999249E-04
   76.5205078         1.27670733E-04
   76.6473007         1.30407803E-04
   76.7740936         1.33203401E-04
   76.9008865         1.36050206E-04
   77.0276718         1.38940522E-04
   77.1544647         1.41866112E-04
   77.2812576         1.44817779E-04
   77.4080505         1.47785162E-04
   77.5348434         1.50756197E-04
   77.6616364         1.53716916E-04
   77.7884293         1.56650844E-04
   77.9152222         1.59538817E-04
   78.0420151         1.62358556E-04
   78.1688080         1.65084464E-04
   78.2956009         1.67687409E-04
   78.4223938         1.70134779E-04
   78.5491867         1.72390413E-04
   78.6759796         1.74414861E-04
   78.8027725         1.76165719E-04
   78.9295654         1.77598020E-04
   79.0563583         1.78664894E-04
   79.1831512         1.79318158E-04
   79.3099442         1.79509225E-04
   79.4367371         1.79189985E-04
   79.5635300         1.78313639E-04
   79.6903229         1.76835922E-04
   79.8171158         1.74715911E-04
   79.9439087         1.71917127E-04
   80.0707016         1.68408398E-04
   80.1974945         1.64164841E-04
   80.3242874         1.59168485E-04
   80.4510803         1.53409012E-04
   80.5778732         1.46884166E-04
   80.7046585         1.39600073E-04
   80.8314514         1.31571491E-04
   80.9582443         1.22821744E-04
   81.0850372         1.13382514E-04
   81.2118301         1.03293518E-04
   81.3386230         9.26019493E-05
   81.4654160         8.13618026E-05
   81.5922089         6.96330753E-05
   81.7190018         5.74808400E-05
   81.8457947         4.49743202E-05
   81.9725876         3.21858533E-05
   82.0993805         1.91898416E-05
   82.2261734         6.06169988E-06
   82.3529663        -7.12317251E-06
   82.4797592        -2.02904230E-05
   82.6065521        -3.33676544E-05
   82.7333450        -4.62853168E-05
   82.8601379        -5.89774754E-05
   82.9869308        -7.13824338E-05
   83.1137238        -8.34433522E-05
   83.2405167        -9.51086040E-05
   83.3673096        -1.06332227E-04
   83.4941025        -1.17074087E-04
   83.6208954        -1.27300096E-04
   83.7476883        -1.36982184E-04
   83.8744812        -1.46098348E-04
   84.0012741        -1.54632449E-04
   84.1280670        -1.62574084E-04
   84.2548599        -1.69918247E-04
   84.3816528        -1.76665068E-04
   84.5084381        -1.82819393E-04
   84.6352310        -1.88390419E-04
   84.7620239        -1.93391228E-04
   84.8888168        -1.97838395E-04
   85.0156097        -2.01751463E-04
   85.1424026        -2.05152595E-04
   85.2691956        -2.08066034E-04
   85.3959885        -2.10517654E-04
   85.5227814        -2.12534549E-04
   85.6495743        -2.14144588E-04
   85.7763672        -2.15376072E-04
   85.9031601        -2.16257395E-04
   86.0299530        -2.16816756E-04
   86.1567459        -2.17081950E-04
   86.2835388        -2.17080131E-04
   86.4103317        -2.16837696E-04
   86.5371246        -2.16380198E-04
   86.6639175        -2.15732201E-04
   86.7907104        -2.14917338E-04
   86.9175034        -2.13958352E-04
   87.0442963        -2.12877087E-04
   87.1710892        -2.11694729E-04
   87.2978821        -2.10431856E-04
   87.4246750        -2.09108577E-04
   87.5514679        -2.07744655E-04
   87.6782608        -2.06359677E-04
   87.8050537        -2.04973156E-04
   87.9318466        -2.03604563E-04
   88.0586395        -2.02273368E-04
   88.1854324        -2.00999115E-04
   88.3122177        -1.99801274E-04
   88.4390106        -1.98699199E-04
   88.5658035        -1.97711866E-04
   88.6925964        -1.96857625E-04
   88.8193893        -1.96153895E-04
   88.9461823        -1.95616594E-04
   89.0729752        -1.95259825E-04
   89.1997681        -1.95095257E-04
   89.3265610        -1.95131535E-04
   89.4533539        -1.95373810E-04
   89.5801468        -1.95823115E-04
   89.7069397        -1.96475856E-04
   89.8337326        -1.97323388E-04
   89.9605255        -1.98351612E-04
   90.0873184        -1.99540766E-04
   90.2141113        -2.00865208E-04
   90.3409042        -2.02293610E-04
   90.4676971        -2.03789095E-04
   90.5944901        -2.05309698E-04
   90.7212830        -2.06809142E-04
   90.8480759        -2.08237499E-04
   90.9748688        -2.09542442E-04
   91.1016617        -2.10670245E-04
   91.2284546        -2.11567167E-04
   91.3552475        -2.12180879E-04
   91.4820404        -2.12461906E-04
   91.6088333        -2.12365121E-04
   91.7356262        -2.11851089E-04
   91.8624191        -2.10887578E-04
   91.9892120        -2.09450562E-04
   92.1159973        -2.07525343E-04
   92.2427902        -2.05107062E-04
   92.3695831        -2.02201336E-04
   92.4963760        -1.98824229E-04
   92.6231689        -1.95002023E-04
   92.7499619        -1.90770748E-04
   92.8767548        -1.86175239E-04
   93.0035477        -1.81268057E-04
   93.1303406        -1.76108035E-04
   93.2571335        -1.70758634E-04
   93.3839264        -1.65286125E-04
   93.5107193        -1.59757663E-04
   93.6375122        -1.54239257E-04
   93.7643051        -1.48793930E-04
   93.8910980        -1.43479716E-04
   94.0178909        -1.38348129E-04
   94.1446838        -1.33442663E-04
   94.2714767        -1.28797590E-04
   94.3982697        -1.24437138E-04
   94.5250626        -1.20374920E-04
   94.6518555        -1.16613795E-04
   94.7786484        -1.13146001E-04
   94.9054413        -1.09953777E-04
   95.0322342        -1.07010157E-04
   95.1590271        -1.04280232E-04
   95.2858200        -1.01722602E-04
   95.4126129        -9.92910282E-05
   95.5394058        -9.69362809E-05
   95.6661987        -9.46079526E-05
   95.7929916        -9.22564141E-05
   95.9197769        -8.98345825E-05
   96.0465698        -8.72996461E-05
   96.1733627        -8.46146286E-05
   96.3001556        -8.17496693E-05
   96.4269485        -7.86830788E-05
   96.5537415        -7.54020657E-05
   96.6805344        -7.19031596E-05
   96.8073273        -6.81922538E-05
   96.9341202        -6.42842933E-05
   97.0609131        -6.02026994E-05
   97.1877060        -5.59784276E-05
   97.3144989        -5.16488290E-05
   97.4412918        -4.72562679E-05
   97.5680847        -4.28466374E-05
   97.6948776        -3.84677587E-05
   97.8216705        -3.41677296E-05
   97.9484634        -2.99932981E-05
   98.0752563        -2.59883473E-05