-4.500000 -4.5351428E-19
-4.372967 -4.6374247E-19
-4.245934 -4.8294971E-19
-4.118902 -5.0900719E-19
-3.991869 -5.3916408E-19
-3.864837 -5.7039309E-19
-3.737804 -5.9976007E-19
-3.610771 -6.2478709E-19
-3.483739 -6.4374943E-19
-3.356706 -6.5587616E-19
-3.229674 -6.6142820E-19
-3.102641 -6.6164058E-19
-2.975608 -6.5853813E-19
-2.848576 -6.5465090E-19
-2.721543 -6.5266530E-19
-2.594510 -6.5505555E-19
-2.467478 -6.6374208E-19
-2.340445 -6.7982816E-19
-2.213412 -7.0343915E-19
-2.086380 -7.3369421E-19
-1.959347 -7.6880875E-19
-1.832314 -8.0631720E-19
-1.705282 -8.4338462E-19
-1.578249 -8.7717355E-19
-1.451216 -9.0521270E-19
-1.324184 -9.2571747E-19
-1.197151 -9.3783132E-19
-1.070119 -9.4172941E-19
-0.9430859 -9.3858612E-19
-0.8160533 -9.3039094E-19
-0.6890206 -9.1965641E-19
-0.5619880 -9.0906829E-19
-0.4349554 -9.0116737E-19
-0.3079227 -8.9814061E-19
-0.1808901 -9.0174412E-19
-5.3857423E-02 -9.1333685E-19
7.3175222E-02 -9.3387368E-19
0.2002079 -9.6369002E-19
0.3272405 -1.0019441E-18
0.4542732 -1.0457566E-18
0.5813058 -1.0893714E-18
0.7083384 -1.1239503E-18
0.8353711 -1.1387189E-18
0.9624037 -1.1239864E-18
1.089436 -1.0759423E-18
1.216469 -1.0021597E-18
1.343502 -9.2578323E-19
1.470534 -8.8575658E-19
1.597567 -9.3075748E-19
1.724600 -1.1059059E-18
1.851632 -1.4337690E-18
1.978665 -1.8940757E-18
2.105698 -2.4088641E-18
2.232730 -2.8404187E-18
2.359763 -3.0074614E-18
2.486795 -2.7205846E-18
2.613828 -1.8319029E-18
2.740861 -2.8825709E-19
2.867893 1.8256099E-18
2.994926 4.2659177E-18
3.121959 6.6366558E-18
3.248991 8.4216788E-18
3.376024 9.0325600E-18
3.503057 7.8620151E-18
3.630089 4.3410790E-18
3.757122 -1.9861355E-18
3.884155 -1.1340343E-17
4.011187 -2.3503475E-17
4.138220 -3.7519142E-17
4.265253 -5.1333181E-17
4.392285 -6.1486366E-17
4.519318 -6.3051723E-17
4.646350 -5.0056583E-17
4.773383 -1.6602766E-17
4.900416 4.1236677E-17
5.027448 1.2291417E-16
5.154481 2.2079212E-16
5.281514 3.1822649E-16
5.408546 3.8934907E-16
5.535579 4.0148676E-16
5.662611 3.2075560E-16
5.789644 1.2062897E-16
5.916677 -2.0769412E-16
6.043710 -6.4527621E-16
6.170742 -1.1386337E-15
6.297775 -1.5990939E-15
6.424808 -1.9105840E-15
6.551840 -1.9466052E-15
6.678873 -1.5950011E-15
6.805905 -7.8678466E-16
6.932938 4.7667653E-16
7.059971 2.1048273E-15
7.187003 3.9137416E-15
7.314036 5.6409298E-15
7.441069 6.9801804E-15
7.568101 7.6333923E-15
7.695134 7.3723833E-15
7.822166 6.1005316E-15
7.949199 3.9026950E-15
8.076232 1.0724005E-15
8.203264 -1.8921962E-15
8.330297 -4.3280656E-15
8.457330 -5.4824822E-15
8.584362 -4.6185081E-15
8.711395 -1.1415367E-15
8.838428 5.2655049E-15
8.965461 1.4512686E-14
9.092493 2.5994660E-14
9.219525 3.8518684E-14
9.346559 5.0283460E-14
9.473591 5.8921184E-14
9.600623 6.1611598E-14
9.727656 5.5271393E-14
9.854689 3.6814684E-14
9.981722 3.4714959E-15
10.10875 -4.6859316E-14
10.23579 -1.1525477E-13
10.36282 -2.0144888E-13
10.48985 -3.0359059E-13
10.61689 -4.1811471E-13
10.74392 -5.3975081E-13
10.87095 -6.6167899E-13
10.99798 -7.7582065E-13
11.12502 -8.7323074E-13
11.25205 -9.4453915E-13
11.37908 -9.8037821E-13
11.50611 -9.7172812E-13
11.63315 -9.1012278E-13
11.76018 -7.8767933E-13
11.88721 -5.9694366E-13
12.01424 -3.3058948E-13
12.14128 1.8958730E-14
12.26831 4.5986023E-13
12.39534 1.0010061E-12
12.52237 1.6518241E-12
12.64941 2.4215760E-12
12.77644 3.3180284E-12
12.90347 4.3454008E-12
13.03051 5.5015853E-12
13.15754 6.7746884E-12
13.28457 8.1390537E-12
13.41160 9.5509989E-12
13.53864 1.0944586E-11
13.66567 1.2227845E-11
13.79270 1.3279882E-11
13.91973 1.3949477E-11
14.04677 1.4055657E-11
14.17380 1.3390916E-11
14.30083 1.1727642E-11
14.42786 8.8283296E-12
14.55490 4.4600031E-12
14.68193 -1.5869061E-12
14.80896 -9.4753077E-12
14.93600 -1.9294242E-11
15.06303 -3.1028739E-11
15.19006 -4.4528301E-11
15.31709 -5.9476153E-11
15.44413 -7.5362119E-11
15.57116 -9.1462275E-11
15.69819 -1.0682904E-10
15.82522 -1.2029525E-10
15.95226 -1.3049553E-10
16.07929 -1.3590784E-10
16.20632 -1.3491644E-10
16.33335 -1.2589726E-10
16.46039 -1.0732409E-10
16.58742 -7.7892512E-11
16.71445 -3.6656626E-11
16.84148 1.6827874E-11
16.96852 8.2363227E-11
17.09555 1.5898123E-10
17.22258 2.4483796E-10
17.34962 3.3714220E-10
17.47665 4.3212878E-10
17.60368 5.2508597E-10
17.73071 6.1044497E-10
17.85775 6.8193640E-10
17.98478 7.3281553E-10
18.11181 7.5615458E-10
18.23884 7.4519529E-10
18.36588 6.9375106E-10
18.49291 5.9664435E-10
18.61994 4.5015885E-10
18.74697 2.5248451E-10
18.87401 4.1298865E-12
19.00104 -2.9172473E-10
19.12807 -6.2896105E-10
19.25510 -9.9836928E-10
19.38214 -1.3876297E-09
19.50917 -1.7814493E-09
19.63620 -2.1618680E-09
19.76324 -2.5087366E-09
19.89027 -2.8003708E-09
20.01730 -3.0143665E-09
20.14433 -3.1285585E-09
20.27137 -3.1220959E-09
20.39840 -2.9765959E-09
20.52543 -2.6773301E-09
20.65246 -2.2143960E-09
20.77950 -1.5838146E-09
20.90653 -7.8849866E-10
21.03356 1.6096992E-10
21.16059 1.2458065E-09
21.28763 2.4387894E-09
21.41466 3.7043650E-09
21.54169 4.9991327E-09
21.66872 6.2727206E-09
21.79576 7.4690716E-09
21.92279 8.5281258E-09
22.04982 9.3878620E-09
22.17686 9.9866675E-09
22.30389 1.0265969E-08
22.43092 1.0173030E-08
22.55795 9.6638324E-09
22.68499 8.7059204E-09
22.81202 7.2810882E-09
22.93905 5.3877818E-09
23.06608 3.0430773E-09
23.19312 2.8411859E-10
23.32015 -2.8311133E-09
23.44718 -6.2237984E-09
23.57421 -9.7951283E-09
23.70125 -1.3428061E-08
23.82828 -1.6990009E-08
23.95531 -2.0336437E-08
24.08235 -2.3315325E-08
24.20938 -2.5772396E-08
24.33641 -2.7556986E-08
24.46344 -2.8528319E-08
24.59048 -2.8562084E-08
24.71751 -2.7556927E-08
24.84454 -2.5440729E-08
24.97157 -2.2176243E-08
25.09861 -1.7765943E-08
25.22564 -1.2255700E-08
25.35267 -5.7370726E-09
25.47970 1.6520059E-09
25.60674 9.7283319E-09
25.73377 1.8266425E-08
25.86080 2.7003457E-08
25.98783 3.5646085E-08
26.11487 4.3879044E-08
26.24190 5.1375316E-08
26.36893 5.7807586E-08
26.49597 6.2860565E-08
26.62300 6.6243821E-08
26.75003 6.7704583E-08
26.87706 6.7039991E-08
27.00410 6.4108271E-08
27.13113 5.8838321E-08
27.25816 5.1237159E-08
27.38519 4.1394831E-08
27.51223 2.9486436E-08
27.63926 1.5770913E-08
27.76629 5.8657429E-10
27.89332 -1.5656765E-08
28.02036 -3.2488831E-08
28.14739 -4.9392909E-08
28.27442 -6.5822398E-08
28.40145 -8.1219369E-08
28.52849 -9.5034515E-08
28.65552 -1.0674769E-07
28.78255 -1.1588826E-07
28.90959 -1.2205446E-07
29.03662 -1.2493082E-07
29.16365 -1.2430303E-07
29.29068 -1.2006927E-07
29.41772 -1.1224757E-07
29.54475 -1.0097875E-07
29.67178 -8.6524423E-08
29.79881 -6.9260210E-08
29.92585 -4.9664056E-08
30.05288 -2.8300111E-08
30.17991 -5.7985883E-09
30.30694 1.7167595E-08
30.43398 3.9908528E-08
30.56101 6.1744359E-08
30.68804 8.2032493E-08
30.81507 1.0019373E-07
30.94211 1.1573623E-07
31.06914 1.2827607E-07
31.19617 1.3755341E-07
31.32321 1.4344333E-07
31.45024 1.4596074E-07
31.57727 1.4525911E-07
31.70430 1.4162248E-07
31.83134 1.3545143E-07
31.95837 1.2724313E-07
32.08540 1.1756648E-07
32.21243 1.0703332E-07
32.33947 9.6266810E-08
32.46650 8.5868798E-08
32.59353 7.6387416E-08
32.72057 6.8286461E-08
32.84760 6.1918527E-08
32.97463 5.7502696E-08
33.10166 5.5108533E-08
33.22869 5.4647003E-08
33.35573 5.5869187E-08
33.48276 5.8372919E-08
33.60979 6.1617371E-08
33.73683 6.4945077E-08
33.86386 6.7610422E-08
33.99089 6.8813613E-08
34.11792 6.7738576E-08
34.24496 6.3592942E-08
34.37199 5.5648410E-08
34.49902 4.3279577E-08
34.62605 2.5999285E-08
34.75309 3.4887992E-09
34.88012 -2.4378803E-08
35.00715 -5.7523064E-08
35.13419 -9.5649490E-08
35.26122 -1.3825199E-07
35.38825 -1.8462477E-07
35.51528 -2.3388250E-07
35.64231 -2.8498872E-07
35.76935 -3.3679024E-07
35.89638 -3.8805624E-07
36.02341 -4.3752016E-07
36.15045 -4.8392172E-07
36.27748 -5.2604736E-07
36.40451 -5.6276622E-07
36.53154 -5.9306041E-07
36.65858 -6.1604720E-07
36.78561 -6.3099247E-07
36.91264 -6.3731380E-07
37.03968 -6.3457423E-07
37.16671 -6.2246579E-07
37.29374 -6.0078554E-07
37.42077 -5.6940411E-07
37.54781 -5.2823054E-07
37.67484 -4.7717572E-07
37.80187 -4.1611693E-07
37.92890 -3.4486814E-07
38.05593 -2.6315831E-07
38.18297 -1.7062177E-07
38.31000 -6.6802286E-08
38.43703 4.8825434E-08
38.56407 1.7681664E-07
38.69110 3.1769778E-07
38.81813 4.7188971E-07
38.94516 6.3961352E-07
39.07220 8.2078151E-07
39.19923 1.0148761E-06
39.32626 1.2208236E-06
39.45330 1.4368629E-06
39.58033 1.6604212E-06
39.70736 1.8879980E-06
39.83439 2.1150661E-06
39.96143 2.3359942E-06
40.08846 2.5439992E-06
40.21549 2.7311305E-06
40.34253 2.8882919E-06
40.46955 3.0053031E-06
40.59659 3.0710028E-06
40.72362 3.0733938E-06
40.85065 2.9998273E-06
40.97769 2.8372208E-06
41.10472 2.5723111E-06
41.23175 2.1919298E-06
41.35878 1.6832943E-06
41.48582 1.0343106E-06
41.61285 2.3387197E-07
41.73988 -7.2785178E-07
41.86692 -1.8591461E-06
41.99395 -3.1665147E-06
42.12098 -4.6544797E-06
42.24801 -6.3254311E-06
42.37505 -8.1795251E-06
42.50208 -1.0214643E-05
42.62911 -1.2426415E-05
42.75615 -1.4808294E-05
42.88317 -1.7351700E-05
43.01021 -2.0046220E-05
43.13724 -2.2879854E-05
43.26427 -2.5839307E-05
43.39131 -2.8910317E-05
43.51834 -3.2078009E-05
43.64537 -3.5327259E-05
43.77240 -3.8643055E-05
43.89944 -4.2010855E-05
44.02647 -4.5416906E-05
44.15350 -4.8848535E-05
44.28054 -5.2294406E-05
44.40757 -5.5744698E-05
44.53460 -5.9191210E-05
44.66163 -6.2627420E-05
44.78867 -6.6048480E-05
44.91570 -6.9451075E-05
45.04273 -7.2833282E-05
45.16977 -7.6194316E-05
45.29680 -7.9534242E-05
45.42383 -8.2853570E-05
45.55086 -8.6152941E-05
45.67789 -8.9432644E-05
45.80493 -9.2692171E-05
45.93196 -9.5929870E-05
46.05899 -9.9142453E-05
46.18602 -1.0232468E-04
46.31306 -1.0546903E-04
46.44009 -1.0856547E-04
46.56712 -1.1160127E-04
46.69416 -1.1456100E-04
46.82119 -1.1742650E-04
46.94822 -1.2017710E-04
47.07525 -1.2278983E-04
47.20229 -1.2523981E-04
47.32932 -1.2750071E-04
47.45635 -1.2954535E-04
47.58339 -1.3134634E-04
47.71042 -1.3287677E-04
47.83745 -1.3411097E-04
47.96448 -1.3502537E-04
48.09151 -1.3559921E-04
48.21855 -1.3581532E-04
48.34558 -1.3566093E-04
48.47261 -1.3512820E-04
48.59965 -1.3421489E-04
48.72668 -1.3292475E-04
48.85371 -1.3126784E-04
48.98074 -1.2926075E-04
49.10778 -1.2692655E-04
49.23481 -1.2429467E-04
49.36184 -1.2140059E-04
49.48887 -1.1828531E-04
49.61591 -1.1499479E-04
49.74294 -1.1157912E-04
49.86997 -1.0809166E-04
49.99701 -1.0458801E-04
50.12404 -1.0112493E-04
50.25107 -9.7759257E-05
50.37810 -9.4546718E-05
50.50513 -9.1540802E-05
50.63217 -8.8791690E-05
50.75920 -8.6345215E-05
50.88623 -8.4241932E-05
51.01327 -8.2516330E-05
51.14030 -8.1196187E-05
51.26733 -8.0302030E-05
51.39436 -7.9846825E-05
51.52140 -7.9835845E-05
51.64843 -8.0266684E-05
51.77546 -8.1129452E-05
51.90249 -8.2407169E-05
52.02953 -8.4076259E-05
52.15656 -8.6107226E-05
52.28359 -8.8465407E-05
52.41063 -9.1111855E-05
52.53766 -9.4004208E-05
52.66469 -9.7097698E-05
52.79172 -1.0034608E-04
52.91875 -1.0370256E-04
53.04579 -1.0712074E-04
53.17282 -1.1055543E-04
53.29985 -1.1396340E-04
53.42689 -1.1730404E-04
53.55392 -1.2053995E-04
53.68095 -1.2363731E-04
53.80798 -1.2656623E-04
53.93502 -1.2930098E-04
54.06205 -1.3182007E-04
54.18908 -1.3410619E-04
54.31612 -1.3614613E-04
54.44315 -1.3793069E-04
54.57018 -1.3945431E-04
54.69721 -1.4071479E-04
54.82425 -1.4171307E-04
54.95128 -1.4245273E-04
55.07831 -1.4293981E-04
55.20534 -1.4318233E-04
55.33237 -1.4319007E-04
55.45941 -1.4297424E-04
55.58644 -1.4254727E-04
55.71347 -1.4192252E-04
55.84051 -1.4111419E-04
55.96754 -1.4013713E-04
56.09457 -1.3900678E-04
56.22160 -1.3773907E-04
56.34864 -1.3635041E-04
56.47567 -1.3485763E-04
56.60270 -1.3327796E-04
56.72974 -1.3162907E-04
56.85677 -1.2992899E-04
56.98380 -1.2819603E-04
57.11083 -1.2644884E-04
57.23787 -1.2470617E-04
57.36490 -1.2298691E-04
57.49193 -1.2130975E-04
57.61897 -1.1969312E-04
57.74599 -1.1815493E-04
57.87303 -1.1671234E-04
58.00006 -1.1538149E-04
58.12709 -1.1417719E-04
58.25413 -1.1311273E-04
58.38116 -1.1219951E-04
58.50819 -1.1144683E-04
58.63522 -1.1086169E-04
58.76226 -1.1044855E-04
58.88929 -1.1020924E-04
59.01632 -1.1014285E-04
59.14336 -1.1024570E-04
59.27039 -1.1051138E-04
59.39742 -1.1093093E-04
59.52445 -1.1149293E-04
59.65149 -1.1218382E-04
59.77852 -1.1298816E-04
59.90555 -1.1388901E-04
60.03259 -1.1486832E-04
60.15961 -1.1590733E-04
60.28665 -1.1698702E-04
60.41368 -1.1808852E-04
60.54071 -1.1919357E-04
60.66775 -1.2028486E-04
60.79478 -1.2134640E-04
60.92181 -1.2236382E-04
61.04884 -1.2332459E-04
61.17588 -1.2421822E-04
61.30291 -1.2503639E-04
61.42994 -1.2577295E-04
61.55698 -1.2642394E-04
61.68401 -1.2698748E-04
61.81104 -1.2746366E-04
61.93807 -1.2785439E-04
62.06511 -1.2816313E-04
62.19214 -1.2839463E-04
62.31917 -1.2855479E-04
62.44621 -1.2865031E-04
62.57324 -1.2868847E-04
62.70027 -1.2867688E-04
62.82730 -1.2862327E-04
62.95433 -1.2853532E-04
63.08137 -1.2842051E-04
63.20840 -1.2828596E-04
63.33543 -1.2813837E-04
63.46246 -1.2798399E-04
63.58950 -1.2782852E-04
63.71653 -1.2767719E-04
63.84356 -1.2753477E-04
63.97060 -1.2740558E-04
64.09763 -1.2729355E-04
64.22466 -1.2720235E-04
64.35169 -1.2713538E-04
64.47873 -1.2709587E-04
64.60576 -1.2708697E-04
64.73279 -1.2711175E-04
64.85983 -1.2717333E-04
64.98685 -1.2727489E-04
65.11389 -1.2741974E-04
65.24092 -1.2761135E-04
65.36796 -1.2785335E-04
65.49499 -1.2814967E-04
65.62202 -1.2850451E-04
65.74905 -1.2892242E-04
65.87608 -1.2940828E-04
66.00312 -1.2996746E-04
66.13015 -1.3060577E-04
66.25719 -1.3132949E-04
66.38422 -1.3214551E-04
66.51125 -1.3306118E-04
66.63828 -1.3408446E-04
66.76531 -1.3522375E-04
66.89235 -1.3648790E-04
67.01938 -1.3788606E-04
67.14641 -1.3942755E-04
67.27345 -1.4112165E-04
67.40047 -1.4297733E-04
67.52751 -1.4500294E-04
67.65454 -1.4720592E-04
67.78158 -1.4959238E-04
67.90861 -1.5216663E-04
68.03564 -1.5493082E-04
68.16267 -1.5788447E-04
68.28970 -1.6102401E-04
68.41674 -1.6434240E-04
68.54377 -1.6782878E-04
68.67081 -1.7146811E-04
68.79784 -1.7524109E-04
68.92487 -1.7912396E-04
69.05190 -1.8308859E-04
69.17893 -1.8710262E-04
69.30597 -1.9112976E-04
69.43300 -1.9513033E-04
69.56004 -1.9906172E-04
69.68707 -2.0287930E-04
69.81409 -2.0653724E-04
69.94113 -2.0998946E-04
70.06816 -2.1319087E-04
70.19520 -2.1609830E-04
70.32223 -2.1867189E-04
70.44926 -2.2087620E-04
70.57629 -2.2268122E-04
70.70332 -2.2406355E-04
70.83036 -2.2500724E-04
70.95739 -2.2550455E-04
71.08443 -2.2555649E-04
71.21146 -2.2517309E-04
71.33849 -2.2437357E-04
71.46552 -2.2318604E-04
71.59255 -2.2164710E-04
71.71959 -2.1980106E-04
71.84662 -2.1769899E-04
71.97366 -2.1539745E-04
72.10069 -2.1295714E-04
72.22771 -2.1044129E-04
72.35475 -2.0791398E-04
72.48178 -2.0543844E-04
72.60882 -2.0307522E-04
72.73585 -2.0088059E-04
72.86288 -1.9890489E-04
72.98991 -1.9719117E-04
73.11694 -1.9577390E-04
73.24398 -1.9467811E-04
73.37101 -1.9391869E-04
73.49805 -1.9350000E-04
73.62508 -1.9341594E-04
73.75211 -1.9365012E-04
73.87914 -1.9417664E-04
74.00617 -1.9496090E-04
74.13321 -1.9596085E-04
74.26024 -1.9712838E-04
74.38728 -1.9841095E-04
74.51431 -1.9975331E-04
74.64133 -2.0109925E-04
74.76837 -2.0239345E-04
74.89540 -2.0358319E-04
75.02244 -2.0461998E-04
75.14947 -2.0546102E-04
75.27650 -2.0607044E-04
75.40353 -2.0642027E-04
75.53056 -2.0649111E-04
75.65760 -2.0627257E-04
75.78463 -2.0576328E-04
75.91167 -2.0497064E-04
76.03870 -2.0391024E-04
76.16573 -2.0260506E-04
76.29276 -2.0108430E-04
76.41979 -1.9938209E-04
76.54683 -1.9753598E-04
76.67386 -1.9558535E-04
76.80090 -1.9356979E-04
76.92793 -1.9152738E-04
77.05495 -1.8949310E-04
77.18199 -1.8749744E-04
77.30902 -1.8556503E-04
77.43606 -1.8371364E-04
77.56309 -1.8195325E-04
77.69012 -1.8028566E-04
77.81715 -1.7870421E-04
77.94418 -1.7719402E-04
78.07122 -1.7573229E-04
78.19825 -1.7428923E-04
78.32529 -1.7282905E-04
78.45232 -1.7131132E-04
78.57935 -1.6969244E-04
78.70638 -1.6792747E-04
78.83341 -1.6597185E-04
78.96045 -1.6378330E-04
79.08748 -1.6132365E-04
79.21452 -1.5856055E-04
79.34155 -1.5546918E-04
79.46858 -1.5203362E-04
79.59561 -1.4824796E-04
79.72264 -1.4411724E-04
79.84968 -1.3965792E-04
79.97671 -1.3489819E-04
80.10374 -1.2987769E-04
80.23077 -1.2464709E-04
80.35780 -1.1926724E-04
80.48484 -1.1380798E-04
80.61187 -1.0834672E-04
80.73891 -1.0296681E-04
80.86594 -9.7755597E-05
80.99297 -9.2802562E-05
81.12000 -8.8197157E-05
81.24703 -8.4026819E-05
81.37407 -8.0374877E-05
81.50110 -7.7318706E-05
81.62814 -7.4927899E-05
81.75517 -7.3262745E-05
81.88220 -7.2372866E-05
82.00923 -7.2296170E-05
82.13626 -7.3058094E-05
82.26330 -7.4671094E-05
82.39033 -7.7134508E-05
82.51736 -8.0434686E-05
82.64439 -8.4545398E-05
82.77143 -8.9428569E-05
82.89846 -9.5035168E-05
83.02549 -1.0130640E-04
83.15253 -1.0817498E-04
83.27956 -1.1556664E-04
83.40659 -1.2340168E-04
83.53362 -1.3159653E-04
83.66065 -1.4006541E-04
83.78769 -1.4872187E-04
83.91472 -1.5748027E-04
84.04176 -1.6625725E-04
84.16879 -1.7497291E-04
84.29582 -1.8355192E-04
84.42285 -1.9192441E-04
84.54988 -2.0002665E-04
84.67692 -2.0780157E-04
84.80395 -2.1519895E-04
84.93098 -2.2217553E-04
85.05801 -2.2869492E-04
85.18505 -2.3472727E-04
85.31208 -2.4024877E-04
85.43911 -2.4524124E-04
85.56615 -2.4969122E-04
85.69318 -2.5358959E-04
85.82021 -2.5693057E-04
85.94724 -2.5971120E-04
86.07427 -2.6193066E-04
86.20131 -2.6358970E-04
86.32834 -2.6469011E-04
86.45538 -2.6523453E-04
86.58241 -2.6522609E-04
86.70944 -2.6466860E-04
86.83647 -2.6356647E-04
86.96350 -2.6192502E-04
87.09054 -2.5975078E-04
87.21757 -2.5705213E-04
87.34460 -2.5383962E-04
87.47163 -2.5012667E-04
87.59867 -2.4593019E-04
87.72570 -2.4127102E-04
87.85273 -2.3617450E-04
87.97977 -2.3067095E-04
88.10680 -2.2479583E-04
88.23383 -2.1858999E-04
88.36086 -2.1209951E-04
88.48790 -2.0537553E-04
88.61493 -1.9847382E-04
88.74196 -1.9145408E-04
88.86900 -1.8437917E-04
88.99603 -1.7731402E-04
89.12306 -1.7032459E-04
89.25009 -1.6347645E-04
89.37712 -1.5683337E-04
89.50416 -1.5045593E-04
89.63119 -1.4440008E-04
89.75822 -1.3871568E-04
89.88525 -1.3344514E-04
90.01229 -1.2862225E-04
90.13932 -1.2427114E-04
90.26635 -1.2040549E-04
90.39339 -1.1702783E-04
90.52042 -1.1412946E-04
90.64745 -1.1169026E-04
90.77448 -1.0967907E-04
90.90152 -1.0805428E-04
91.02855 -1.0676473E-04
91.15558 -1.0575086E-04
91.28262 -1.0494617E-04
91.40965 -1.0427879E-04
91.53668 -1.0367335E-04
91.66371 -1.0305281E-04
91.79075 -1.0234053E-04
91.91778 -1.0146218E-04
92.04481 -1.0034776E-04
92.17184 -9.8933437E-05
92.29887 -9.7163262E-05
92.42591 -9.4990552E-05
92.55294 -9.2379363E-05
92.67997 -8.9305264E-05
92.80701 -8.5756103E-05
92.93404 -8.1732323E-05
93.06107 -7.7246907E-05
93.18810 -7.2325085E-05
93.31514 -6.7003653E-05
93.44217 -6.1329891E-05
93.56920 -5.5360419E-05
93.69624 -4.9159524E-05
93.82327 -4.2797539E-05
93.95030 -3.6348862E-05
94.07733 -2.9890007E-05
94.20437 -2.3497571E-05
94.33140 -1.7246160E-05
94.45843 -1.1206473E-05
94.58546 -5.4434045E-06
94.71249 -1.4426908E-08
94.83953 5.0318695E-06
94.96656 9.6569529E-06
95.09360 1.3833233E-05
95.22063 1.7544651E-05
95.34766 2.0786878E-05
95.47469 2.3567251E-05
95.60172 2.5904319E-05
95.72876 2.7827093E-05
95.85579 2.9373999E-05
95.98282 3.0591589E-05
96.10986 3.1533036E-05
96.23689 3.2256430E-05
96.36392 3.2823016E-05
96.49095 3.3295306E-05
96.61799 3.3735247E-05
96.74502 3.4202429E-05
96.87205 3.4752407E-05
96.99908 3.5435191E-05
97.12611 3.6293924E-05
97.25315 3.7363850E-05
97.38018 3.8671515E-05
97.50722 4.0234285E-05
97.63425 4.2060183E-05
97.76128 4.4147990E-05
97.88831 4.6487654E-05
98.01534 4.9060989E-05
98.14238 5.1842540E-05
98.26941 5.4800719E-05
98.39645 5.7899040E-05
98.52348 6.1097431E-05
98.65051 6.4353640E-05
98.77754 6.7624584E-05
98.90457 7.0867667E-05
99.03161 7.4041935E-05
99.15864 7.7109144E-05
99.28567 8.0034602E-05
99.41270 8.2787847E-05
99.53973 8.5343047E-05
99.66677 8.7679226E-05
99.79380 8.9780267E-05
99.92084 9.1634742E-05
100.0479 9.3235496E-05
100.1749 9.4579183E-05
100.3019 9.5665637E-05
100.4290 9.6497221E-05
100.5560 9.7078104E-05
100.6830 9.7413664E-05
100.8101 9.7509801E-05
100.9371 9.7372496E-05
101.0641 9.7007352E-05
101.1912 9.6419375E-05
101.3182 9.5612835E-05
101.4452 9.4591305E-05
101.5723 9.3357849E-05
101.6993 9.1915310E-05
101.8263 9.0266680E-05
101.9534 8.8415640E-05
102.0804 8.6367036E-05
102.2074 8.4127401E-05
102.3345 8.1705504E-05
102.4615 7.9112739E-05
102.5885 7.6363511E-05
102.7156 7.3475450E-05
102.8426 7.0469505E-05
102.9696 6.7369867E-05
103.0966 6.4203741E-05
103.2237 6.1000941E-05
103.3507 5.7793346E-05
103.4777 5.4614149E-05
103.6048 5.1497078E-05
103.7318 4.8475442E-05
103.8588 4.5581171E-05
103.9859 4.2843807E-05
104.1129 4.0289488E-05
104.2399 3.7940044E-05
104.3670 3.5812129E-05
104.4940 3.3916513E-05
104.6210 3.2257507E-05
104.7481 3.0832602E-05
104.8751 2.9632272E-05
105.0021 2.8640012E-05
105.1292 2.7832577E-05
105.2562 2.7180447E-05
105.3832 2.6648482E-05
105.5103 2.6196754E-05
105.6373 2.5781565E-05
105.7643 2.5356538E-05
105.8914 2.4873863E-05
106.0184 2.4285539E-05
106.1454 2.3544657E-05
106.2725 2.2606651E-05
106.3995 2.1430473E-05
106.5265 1.9979656E-05
106.6536 1.8223252E-05
106.7806 1.6136590E-05
106.9076 1.3701842E-05
107.0347 1.0908430E-05
107.1617 7.7531549E-06
107.2887 4.2401834E-06
107.4158 3.8081672E-07
107.5428 -3.8069227E-06
107.6698 -8.2988618E-06
107.7969 -1.3065379E-05
107.9239 -1.8072215E-05
108.0509 -2.3281349E-05
108.1780 -2.8651933E-05
108.3050 -3.4141227E-05
108.4320 -3.9705516E-05
108.5591 -4.5300992E-05
108.6861 -5.0884555E-05
108.8131 -5.6414545E-05
108.9402 -6.1851344E-05
109.0672 -6.7157926E-05
109.1942 -7.2300209E-05
109.3213 -7.7247365E-05
109.4483 -8.1972023E-05
109.5753 -8.6450316E-05
109.7023 -9.0661903E-05
109.8294 -9.4589901E-05
109.9564 -9.8220778E-05
110.0834 -1.0154416E-04
110.2105 -1.0455270E-04
110.3375 -1.0724179E-04
110.4645 -1.0960952E-04
110.5916 -1.1165634E-04
110.7186 -1.1338498E-04
110.8456 -1.1480030E-04
110.9727 -1.1590913E-04
111.0997 -1.1672020E-04
111.2267 -1.1724402E-04
111.3538 -1.1749283E-04
111.4808 -1.1748049E-04
111.6078 -1.1722244E-04
111.7349 -1.1673559E-04
111.8619 -1.1603823E-04
111.9889 -1.1514990E-04
112.1160 -1.1409125E-04
112.2430 -1.1288385E-04
112.3700 -1.1154997E-04
112.4971 -1.1011236E-04
112.6241 -1.0859397E-04
112.7511 -1.0701771E-04
112.8782 -1.0540610E-04
113.0052 -1.0378097E-04
113.1322 -1.0216321E-04
113.2593 -1.0057240E-04
113.3863 -9.9026576E-05
113.5133 -9.7541895E-05
113.6404 -9.6132433E-05
113.7674 -9.4809948E-05
113.8944 -9.3583672E-05
114.0215 -9.2460177E-05
114.1485 -9.1443289E-05
114.2755 -9.0533998E-05
114.4026 -8.9730485E-05
114.5296 -8.9028130E-05
114.6566 -8.8419671E-05
114.7837 -8.7895314E-05
114.9107 -8.7442982E-05
115.0377 -8.7048575E-05
115.1647 -8.6696251E-05
115.2918 -8.6368818E-05
115.4188 -8.6048094E-05
115.5459 -8.5715350E-05
115.6729 -8.5351734E-05
115.7999 -8.4938707E-05
115.9269 -8.4458523E-05
116.0540 -8.3894651E-05
116.1810 -8.3232189E-05
116.3080 -8.2458268E-05
116.4351 -8.1562357E-05
116.5621 -8.0536585E-05
116.6891 -7.9375961E-05
116.8162 -7.8078469E-05
116.9432 -7.6645250E-05
117.0702 -7.5080527E-05
117.1973 -7.3391566E-05
117.3243 -7.1588562E-05
117.4513 -6.9684400E-05
117.5784 -6.7694455E-05
117.7054 -6.5636224E-05
117.8324 -6.3529020E-05
117.9595 -6.1393563E-05
118.0865 -5.9251579E-05
118.2135 -5.7125366E-05
118.3406 -5.5037355E-05
118.4676 -5.3009633E-05
118.5946 -5.1063540E-05
118.7217 -4.9219198E-05
118.8487 -4.7495101E-05
118.9757 -4.5907735E-05
119.1028 -4.4471173E-05
119.2298 -4.3196804E-05
119.3568 -4.2093016E-05
119.4839 -4.1164996E-05
119.6109 -4.0414569E-05
119.7379 -3.9840113E-05
119.8650 -3.9436585E-05
119.9920 -3.9195587E-05
120.1190 -3.9105606E-05
120.2461 -3.9152284E-05
120.3731 -3.9318875E-05
120.5001 -3.9586728E-05
120.6272 -3.9935941E-05
120.7542 -4.0346069E-05
120.8812 -4.0796887E-05
121.0083 -4.1269235E-05
121.1353 -4.1745850E-05
121.2623 -4.2212174E-05
121.3894 -4.2657153E-05
121.5164 -4.3073876E-05
121.6434 -4.3460142E-05
121.7704 -4.3818840E-05
121.8975 -4.4158132E-05
122.0245 -4.4491422E-05
122.1516 -4.4837081E-05
122.2786 -4.5217945E-05
122.4056 -4.5660538E-05
122.5326 -4.6194109E-05
122.6597 -4.6849429E-05
122.7867 -4.7657431E-05
122.9137 -4.8647744E-05
123.0408 -4.9847138E-05
123.1678 -5.1277970E-05
123.2948 -5.2956711E-05
123.4219 -5.4892567E-05
123.5489 -5.7086312E-05
123.6759 -5.9529379E-05
123.8030 -6.2203246E-05
123.9300 -6.5079177E-05
124.0570 -6.8118352E-05
124.1841 -7.1272356E-05
124.3111 -7.4484116E-05
124.4381 -7.7689176E-05
124.5652 -8.0817328E-05
124.6922 -8.3794584E-05
124.8192 -8.6545318E-05
124.9463 -8.8994660E-05
125.0733 -9.1070935E-05
125.2003 -9.2708135E-05
125.3274 -9.3848306E-05
125.4544 -9.4443792E-05
125.5814 -9.4459203E-05
125.7085 -9.3873103E-05
125.8355 -9.2679242E-05
125.9625 -9.0887450E-05
126.0896 -8.8523928E-05
126.2166 -8.5631102E-05
126.3436 -8.2266932E-05
126.4707 -7.8503748E-05
126.5977 -7.4426534E-05
126.7247 -7.0130867E-05
126.8518 -6.5720385E-05
126.9788 -6.1304017E-05
127.1058 -5.6992954E-05
127.2329 -5.2897540E-05
127.3599 -4.9124046E-05
127.4869 -4.5771605E-05
127.6140 -4.2929227E-05
127.7410 -4.0673134E-05
127.8680 -3.9064402E-05
127.9950 -3.8147042E-05
128.1221 -3.7946545E-05
128.2491 -3.8468981E-05
128.3761 -3.9700641E-05
128.5032 -4.1608273E-05
128.6302 -4.4139892E-05
128.7572 -4.7226127E-05
128.8843 -5.0782102E-05
129.0113 -5.4709773E-05
129.1383 -5.8900659E-05
129.2654 -6.3238862E-05
129.3924 -6.7604342E-05
129.5194 -7.1876268E-05
129.6465 -7.5936463E-05
129.7735 -7.9672704E-05
129.9005 -8.2981867E-05
130.0276 -8.5772837E-05
130.1546 -8.7969056E-05
130.2816 -8.9510613E-05
130.4087 -9.0355919E-05
130.5357 -9.0482812E-05
130.6627 -8.9889116E-05
130.7898 -8.8592649E-05
130.9168 -8.6630629E-05
131.0438 -8.4058564E-05
131.1709 -8.0948637E-05
131.2979 -7.7387595E-05
131.4249 -7.3474308E-05
131.5520 -6.9316920E-05
131.6790 -6.5029883E-05
131.8060 -6.0730752E-05
131.9331 -5.6536996E-05
132.0601 -5.2562849E-05
132.1871 -4.8916289E-05
132.3142 -4.5696270E-05
132.4412 -4.2990247E-05
132.5682 -4.0872084E-05
132.6953 -3.9400391E-05
132.8223 -3.8617305E-05
132.9493 -3.8547802E-05
133.0764 -3.9199454E-05
133.2034 -4.0562714E-05
133.3304 -4.2611628E-05
133.4575 -4.5304987E-05
133.5845 -4.8587819E-05
133.7115 -5.2393207E-05
133.8385 -5.6644327E-05
133.9656 -6.1256651E-05
134.0926 -6.6140223E-05
134.2197 -7.1201968E-05
134.3467 -7.6347911E-05
134.4737 -8.1485334E-05
134.6008 -8.6524662E-05
134.7278 -9.1381269E-05
134.8548 -9.5976931E-05
134.9818 -1.0024106E-04
135.1089 -1.0411163E-04
135.2359 -1.0753597E-04
135.3629 -1.1047105E-04
135.4900 -1.1288376E-04
135.6170 -1.1475084E-04
135.7440 -1.1605867E-04
135.8711 -1.1680290E-04
135.9981 -1.1698791E-04
136.1251 -1.1662627E-04
136.2522 -1.1573805E-04
136.3792 -1.1435006E-04
136.5062 -1.1249523E-04
136.6333 -1.1021175E-04
136.7603 -1.0754243E-04
136.8873 -1.0453389E-04
137.0144 -1.0123590E-04
137.1414 -9.7700635E-05
137.2684 -9.3982038E-05
137.3955 -9.0135094E-05
137.5225 -8.6215194E-05
137.6495 -8.2277460E-05
137.7766 -7.8376099E-05
137.9036 -7.4563737E-05
138.0306 -7.0890790E-05
138.1577 -6.7404799E-05
138.2847 -6.4149768E-05
138.4117 -6.1165585E-05
138.5388 -5.8487345E-05
138.6658 -5.6144792E-05
138.7928 -5.4161741E-05
138.9199 -5.2555581E-05
139.0469 -5.1336829E-05
139.1739 -5.0508785E-05
139.3009 -5.0067261E-05
139.4280 -5.0000461E-05
139.5550 -5.0288978E-05
139.6821 -5.0905986E-05
139.8091 -5.1817544E-05
139.9361 -5.2983130E-05
140.0632 -5.4356333E-05
140.1902 -5.5885721E-05
140.3172 -5.7515903E-05
140.4442 -5.9188755E-05
140.5713 -6.0844734E-05
140.6983 -6.2424333E-05
140.8253 -6.3869622E-05
140.9524 -6.5125751E-05
141.0794 -6.6142486E-05
141.2065 -6.6875677E-05
141.3335 -6.7288529E-05
141.4605 -6.7352797E-05
141.5875 -6.7049688E-05
141.7146 -6.6370580E-05
141.8416 -6.5317370E-05
141.9686 -6.3902648E-05
142.0957 -6.2149418E-05
142.2227 -6.0090657E-05
142.3497 -5.7768466E-05
142.4768 -5.5233031E-05
142.6038 -5.2541302E-05
142.7308 -4.9755516E-05
142.8579 -4.6941550E-05
142.9849 -4.4167176E-05
143.1119 -4.1500294E-05
143.2390 -3.9007151E-05
143.3660 -3.6750658E-05
143.4930 -3.4788794E-05
143.6201 -3.3173179E-05
143.7471 -3.1947849E-05
143.8741 -3.1148254E-05
144.0012 -3.0800511E-05
144.1282 -3.0920906E-05
144.2552 -3.1515701E-05
144.3823 -3.2581149E-05
144.5093 -3.4103810E-05
144.6363 -3.6061072E-05
144.7634 -3.8421895E-05
144.8904 -4.1147719E-05
145.0174 -4.4193526E-05
145.1445 -4.7509009E-05
145.2715 -5.1039820E-05
145.3985 -5.4728840E-05
145.5256 -5.8517457E-05
145.6526 -6.2346844E-05
145.7796 -6.6159133E-05
145.9066 -6.9898553E-05
146.0337 -7.3512412E-05
146.1607 -7.6952027E-05
146.2878 -8.0173435E-05
146.4148 -8.3138024E-05
146.5418 -8.5812993E-05
146.6689 -8.8171641E-05
146.7959 -9.0193513E-05
146.9229 -9.1864415E-05
147.0499 -9.3176226E-05
147.1770 -9.4126706E-05
147.3040 -9.4719013E-05
147.4310 -9.4961302E-05
147.5581 -9.4866104E-05
147.6851 -9.4449744E-05
147.8121 -9.3731651E-05
