  -4.50000000       0.00000000    
  -4.37500000       0.00000000    
  -4.25000000       0.00000000    
  -4.12500000       0.00000000    
  -4.00000000       0.00000000    
  -3.87500000       0.00000000    
  -3.75000000       1.25260485E-33
  -3.62500000      -9.83640507E-31
  -3.50000000       2.02471796E-29
  -3.37500000       3.86598321E-28
  -3.25000000       3.10975844E-27
  -3.12500000       1.65208120E-26
  -3.00000000       6.66574338E-26
  -2.87500000       2.18375040E-25
  -2.75000000       6.02453172E-25
  -2.62500000       1.42681035E-24
  -2.50000000       2.91910622E-24
  -2.37500000       5.11864468E-24
  -2.25000000       7.45051436E-24
  -2.12500000       8.14510718E-24
  -2.00000000       3.86841611E-24
  -1.87500000      -9.65313313E-24
  -1.75000000      -3.49832769E-23
  -1.62500000      -6.77428686E-23
  -1.50000000      -8.99918132E-23
  -1.37500000      -6.64991505E-23
  -1.25000000       4.86500775E-23
  -1.12500000       2.87158799E-22
  -1.00000000       6.21077234E-22
 -0.875000000       9.08502100E-22
 -0.750000000       8.61716918E-22
 -0.625000000       8.50405498E-23
 -0.500000000      -1.77290352E-21
 -0.375000000      -4.74298941E-21
 -0.250000000      -8.19711026E-21
 -0.125000000      -1.05985157E-20
   0.00000000      -9.55875376E-21
  0.125000000      -2.40827698E-21
  0.250000000       1.26451302E-20
  0.375000000       3.49549046E-20
  0.500000000       5.99823688E-20
  0.625000000       7.87327374E-20
  0.750000000       7.89183231E-20
  0.875000000       4.83980888E-20
   1.00000000      -1.92323758E-20
   1.12500000      -1.17984506E-19
   1.25000000      -2.23825432E-19
   1.37500000      -2.92762561E-19
   1.50000000      -2.65359954E-19
   1.62500000      -7.93971573E-20
   1.75000000       3.09586846E-19
   1.87500000       9.02830726E-19
   2.00000000       1.63384466E-18
   2.12500000       2.35309351E-18
   2.25000000       2.83107135E-18
   2.37500000       2.78777858E-18
   2.50000000       1.95281151E-18
   2.62500000       1.53849661E-19
   2.75000000      -2.57704956E-18
   2.87500000      -5.89890288E-18
   3.00000000      -9.08612491E-18
   3.12500000      -1.10127245E-17
   3.25000000      -1.02253081E-17
   3.37500000      -5.12437935E-18
   3.50000000       5.74364852E-18
   3.62500000       2.33045118E-17
   3.75000000       4.75309991E-17
   3.87500000       7.70458125E-17
   4.00000000       1.08840657E-16
   4.12500000       1.38204728E-16
   4.25000000       1.58944568E-16
   4.37500000       1.63947833E-16
   4.50000000       1.46096719E-16
   4.62500000       9.94747949E-17
   4.75000000       2.07419493E-17
   4.87500000      -8.95165793E-17
   5.00000000      -2.25715513E-16
   5.12500000      -3.76744241E-16
   5.25000000      -5.26250135E-16
   5.37500000      -6.53919811E-16
   5.50000000      -7.37820278E-16
   5.62500000      -7.57686006E-16
   5.75000000      -6.98830716E-16
   5.87500000      -5.56163898E-16
   6.00000000      -3.37636359E-16
   6.12500000      -6.63687504E-17
   6.25000000       2.19236227E-16
   6.37500000       4.67930276E-16
   6.50000000       6.20851963E-16
   6.62500000       6.19434136E-16
   6.75000000       4.15455446E-16
   6.87500000      -1.77080443E-17
   7.00000000      -6.73945364E-16
   7.12500000      -1.50499501E-15
   7.25000000      -2.41454810E-15
   7.37500000      -3.25769401E-15
   7.50000000      -3.84738755E-15
   7.62500000      -3.96920740E-15
   7.75000000      -3.40500934E-15
   7.87500000      -1.96511220E-15
   8.00000000       4.72537076E-16
   8.12500000       3.91914437E-15
   8.25000000       8.23205910E-15
   8.37500000       1.30775323E-14
   8.50000000       1.79057209E-14
   8.62500000       2.19450550E-14
   8.75000000       2.42231924E-14
   8.87500000       2.36214721E-14
   9.00000000       1.89685964E-14
   9.12500000       9.17761977E-15
   9.25000000      -6.57279779E-15
   9.37500000      -2.86159273E-14
   9.50000000      -5.65420547E-14
   9.62500000      -8.89270482E-14
   9.75000000      -1.23067992E-13
   9.87500000      -1.54757934E-13
   10.0000000      -1.78138862E-13
   10.1250000      -1.85676602E-13
   10.2500000      -1.68302709E-13
   10.3750000      -1.15764752E-13
   10.5000000      -1.72173456E-14
   10.6250000       1.37928121E-13
   10.7500000       3.58896127E-13
   10.8750000       6.52206967E-13
   11.0000000       1.02015488E-12
   11.1250000       1.45918260E-12
   11.2500000       1.95825994E-12
   11.3750000       2.49739942E-12
   11.5000000       3.04646239E-12
   11.6250000       3.56443087E-12
   11.7500000       3.99931780E-12
   11.8750000       4.28889693E-12
   12.0000000       4.36239413E-12
   12.1250000       4.14327296E-12
   12.2500000       3.55316557E-12
   12.3750000       2.51695366E-12
   12.5000000       9.68912559E-13
   12.6250000      -1.14025477E-12
   12.7500000      -3.83577111E-12
   12.8750000      -7.11088827E-12
   13.0000000      -1.09192022E-11
   13.1250000      -1.51677247E-11
   13.2500000      -1.97112968E-11
   13.3750000      -2.43490002E-11
   13.5000000      -2.88231990E-11
   13.6250000      -3.28218182E-11
   13.7500000      -3.59843752E-11
   13.8750000      -3.79121803E-11
   14.0000000      -3.81829186E-11
   14.1250000      -3.63695532E-11
   14.2500000      -3.20633728E-11
   14.3750000      -2.49004966E-11
   14.5000000      -1.45911009E-11
   14.6250000      -9.50172666E-13
   14.7500000       1.60716215E-11
   14.8750000       3.63585065E-11
   15.0000000       5.96033917E-11
   15.1250000       8.52867360E-11
   15.2500000       1.12662289E-10
   15.3750000       1.40751577E-10
   15.5000000       1.68348585E-10
   15.6250000       1.94036134E-10
   15.7500000       2.16214838E-10
   15.8750000       2.33145225E-10
   16.0000000       2.43003284E-10
   16.1250000       2.43948528E-10
   16.2500000       2.34204045E-10
   16.3750000       2.12146259E-10
   16.5000000       1.76402642E-10
   16.6250000       1.25953942E-10
   16.7500000       6.02377453E-11
   16.8750000      -2.07509079E-11
   17.0000000      -1.16366063E-10
   17.1250000      -2.25229752E-10
   17.2500000      -3.45168089E-10
   17.3750000      -4.73169892E-10
   17.5000000      -6.05373585E-10
   17.6250000      -7.37085837E-10
   17.7500000      -8.62839022E-10
   17.8750000      -9.76488002E-10
   18.0000000      -1.07135234E-09
   18.1250000      -1.14040244E-09
   18.2500000      -1.17649213E-09
   18.3750000      -1.17263299E-09
   18.5000000      -1.12230858E-09
   18.6250000      -1.01982056E-09
   18.7500000      -8.60658211E-10
   18.8750000      -6.41878217E-10
   19.0000000      -3.62482655E-10
   19.1250000      -2.37755909E-11
   19.2500000       3.70319220E-10
   19.3750000       8.13001722E-10
   19.5000000       1.29442113E-09
   19.6250000       1.80160564E-09
   19.7500000       2.31851827E-09
   19.8750000       2.82625656E-09
   20.0000000       3.30341265E-09
   20.1250000       3.72659947E-09
   20.2500000       4.07115186E-09
   20.3750000       4.31199432E-09
   20.5000000       4.42465931E-09
   20.6250000       4.38643610E-09
   20.7500000       4.17761514E-09
   20.8750000       3.78277898E-09
   21.0000000       3.19208970E-09
   21.1250000       2.40251108E-09
   21.2500000       1.41889189E-09
   21.3750000       2.54844840E-10
   21.5000000      -1.06665698E-09
   21.6250000      -2.51302956E-09
   21.7500000      -4.04223721E-09
   21.8750000      -5.60340707E-09
   22.0000000      -7.13793513E-09
   22.1250000      -8.58108962E-09
   22.2500000      -9.86410420E-09
   22.3750000      -1.09167226E-08
   22.5000000      -1.16701235E-08
   22.6250000      -1.20601493E-08
   22.7500000      -1.20306956E-08
   22.8750000      -1.15371401E-08
   23.0000000      -1.05496438E-08
   23.1250000      -9.05615138E-09
   23.2500000      -7.06490910E-09
   23.3750000      -4.60634375E-09
   23.5000000      -1.73411574E-09
   23.6250000       1.47476598E-09
   23.7500000       4.92088548E-09
   23.8750000       8.48448956E-09
   24.0000000       1.20286892E-08
   24.1250000       1.54037707E-08
   24.2500000       1.84525248E-08
   24.3750000       2.10164401E-08
   24.5000000       2.29425776E-08
   24.6250000       2.40908413E-08
   24.7500000       2.43413929E-08
   24.8750000       2.36018565E-08
   25.0000000       2.18139640E-08
   25.1250000       1.89593443E-08
   25.2500000       1.50640354E-08
   25.3750000       1.02015019E-08
   25.5000000       4.49381599E-09
   25.6250000      -1.88913885E-09
   25.7500000      -8.73260753E-09
   25.8750000      -1.57820850E-08
   26.0000000      -2.27505694E-08
   26.1250000      -2.93278042E-08
   26.2500000      -3.51912774E-08
   26.3750000      -4.00186480E-08
   26.5000000      -4.35011849E-08
   26.6250000      -4.53577158E-08
   26.7500000      -4.53485924E-08
   26.8750000      -4.32890737E-08
   27.0000000      -3.90615149E-08
   27.1250000      -3.26258736E-08
   27.2500000      -2.40278926E-08
   27.3750000      -1.34045548E-08
   27.5000000      -9.86387527E-10
   27.6250000       1.29037012E-08
   27.7500000       2.78552346E-08
   27.8750000       4.33786624E-08
   28.0000000       5.89174611E-08
   28.1250000       7.38636601E-08
   28.2500000       8.75763178E-08
   28.3750000       9.94026266E-08
   28.5000000       1.08700846E-07
   28.6250000       1.14864470E-07
   28.7500000       1.17346779E-07
   28.8750000       1.15684891E-07
   29.0000000       1.09522560E-07
   29.1250000       9.86306148E-08
   29.2500000       8.29243945E-08
   29.3750000       6.24773051E-08
   29.5000000       3.75298086E-08
   29.6250000       8.49335446E-09
   29.7500000      -2.40512410E-08
   29.8750000      -5.93611240E-08
   30.0000000      -9.65445395E-08
   30.1250000      -1.34579594E-07
   30.2500000      -1.72338261E-07
   30.3750000      -2.08615234E-07
   30.5000000      -2.42160638E-07
   30.6250000      -2.71715976E-07
   30.7500000      -2.96052235E-07
   30.8750000      -3.14008673E-07
   31.0000000      -3.24531669E-07
   31.1250000      -3.26712012E-07
   31.2500000      -3.19819350E-07
   31.3750000      -3.03333138E-07
   31.5000000      -2.76968279E-07
   31.6250000      -2.40695215E-07
   31.7500000      -1.94753341E-07
   31.8750000      -1.39657217E-07
   32.0000000      -7.61952421E-08
   32.1250000      -5.42090106E-09
   32.2500000       7.13637576E-08
   32.3750000       1.52631486E-07
   32.5000000       2.36659872E-07
   32.6250000       3.21567171E-07
   32.7500000       4.05352779E-07
   32.8750000       4.85941428E-07
   33.0000000       5.61229854E-07
   33.1250000       6.29134661E-07
   33.2500000       6.87639954E-07
   33.3750000       7.34843468E-07
   33.5000000       7.69000735E-07
   33.6250000       7.88564535E-07
   33.7500000       7.92220419E-07
   33.8750000       7.78916899E-07
   34.0000000       7.47889260E-07
   34.1250000       6.98676843E-07
   34.2500000       6.31134583E-07
   34.3750000       5.45437160E-07
   34.5000000       4.42077408E-07
   34.6250000       3.21858778E-07
   34.7500000       1.85882456E-07
   34.8750000       3.55299719E-08
   35.0000000      -1.27558039E-07
   35.1250000      -3.01505821E-07
   35.2500000      -4.84229076E-07
   35.3750000      -6.73462239E-07
   35.5000000      -8.66786593E-07
   35.6250000      -1.06165794E-06
   35.7500000      -1.25543374E-06
   35.8750000      -1.44539877E-06
   36.0000000      -1.62878985E-06
   36.1250000      -1.80281813E-06
   36.2500000      -1.96469091E-06
   36.3750000      -2.11163115E-06
   36.5000000      -2.24089672E-06
   36.6250000      -2.34979802E-06
   36.7500000      -2.43571844E-06
   36.8750000      -2.49613140E-06
   37.0000000      -2.52862219E-06
   37.1250000      -2.53091048E-06
   37.2500000      -2.50087578E-06
   37.3750000      -2.43658496E-06
   37.5000000      -2.33632545E-06
   37.6250000      -2.19864091E-06
   37.7500000      -2.02236924E-06
   37.8750000      -1.80668781E-06
   38.0000000      -1.55115822E-06
   38.1250000      -1.25577628E-06
   38.2500000      -9.21021751E-07
   38.3750000      -5.47911156E-07
   38.5000000      -1.38047767E-07
   38.6250000       3.06329298E-07
   38.7500000       7.82299026E-07
   38.8750000       1.28621821E-06
   39.0000000       1.81368864E-06
   39.1250000       2.35953098E-06
   39.2500000       2.91776996E-06
   39.3750000       3.48163053E-06
   39.5000000       4.04354614E-06
   39.6250000       4.59518105E-06
   39.7500000       5.12746738E-06
   39.8750000       5.63065578E-06
   40.0000000       6.09438121E-06
   40.1250000       6.50774473E-06
   40.2500000       6.85940722E-06
   40.3750000       7.13769805E-06
   40.5000000       7.33073375E-06
   40.6250000       7.42655038E-06
   40.7500000       7.41324038E-06
   40.8750000       7.27910083E-06
   41.0000000       7.01278441E-06
   41.1250000       6.60345313E-06
   41.2500000       6.04093339E-06
   41.3750000       5.31587102E-06
   41.5000000       4.41988232E-06
   41.6250000       3.34569904E-06
   41.7500000       2.08731035E-06
   41.8750000       6.40091173E-07
   42.0000000      -9.99074132E-07
   42.1250000      -2.83168379E-06
   42.2500000      -4.85751707E-06
   42.3750000      -7.07455729E-06
   42.5000000      -9.47891567E-06
   42.6250000      -1.20647846E-05
   42.7500000      -1.48244008E-05
   42.8750000      -1.77480233E-05
   43.0000000      -2.08239471E-05
   43.1250000      -2.40385125E-05
   43.2500000      -2.73761525E-05
   43.3750000      -3.08194576E-05
   43.5000000      -3.43492720E-05
   43.6250000      -3.79447920E-05
   43.7500000      -4.15837167E-05
   43.8750000      -4.52423883E-05
   44.0000000      -4.88960104E-05
   44.1250000      -5.25188188E-05
   44.2500000      -5.60843291E-05
   44.3750000      -5.95655874E-05
   44.5000000      -6.29354327E-05
   44.6250000      -6.61667655E-05
   44.7500000      -6.92328904E-05
   44.8750000      -7.21077595E-05
   45.0000000      -7.47663289E-05
   45.1250000      -7.71848572E-05
   45.2500000      -7.93411964E-05
   45.3750000      -8.12150975E-05
   45.5000000      -8.27884578E-05
   45.6250000      -8.40455759E-05
   45.7500000      -8.49733988E-05
   45.8750000      -8.55617182E-05
   46.0000000      -8.58033018E-05
   46.1250000      -8.56940460E-05
   46.2500000      -8.52330340E-05
   46.3750000      -8.44225578E-05
   46.5000000      -8.32681180E-05
   46.6250000      -8.17783803E-05
   46.7500000      -7.99650588E-05
   46.8750000      -7.78427566E-05
   47.0000000      -7.54288412E-05
   47.1250000      -7.27431834E-05
   47.2500000      -6.98079239E-05
   47.3750000      -6.66472188E-05
   47.5000000      -6.32869342E-05
   47.6250000      -5.97543476E-05
   47.7500000      -5.60778244E-05
   47.8750000      -5.22864939E-05
   48.0000000      -4.84099764E-05
   48.1250000      -4.44780126E-05
   48.2500000      -4.05202372E-05
   48.3750000      -3.65658525E-05
   48.5000000      -3.26433656E-05
   48.6250000      -2.87803923E-05
   48.7500000      -2.50033863E-05
   48.8750000      -2.13374460E-05
   49.0000000      -1.78061582E-05
   49.1250000      -1.44314163E-05
   49.2500000      -1.12332991E-05
   49.3750000      -8.22997208E-06
   49.5000000      -5.43759961E-06
   49.6250000      -2.87027365E-06
   49.7500000      -5.39950690E-07
   49.8750000       1.54358747E-06
   50.0000000       3.37274582E-06
   50.1250000       4.94213873E-06
   50.2500000       6.24857557E-06
   50.3750000       7.29102476E-06
   50.5000000       8.07060042E-06
   50.6250000       8.59047759E-06
   50.7500000       8.85583813E-06
   50.8750000       8.87378519E-06
   51.0000000       8.65325637E-06
   51.1250000       8.20492460E-06
   51.2500000       7.54106486E-06
   51.3750000       6.67544737E-06
   51.5000000       5.62316200E-06
   51.6250000       4.40048325E-06
   51.7500000       3.02471085E-06
   51.8750000       1.51398797E-06
   52.0000000      -1.12847161E-07
   52.1250000      -1.83645716E-06
   52.2500000      -3.63714116E-06
   52.3750000      -5.49502693E-06
   52.5000000      -7.39020425E-06
   52.6250000      -9.30290571E-06
   52.7500000      -1.12136322E-05
   52.8750000      -1.31032966E-05
   53.0000000      -1.49533562E-05
   53.1250000      -1.67459293E-05
   53.2500000      -1.84639030E-05
   53.3750000      -2.00910326E-05
   53.5000000      -2.16120388E-05
   53.6250000      -2.30126661E-05
   53.7500000      -2.42797651E-05
   53.8750000      -2.54013594E-05
   54.0000000      -2.63667389E-05
   54.1250000      -2.71664831E-05
   54.2500000      -2.77925392E-05
   54.3750000      -2.82382825E-05
   54.5000000      -2.84985945E-05
   54.6250000      -2.85698570E-05
   54.7500000      -2.84500165E-05
   54.8750000      -2.81386583E-05
   55.0000000      -2.76370029E-05
   55.1250000      -2.69479315E-05
   55.2500000      -2.60760335E-05
   55.3750000      -2.50275916E-05
   55.5000000      -2.38105949E-05
   55.6250000      -2.24346622E-05
   55.7500000      -2.09110531E-05
   55.8750000      -1.92525658E-05
   56.0000000      -1.74734178E-05
   56.1250000      -1.55891612E-05
   56.2500000      -1.36165236E-05
   56.3750000      -1.15732109E-05
   56.5000000      -9.47780427E-06
   56.6250000      -7.34946843E-06
   56.7500000      -5.20773119E-06
   56.8750000      -3.07223809E-06
   57.0000000      -9.62468221E-07
   57.1250000       1.10253757E-06
   57.2500000       3.10445398E-06
   57.3750000       5.02595003E-06
   57.5000000       6.85094665E-06
   57.6250000       8.56489260E-06
   57.7500000       1.01549631E-05
   57.8750000       1.16102647E-05
   58.0000000       1.29220371E-05
   58.1250000       1.40837637E-05
   58.2500000       1.50912947E-05
   58.3750000       1.59429073E-05
   58.5000000       1.66392874E-05
   58.6250000       1.71834909E-05
   58.7500000       1.75808800E-05
   58.8750000       1.78389600E-05
   59.0000000       1.79672279E-05
   59.1250000       1.79769304E-05
   59.2500000       1.78808696E-05
   59.3750000       1.76931026E-05
   59.5000000       1.74286724E-05
   59.6250000       1.71033171E-05
   59.7500000       1.67331400E-05
   59.8750000       1.63342957E-05
   60.0000000       1.59227111E-05
   60.1250000       1.55137859E-05
   60.2500000       1.51221348E-05
   60.3750000       1.47613828E-05
   60.5000000       1.44439637E-05
   60.6250000       1.41809642E-05
   60.7500000       1.39820177E-05
   60.8750000       1.38552277E-05
   61.0000000       1.38071337E-05
   61.1250000       1.38427004E-05
   61.2500000       1.39653648E-05
   61.3750000       1.41771070E-05
   61.5000000       1.44785636E-05
   61.6250000       1.48691497E-05
   61.7500000       1.53472120E-05
   61.8750000       1.59101746E-05
   62.0000000       1.65547026E-05
   62.1250000       1.72768541E-05
   62.2500000       1.80722000E-05
   62.3750000       1.89359343E-05
   62.5000000       1.98630005E-05
   62.6250000       2.08481506E-05
   62.7500000       2.18860132E-05
   62.8750000       2.29711368E-05
   63.0000000       2.40979807E-05
   63.1250000       2.52608861E-05
   63.2500000       2.64540558E-05
   63.3750000       2.76714454E-05
   63.5000000       2.89067284E-05
   63.6250000       3.01531745E-05
   63.7500000       3.14035860E-05
   63.8750000       3.26501831E-05
   64.0000000       3.38846075E-05
   64.1250000       3.50978080E-05
   64.2500000       3.62800565E-05
   64.3750000       3.74209485E-05
   64.5000000       3.85093990E-05
   64.6250000       3.95337120E-05
   64.7500000       4.04816965E-05
   64.8750000       4.13407288E-05
   65.0000000       4.20979450E-05
   65.1250000       4.27404120E-05
   65.2500000       4.32553788E-05
   65.3750000       4.36304290E-05
   65.5000000       4.38537863E-05
   65.6250000       4.39145042E-05
   65.7500000       4.38027128E-05
   65.8750000       4.35098445E-05
   66.0000000       4.30288637E-05
   66.1250000       4.23544625E-05
   66.2500000       4.14832466E-05
   66.3750000       4.04138809E-05
   66.5000000       3.91472458E-05
   66.6250000       3.76865028E-05
   66.7500000       3.60371487E-05
   66.8750000       3.42070671E-05
   67.0000000       3.22064479E-05
   67.1250000       3.00477968E-05
   67.2500000       2.77458093E-05
   67.3750000       2.53172711E-05
   67.5000000       2.27808978E-05
   67.6250000       2.01572057E-05
   67.7500000       1.74682518E-05
   67.8750000       1.47374676E-05
   68.0000000       1.19894084E-05
   68.1250000       9.24947108E-06
   68.2500000       6.54363112E-06
   68.3750000       3.89812658E-06
   68.5000000       1.33920742E-06
   68.6250000      -1.10719986E-06
   68.7500000      -3.41575401E-06
   68.8750000      -5.56201940E-06
   69.0000000      -7.52276537E-06
   69.1250000      -9.27622204E-06
   69.2500000      -1.08023578E-05
   69.3750000      -1.20831355E-05
   69.5000000      -1.31027527E-05
   69.6250000      -1.38478345E-05
   69.7500000      -1.43075904E-05
   69.8750000      -1.44739652E-05
   70.0000000      -1.43417346E-05
   70.1250000      -1.39085078E-05
   70.2500000      -1.31747593E-05
   70.3750000      -1.21438043E-05
   70.5000000      -1.08216545E-05
   70.6250000      -9.21693209E-06
   70.7500000      -7.34068226E-06
   70.8750000      -5.20618778E-06
   71.0000000      -2.82865039E-06
   71.1250000      -2.24937111E-07
   71.2500000       2.58678620E-06
   71.3750000       5.58733564E-06
   71.5000000       8.75692604E-06
   71.6250000       1.20755039E-05
   71.7500000       1.55230700E-05
   71.8750000       1.90800274E-05
   72.0000000       2.27275195E-05
   72.1250000       2.64477039E-05
   72.2500000       3.02240405E-05
   72.3750000       3.40415208E-05
   72.5000000       3.78868463E-05
   72.6250000       4.17485753E-05
   72.7500000       4.56172820E-05
   72.8750000       4.94854830E-05
   73.0000000       5.33477105E-05
   73.1250000       5.72004174E-05
   73.2500000       6.10418938E-05
   73.3750000       6.48721179E-05
   73.5000000       6.86925778E-05
   73.6250000       7.25060527E-05
   73.7500000       7.63164135E-05
   73.8750000       8.01283168E-05
   74.0000000       8.39468994E-05
   74.1250000       8.77775383E-05
   74.2500000       9.16254867E-05
   74.3750000       9.54955831E-05
   74.5000000       9.93919821E-05
   74.6250000       1.03317907E-04
   74.7500000       1.07275358E-04
   74.8750000       1.11264941E-04
   75.0000000       1.15285678E-04
   75.1250000       1.19334902E-04
   75.2500000       1.23408114E-04
   75.3750000       1.27498934E-04
   75.5000000       1.31599081E-04
   75.6250000       1.35698501E-04
   75.7500000       1.39785363E-04
   75.8750000       1.43846308E-04
   76.0000000       1.47866580E-04
   76.1250000       1.51830260E-04
   76.2500000       1.55720423E-04
   76.3750000       1.59519535E-04
   76.5000000       1.63209581E-04
   76.6250000       1.66772385E-04
   76.7500000       1.70189829E-04
   76.8750000       1.73444074E-04
   77.0000000       1.76517788E-04
   77.1250000       1.79394308E-04
   77.2500000       1.82057775E-04
   77.3750000       1.84493154E-04
   77.5000000       1.86686288E-04
   77.6250000       1.88623875E-04
   77.7500000       1.90293358E-04
   77.8750000       1.91682819E-04
   78.0000000       1.92780877E-04
   78.1250000       1.93576518E-04
   78.2500000       1.94058885E-04
   78.3750000       1.94217166E-04
   78.5000000       1.94040418E-04
   78.6250000       1.93517393E-04
   78.7500000       1.92636464E-04
   78.8750000       1.91385509E-04
   79.0000000       1.89752012E-04
   79.1250000       1.87722966E-04
   79.2500000       1.85285113E-04
   79.3750000       1.82425021E-04
   79.5000000       1.79129405E-04
   79.6250000       1.75385401E-04
   79.7500000       1.71180858E-04
   79.8750000       1.66504760E-04
   80.0000000       1.61347562E-04
   80.1250000       1.55701608E-04
   80.2500000       1.49561616E-04
   80.3750000       1.42924982E-04
   80.5000000       1.35792245E-04
   80.6250000       1.28167318E-04
   80.7500000       1.20057826E-04
   80.8750000       1.11475296E-04
   81.0000000       1.02435304E-04
   81.1250000       9.29574599E-05
   81.2500000       8.30654171E-05
   81.3750000       7.27867809E-05
   81.5000000       6.21529034E-05
   81.6250000       5.11986327E-05
   81.7500000       3.99619639E-05
   81.8750000       2.84836733E-05
   82.0000000       1.68068673E-05
   82.1250000       4.97648853E-06
   82.2500000      -6.96117286E-06
   82.3750000      -1.89590410E-05
   82.5000000      -3.09697607E-05
   82.6250000      -4.29461979E-05
   82.7500000      -5.48419303E-05
   82.8750000      -6.66117194E-05
   83.0000000      -7.82119096E-05
   83.1250000      -8.96008423E-05
   83.2500000      -1.00739155E-04
   83.3750000      -1.11590089E-04
   83.5000000      -1.22119716E-04
   83.6250000      -1.32297122E-04
   83.7500000      -1.42094505E-04
   83.8750000      -1.51487286E-04
   84.0000000      -1.60454088E-04
   84.1250000      -1.68976723E-04
   84.2500000      -1.77040201E-04
   84.3750000      -1.84632561E-04
   84.5000000      -1.91744839E-04
   84.6250000      -1.98370908E-04
   84.7500000      -2.04507392E-04
   84.8750000      -2.10153463E-04
   85.0000000      -2.15310676E-04
   85.1250000      -2.19982801E-04
   85.2500000      -2.24175630E-04
   85.3750000      -2.27896846E-04
   85.5000000      -2.31155747E-04
   85.6250000      -2.33963219E-04
   85.7500000      -2.36331573E-04
   85.8750000      -2.38274355E-04
   86.0000000      -2.39806264E-04
   86.1250000      -2.40943016E-04
   86.2500000      -2.41701200E-04
   86.3750000      -2.42098264E-04
   86.5000000      -2.42152324E-04
   86.6250000      -2.41882182E-04
   86.7500000      -2.41307178E-04
   86.8750000      -2.40447262E-04
   87.0000000      -2.39322879E-04
   87.1250000      -2.37955013E-04
   87.2500000      -2.36365100E-04
   87.3750000      -2.34575011E-04
   87.5000000      -2.32606937E-04
   87.6250000      -2.30483434E-04
   87.7500000      -2.28227233E-04
   87.8750000      -2.25861237E-04
   88.0000000      -2.23408337E-04
   88.1250000      -2.20891365E-04
   88.2500000      -2.18332934E-04
   88.3750000      -2.15755266E-04
   88.5000000      -2.13179927E-04
   88.6250000      -2.10627666E-04
   88.7500000      -2.08118188E-04
   88.8750000      -2.05669843E-04
   89.0000000      -2.03299453E-04
   89.1250000      -2.01022034E-04
   89.2500000      -1.98850626E-04
   89.3750000      -1.96796129E-04
   89.5000000      -1.94867083E-04
   89.6250000      -1.93069529E-04
   89.7500000      -1.91407016E-04
   89.8750000      -1.89880389E-04
   90.0000000      -1.88487902E-04
   90.1250000      -1.87225232E-04
   90.2500000      -1.86085555E-04
   90.3750000      -1.85059733E-04
   90.5000000      -1.84136574E-04
   90.6250000      -1.83302967E-04
   90.7500000      -1.82544216E-04
   90.8750000      -1.81844342E-04
   91.0000000      -1.81186420E-04
   91.1250000      -1.80552786E-04
   91.2500000      -1.79925453E-04
   91.3750000      -1.79286450E-04
   91.5000000      -1.78618022E-04
   91.6250000      -1.77903028E-04
   91.7500000      -1.77125170E-04
   91.8750000      -1.76269212E-04
   92.0000000      -1.75321184E-04
   92.1250000      -1.74268527E-04
   92.2500000      -1.73100198E-04
   92.3750000      -1.71806809E-04
   92.5000000      -1.70380576E-04
   92.6250000      -1.68815401E-04
   92.7500000      -1.67106875E-04
   92.8750000      -1.65252190E-04
   93.0000000      -1.63250181E-04
   93.1250000      -1.61101183E-04
   93.2500000      -1.58806943E-04
   93.3750000      -1.56370617E-04
   93.5000000      -1.53796544E-04
   93.6250000      -1.51090208E-04
   93.7500000      -1.48258143E-04
   93.8750000      -1.45307800E-04
   94.0000000      -1.42247431E-04
   94.1250000      -1.39086042E-04
   94.2500000      -1.35833237E-04
   94.3750000      -1.32499132E-04
   94.5000000      -1.29094202E-04
   94.6250000      -1.25629231E-04
   94.7500000      -1.22115118E-04
   94.8750000      -1.18562770E-04
   95.0000000      -1.14982984E-04
   95.1250000      -1.11386333E-04
   95.2500000      -1.07783024E-04
   95.3750000      -1.04182815E-04
   95.5000000      -1.00594909E-04
   95.6250000      -9.70278415E-05
   95.7500000      -9.34894342E-05
   95.8750000      -8.99866573E-05
   96.0000000      -8.65256079E-05
   96.1250000      -8.31114521E-05
   96.2500000      -7.97484026E-05
   96.3750000      -7.64397410E-05
   96.5000000      -7.31878608E-05
   96.6250000      -6.99943412E-05
   96.7500000      -6.68600260E-05
   96.8750000      -6.37851263E-05
   97.0000000      -6.07693109E-05
   97.1250000      -5.78118234E-05
   97.2500000      -5.49116194E-05
   97.3750000      -5.20674766E-05
   97.5000000      -4.92781473E-05
   97.6250000      -4.65424637E-05
   97.7500000      -4.38594907E-05
   97.8750000      -4.12285917E-05
   98.0000000      -3.86495230E-05
   98.1250000      -3.61224302E-05
   98.2500000      -3.36478734E-05
   98.3750000      -3.12267730E-05
   98.5000000      -2.88603333E-05
   98.6250000      -2.65499693E-05
   98.7500000      -2.42971964E-05
   98.8750000      -2.21034825E-05
   99.0000000      -1.99701262E-05
   99.1250000      -1.78980790E-05
   99.2500000      -1.58877883E-05
   99.3750000      -1.39390149E-05
   99.5000000      -1.20506638E-05
   99.6250000      -1.02206432E-05
   99.7500000      -8.44575879E-06
   99.8750000      -6.72164470E-06
   100.000000      -5.04272202E-06
   100.125000      -3.40223369E-06
   100.250000      -1.79230381E-06
   100.375000      -2.04016047E-07
   100.500000       1.37244444E-06
   100.625000       2.94763663E-06
   100.750000       4.53266739E-06
   100.875000       6.13896191E-06
   101.000000       7.77801597E-06
   101.125000       9.46109958E-06
   101.250000       1.11989857E-05
   101.375000       1.30016497E-05
   101.500000       1.48779673E-05
   101.625000       1.68354763E-05
   101.750000       1.88801241E-05
   101.875000       2.10161015E-05
   102.000000       2.32456168E-05
   102.125000       2.55687683E-05
   102.250000       2.79834057E-05
   102.375000       3.04850673E-05
   102.500000       3.30668991E-05