 -4.5   -4.537460476E-19
 -4.37320757   -4.537373622E-19
 -4.24641466   -4.537212839E-19
 -4.11962223   -4.536994153E-19
 -3.99282932   -4.536734625E-19
 -3.86603665   -4.53646424E-19
 -3.73924398   -4.53621195E-19
 -3.61245155   -4.535981891E-19
 -3.48565888   -4.535806632E-19
 -3.35886621   -4.535678936E-19
 -3.23207355   -4.535608625E-19
 -3.10528088   -4.535580191E-19
 -2.97848821   -4.535581225E-19
 -2.85169554   -4.535591565E-19
 -2.72490287   -4.53558898E-19
 -2.5981102   -4.535550206E-19
 -2.47131753   -4.535460767E-19
 -2.34452486   -4.53532118E-19
 -2.21773219   -4.535124208E-19
 -2.09093952   -4.534870367E-19
 -1.96414697   -4.534576201E-19
 -1.8373543   -4.534246879E-19
 -1.71056163   -4.533875682E-19
 -1.58376896   -4.533488975E-19
 -1.45697629   -4.533136906E-19
 -1.33018374   -4.532958029E-19
 -1.20339108   -4.53318602E-19
 -1.07659841   -4.534105742E-19
 -0.949805737   -4.535837651E-19
 -0.823013067   -4.538000728E-19
 -0.696220458   -4.539295783E-19
 -0.569427788   -4.537323991E-19
 -0.442635119   -4.529023751E-19
 -0.315842479   -4.512057759E-19
 -0.189049825   -4.487192193E-19
 -6.225717068E-2   -4.460876993E-19
 6.453548372E-2   -4.446525409E-19
 0.191328138   -4.462429508E-19
 0.318120778   -4.524834598E-19
 0.444913447   -4.636304423E-19
 0.571706116   -4.772689963E-19
 0.698498726   -4.874922249E-19
 0.825291395   -4.853728847E-19
 0.952084064   -4.613971064E-19
 1.07887673   -4.099393637E-19
 1.2056694   -3.349457993E-19
 1.33246195   -2.549210382E-19
 1.45925462   -2.046072216E-19
 1.58604729   -2.308052853E-19
 1.71283996   -3.809766168E-19
 1.83963263   -6.855244334E-19
 1.9664253   -1.137461334E-18
 2.09321785   -1.675619043E-18
 2.22001052   -2.17846162E-18
 2.34680319   -2.474169797E-18
 2.47359586   -2.368761965E-18
 2.60038853   -1.688589959E-18
 2.7271812   -3.284467964E-19
 2.85397387   1.705983603E-18
 2.98076653   4.270812085E-18
 3.1075592   7.075238911E-18
 3.23435187   9.687106363E-18
 3.36114454   1.154319709E-17
 3.48793697   1.195732837E-17
 3.61472964   1.013244882E-17
 3.74152231   5.204611729E-18
 3.86831498   -3.631635977E-18
 3.99510765   -1.685976234E-17
 4.12190056   -3.420603922E-17
 4.24869299   -5.406252968E-17
 4.37548542   -7.289820316E-17
 4.50227833   -8.490167249E-17
 4.62907076   -8.218206145E-17
 4.75586367   -5.585419296E-17
 4.8826561   1.798095023E-18
 5.00944901   9.416963568E-17
 5.13624144   2.166849245E-16
 5.26303434   3.535789219E-16
 5.38982677   4.763593123E-16
 5.51661968   5.452580839E-16
 5.64341211   5.146369958E-16
 5.77020502   3.425252479E-16
 5.89699745   3.314373541E-18
 6.02379036   -4.986416786E-16
 6.15058279   -1.117850133E-15
 6.27737522   -1.762727126E-15
 6.40416813   -2.300239306E-15
 6.53096056   -2.572025497E-15
 6.65775347   -2.421485931E-15
 6.7845459   -1.728443468E-15
 6.91133881   -4.452441393E-16
 7.03813124   1.373668165E-15
 7.16492414   3.556957737E-15
 7.29171658   5.823039381E-15
 7.41850948   7.811397979E-15
 7.54530191   9.137109573E-15
 7.67209482   9.462002613E-15
 7.79888725   8.57153551E-15
 7.92567968   6.443738348E-15
 8.05247211   3.296284618E-15
 8.17926502   -4.000725604E-16
 8.30605793   -3.949073853E-15
 8.43285084   -6.499198677E-15
 8.55964279   -7.152217458E-15
 8.6864357   -5.100292425E-15
 8.81322861   2.221822213E-16
 8.94002151   8.988008058E-15
 9.06681347   2.084457281E-14
 9.19360638   3.481506329E-14
 9.32039928   4.924767801E-14
 9.44719219   6.182454857E-14
 9.57398415   6.963892218E-14
 9.70077705   6.934556418E-14
 9.82756996   5.738427311E-14
 9.95436192   3.027090094E-14
 10.0811548   -1.505680854E-14
 10.2079477   -8.08582056E-14
 10.3347406   -1.682001435E-13
 10.4615326   -2.76590762E-13
 10.5883255   -4.036708305E-13
 10.7151184   -5.449967734E-13
 10.8419113   -6.939440884E-13
 10.9687033   -8.417516358E-13
 11.0954962   -9.777134614E-13
 11.2222891   -1.089512161E-12
 11.349082   -1.16367159E-12
 11.4758739   -1.186094192E-12
 11.6026669   -1.142635574E-12
 11.7294598   -1.019672953E-12
 11.8562517   -8.046229698E-13
 11.9830446   -4.863807924E-13
 12.1098375   -5.56791924E-14
 12.2366304   4.946093448E-13
 12.3634224   1.169170013E-12
 12.4902153   1.969860689E-12
 12.6170082   2.895141375E-12
 12.7438011   3.939217008E-12
 12.8705931   5.090808851E-12
 12.997386   6.331503898E-12
 13.1241789   7.633685351E-12
 13.2509708   8.958121571E-12
 13.3777637   1.025134491E-11
 13.5045567   1.14430479E-11
 13.6313496   1.244375609E-11
 13.7581415   1.314312287E-11
 13.8849344   1.340923726E-11
 14.0117273   1.308936032E-11
 14.1385202   1.201251685E-11
 14.2653122   9.994448845E-12
 14.3921051   6.845358915E-12
 14.518898   2.380875662E-12
 14.6456909   -3.563505394E-12
 14.7724829   -1.111432647E-11
 14.8992758   -2.033861274E-11
 15.0260687   -3.121942982E-11
 15.1528606   -4.362950973E-11
 15.2796535   -5.73045153E-11
 15.4064465   -7.181812783E-11
 15.5332394   -8.656145245E-11
 15.6600313   -1.007298134E-10
 15.7868242   -1.133203184E-10
 15.9136171   -1.231431762E-10
 16.0404091   -1.288498336E-10
 16.167202   -1.289802709E-10
 16.2939949   -1.220303164E-10
 16.4207878   -1.065393468E-10
 16.5475807   -8.119654255E-11
 16.6743736   -4.496235328E-11
 16.8011646   2.7998979E-12
 16.9279575   6.218910109E-11
 17.0547504   1.326364435E-10
 17.1815434   2.127905074E-10
 17.3083363   3.004267946E-10
 17.4351292   3.923935066E-10
 17.5619221   4.846024138E-10
 17.688715   5.720747209E-10
 17.815506   6.490484816E-10
 17.9422989   7.091522369E-10
 18.0690918   7.456455453E-10
 18.1958847   7.51724849E-10
 18.3226776   7.208870167E-10
 18.4494705   6.473399039E-10
 18.5762634   5.264431668E-10
 18.7030544   3.551615668E-10
 18.8298473   1.325055204E-10
 18.9566402   -1.400658339E-10
 19.0834332   -4.583067537E-10
 19.2102261   -8.149412256E-10
 19.337019   -1.199537802E-9
 19.4638119   -1.598528199E-9
 19.5906048   -1.995388743E-9
 19.7173958   -2.37099651E-9
 19.8441887   -2.704166446E-9
 19.9709816   -2.972365909E-9
 20.0977745   -3.152596184E-9
 20.2245674   -3.222417444E-9
 20.3513603   -3.161084949E-9
 20.4781532   -2.950760525E-9
 20.6049442   -2.577745573E-9
 20.7317371   -2.033687441E-9
 20.85853   -1.316692533E-9
 20.985323   -4.322932845E-10
 21.1121159   6.058012425E-10
 21.2389088   1.775223746E-9
 21.3657017   3.04479375E-9
 21.4924946   4.374731688E-9
 21.6192856   5.717277318E-9
 21.7460785   7.017737502E-9
 21.8728714   8.215954139E-9
 21.9996643   9.248195987E-9
 22.1264572   1.004942352E-8
 22.2532501   1.05558815E-8
 22.380043   1.070795186E-8
 22.506834   1.045315301E-8
 22.6336269   9.749191676E-9
 22.7604198   8.566940046E-9
 22.8872128   6.893188687E-9
 23.0140057   4.733059278E-9
 23.1407986   2.111911312E-9
 23.2675915   -9.233755427E-10
 23.3943844   -4.303869261E-9
 23.5211754   -7.938908198E-9
 23.6479683   -1.171734976E-8
 23.7747612   -1.550979256E-8
 23.9015541   -1.917178594E-8
 24.028347   -2.254797771E-8
 24.1551399   -2.547714573E-8
 24.2819328   -2.779797903E-8
 24.4087238   -2.935544607E-8
 24.5355167   -3.0007552E-8
 24.6623096   -2.963223622E-8
 24.7891026   -2.813414923E-8
 24.9158955   -2.545100131E-8
 25.0426884   -2.155921663E-8
 25.1694813   -1.64785412E-8
 25.2962742   -1.027536989E-8
 25.4230652   -3.064522636E-9
 25.5498581   4.99075048E-9
 25.676651   1.368067881E-8
 25.8034439   2.275287869E-8
 25.9302368   3.191829379E-8
 26.0570297   4.085904592E-8
 26.1838226   4.923809271E-8
 26.3106136   5.671041237E-8
 26.4374065   6.293533517E-8
 26.5641994   6.758974536E-8
 26.6909924   7.038153171E-8
 26.8177853   7.106286404E-8
 26.9445782   6.944268449E-8
 27.0713711   6.539794839E-8
 27.198164   5.888293231E-8
 27.324955   4.993624358E-8
 27.4517479   3.868501253E-8
 27.5785408   2.534595112E-8
 27.7053337   1.022300378E-8
 27.8321266   -6.298479516E-9
 27.9589195   -2.3761066E-8
 28.0857124   -4.164786915E-8
 28.2125034   -5.939817171E-8
 28.3392963   -7.642560007E-8
 28.4660892   -9.213820107E-8
 28.5928822   -1.059598347E-7
 28.7196751   -1.173519451E-7
 28.846468   -1.2583493E-7
 28.9732609   -1.310082069E-7
 29.1000538   -1.325681325E-7
 29.2268448   -1.303228743E-7
 29.3536377   -1.242035808E-7
 29.4804306   -1.14271046E-7
 29.6072235   -1.007177275E-7
 29.7340164   -8.38644354E-8
 29.8608093   -6.415194065E-8
 29.9876022   -4.212746063E-8
 30.1143932   -1.842644437E-8
 30.2411861   6.249763373E-9
 30.367979   3.115954073E-8
 30.494772   5.554901961E-8
 30.6215649   7.868133167E-8
 30.7483578   9.986577965E-8
 30.8751507   1.184858647E-7
 31.0019417   1.34024674E-7
 31.1287346   1.460865349E-7
 31.2555275   1.544138968E-7
 31.3823204   1.588983451E-7
 31.5091133   1.595853973E-7
 31.6359062   1.566722574E-7
 31.7626991   1.504988631E-7
 31.889492   1.41532098E-7
 32.0162849   1.303439774E-7
 32.1430779   1.175844915E-7
 32.2698708   1.039502422E-7
 32.3966637   9.015039382E-8
 32.5234528   7.687127379E-8
 32.6502457   6.474134295E-8
 32.7770386   5.429818017E-8
 32.9038315   4.595922221E-8
 33.0306244   3.999749509E-8
 33.1574173   3.65238364E-8
 33.2842102   3.547651062E-8
 33.4110031   3.661892123E-8
 33.537796   3.954574268E-8
 33.6645889   4.369740481E-8
 33.7913818   4.838241097E-8
 33.9181747   5.280659821E-8
 34.0449677   5.61082949E-8
 34.1717606   5.739783759E-8
 34.2985535   5.579927986E-8
 34.4253426   5.049316343E-8
 34.5521355   4.075771542E-8
 34.6789284   2.600676297E-8
 34.8057213   5.822951454E-9
 34.9325142   -2.001624644E-8
 35.0593071   -5.151992255E-8
 35.1861   -8.847437272E-8
 35.3128929   -1.304428423E-7
 35.4396858   -1.76774833E-7
 35.5664787   -2.266241239E-7
 35.6932716   -2.789750795E-7
 35.8200645   -3.326754836E-7
 35.9468575   -3.864743121E-7
 36.0736504   -4.390627737E-7
 36.2004433   -4.891156777E-7
 36.3272324   -5.353321626E-7
 36.4540253   -5.764717912E-7
 36.5808182   -6.113859854E-7
 36.7076111   -6.390419003E-7
 36.834404   -6.585370897E-7
 36.9611969   -6.691061571E-7
 37.0879898   -6.701170605E-7
 37.2147827   -6.61058607E-7
 37.3415756   -6.415205576E-7
 37.4683685   -6.11167593E-7
 37.5951614   -5.697095276E-7
 37.7219543   -5.168710686E-7
 37.8487473   -4.523628547E-7
 37.9755402   -3.758593152E-7
 38.1023293   -2.869837488E-7
 38.2291222   -1.853059644E-7
 38.3559151   -7.035395555E-8
 38.482708   5.835843808E-8
 38.6095009   2.012858857E-7
 38.7362938   3.58788327E-7
 38.8630867   5.310503752E-7
 38.9898796   7.179849035E-7
 39.1166725   9.191237496E-7
 39.2434654   1.133498699E-6
 39.3702583   1.359517455E-6
 39.4970512   1.594840228E-6
 39.6238441   1.836261845E-6
 39.7506371   2.079606929E-6
 39.87743   2.319640771E-6
 40.0042191   2.550007366E-6
 40.131012   2.763194743E-6
 40.2578049   2.950535418E-6
 40.3845978   3.102243681E-6
 40.5113907   3.207494956E-6
 40.6381836   3.254542662E-6
 40.7649765   3.230879656E-6
 40.8917694   3.123436727E-6
 41.0185623   2.918815426E-6
 41.1453552   2.603550911E-6
 41.2721481   2.164398211E-6
 41.398941   1.588632585E-6
 41.5257339   8.643572755E-7
 41.6525269   -1.919254444E-8
 41.7793198   -1.071359748E-6
 41.9061089   -2.299797643E-6
 42.0329018   -3.710234751E-6
 42.1596947   -5.306284493E-6
 42.2864876   -7.089299288E-6
 42.4132805   -9.058287105E-6
 42.5400734   -1.120988327E-5
 42.6668663   -1.353839161E-5
 42.7936592   -1.603588316E-5
 42.9204521   -1.869236803E-5
 43.047245   -2.149602005E-5
 43.1740379   -2.443345147E-5
 43.3008308   -2.749004125E-5
 43.4276237   -3.065030251E-5
 43.5544167   -3.389825361E-5
 43.6812096   -3.721782559E-5
 43.8079987   -4.059326602E-5
 43.9347916   -4.400949183E-5
 44.0615845   -4.745245678E-5
 44.1883774   -5.090946433E-5
 44.3151703   -5.436938591E-5
 44.4419632   -5.78228719E-5
 44.5687561   -6.126247172E-5
 44.695549   -6.468260835E-5
 44.8223419   -6.807959289E-5
 44.9491348   -7.145141717E-5
 45.0759277   -7.479757915E-5
 45.2027206   -7.811874093E-5
 45.3295135   -8.141640865E-5
 45.4563065   -8.46924595E-5
 45.5830994   -8.794868336E-5
 45.7098885   -9.118631715E-5
 45.8366814   -9.440551366E-5
 45.9634743   -9.760484681E-5
 46.0902672   -1.007809187E-4
 46.2170601   -1.039278359E-4
 46.343853   -1.070369835E-4
 46.4706459   -1.100967129E-4
 46.5974388   -1.130922028E-4
 46.7242317   -1.160054671E-4
 46.8510246   -1.188154201E-4
 46.9778175   -1.21498073E-4
 47.1046104   -1.24026963E-4
 47.2314034   -1.263735612E-4
 47.3581963   -1.285079634E-4
 47.4849892   -1.30399465E-4
 47.6117783   -1.320175361E-4
 47.7385712   -1.333325345E-4
 47.8653641   -1.343167387E-4
 47.992157   -1.349451923E-4
 48.1189499   -1.35196693E-4
 48.2457428   -1.350546372E-4
 48.3725357   -1.345078781E-4
 48.4993286   -1.335513953E-4
 48.6261215   -1.321869058E-4
 48.7529144   -1.304233447E-4
 48.8797073   -1.282770536E-4
 49.0065002   -1.257719268E-4
 49.1332932   -1.229393238E-4
 49.2600861   -1.198176906E-4
 49.386879   -1.164521163E-4
 49.5136681   -1.128936419E-4
 49.640461   -1.091983358E-4
 49.7672539   -1.054263121E-4
 49.8940468   -1.016405731E-4
 50.0208397   -9.790571494E-5
 50.1476326   -9.428663179E-5
 50.2744255   -9.084712656E-5
 50.4012184   -8.764857193E-5
 50.5280113   -8.47485644E-5
 50.6548042   -8.219970914E-5
 50.7815971   -8.004846313E-5
 50.90839   -7.833415293E-5
 51.035183   -7.708815247E-5
 51.1619759   -7.633325004E-5
 51.2887688   -7.608325541E-5
 51.4155579   -7.634275244E-5
 51.5423508   -7.710713544E-5
 51.6691437   -7.836284203E-5
 51.7959366   -8.008780424E-5
 51.9227295   -8.225207421E-5
 52.0495224   -8.48186246E-5
 52.1763153   -8.774430898E-5
 52.3031082   -9.098093142E-5
 52.4299011   -9.447638877E-5
 52.556694   -9.817589307E-5
 52.6834869   -1.020231502E-4
 52.8102798   -1.05961597E-4
 52.9370728   -1.099355213E-4
 53.0638657   -1.138911321E-4
 53.1906586   -1.177775266E-4
 53.3174477   -1.215475058E-4
 53.4442406   -1.251582871E-4
 53.5710335   -1.285719627E-4
 53.6978264   -1.317559654E-4
 53.8246193   -1.34683185E-4
 53.9514122   -1.373320993E-4
 54.0782051   -1.396866137E-4
 54.204998   -1.417358435E-4
 54.3317909   -1.434738369E-4
 54.4585838   -1.448990661E-4
 54.5853767   -1.460139902E-4
 54.7121696   -1.468245027E-4
 54.8389626   -1.473393204E-4
 54.9657555   -1.475695026E-4
 55.0925484   -1.475278987E-4
 55.2193375   -1.472285949E-4
 55.3461304   -1.466865797E-4
 55.4729233   -1.459173218E-4
 55.5997162   -1.449365518E-4
 55.7265091   -1.437600149E-4
 55.853302   -1.424033835E-4
 55.9800949   -1.408822573E-4
 56.1068878   -1.392121485E-4
 56.2336807   -1.374085987E-4
 56.3604736   -1.35487353E-4
 56.4872665   -1.334645058E-4
 56.6140594   -1.313566754E-4
 56.7408524   -1.291812077E-4
 56.8676453   -1.269563509E-4
 56.9944382   -1.247012988E-4
 57.1212273   -1.224363368E-4
 57.2480202   -1.201828418E-4
 57.3748131   -1.179631217E-4
 57.501606   -1.158003943E-4
 57.6283989   -1.137184736E-4
 57.7551918   -1.117415086E-4
 57.8819847   -1.098936191E-4
 58.0087776   -1.081984374E-4
 58.1355705   -1.066786499E-4
 58.2623634   -1.053555097E-4
 58.3891563   -1.042482691E-4
 58.5159492   -1.033737062E-4
 58.6427422   -1.027456019E-4
 58.7695351   -1.023743316E-4
 58.896328   -1.022664728E-4
 59.0231171   -1.024244702E-4
 59.14991   -1.028465122E-4
 59.2767029   -1.035263485E-4
 59.4034958   -1.044533419E-4
 59.5302887   -1.056125839E-4
 59.6570816   -1.069851496E-4
 59.7838745   -1.085484328E-4
 59.9106674   -1.102765964E-4
 60.0374603   -1.121411187E-4
 60.1642532   -1.141113753E-4
 60.2910461   -1.161553155E-4
 60.4178391   -1.182401393E-4
 60.544632   -1.203330103E-4
 60.6714249   -1.224017178E-4
 60.7982178   -1.244153536E-4
 60.9250069   -1.263449376E-4
 61.0517998   -1.281638979E-4
 61.1785927   -1.298486459E-4
 61.3053856   -1.313788671E-4
 61.4321785   -1.327377977E-4
 61.5589714   -1.339124574E-4
 61.6857643   -1.348937367E-4
 61.8125572   -1.356763241E-4
 61.9393501   -1.362586627E-4
 62.066143   -1.366427168E-4
 62.1929359   -1.36833798E-4
 62.3197289   -1.368401136E-4
 62.4465218   -1.366725919E-4
 62.5733147   -1.363443589E-4
 62.7001076   -1.358703885E-4
 62.8268967   -1.352670515E-4
 62.9536896   -1.345518249E-4
 63.0804825   -1.337427384E-4
 63.2072754   -1.328581857E-4
 63.3340683   -1.319164876E-4
 63.4608612   -1.30935674E-4
 63.5876541   -1.299332071E-4
 63.714447   -1.289258071E-4
 63.8412399   -1.279292774E-4
 63.9680328   -1.269583881E-4
 64.0948257   -1.260268327E-4
 64.2216187   -1.251471404E-4
 64.3484116   -1.243306906E-4
 64.4752045   -1.235876698E-4
 64.6019974   -1.22927202E-4
 64.7287903   -1.223572763E-4
 64.8555832   -1.218849357E-4
 64.9823761   -1.215162338E-4
 65.109169   -1.212564239E-4
 65.2359619   -1.211099807E-4
 65.3627548   -1.210807241E-4
 65.4895477   -1.211719573E-4
 65.616333   -1.213865253E-4
 65.7431259   -1.217269528E-4
 65.8699188   -1.221955754E-4
 65.9967117   -1.227946486E-4
 66.1235046   -1.235264353E-4
 66.2502975   -1.243933511E-4
 66.3770905   -1.253980008E-4
 66.5038834   -1.265433239E-4
 66.6306763   -1.27832609E-4
 66.7574692   -1.292694942E-4
 66.8842621   -1.308579813E-4
 67.011055   -1.326023485E-4
 67.1378479   -1.345070777E-4
 67.2646408   -1.365766657E-4
 67.3914337   -1.388154342E-4
 67.5182266   -1.412272104E-4
 67.6450195   -1.438150794E-4
 67.7718124   -1.465810055E-4
 67.8986053   -1.495253964E-4
 68.0253983   -1.52646724E-4
 68.1521912   -1.559410739E-4
 68.2789841   -1.594017522E-4
 68.405777   -1.630188781E-4
 68.5325699   -1.667790202E-4
 68.6593628   -1.706649782E-4
 68.7861557   -1.746555354E-4
 68.9129486   -1.787254296E-4
 69.0397415   -1.828453096E-4
 69.1665344   -1.869820408E-4
 69.2933273   -1.910988503E-4
 69.4201126   -1.951559971E-4
 69.5469055   -1.991112367E-4
 69.6736984   -2.029206371E-4
 69.8004913   -2.065394365E-4
 69.9272842   -2.099230624E-4
 70.0540771   -2.130281791E-4
 70.1808701   -2.158138232E-4
 70.307663   -2.182424942E-4
 70.4344559   -2.202813484E-4
 70.5612488   -2.219032467E-4
 70.6880417   -2.230877144E-4
 70.8148346   -2.238217712E-4
 70.9416275   -2.241006296E-4
 71.0684204   -2.239281603E-4
 71.1952133   -2.233171981E-4
 71.3220062   -2.222894545E-4
 71.4487991   -2.208753867E-4
 71.575592   -2.191136446E-4
 71.7023849   -2.170503576E-4
 71.8291779   -2.147381165E-4
 71.9559708   -2.122348669E-4
 72.0827637   -2.096024109E-4
 72.2095566   -2.069049078E-4
 72.3363495   -2.042072738E-4
 72.4631424   -2.015734499E-4
 72.5899353   -1.990646997E-4
 72.7167282   -1.967379649E-4
 72.8435211   -1.946443081E-4
 72.970314   -1.928274869E-4
 73.0971069   -1.913227461E-4
 73.2238922   -1.901559153E-4
 73.3506851   -1.893426233E-4
 73.477478   -1.888879779E-4
 73.6042709   -1.887864637E-4
 73.7310638   -1.890221611E-4
 73.8578568   -1.895694149E-4
 73.9846497   -1.903935918E-4
 74.1114426   -1.914522727E-4
 74.2382355   -1.926966361E-4
 74.3650284   -1.94073029E-4
 74.4918213   -1.955246698E-4
 74.6186142   -1.969934674E-4
 74.7454071   -1.984218543E-4
 74.8722   -1.997545478E-4
 74.9989929   -2.009402087E-4
 75.1257858   -2.019330132E-4
 75.2525787   -2.026939619E-4
 75.3793716   -2.031918848E-4
 75.5061646   -2.034043137E-4
 75.6329575   -2.03317788E-4
 75.7597504   -2.029280295E-4
 75.8865433   -2.022397384E-4
 76.0133362   -2.012659534E-4
 76.1401291   -2.000272216E-4
 76.266922   -1.985504932E-4
 76.3937149   -1.968676806E-4
 76.5205078   -1.950141013E-4
 76.6473007   -1.930268627E-4
 76.7740936   -1.909430721E-4
 76.9008865   -1.887981198E-4
 77.0276718   -1.866241219E-4
 77.1544647   -1.844483195E-4
 77.2812576   -1.82291813E-4
 77.4080505   -1.801686158E-4
 77.5348434   -1.780848397E-4
 77.6616364   -1.760383311E-4
 77.7884293   -1.740186854E-4
 77.9152222   -1.720075525E-4
 78.0420151   -1.699793938E-4
 78.168808   -1.679024717E-4
 78.2956009   -1.657402609E-4
 78.4223938   -1.634530345E-4
 78.5491867   -1.609997125E-4
 78.6759796   -1.583398407E-4
 78.8027725   -1.554356568E-4
 78.9295654   -1.522540842E-4
 79.0563583   -1.487687114E-4
 79.1831512   -1.449616248E-4
 79.3099442   -1.408249227E-4
 79.4367371   -1.363620686E-4
 79.56353   -1.31588793E-4
 79.6903229   -1.265336177E-4
 79.8171158   -1.212380012E-4
 79.9439087   -1.157560764E-4
 80.0707016   -1.101538801E-4
 80.1974945   -1.045082026E-4
 80.3242874   -9.890508954E-5
 80.4510803   -9.343789861E-5
 80.5778732   -8.820518997E-5
 80.7046585   -8.330832497E-5
 80.8314514   -7.884894876E-5
 80.9582443   -7.492634177E-5
 81.0850372   -7.16349241E-5
 81.2118301   -6.906170893E-5
 81.338623   -6.728401786E-5
 81.465416   -6.636741455E-5
 81.5922089   -6.636394392E-5
 81.7190018   -6.731076428E-5
 81.8457947   -6.922912871E-5
 81.9725876   -7.21238539E-5
 82.0993805   -7.598317461E-5
 82.2261734   -8.077910024E-5
 82.3529663   -8.646812057E-5
 82.4797592   -9.29923699E-5
 82.6065521   -1.002811186E-4
 82.733345   -1.082525268E-4
 82.8601379   -1.168157251E-4
 82.9869308   -1.258729462E-4
 83.1137238   -1.353218395E-4
 83.2405167   -1.450578275E-4
 83.3673096   -1.54976311E-4
 83.4941025   -1.649748301E-4
 83.6208954   -1.749550574E-4
 83.7476883   -1.848244719E-4
 83.8744812   -1.944978285E-4
 84.0012741   -2.038982202E-4
 84.128067   -2.129578934E-4
 84.2548599   -2.216186549E-4
 84.3816528   -2.298318577E-4
 84.5084381   -2.37558168E-4
 84.635231   -2.447669685E-4
 84.7620239   -2.514355583E-4
 84.8888168   -2.575480612E-4
 85.0156097   -2.630941453E-4
 85.1424026   -2.680678444E-4
 85.2691956   -2.724661026E-4
 85.3959885   -2.76287552E-4
 85.5227814   -2.795312612E-4
 85.6495743   -2.821956587E-4
 85.7763672   -2.842777467E-4
 85.9031601   -2.857724903E-4
 86.029953   -2.86672439E-4
 86.1567459   -2.869678137E-4
 86.2835388   -2.86646653E-4
 86.4103317   -2.856954234E-4
 86.5371246   -2.840998059E-4
 86.6639175   -2.81845947E-4
 86.7907104   -2.789214195E-4
 86.9175034   -2.753168519E-4
 87.0442963   -2.710273257E-4
 87.1710892   -2.660537139E-4
 87.2978821   -2.60404282E-4
 87.424675   -2.540957648E-4
 87.5514679   -2.471546177E-4
 87.6782608   -2.396176715E-4
 87.8050537   -2.315326419E-4
 87.9318466   -2.229582897E-4
 88.0586395   -2.139641874E-4
 88.1854324   -2.046300506E-4
 88.3122177   -1.950446604E-4
 88.4390106   -1.853044232E-4
 88.5658035   -1.7551161E-4
 88.6925964   -1.657723333E-4
 88.8193893   -1.561939571E-4
 88.9461823   -1.468828268E-4
 89.0729752   -1.379413443E-4
 89.1997681   -1.294654503E-4
 89.326561   -1.215419179E-4
 89.4533539   -1.14245915E-4
 89.5801468   -1.076387125E-4
 89.7069397   -1.017657778E-4
 89.8337326   -9.665526886E-5
 89.9605255   -9.231687727E-5
 90.0873184   -8.874132618E-5
 90.2141113   -8.590032667E-5
 90.3409042   -8.374706522E-5
 90.4676971   -8.22172733E-5
 90.5944901   -8.123081352E-5
 90.721283   -8.069375326E-5
 90.8480759   -8.050090401E-5
 90.9748688   -8.053857164E-5
 91.1016617   -8.068783791E-5
 91.2284546   -8.082775457E-5
 91.3552475   -8.083871944E-5
 91.4820404   -8.060585969E-5
 91.6088333   -8.002227696E-5
 91.7356262   -7.899195771E-5
 91.8624191   -7.743247261E-5
 91.989212   -7.527721027E-5
 92.1159973   -7.247718895E-5
 92.2427902   -6.90022498E-5
 92.3695831   -6.484173355E-5
 92.496376   -6.000468784E-5
 92.6231689   -5.451931429E-5
 92.7499619   -4.843200077E-5
 92.8767548   -4.180578981E-5
 93.0035477   -3.471842501E-5
 93.1303406   -2.725994818E-5
 93.2571335   -1.953002356E-5
 93.3839264   -1.16350584E-5
 93.5107193   -3.685109732E-6
 93.6375122   4.209176495E-6
 93.7643051   1.193958906E-5
 93.891098   1.940327274E-5
 94.0178909   2.650540046E-5
 94.1446838   3.316154834E-5
 94.2714767   3.929973172E-5
 94.3982697   4.48620558E-5
 94.5250626   4.9805858E-5
 94.6518555   5.410445738E-5
 94.7786484   5.774739839E-5
 94.9054413   6.074019984E-5
 95.0322342   6.310370372E-5
 95.1590271   6.487293285E-5
 95.28582   6.609566481E-5
 95.4126129   6.683061656E-5
 95.5394058   6.714537449E-5
 95.6661987   6.711418973E-5
 95.7929916   6.681559171E-5
 95.9197769   6.63299943E-5
 96.0465698   6.573733117E-5
 96.1733627   6.511480751E-5
 96.3001556   6.453477545E-5
 96.4269485   6.406287866E-5
 96.5537415   6.375649536E-5
 96.6805344   6.366345769E-5
 96.8073273   6.382111314E-5
 96.9341202   6.425582251E-5
 97.0609131   6.498271978E-5
 97.187706   6.600592314E-5
 97.3144989   6.73190516E-5
 97.4412918   6.890601071E-5
 97.5680847   7.074211317E-5
 97.6948776   7.279534475E-5
 97.8216705   7.502784865E-5
 97.9484634   7.73974316E-5
 98.0752563   7.985920092E-5
 98.2020493   8.236707072E-5
 98.3288422   8.48752461E-5
 98.4556351   8.733954019E-5
 98.582428   8.971850912E-5
 98.7092209   9.197437612E-5
 98.8360138   9.407370817E-5
 98.9628067   9.598783799E-5
 99.0895996   9.76930678E-5
 99.2163925   9.917058196E-5
 99.3431854   1.004061705E-4
 99.4699783   1.013898145E-4
 99.5967712   1.021150601E-4
 99.7235565   1.02578364E-4
 99.8503494   1.02778351E-4
 99.9771423   1.027150938E-4
 100.103935   1.023894583E-4
 100.230728   1.018025214E-4
 100.357521   1.009551197E-4
 100.484314   9.984757344E-5
 100.611107   9.847957699E-5
 100.7379   9.685023542E-5
 100.864693   9.49583191E-5
 100.991486   9.280268569E-5
 101.118279   9.038278949E-5
 101.245071   8.769935084E-5
 101.371864   8.475506911E-5
 101.498657   8.155537216E-5
 101.62545   7.810912939E-5
 101.752243   7.442932838E-5
 101.879036   7.053362788E-5
 102.005829   6.64447507E-5
 102.132622   6.219074567E-5
 102.259415   5.780495121E-5
 102.386208   5.332583532E-5
 102.513   4.87965408E-5
 102.639793   4.426419036E-5
 102.766586   3.977902452E-5
 102.893379   3.5393281E-5
 103.020172   3.115992149E-5
 103.146965   2.713123467E-5
 103.273758   2.335734098E-5
 103.400551   1.98846592E-5
 103.527336   1.675438216E-5
 103.654129   1.400103611E-5
 103.780922   1.165115737E-5
 103.907715   9.722145478E-6
 104.034508   8.221355529E-6
 104.161301   7.145451946E-6
 104.288094   6.480074262E-6
 104.414886   6.19980392E-6
 104.541679   6.268510333E-6
 104.668472   6.63999981E-6
 104.795265   7.259031463E-6
 104.922058   8.062593224E-6
 105.048851   8.981489373E-6
 105.175644   9.942115867E-6
 105.302437   1.08684344E-5
 105.42923   1.168401377E-5
 105.556023   1.231413353E-5
 105.682816   1.268785581E-5
 105.809608   1.273999987E-5
 105.936401   1.241289465E-5
 106.063194   1.165797494E-5
 106.189987   1.04370456E-5
 106.31678   8.723220162E-6
 106.443573   6.50153288E-6
 106.570366   3.769145906E-6
 106.697159   5.351917594E-7
 106.823952   -3.179748091E-6
 106.950745   -7.344522146E-6
 107.077538   -1.191856336E-5
 107.20433   -1.685331517E-5
 107.331116   -2.209386366E-5
 107.457909   -2.758069058E-5
 107.584702   -3.325147554E-5
 107.711494   -3.90429268E-5
 107.838287   -4.489252751E-5
 107.96508   -5.074014189E-5
 108.091873   -5.652943582E-5
 108.218666   -6.22090738E-5
 108.345459   -6.773365749E-5
 108.472252   -7.306435873E-5
 108.599045   -7.816925063E-5
 108.725838   -8.302337665E-5
 108.852631   -8.760848141E-5
 108.979424   -9.191254503E-5
 109.106216   -9.592904826E-5
 109.233009   -9.965610661E-5
 109.359802   -1.030954518E-4
 109.486595   -1.062513256E-4
 109.613388   -1.091293962E-4
 109.740181   -1.117356951E-4
 109.866974   -1.14075614E-4
 109.993767   -1.16153089E-4
 110.12056   -1.17969932E-4
 110.247353   -1.195253571E-4
 110.374146   -1.208157701E-4
 110.500938   -1.218347024E-4
 110.627731   -1.225731394E-4
 110.754524   -1.230199123E-4
 110.881317   -1.231623755E-4
 111.008102   -1.229872869E-4
 111.134895   -1.224817534E-4
 111.261688   -1.21634308E-4
 111.388481   -1.204360233E-4
 111.515274   -1.188816241E-4
 111.642067   -1.169705429E-4
 111.76886   -1.147078292E-4
 111.895653   -1.121049499E-4
 112.022446   -1.091803788E-4
 112.149239   -1.059599235E-4
 112.276031   -1.024768135E-4
 112.402824   -9.877150296E-5
 112.529617   -9.489120566E-5
 112.65641   -9.088914521E-5
 112.783203   -8.682352927E-5
 112.909996   -8.27563199E-5
 113.036789   -7.875177835E-5
 113.163582   -7.487490075E-5
 113.290375   -7.118967915E-5
 113.417168   -6.775739894E-5
 113.543961   -6.46348708E-5
 113.670753   -6.187280815E-5
 113.797546   -5.951428102E-5
 113.924339   -5.759337E-5
 114.051132   -5.613408212E-5
 114.177925   -5.514949953E-5
 114.304718   -5.464128844E-5
 114.431511   -5.459948807E-5
 114.558304   -5.500268526E-5
 114.685097   -5.581850928E-5
 114.811882   -5.700446491E-5
 114.938675   -5.850907837E-5
 115.065468   -6.027326526E-5
 115.192261   -6.22320149E-5
 115.319054   -6.431611837E-5
 115.445847   -6.645415124E-5
 115.572639   -6.857439439E-5
 115.699432   -7.060677308E-5
 115.826225   -7.248473412E-5
 115.953018   -7.414700667E-5
 116.079811   -7.553904288E-5
 116.206604   -7.661440759E-5
 116.333397   -7.733571692E-5
 116.46019   -7.767541683E-5
 116.586983   -7.761611778E-5
 116.713776   -7.715074753E-5
 116.840569   -7.628228923E-5
 116.967361   -7.502331573E-5
 117.094154   -7.339522563E-5
 117.220947   -7.14272901E-5
 117.34774   -6.915554695E-5
 117.474533   -6.662153464E-5
 117.601326   -6.387099711E-5
 117.728119   -6.095253775E-5
 117.854912   -5.791631702E-5
 117.981705   -5.481279368E-5
 118.108498   -5.169154974E-5
 118.235291   -4.860027911E-5
 118.362083   -4.558384535E-5
 118.488876   -4.268357588E-5
 118.615662   -3.993666542E-5
 118.742455   -3.737572843E-5
 118.869247   -3.502855543E-5
 118.99604   -3.291796384E-5
 119.122833   -3.106181248E-5
 119.249626   -2.94731035E-5
 119.376419   -2.816020969E-5
 119.503212   -2.712716559E-5
 119.630005   -2.637400758E-5
 119.756798   -2.589721225E-5
 119.883591   -2.569011485E-5
 120.010384   -2.574340579E-5
 120.137177   -2.604559813E-5
 120.263969   -2.658353151E-5
 120.390762   -2.734287591E-5
 120.517555   -2.830860103E-5
 120.644348   -2.94654601E-5
 120.771141   -3.07984119E-5
 120.897934   -3.22930282E-5
 121.024727   -3.393584484E-5
 121.15152   -3.571465277E-5
 121.278313   -3.761870903E-5
 121.405106   -3.963887866E-5
 121.531898   -4.176766743E-5
 121.658691   -4.399917088E-5
 121.785484   -4.632893251E-5
 121.912277   -4.875368177E-5
 122.03907   -5.127098848E-5
 122.165863   -5.387881902E-5
 122.292656   -5.657504153E-5
 122.419441   -5.93568584E-5
 122.546234   -6.222018419E-5
 122.673027   -6.515905989E-5
 122.79982   -6.816504174E-5
 122.926613   -7.122664829E-5
 123.053406   -7.432888378E-5
 123.180199   -7.745287439E-5