  -4.50000000         0.00000000    
  -4.37500000         0.00000000    
  -4.25000000         0.00000000    
  -4.12500000         0.00000000    
  -4.00000000         0.00000000    
  -3.87500000         0.00000000    
  -3.75000000         0.00000000    
  -3.62500000        -4.83678686E-31
  -3.50000000        -1.93920438E-30
  -3.37500000        -1.09961015E-29
  -3.25000000        -3.67618378E-29
  -3.12500000         7.20555272E-29
  -3.00000000         8.19365421E-28
  -2.87500000         2.85001135E-27
  -2.75000000         4.75004813E-27
  -2.62500000        -3.20215339E-27
  -2.50000000        -4.81306133E-26
  -2.37500000        -1.73759902E-25
  -2.25000000        -3.96951356E-25
  -2.12500000        -5.74815233E-25
  -2.00000000        -1.65362465E-25
  -1.87500000         2.01098650E-24
  -1.75000000         7.66644926E-24
  -1.62500000         1.80116477E-23
  -1.50000000         3.12487274E-23
  -1.37500000         3.88093880E-23
  -1.25000000         2.23163039E-23
  -1.12500000        -4.43832299E-23
  -1.00000000        -1.82327856E-22
 -0.875000000        -3.80007475E-22
 -0.750000000        -5.55721584E-22
 -0.625000000        -5.27857452E-22
 -0.500000000        -2.55137859E-23
 -0.375000000         1.22418500E-21
 -0.250000000         3.31522438E-21
 -0.125000000         5.92137928E-21
   0.00000000         8.09911844E-21
  0.125000000         8.30194975E-21
  0.250000000         4.77926338E-21
  0.375000000        -3.56361161E-21
  0.500000000        -1.59798030E-20
  0.625000000        -2.87890680E-20
  0.750000000        -3.50421948E-20
  0.875000000        -2.56535801E-20
   1.00000000         7.56648117E-21
   1.12500000         6.72001400E-20
   1.25000000         1.44957315E-19
   1.37500000         2.17857143E-19
   1.50000000         2.48289221E-19
   1.62500000         1.90005403E-19
   1.75000000         7.04523167E-22
   1.87500000        -3.40355845E-19
   2.00000000        -8.13785353E-19
   2.12500000        -1.34646454E-18
   2.25000000        -1.80919372E-18
   2.37500000        -2.03001537E-18
   2.50000000        -1.82376016E-18
   2.62500000        -1.03344316E-18
   2.75000000         4.25073176E-19
   2.87500000         2.52531644E-18
   3.00000000         5.10722982E-18
   3.12500000         7.87114548E-18
   3.25000000         1.03840317E-17
   3.37500000         1.20895557E-17
   3.50000000         1.23167681E-17
   3.62500000         1.02948103E-17
   3.75000000         5.20044812E-18
   3.87500000        -3.71645549E-18
   4.00000000        -1.68797057E-17
   4.12500000        -3.39784190E-17
   4.25000000        -5.34339419E-17
   4.37500000        -7.18614547E-17
   4.50000000        -8.37454527E-17
   4.62500000        -8.16213984E-17
   4.75000000        -5.70563246E-17
   4.87500000        -2.60706629E-18
   5.00000000         8.53107034E-17
   5.12500000         2.03060942E-16
   5.25000000         3.36739166E-16
   5.37500000         4.60543195E-16
   5.50000000         5.37747866E-16
   5.62500000         5.25209714E-16
   5.75000000         3.81674396E-16
   5.87500000         7.91800113E-17
   6.00000000        -3.84291278E-16
   6.12500000        -9.73766017E-16
   6.25000000        -1.61123751E-15
   6.37500000        -2.17782017E-15
   6.50000000        -2.52617920E-15
   6.62500000        -2.50333981E-15
   6.75000000        -1.98147921E-15
   6.87500000        -8.91768357E-16
   7.00000000         7.45581111E-16
   7.12500000         2.80261201E-15
   7.25000000         5.04291695E-15
   7.37500000         7.14300597E-15
   7.50000000         8.73594291E-15
   7.62500000         9.47293018E-15
   7.75000000         9.09423531E-15
   7.87500000         7.49784248E-15
   8.00000000         4.79299861E-15
   8.12500000         1.32693227E-15
   8.25000000        -2.32383171E-15
   8.37500000        -5.40141264E-15
   8.50000000        -7.05230484E-15
   8.62500000        -6.44405980E-15
   8.75000000        -2.90205177E-15
   8.87500000         3.94754157E-15
   9.00000000         1.40435716E-14
   9.12500000         2.67795108E-14
   9.25000000         4.09306073E-14
   9.37500000         5.46304504E-14
   9.50000000         6.54063866E-14
   9.62500000         7.02801736E-14
   9.75000000         6.59363853E-14
   9.87500000         4.89567188E-14
   10.0000000         1.61124132E-14
   10.1250000        -3.52988512E-14
   10.2500000        -1.07091954E-13
   10.3750000        -1.99834981E-13
   10.5000000        -3.12521683E-13
   10.6250000        -4.42307053E-13
   10.7500000        -5.84335531E-13
   10.8750000        -7.31686684E-13
   11.0000000        -8.75452814E-13
   11.1250000        -1.00495296E-12
   11.2500000        -1.10807305E-12
   11.3750000        -1.17170976E-12
   11.5000000        -1.18228322E-12
   11.6250000        -1.12627746E-12
   11.7500000        -9.90765846E-13
   11.8750000        -7.63886567E-13
   12.0000000        -4.35242174E-13
   12.1250000         3.77121345E-15
   12.2500000         5.59682400E-13
   12.3750000         1.23665726E-12
   12.5000000         2.03612626E-12
   12.6250000         2.95623725E-12
   12.7500000         3.99103797E-12
   12.8750000         5.12931624E-12
   13.0000000         6.35305393E-12
   13.1250000         7.63549814E-12
   13.2500000         8.93891818E-12
   13.3750000         1.02121740E-11
   13.5000000         1.13882940E-11
   13.6250000         1.23822948E-11
   13.7500000         1.30895910E-11
   13.8750000         1.33852833E-11
   14.0000000         1.31247391E-11
   14.1250000         1.21458728E-11
   14.2500000         1.02735346E-11
   14.3750000         7.32643373E-12
   14.5000000         3.12694445E-12
   14.6250000        -2.48589279E-12
   14.7500000        -9.64005351E-12
   14.8750000        -1.84110036E-11
   15.0000000        -2.87994090E-11
   15.1250000        -4.07068615E-11
   15.2500000        -5.39110041E-11
   15.3750000        -6.80418014E-11
   15.5000000        -8.25612079E-11
   15.6250000        -9.67489908E-11
   15.7500000        -1.09697425E-10
   15.8750000        -1.20318103E-10
   16.0000000        -1.27363231E-10
   16.1250000        -1.29463967E-10
   16.2500000        -1.25186986E-10
   16.3750000        -1.13109869E-10
   16.5000000        -9.19140389E-11
   16.6250000        -6.04931522E-11
   16.7500000        -1.80725851E-11
   16.8750000         3.56653873E-11
   17.0000000         1.00457989E-10
   17.1250000         1.75347806E-10
   17.2500000         2.58587790E-10
   17.3750000         3.47574330E-10
   17.5000000         4.38818232E-10
   17.6250000         5.27962285E-10
   17.7500000         6.09852169E-10
   17.8750000         6.78666456E-10
   18.0000000         7.28108407E-10
   18.1250000         7.51658624E-10
   18.2500000         7.42885142E-10
   18.3750000         6.95801861E-10
   18.5000000         6.05264949E-10
   18.6250000         4.67390238E-10
   18.7500000         2.79972573E-10
   18.8750000         4.28859656E-11
   19.0000000        -2.41561188E-10
   19.1250000        -5.68339265E-10
   19.2500000        -9.29505639E-10
   19.3750000        -1.31412914E-09
   19.5000000        -1.70835335E-09
   19.6250000        -2.09561146E-09
   19.7500000        -2.45700527E-09
   19.8750000        -2.77185164E-09
   20.0000000        -3.01838510E-09
   20.1250000        -3.17461502E-09
   20.2500000        -3.21930349E-09
   20.3750000        -3.13304338E-09
   20.5000000        -2.89939095E-09
   20.6250000        -2.50601495E-09
   20.7500000        -1.94580752E-09
   20.8750000        -1.21790422E-09
   21.0000000        -3.28558125E-10
   21.1250000         7.08189174E-10
   21.2500000         1.87009164E-09
   21.3750000         3.12658543E-09
   21.5000000         4.43901982E-09
   21.6250000         5.76125947E-09
   21.7500000         7.04068048E-09
   21.8750000         8.21955304E-09
   22.0000000         9.23681309E-09
   22.1250000         1.00301758E-08
   22.2500000         1.05385443E-08
   22.3750000         1.07046656E-08
   22.5000000         1.04779145E-08
   22.6250000         9.81714088E-09
   22.7500000         8.69343708E-09
   22.8750000         7.09273618E-09
   23.0000000         5.01807618E-09
   23.1250000         2.49143506E-09
   23.2500000        -4.45001480E-10
   23.3750000        -3.72824971E-09
   23.5000000        -7.27470839E-09
   23.6250000        -1.09811795E-08
   23.7500000        -1.47267825E-08
   23.8750000        -1.83757667E-08
   24.0000000        -2.17812008E-08
   24.1250000        -2.47894931E-08
   24.2500000        -2.72456173E-08
   24.3750000        -2.89989277E-08
   24.5000000        -2.99093692E-08
   24.6250000        -2.98538971E-08
   24.7500000        -2.87328312E-08
   24.8750000        -2.64759308E-08
   25.0000000        -2.30478747E-08
   25.1250000        -1.84529121E-08
   25.2500000        -1.27384006E-08
   25.3750000        -5.99699668E-09
   25.5000000         1.63270730E-09
   25.6250000         9.96725547E-09
   25.7500000         1.87812166E-08
   25.8750000         2.78119305E-08
   26.0000000         3.67660746E-08
   26.1250000         4.53279299E-08
   26.2500000         5.31691562E-08
   26.3750000         5.99598380E-08
   26.5000000         6.53804406E-08
   26.6250000         6.91342379E-08
   26.7500000         7.09598353E-08
   26.8750000         7.06432672E-08
   27.0000000         6.80291237E-08
   27.1250000         6.30303276E-08
   27.2500000         5.56358870E-08
   27.3750000         4.59164191E-08
   27.5000000         3.40269075E-08
   27.6250000         2.02064765E-08
   27.7500000         4.77502882E-09
   27.8750000        -1.18733672E-08
   28.0000000        -2.92802245E-08
   28.1250000        -4.69353516E-08
   28.2500000        -6.42922018E-08
   28.3750000        -8.07853695E-08
   28.5000000        -9.58497566E-08
   28.6250000        -1.08940590E-07
   28.7500000        -1.19553704E-07
   28.8750000        -1.27245244E-07
   29.0000000        -1.31649912E-07
   29.1250000        -1.32497178E-07
   29.2500000        -1.29624382E-07
   29.3750000        -1.22986521E-07
   29.5000000        -1.12661631E-07
   29.6250000        -9.88519844E-08
   29.7500000        -8.18802803E-08
   29.8750000        -6.21812219E-08
   30.0000000        -4.02884197E-08
   30.1250000        -1.68170029E-08
   30.2500000         7.55743290E-09
   30.3750000         3.21229017E-08
   30.5000000         5.61571767E-08
   30.6250000         7.89550469E-08
   30.7500000         9.98554839E-08
   30.8750000         1.18267643E-07
   31.0000000         1.33694556E-07
   31.1250000         1.45753333E-07
   31.2500000         1.54190985E-07
   31.3750000         1.58895006E-07
   31.5000000         1.59898050E-07
   31.6250000         1.57376491E-07
   31.7500000         1.51642453E-07
   31.8750000         1.43129867E-07
   32.0000000         1.32374709E-07
   32.1250000         1.19990318E-07
   32.2500000         1.06638758E-07
   32.3750000         9.29993504E-08
   32.5000000         7.97358410E-08
   32.6250000         6.74636738E-08
   32.7500000         5.67188003E-08
   32.8750000         4.79294862E-08
   33.0000000         4.13926173E-08
   33.1250000         3.72556244E-08
   33.2500000         3.55049572E-08
   33.3750000         3.59618966E-08
   33.5000000         3.82860392E-08
   33.6250000         4.19864676E-08
   33.7500000         4.64402561E-08
   33.8750000         5.09177625E-08
   34.0000000         5.46137109E-08
   34.1250000         5.66824490E-08
   34.2500000         5.62763347E-08
   34.3750000         5.25853814E-08
   34.5000000         4.48763160E-08
   34.6250000         3.25294494E-08
   34.7500000         1.50713486E-08
   34.8750000        -7.79756704E-09
   35.0000000        -3.61825236E-08
   35.1250000        -6.99817591E-08
   35.2500000        -1.08881963E-07
   35.3750000        -1.52362631E-07
   35.5000000        -1.99708779E-07
   35.6250000        -2.50031633E-07
   35.7500000        -3.02295859E-07
   35.8750000        -3.55352626E-07
   36.0000000        -4.07976160E-07
   36.1250000        -4.58902321E-07
   36.2500000        -5.06867252E-07
   36.3750000        -5.50643392E-07
   36.5000000        -5.89072215E-07
   36.6250000        -6.21090749E-07
   36.7500000        -6.45750731E-07
   36.8750000        -6.62230264E-07
   37.0000000        -6.69836481E-07
   37.1250000        -6.67999643E-07
   37.2500000        -6.56259544E-07
   37.3750000        -6.34245282E-07
   37.5000000        -6.01649390E-07
   37.6250000        -5.58200611E-07
   37.7500000        -5.03634737E-07
   37.8750000        -4.37670110E-07
   38.0000000        -3.59986700E-07
   38.1250000        -2.70215679E-07
   38.2500000        -1.67938779E-07
   38.3750000        -5.27017114E-08
   38.5000000         7.59575371E-08
   38.6250000         2.18464010E-07
   38.7500000         3.75144793E-07
   38.8750000         5.46152307E-07
   39.0000000         7.31373348E-07
   39.1250000         9.30326223E-07
   39.2500000         1.14204977E-06
   39.3750000         1.36498772E-06
   39.5000000         1.59687409E-06
   39.6250000         1.83462339E-06
   39.7500000         2.07423273E-06
   39.8750000         2.31069998E-06
   40.0000000         2.53796497E-06
   40.1250000         2.74887634E-06
   40.2500000         2.93518974E-06
   40.3750000         3.08760241E-06
   40.5000000         3.19582159E-06
   40.6250000         3.24867324E-06
   40.7500000         3.23424661E-06
   40.8750000         3.14007480E-06
   41.0000000         2.95334871E-06
   41.1250000         2.66115808E-06
   41.2500000         2.25075496E-06
   41.3750000         1.70983219E-06
   41.5000000         1.02680917E-06
   41.6250000         1.91115575E-07
   41.7500000        -8.06533251E-07
   41.8750000        -1.97388135E-06
   42.0000000        -3.31690740E-06
   42.1250000        -4.83963231E-06
   42.2500000        -6.54397445E-06
   42.3750000        -8.42965346E-06
   42.5000000        -1.04941473E-05
   42.6250000        -1.27327121E-05
   42.7500000        -1.51384547E-05
   42.8750000        -1.77024704E-05
   43.0000000        -2.04140360E-05
   43.1250000        -2.32608472E-05
   43.2500000        -2.62293088E-05
   43.3750000        -2.93048652E-05
   43.5000000        -3.24723405E-05
   43.6250000        -3.57163080E-05
   43.7500000        -3.90214700E-05
   43.8750000        -4.23730198E-05
   44.0000000        -4.57569586E-05
   44.1250000        -4.91604187E-05
   44.2500000        -5.25719333E-05
   44.3750000        -5.59816217E-05
   44.5000000        -5.93813311E-05
   44.6250000        -6.27647169E-05
   44.7500000        -6.61272279E-05
   44.8750000        -6.94659975E-05
   45.0000000        -7.27797378E-05
   45.1250000        -7.60684125E-05
   45.2500000        -7.93330328E-05
   45.3750000        -8.25752140E-05
   45.5000000        -8.57967898E-05
   45.6250000        -8.89993753E-05
   45.7500000        -9.21838800E-05
   45.8750000        -9.53500858E-05
   46.0000000        -9.84961225E-05
   46.1250000        -1.01618134E-04
   46.2500000        -1.04709863E-04
   46.3750000        -1.07762360E-04
   46.5000000        -1.10763809E-04
   46.6250000        -1.13699367E-04
   46.7500000        -1.16551208E-04
   46.8750000        -1.19298609E-04
   47.0000000        -1.21918165E-04
   47.1250000        -1.24384183E-04
   47.2500000        -1.26669140E-04
   47.3750000        -1.28744228E-04
   47.5000000        -1.30580054E-04
   47.6250000        -1.32147412E-04
   47.7500000        -1.33418085E-04
   47.8750000        -1.34365648E-04
   48.0000000        -1.34966424E-04
   48.1250000        -1.35200302E-04
   48.2500000        -1.35051538E-04
   48.3750000        -1.34509552E-04
   48.5000000        -1.33569571E-04
   48.6250000        -1.32233181E-04
   48.7500000        -1.30508735E-04
   48.8750000        -1.28411630E-04
   49.0000000        -1.25964390E-04
   49.1250000        -1.23196573E-04
   49.2500000        -1.20144476E-04
   49.3750000        -1.16850708E-04
   49.5000000        -1.13363581E-04
   49.6250000        -1.09736262E-04
   49.7500000        -1.06025873E-04
   49.8750000        -1.02292426E-04
   50.0000000        -9.85976367E-05
   50.1250000        -9.50037065E-05
   50.2500000        -9.15720811E-05
   50.3750000        -8.83621324E-05
   50.5000000        -8.54299578E-05
   50.6250000        -8.28271732E-05
   50.7500000        -8.05998643E-05
   50.8750000        -7.87875906E-05
   51.0000000        -7.74226064E-05
   51.1250000        -7.65292061E-05
   51.2500000        -7.61232732E-05
   51.3750000        -7.62120471E-05
   51.5000000        -7.67940437E-05
   51.6250000        -7.78592366E-05
   51.7500000        -7.93893923E-05
   51.8750000        -8.13585575E-05
   52.0000000        -8.37338157E-05
   52.1250000        -8.64760877E-05
   52.2500000        -8.95410849E-05
   52.3750000        -9.28803711E-05
   52.5000000        -9.64424471E-05
   52.6250000        -1.00173886E-04
   52.7500000        -1.04020452E-04
   52.8750000        -1.07928223E-04
   53.0000000        -1.11844602E-04
   53.1250000        -1.15719253E-04
   53.2500000        -1.19504948E-04
   53.3750000        -1.23158301E-04
   53.5000000        -1.26640283E-04
   53.6250000        -1.29916720E-04
   53.7500000        -1.32958521E-04
   53.8750000        -1.35741866E-04
   54.0000000        -1.38248084E-04
   54.1250000        -1.40463657E-04
   54.2500000        -1.42379911E-04
   54.3750000        -1.43992584E-04
   54.5000000        -1.45301557E-04
   54.6250000        -1.46310282E-04
   54.7500000        -1.47025261E-04
   54.8750000        -1.47455547E-04
   55.0000000        -1.47612256E-04
   55.1250000        -1.47508050E-04
   55.2500000        -1.47156708E-04
   55.3750000        -1.46572725E-04
   55.5000000        -1.45771031E-04
   55.6250000        -1.44766702E-04
   55.7500000        -1.43574856E-04
   55.8750000        -1.42210483E-04
   56.0000000        -1.40688528E-04
   56.1250000        -1.39023861E-04
   56.2500000        -1.37231371E-04
   56.3750000        -1.35326205E-04
   56.5000000        -1.33323774E-04
   56.6250000        -1.31240100E-04
   56.7500000        -1.29091801E-04
   56.8750000        -1.26896412E-04
   57.0000000        -1.24672355E-04
   57.1250000        -1.22439073E-04
   57.2500000        -1.20217032E-04
   57.3750000        -1.18027594E-04
   57.5000000        -1.15892974E-04
   57.6250000        -1.13835958E-04
   57.7500000        -1.11879679E-04
   57.8750000        -1.10047244E-04
   58.0000000        -1.08361332E-04
   58.1250000        -1.06843800E-04
   58.2500000        -1.05515144E-04
   58.3750000        -1.04394101E-04
   58.5000000        -1.03497056E-04
   58.6250000        -1.02837694E-04
   58.7500000        -1.02426493E-04
   58.8750000        -1.02270409E-04
   59.0000000        -1.02372564E-04
   59.1250000        -1.02732061E-04
   59.2500000        -1.03343831E-04
   59.3750000        -1.04198654E-04
   59.5000000        -1.05283230E-04
   59.6250000        -1.06580417E-04
   59.7500000        -1.08069478E-04
   59.8750000        -1.09726505E-04
   60.0000000        -1.11524896E-04
   60.1250000        -1.13435897E-04
   60.2500000        -1.15429182E-04
   60.3750000        -1.17473515E-04
   60.5000000        -1.19537384E-04
   60.6250000        -1.21589626E-04
   60.7500000        -1.23600083E-04
   60.8750000        -1.25540173E-04
   61.0000000        -1.27383450E-04
   61.1250000        -1.29106003E-04
   61.2500000        -1.30686938E-04
   61.3750000        -1.32108617E-04
   61.5000000        -1.33356894E-04
   61.6250000        -1.34421207E-04
   61.7500000        -1.35294657E-04
   61.8750000        -1.35973925E-04
   62.0000000        -1.36459159E-04
   62.1250000        -1.36753719E-04
   62.2500000        -1.36863979E-04
   62.3750000        -1.36798990E-04
   62.5000000        -1.36570117E-04
   62.6250000        -1.36190691E-04
   62.7500000        -1.35675626E-04
   62.8750000        -1.35041017E-04
   63.0000000        -1.34303846E-04
   63.1250000        -1.33481517E-04
   63.2500000        -1.32591653E-04
   63.3750000        -1.31651715E-04
   63.5000000        -1.30678833E-04
   63.6250000        -1.29689535E-04
   63.7500000        -1.28699598E-04
   63.8750000        -1.27723921E-04
   64.0000000        -1.26776402E-04
   64.1250000        -1.25869876E-04
   64.2500000        -1.25016144E-04
   64.3750000        -1.24225859E-04
   64.5000000        -1.23508595E-04
   64.6250000        -1.22872894E-04
   64.7500000        -1.22326295E-04
   64.8750000        -1.21875353E-04
   65.0000000        -1.21525823E-04
   65.1250000        -1.21282625E-04
   65.2500000        -1.21149984E-04
   65.3750000        -1.21131547E-04
   65.5000000        -1.21230412E-04
   65.6250000        -1.21449310E-04
   65.7500000        -1.21790661E-04
   65.8750000        -1.22256693E-04
   66.0000000        -1.22849568E-04
   66.1250000        -1.23571459E-04
   66.2500000        -1.24424681E-04
   66.3750000        -1.25411709E-04
   66.5000000        -1.26535335E-04
   66.6250000        -1.27798659E-04
   66.7500000        -1.29205131E-04
   66.8750000        -1.30758519E-04
   67.0000000        -1.32462883E-04
   67.1250000        -1.34322443E-04
   67.2500000        -1.36341478E-04
   67.3750000        -1.38524134E-04
   67.5000000        -1.40874108E-04
   67.6250000        -1.43394485E-04
   67.7500000        -1.46087303E-04
   67.8750000        -1.48953273E-04
   68.0000000        -1.51991306E-04
   68.1250000        -1.55198242E-04
   68.2500000        -1.58568335E-04
   68.3750000        -1.62092911E-04
   68.5000000        -1.65760110E-04
   68.6250000        -1.69554507E-04
   68.7500000        -1.73456981E-04
   68.8750000        -1.77444555E-04
   69.0000000        -1.81490439E-04
   69.1250000        -1.85564146E-04
   69.2500000        -1.89631712E-04
   69.3750000        -1.93656131E-04
   69.5000000        -1.97597808E-04
   69.6250000        -2.01415271E-04
   69.7500000        -2.05065910E-04
   69.8750000        -2.08506928E-04
   70.0000000        -2.11696199E-04
   70.1250000        -2.14593339E-04
   70.2500000        -2.17160778E-04
   70.3750000        -2.19364825E-04
   70.5000000        -2.21176640E-04
   70.6250000        -2.22573246E-04
   70.7500000        -2.23538285E-04
   70.8750000        -2.24062867E-04
   71.0000000        -2.24146017E-04
   71.1250000        -2.23795083E-04
   71.2500000        -2.23025854E-04
   71.3750000        -2.21862472E-04
   71.5000000        -2.20337184E-04
   71.6250000        -2.18489702E-04
   71.7500000        -2.16366490E-04
   71.8750000        -2.14019776E-04
   72.0000000        -2.11506354E-04
   72.1250000        -2.08886238E-04
   72.2500000        -2.06221230E-04
   72.3750000        -2.03573349E-04
   72.5000000        -2.01003233E-04
   72.6250000        -1.98568596E-04
   72.7500000        -1.96322711E-04
   72.8750000        -1.94312903E-04
   73.0000000        -1.92579420E-04
   73.1250000        -1.91154264E-04
   73.2500000        -1.90060309E-04
   73.3750000        -1.89310842E-04
   73.5000000        -1.88909107E-04
   73.6250000        -1.88848397E-04
   73.7500000        -1.89112223E-04
   73.8750000        -1.89674960E-04
   74.0000000        -1.90502673E-04
   74.1250000        -1.91554180E-04
   74.2500000        -1.92782376E-04
   74.3750000        -1.94135704E-04
   74.5000000        -1.95559740E-04
   74.6250000        -1.96998910E-04
   74.7500000        -1.98398135E-04
   74.8750000        -1.99704577E-04
   75.0000000        -2.00869079E-04
   75.1250000        -2.01847710E-04
   75.2500000        -2.02602881E-04
   75.3750000        -2.03104442E-04
   75.5000000        -2.03330317E-04
   75.6250000        -2.03267002E-04
   75.7500000        -2.02909636E-04
   75.8750000        -2.02261828E-04
   76.0000000        -2.01335191E-04
   76.1250000        -2.00148541E-04
   76.2500000        -1.98726877E-04
   76.3750000        -1.97100104E-04
   76.5000000        -1.95301647E-04
   76.6250000        -1.93366825E-04
   76.7500000        -1.91331375E-04
   76.8750000        -1.89229715E-04
   77.0000000        -1.87093465E-04
   77.1250000        -1.84949968E-04
   77.2500000        -1.82821110E-04
   77.3750000        -1.80722243E-04
   77.5000000        -1.78661416E-04
   77.6250000        -1.76638976E-04
   77.7500000        -1.74647401E-04
   77.8750000        -1.72671498E-04
   78.0000000        -1.70689033E-04
   78.1250000        -1.68671511E-04
   78.2500000        -1.66585363E-04
   78.3750000        -1.64393423E-04
   78.5000000        -1.62056545E-04
   78.6250000        -1.59535353E-04
   78.7500000        -1.56792172E-04
   78.8750000        -1.53792935E-04
   79.0000000        -1.50509033E-04
   79.1250000        -1.46919148E-04
   79.2500000        -1.43010708E-04
   79.3750000        -1.38781324E-04
   79.5000000        -1.34239817E-04
   79.6250000        -1.29406879E-04
   79.7500000        -1.24315455E-04
   79.8750000        -1.19010627E-04
   80.0000000        -1.13549249E-04
   80.1250000        -1.07998989E-04
   80.2500000        -1.02437196E-04
   80.3750000        -9.69492758E-05
   80.5000000        -9.16268909E-05
   80.6250000        -8.65657858E-05
   80.7500000        -8.18635890E-05
   80.8750000        -7.76173620E-05
   81.0000000        -7.39212119E-05
   81.1250000        -7.08639127E-05
   81.2500000        -6.85265986E-05
   81.3750000        -6.69806832E-05
   81.5000000        -6.62859966E-05
   81.6250000        -6.64892432E-05
   81.7500000        -6.76227792E-05
   81.8750000        -6.97037758E-05
   82.0000000        -7.27337756E-05
   82.1250000        -7.66986632E-05
   82.2500000        -8.15690437E-05
   82.3750000        -8.73010067E-05
   82.5000000        -9.38372177E-05
   82.6250000        -1.01108380E-04
   82.7500000        -1.09034918E-04
   82.8750000        -1.17528856E-04
   83.0000000        -1.26495957E-04
   83.1250000        -1.35837778E-04
   83.2500000        -1.45453872E-04
   83.3750000        -1.55243950E-04
   83.5000000        -1.65109712E-04
   83.6250000        -1.74956847E-04
   83.7500000        -1.84696532E-04
   83.8750000        -1.94246808E-04
   84.0000000        -2.03533593E-04
   84.1250000        -2.12491432E-04
   84.2500000        -2.21063878E-04
   84.3750000        -2.29203564E-04
   84.5000000        -2.36872002E-04
   84.6250000        -2.44038980E-04
   84.7500000        -2.50681944E-04
   84.8750000        -2.56784901E-04
   85.0000000        -2.62337417E-04
   85.1250000        -2.67333206E-04
   85.2500000        -2.71769124E-04
   85.3750000        -2.75643804E-04
   85.5000000        -2.78956461E-04
   85.6250000        -2.81706016E-04
   85.7500000        -2.83890171E-04
   85.8750000        -2.85504793E-04
   86.0000000        -2.86543538E-04
   86.1250000        -2.86997762E-04
   86.2500000        -2.86856754E-04
   86.3750000        -2.86108116E-04
   86.5000000        -2.84738402E-04
   86.6250000        -2.82734167E-04
   86.7500000        -2.80083012E-04
   86.8750000        -2.76774896E-04
   87.0000000        -2.72803329E-04
   87.1250000        -2.68166943E-04
   87.2500000        -2.62870686E-04
   87.3750000        -2.56927102E-04
   87.5000000        -2.50357378E-04
   87.6250000        -2.43192233E-04
   87.7500000        -2.35472515E-04
   87.8750000        -2.27249460E-04
   88.0000000        -2.18584610E-04
   88.1250000        -2.09549413E-04
   88.2500000        -2.00224458E-04
   88.3750000        -1.90698309E-04
   88.5000000        -1.81065945E-04
   88.6250000        -1.71427077E-04
   88.7500000        -1.61883974E-04
   88.8750000        -1.52539273E-04
   89.0000000        -1.43493467E-04
   89.1250000        -1.34842441E-04
   89.2500000        -1.26675019E-04
   89.3750000        -1.19070544E-04
   89.5000000        -1.12096539E-04
   89.6250000        -1.05806859E-04
   89.7500000        -1.00239915E-04
   89.8750000        -9.54173884E-05
   90.0000000        -9.13433832E-05
   90.1250000        -8.80040316E-05
   90.2500000        -8.53675519E-05
   90.3750000        -8.33849263E-05
   90.5000000        -8.19910056E-05
   90.6250000        -8.11059945E-05
   90.7500000        -8.06376047E-05
   90.8750000        -8.04833981E-05
   91.0000000        -8.05334785E-05
   91.1250000        -8.06735043E-05
   91.2500000        -8.07877223E-05
   91.3750000        -8.07620963E-05
   91.5000000        -8.04874508E-05
   91.6250000        -7.98624824E-05
   91.7500000        -7.87964091E-05
   91.8750000        -7.72114945E-05
   92.0000000        -7.50450272E-05
   92.1250000        -7.22510667E-05
   92.2500000        -6.88014043E-05
   92.3750000        -6.46863627E-05
   92.5000000        -5.99147752E-05
   92.6250000        -5.45135699E-05
   92.7500000        -4.85268974E-05
   92.8750000        -4.20146789E-05
   93.0000000        -3.50507689E-05
   93.1250000        -2.77207710E-05
   93.2500000        -2.01195944E-05
   93.3750000        -1.23487198E-05
   93.5000000        -4.51337428E-06
   93.6250000         3.28033161E-06
   93.7500000         1.09282555E-05
   93.8750000         1.83309403E-05
   94.0000000         2.53961498E-05
   94.1250000         3.20411491E-05
   94.2500000         3.81946229E-05
   94.3750000         4.37983290E-05
   94.5000000         4.88082187E-05
   94.6250000         5.31952501E-05
   94.7500000         5.69456715E-05
   94.8750000         6.00609346E-05
   95.0000000         6.25571847E-05
   95.1250000         6.44643151E-05
   95.2500000         6.58246718E-05
   95.3750000         6.66915148E-05
   95.5000000         6.71271337E-05
   95.6250000         6.72008173E-05
   95.7500000         6.69867077E-05
   95.8750000         6.65615516E-05
   96.0000000         6.60024816E-05
   96.1250000         6.53848474E-05
   96.2500000         6.47802299E-05
   96.3750000         6.42545783E-05
   96.5000000         6.38666097E-05
   96.6250000         6.36665136E-05