 -4.5   -4.537460476E-19
 -4.37296724   -4.537373622E-19
 -4.24593449   -4.537208703E-19
 -4.11890221   -4.536988466E-19
 -3.99186945   -4.536728421E-19
 -3.86483669   -4.536458554E-19
 -3.73780417   -4.536201611E-19
 -3.61077142   -4.535975687E-19
 -3.4837389   -4.535800428E-19
 -3.35670614   -4.535680487E-19
 -3.22967362   -4.535613795E-19
 -3.10264087   -4.53558898E-19
 -2.97560835   -4.53558898E-19
 -2.84857559   -4.535596218E-19
 -2.72154307   -4.535585878E-19
 -2.59451032   -4.535538315E-19
 -2.46747756   -4.535446291E-19
 -2.34044504   -4.535297399E-19
 -2.21341228   -4.535097324E-19
 -2.08637977   -4.534848136E-19
 -1.95934713   -4.534558106E-19
 -1.83231449   -4.534232404E-19
 -1.70528185   -4.533878267E-19
 -1.57824922   -4.533497247E-19
 -1.45121646   -4.533153967E-19
 -1.32418382   -4.53299215E-19
 -1.19715118   -4.533242889E-19
 -1.07011855   -4.534199317E-19
 -0.943085909   -4.535967415E-19
 -0.816053271   -4.538121187E-19
 -0.689020634   -4.53930147E-19
 -0.561987996   -4.537037063E-19
 -0.434955359   -4.528227589E-19
 -0.307922721   -4.51064173E-19
 -0.180890068   -4.485337758E-19
 -5.385742337E-2   -4.459250549E-19
 7.317522168E-2   -4.446317063E-19
 0.200207874   -4.465116294E-19
 0.327240527   -4.531449975E-19
 0.454273164   -4.646400163E-19
 0.581305802   -4.783200326E-19
 0.708338439   -4.879661994E-19
 0.835371077   -4.844271071E-19
 0.962403715   -4.582434803E-19
 1.08943641   -4.04319602E-19
 1.21646905   -3.276907016E-19
 1.34350169   -2.483902404E-19
 1.47053432   -2.027273503E-19
 1.59756696   -2.384485376E-19
 1.7245996   -4.025688484E-19
 1.85163224   -7.230283371E-19
 1.97866488   -1.188196456E-18
 2.10569763   -1.730638341E-18
 2.23273015   -2.222276964E-18
 2.35976291   -2.486407934E-18
 2.48679543   -2.327850853E-18
 2.61382818   -1.576932157E-18
 2.7408607   -1.379836136E-19
 2.86789346   1.969101173E-18
 2.99492598   4.583377582E-18
 3.12195873   7.396076628E-18
 3.24899125   9.957277613E-18
 3.37602401   1.168616533E-17
 3.50305653   1.187878674E-17
 3.63008928   9.721815689E-18
 3.75712204   4.343540286E-18
 3.88415456   -5.045580879E-18
 4.01118708   -1.886615012E-17
 4.13821983   -3.670831351E-17
 4.26525259   -5.673686746E-17
 4.39228535   -7.510968045E-17
 4.51931763   -8.567024239E-17
 4.64635038   -8.025183219E-17
 4.77338314   -4.991491374E-17
 4.9004159   1.271572478E-17
 5.02744818   1.101552054E-16
 5.15448093   2.363656027E-16
 5.28151369   3.736633701E-16
 5.40854645   4.915252784E-16
 5.53557873   5.485961878E-16
 5.66261148   4.987868389E-16
 5.78964424   3.014867663E-16
 5.916677   -6.529117231E-17
 6.04370975   -5.913107888E-16
 6.17074203   -1.223556033E-15
 6.29777479   -1.862569547E-15
 6.42480755   -2.36893389E-15
 6.55184031   -2.581469491E-15
 6.67887259   -2.34617475E-15
 6.80590534   -1.551967118E-15
 6.9329381   -1.66623398E-16
 7.05997086   1.735335775E-15
 7.18700314   3.961042005E-15
 7.31403589   6.210228305E-15
 7.44106865   8.111241713E-15
 7.56810141   9.279722817E-15
 7.69513416   9.392421397E-15
 7.82216644   8.264409834E-15
 7.9491992   5.915644646E-15
 8.07623196   2.612961117E-15
 8.20326424   -1.123731612E-15
 8.33029747   -4.557502701E-15
 8.45732975   -6.813225131E-15
 8.58436203   -6.993618162E-15
 8.71139526   -4.32167814E-15
 8.83842754   1.704977373E-15
 8.96546078   1.11644211E-14
 9.09249306   2.358214095E-14
 9.21952534   3.784001107E-14
 9.34655857   5.213640256E-14
 9.47359085   6.400866707E-14
 9.60062313   7.042619526E-14
 9.72765636   6.79576973E-14
 9.85468864   5.301199746E-14
 9.98172188   2.214490222E-14
 10.1087542   -2.758217781E-14
 10.2357864   -9.821323306E-14
 10.3628197   -1.905066274E-13
 10.489852   -3.035752259E-13
 10.6168852   -4.345925475E-13
 10.7439175   -5.785990177E-13
 10.8709497   -7.28434999E-13
 10.997983   -8.748195853E-13
 11.1250153   -1.006578067E-12
 11.2520475   -1.11100918E-12
 11.3790808   -1.174365293E-12
 11.5061131   -1.182407145E-12
 11.6331463   -1.120987201E-12
 11.7601786   -9.766142972E-13
 11.8872108   -7.369563943E-13
 12.0142441   -3.912654434E-13
 12.1412764   6.927987508E-14
 12.2683096   6.51275854E-13
 12.3953419   1.358775939E-12
 12.5223742   2.192865898E-12
 12.6494074   3.151023062E-12
 12.7764397   4.226162389E-12
 12.9034719   5.405289497E-12
 13.0305052   6.667718894E-12
 13.1575375   7.982886921E-12
 13.2845707   9.307839222E-12
 13.411603   1.058456968E-11
 13.5386353   1.173742614E-11
 13.6656685   1.267090426E-11
 13.7927008   1.326815133E-11
 13.919734   1.339062108E-11
 14.0467663   1.287927664E-11
 14.1737986   1.155781373E-11
 14.3008318   9.238412986E-12
 14.4278641   5.730400095E-12
 14.5548964   8.522946346E-13
 14.6819296   -5.552587036E-12
 14.8089619   -1.359683026E-11
 14.9359951   -2.332626627E-11
 15.0630274   -3.46945736E-11
 15.1900597   -4.753641231E-11
 15.3170929   -6.154065452E-11
 15.4441252   -7.62262406E-11
 15.5711575   -9.092323422E-11
 15.6981907   -1.047623932E-10
 15.825223   -1.166764463E-10
 15.9522562   -1.254163717E-10
 16.0792885   -1.295855367E-10
 16.2063217   -1.276933975E-10
 16.333353   -1.182299814E-10
 16.4603863   -9.976040133E-11
 16.5874195   -7.103738431E-11
 16.7144508   -3.11277705E-11
 16.8414841   2.045272285E-11
 16.9685173   8.360388076E-11
 17.0955505   1.575135578E-10
 17.2225819   2.405484145E-10
 17.3496151   3.301731943E-10
 17.4766483   4.229094575E-10
 17.6036797   5.143440118E-10
 17.7307129   5.991942498E-10
 17.8577461   6.714387935E-10
 17.9847775   7.24514726E-10
 18.1118107   7.515835176E-10
 18.2388439   7.458600404E-10
 18.3658752   7.009967606E-10
 18.4929085   6.115112305E-10
 18.6199417   4.732376713E-10
 18.7469749   2.837828028E-10
 18.8740063   4.296110342E-11
 19.0010395   -2.468182325E-10
 19.1280727   -5.802400782E-10
 19.2551041   -9.488761998E-10
 19.3821373   -1.341107669E-9
 19.5091705   -1.742200051E-9
 19.6362019   -2.13454765E-9
 19.7632351   -2.498098839E-9
 19.8902683   -2.81096324E-9
 20.0172997   -3.050196318E-9
 20.1443329   -3.192745179E-9
 20.2713661   -3.216527933E-9
 20.3983994   -3.101613411E-9
 20.5254307   -2.831459289E-9
 20.6524639   -2.39415332E-9
 20.7794971   -1.783602932E-9
 20.9065285   -1.000612593E-9
 21.0335617   -5.378303358E-11
 21.1605949   1.039825226E-9
 21.2876263   2.254326059E-9
 21.4146595   3.554988304E-9
 21.5416927   4.898606409E-9
 21.6687241   6.234289529E-9
 21.7957573   7.504683985E-9
 21.9227905   8.647625727E-9
 22.0498238   9.598204009E-9
 22.1768551   1.029118568E-8
 22.3038883   1.066374278E-8
 22.4309216   1.065841104E-8
 22.5579529   1.022614704E-8
 22.6849861   9.329398587E-9
 22.8120193   7.945034852E-9
 22.9390507   6.067004676E-9
 23.0660839   3.708579444E-9
 23.1931171   9.040404536E-10
 23.3201485   -2.290328149E-9
 23.4471817   -5.796043201E-9
 23.5742149   -9.513130728E-9
 23.7012463   -1.332179256E-8
 23.8282795   -1.708506758E-8
 23.9553127   -2.065247529E-8
 24.082346   -2.386459563E-8
 24.2093773   -2.655848519E-8
 24.3364105   -2.857378867E-8
 24.4634438   -2.975936653E-8
 24.5904751   -2.998020321E-8
 24.7175083   -2.912435804E-8
 24.8445415   -2.710966207E-8
 24.9715729   -2.388984655E-8
 25.0986061   -1.945983286E-8
 25.2256393   -1.385985371E-8
 25.3526707   -7.178144301E-9
 25.4797039   4.480275317E-10
 25.6067371   8.833205278E-9
 25.7337704   1.774656866E-8
 25.8608017   2.691680123E-8
 25.9878349   3.603896204E-8
 26.1148682   4.478328108E-8
 26.2418995   5.280563187E-8
 26.3689327   5.975940098E-8
 26.495966   6.530840579E-8
 26.6229973   6.914038408E-8
 26.7500305   7.098058319E-8
 26.8770638   7.060484108E-8
 27.0040951   6.785170825E-8
 27.1311283   6.263290686E-8
 27.2581615   5.494173294E-8
 27.3851948   4.485883309E-8
 27.5122261   3.25549756E-8
 27.6392593   1.829049801E-8
 27.7662926   2.411263633E-9
 27.8933239   -1.465889721E-8
 28.0203571   -3.242926994E-8
 28.1473904   -5.035648698E-8
 28.2744217   -6.786164164E-8
 28.4014549   -8.434963661E-8
 28.5284882   -9.923019206E-8
 28.6555195   -1.119397481E-7
 28.7825527   -1.21963339E-7
 28.909586   -1.288556462E-7
 29.0366192   -1.322602827E-7
 29.1636505   -1.319264697E-7
 29.2906837   -1.277222026E-7
 29.417717   -1.19643417E-7
 29.5447483   -1.078182876E-7
 29.6717815   -9.250666722E-8
 29.7988148   -7.409408198E-8
 29.9258461   -5.30806048E-8
 30.0528793   -3.00646974E-8
 30.1799126   -5.72264991E-9
 30.3069439   1.921584314E-8
 30.4339771   4.39949126E-8
 30.5610104   6.78615848E-8
 30.6880436   9.009544755E-8
 30.8150749   1.100376679E-7
 30.9421082   1.271180139E-7
 31.0691414   1.408786829E-7
 31.1961727   1.509936993E-7
 31.3232059   1.572829547E-7
 31.4502392   1.597200452E-7
 31.5772705   1.584332949E-7
 31.7043037   1.53699915E-7
 31.831337   1.459331003E-7
 31.9583683   1.356629014E-7
 32.0854034   1.235109011E-7
 32.2124329   1.101605562E-7
 32.3394661   9.632372411E-8
 32.4664993   8.270538387E-8
 32.5935326   6.996791058E-8
 32.7205658   5.869667419E-8
 32.847599   4.936848796E-8
 32.9746284   4.232479256E-8
 33.1016617   3.775065593E-8
 33.2286949   3.566088935E-8
 33.3557281   3.589409658E-8
 33.4827614   3.811515725E-8
 33.6097946   4.18261763E-8
 33.7368279   4.638567219E-8
 33.8638573   5.103527201E-8
 33.9908905   5.493282274E-8
 34.1179237   5.719049057E-8
 34.244957   5.691621752E-8
 34.3719902   5.32567519E-8
 34.4990234   4.543996468E-8
 34.6260529   3.281499872E-8
 34.7530861   1.488779855E-8
 34.8801193   -8.649349681E-9
 35.0071526   -3.789582337E-8
 35.1341858   -7.272928571E-8
 35.261219   -1.128014802E-7
 35.3882523   -1.575439228E-7
 35.5152817   -2.061824773E-7
 35.6423149   -2.577607461E-7
 35.7693481   -3.111706519E-7
 35.8963814   -3.651889244E-7
 36.0234146   -4.185174589E-7
 36.1504478   -4.698252667E-7
 36.2774773   -5.177899993E-7
 36.4045105   -5.611364031E-7
 36.5315437   -5.986705105E-7
 36.658577   -6.293063279E-7
 36.7856102   -6.520846796E-7
 36.9126434   -6.661830412E-7
 37.0396767   -6.709157105E-7
 37.1667061   -6.657244285E-7
 37.2937393   -6.501610414E-7
 37.4207726   -6.238633432E-7
 37.5478058   -5.865260277E-7
 37.674839   -5.378697665E-7
 37.8018723   -4.776117066E-7
 37.9289017   -4.054394651E-7
 38.0559349   -3.20993621E-7
 38.1829681   -2.238600274E-7
 38.3100014   -1.135759362E-7
 38.4370346   1.034743313E-8
 38.5640678   1.483860501E-7
 38.6911011   3.009454304E-7
 38.8181305   4.682853501E-7
 38.9451637   6.50428035E-7
 39.072197   8.470516946E-7
 39.1992302   1.057373879E-6
 39.3262634   1.280026822E-6
 39.4532967   1.51293284E-6
 39.5803261   1.753181664E-6
 39.7073593   1.996919991E-6
 39.8343925   2.239254854E-6
 39.9614258   2.474181883E-6
 40.088459   2.694539717E-6
 40.2154922   2.89199852E-6
 40.3425255   3.057084086E-6
 40.4695549   3.179244231E-6
 40.5965881   3.246954748E-6
 40.7236214   3.247866516E-6
 40.8506546   3.168995136E-6
 40.9776878   2.996944431E-6
 41.1047211   2.718163387E-6
 41.2317505   2.319227633E-6
 41.3587837   1.787139354E-6
 41.485817   1.109636742E-6
 41.6128502   2.755024582E-7
 41.7398834   -7.251370562E-7
 41.8669167   -1.900533675E-6
 41.9939499   -3.25706992E-6
 42.1209793   -4.799050203E-6
 42.2480125   -6.528540325E-6
 42.3750458   -8.445264029E-6
 42.502079   -1.054655422E-5
 42.6291122   -1.282737594E-5
 42.7561455   -1.528040775E-5
 42.8831749   -1.789619273E-5
 43.0102081   -2.066335037E-5
 43.1372414   -2.356884397E-5
 43.2642746   -2.659829261E-5
 43.3913078   -2.973632945E-5
 43.5183411   -3.296698924E-5
 43.6453743   -3.627409751E-5
 43.7724037   -3.96416799E-5
 43.899437   -4.305434777E-5
 44.0264702   -4.649765469E-5
 44.1535034   -4.995842028E-5
 44.2805367   -5.342500299E-5
 44.4075699   -5.688750389E-5
 44.5345993   -6.033790123E-5
 44.6616325   -6.377008685E-5
 44.7886658   -6.717985525E-5
 44.915699   -7.056476898E-5
 45.0427322   -7.392393309E-5
 45.1697655   -7.725776959E-5
 45.2967987   -8.056759543E-5
 45.4238281   -8.385524416E-5
 45.5508614   -8.712259296E-5
 45.6778946   -9.03710752E-5
 45.8049278   -9.360117838E-5
 45.9319611   -9.681191295E-5
 46.0589943   -1.000003613E-4
 46.1860237   -1.031612701E-4
 46.3130569   -1.062866722E-4
 46.4400902   -1.093655883E-4
 46.5671234   -1.123839174E-4
 46.6941566   -1.153243065E-4
 46.8211899   -1.181662665E-4
 46.9482231   -1.208863323E-4
 47.0752525   -1.234584197E-4
 47.2022858   -1.258542761E-4
 47.329319   -1.280440483E-4
 47.4563522   -1.299970027E-4
 47.5833855   -1.316822891E-4
 47.7104187   -1.330698433E-4
 47.8374481   -1.341312454E-4
 47.9644814   -1.348407386E-4
 48.0915146   -1.351760729E-4
 48.2185478   -1.351194951E-4
 48.3455811   -1.346585486E-4
 48.4726143   -1.337868307E-4
 48.5996475   -1.325045887E-4
 48.7266769   -1.308192586E-4
 48.8537102   -1.287457126E-4
 48.9807434   -1.263064623E-4
 49.1077766   -1.23531514E-4
 49.2348099   -1.204581422E-4
 49.3618431   -1.171304466E-4
 49.4888725   -1.135986167E-4
 49.6159058   -1.099181391E-4
 49.742939   -1.061487856E-4
 49.8699722   -1.023534496E-4
 49.9970055   -9.859690181E-5
 50.1240387   -9.49444584E-5
 50.2510719   -9.146059165E-5
 50.3781013   -8.820757648E-5
 50.5051346   -8.524411533E-5
 50.6321678   -8.262410847E-5
 50.759201   -8.0395439E-5
 50.8862343   -7.859897596E-5
 51.0132675   -7.726773765E-5
 51.1402969   -7.642615674E-5
 51.2673302   -7.608968735E-5
 51.3943634   -7.626449224E-5
 51.5213966   -7.694748638E-5
 51.6484299   -7.812648983E-5
 51.7754631   -7.978066424E-5
 51.9024925   -8.188111678E-5
 52.0295258   -8.439167868E-5
 52.156559   -8.726987289E-5
 52.2835922   -9.046793275E-5
 52.4106255   -9.393399523E-5
 52.5376587   -9.761328693E-5
 52.6646919   -1.014493537E-4
 52.7917213   -1.053852684E-4
 52.9187546   -1.09364817E-4
 53.0457878   -1.133335682E-4
 53.172821   -1.172398552E-4
 53.2998543   -1.210356641E-4
 53.4268875   -1.246773027E-4
 53.5539169   -1.281259611E-4
 53.6809502   -1.313481625E-4
 53.8079834   -1.343158947E-4
 53.9350166   -1.370068057E-4
 54.0620499   -1.394040009E-4
 54.1890831   -1.41495897E-4
 54.3161163   -1.432759163E-4
 54.4431458   -1.447419927E-4
 54.570179   -1.458961342E-4
 54.6972122   -1.46743856E-4
 54.8242455   -1.472936419E-4
 54.9512787   -1.475563768E-4
 55.0783119   -1.475447498E-4
 55.2053413   -1.472728472E-4
 55.3323746   -1.467556285E-4
 55.4594078   -1.460086205E-4
 55.586441   -1.450476266E-4
 55.7134743   -1.438884792E-4
 55.8405075   -1.425469382E-4
 55.9675407   -1.410387049E-4
 56.0945702   -1.393793646E-4
 56.2216034   -1.375845604E-4
 56.3486366   -1.356700959E-4
 56.4756699   -1.336520945E-4
 56.6027031   -1.315472327E-4
 56.7297363   -1.29372871E-4
 56.8567657   -1.27147272E-4
 56.983799   -1.248896733E-4
 57.1108322   -1.226203894E-4
 57.2378654   -1.203607899E-4
 57.3648987   -1.181332918E-4
 57.4919319   -1.159611711E-4
 57.6189651   -1.138683365E-4
 57.7459946   -1.118790969E-4
 57.8730278   -1.10017696E-4
 58.000061   -1.083079842E-4
 58.1270943   -1.067728517E-4
 58.2541275   -1.054337772E-4
 58.3811607   -1.043102675E-4
 58.5081902   -1.034193701E-4
 58.6352234   -1.027751496E-4
 58.7622566   -1.023882505E-4
 58.8892899   -1.022654906E-4
 59.0163231   -1.024095836E-4
 59.1433563   -1.02818929E-4
 59.2703896   -1.034874658E-4
 59.397419   -1.044047094E-4
 59.5244522   -1.055558823E-4
 59.6514854   -1.069221253E-4
 59.7785187   -1.084808464E-4
 59.9055519   -1.102061942E-4
 60.0325851   -1.120695742E-4
 60.1596146   -1.140402528E-4
 60.2866478   -1.160860484E-4
 60.413681   -1.181739863E-4
 60.5407143   -1.202710191E-4
 60.6677475   -1.223447325E-4
 60.7947807   -1.243639854E-4
 60.921814   -1.262995647E-4
 61.0488434   -1.281247241E-4
 61.1758766   -1.298156276E-4
 61.3029099   -1.31351786E-4
 61.4299431   -1.327163045E-4
 61.5569763   -1.338960428E-4
 61.6840096   -1.348817896E-4
 61.811039   -1.356681605E-4
 61.9380722   -1.362535259E-4
 62.0651054   -1.366398792E-4
 62.1921387   -1.368324738E-4
 62.3191719   -1.368396188E-4
 62.4462051   -1.366722281E-4
 62.5732384   -1.363435149E-4
 62.7002678   -1.358685113E-4
 62.827301   -1.352637337E-4
 62.9543343   -1.345466881E-4
 63.0813675   -1.337355352E-4
 63.2084007   -1.328487851E-4
 63.335434   -1.319048315E-4
 63.4624634   -1.30921806E-4
 63.5894966   -1.299172727E-4
 63.7165298   -1.289080392E-4
 63.8435631   -1.27909967E-4
 63.9705963   -1.269379427E-4
 64.0976257   -1.260056597E-4
 64.2246628   -1.251257199E-4
 64.3516922   -1.243095321E-4
 64.4787292   -1.235673117E-4
 64.6057587   -1.229081972E-4
 64.7327881   -1.223402069E-4
 64.8598251   -1.218703474E-4
 64.9868546   -1.215047159E-4
 65.1138916   -1.212485295E-4
 65.240921   -1.211062772E-4
 65.3679581   -1.210817863E-4
 65.4949875   -1.211783456E-4
 65.6220169   -1.213988071E-4
 65.749054   -1.217457102E-4
 65.8760834   -1.222213905E-4
 66.0031204   -1.22828118E-4
 66.1301498   -1.235681848E-4
 66.2571869   -1.244440209E-4
 66.3842163   -1.254582894E-4
 66.5112457   -1.266139298E-4
 66.6382828   -1.279142743E-4
 66.7653122   -1.293630048E-4
 66.8923492   -1.30964152E-4
 67.0193787   -1.327220671E-4
 67.1464081   -1.346412464E-4
 67.2734451   -1.367262303E-4
 67.4004745   -1.389813406E-4
 67.5275116   -1.414104045E-4
 67.654541   -1.440164488E-4
 67.7815781   -1.468013652E-4
 67.9086075   -1.497654157E-4
 68.0356369   -1.529069123E-4
 68.162674   -1.56221693E-4
 68.2897034   -1.597027585E-4
 68.4167404   -1.633399079E-4
 68.5437698   -1.671193022E-4
 68.6708069   -1.7102329E-4
 68.7978363   -1.750301453E-4
 68.9248657   -1.79114053E-4
 69.0519028   -1.832451671E-4
 69.1789322   -1.873897127E-4
 69.3059692   -1.915104658E-4
 69.4329987   -1.955671323E-4
 69.5600357   -1.995170023E-4
 69.6870651   -2.033157798E-4
 69.8140945   -2.069183975E-4
 69.9411316   -2.102801081E-4
 70.068161   -2.133575326E-4
 70.1951981   -2.161098091E-4
 70.3222275   -2.184996993E-4
 70.4492569   -2.204947668E-4
 70.5762939   -2.220684692E-4
 70.7033234   -2.232010593E-4
 70.8303604   -2.238804591E-4
 70.9573898   -2.241028851E-4
 71.0844269   -2.238733869E-4
 71.2114563   -2.232059633E-4
 71.3384857   -2.221236209E-4
 71.4655228   -2.206581412E-4
 71.5925522   -2.1884944E-4
 71.7195892   -2.167448547E-4
 71.8466187   -2.143981255E-4
 71.9736557   -2.118681296E-4
 72.1006851   -2.092174545E-4
 72.2277145   -2.065108711E-4
 72.3547516   -2.038136299E-4
 72.481781   -2.01189745E-4
 72.6088181   -1.987002906E-4
 72.7358475   -1.964017283E-4
 72.8628845   -1.94344364E-4
 72.9899139   -1.925709512E-4
 73.1169434   -1.911155268E-4
 73.2439804   -1.900024654E-4
 73.3710098   -1.89245824E-4
 73.4980469   -1.888489933E-4
 73.6250763   -1.888046972E-4
 73.7521057   -1.890952553E-4
 73.8791428   -1.896932517E-4
 74.0061722   -1.905624667E-4
 74.1332092   -1.916590118E-4
 74.2602386   -1.929328573E-4
 74.3872757   -1.943293464E-4
 74.5143051   -1.957909844E-4
 74.6413345   -1.9725936E-4
 74.7683716   -1.98676833E-4
 74.895401   -1.999883971E-4
 75.022438   -2.011433971E-4
 75.1494675   -2.020969114E-4
 75.2765045   -2.02811163E-4
 75.4035339   -2.032564225E-4
 75.5305634   -2.034118079E-4
 75.6576004   -2.032655902E-4
 75.7846298   -2.028152667E-4
 75.9116669   -2.020672837E-4
 76.0386963   -2.010363387E-4
 76.1657333   -1.99744507E-4
 76.2927628   -1.982200192E-4
 76.4197922   -1.964957919E-4
 76.5468292   -1.946078701E-4
 76.6738586   -1.92593754E-4
 76.8008957   -1.904905221E-4
 76.9279251   -1.883332152E-4
 77.0549545   -1.861531637E-4
 77.1819916   -1.839765318E-4
 77.309021   -1.818230667E-4
 77.436058   -1.797050936E-4
 77.5630875   -1.776269492E-4
 77.6901245   -1.755845733E-4
 77.8171539   -1.73565626E-4
 77.9441833   -1.715499238E-4
 78.0712204   -1.695101964E-4
 78.1982498   -1.674133091E-4
 78.3252869   -1.652215724E-4
 78.4523163   -1.628945465E-4
 78.5793533   -1.603908895E-4
 78.7063828   -1.576703653E-4
 78.8334122   -1.546959393E-4
 78.9604492   -1.514358155E-4
 79.0874786   -1.478653721E-4
 79.2145157   -1.439689513E-4
 79.3415451   -1.397413434E-4
 79.4685822   -1.351890096E-4
 79.5956116   -1.303310273E-4
 79.722641   -1.251993817E-4
 79.849678   -1.19839111E-4
 79.9767075   -1.14307848E-4
 80.1037445   -1.086749544E-4
 80.2307739   -1.030202839E-4
 80.3578033   -9.743251576E-5
 80.4848404   -9.200716886E-5
 80.6118698   -8.684438217E-5
 80.7389069   -8.204641199E-5
 80.8659363   -7.771511446E-5
 80.9929733   -7.394924614E-5
 81.1200027   -7.084194658E-5
 81.2470322   -6.847826444E-5
 81.3740692   -6.693283649E-5
 81.5010986   -6.626793765E-5
 81.6281357   -6.653180026E-5
 81.7551651   -6.775730435E-5
 81.8822021   -6.996112643E-5
 82.0092316   -7.314329559E-5
 82.136261   -7.728717173E-5
 82.263298   -8.235995483E-5
 82.3903275   -8.831351442E-5
 82.5173645   -9.508564108E-5
 82.6443939   -1.026016835E-4
 82.771431   -1.107763965E-4
 82.8984604   -1.195160439E-4
 83.0254898   -1.287206687E-4
 83.1525269   -1.382864284E-4
 83.2795563   -1.481078798E-4
 83.4065933   -1.580803073E-4
 83.5336227   -1.681017893E-4
 83.6606522   -1.780751336E-4
 83.7876892   -1.879094343E-4
 83.9147186   -1.975215418E-4
 84.0417557   -2.068370522E-4
 84.1687851   -2.157908311E-4
 84.2958221   -2.243274503E-4
 84.4228516   -2.324011293E-4
 84.549881   -2.399752411E-4
 84.676918   -2.470217296E-4
 84.8039474   -2.535201202E-4
 84.9309845   -2.594564576E-4
 85.0580139   -2.648219815E-4
 85.185051   -2.696118027E-4
 85.3120804   -2.738235344E-4
 85.4391098   -2.774560708E-4
 85.5661469   -2.805083641E-4
 85.6931763   -2.82978348E-4
 85.8202133   -2.848624135E-4
 85.9472427   -2.861545945E-4
 86.0742722   -2.868465963E-4
 86.2013092   -2.869277087E-4
 86.3283386   -2.863851842E-4
 86.4553757   -2.852050529E-4
 86.5824051   -2.833729086E-4
 86.7094421   -2.808751597E-4
 86.8364716   -2.777002519E-4
 86.963501   -2.738401527E-4
 87.090538   -2.692918642E-4
 87.2175674   -2.640589082E-4
 87.3446045   -2.581525769E-4
 87.4716339   -2.515931847E-4
 87.598671   -2.444111451E-4
 87.7257004   -2.366475528E-4
 87.8527298   -2.283546346E-4
 87.9797668   -2.195956476E-4
 88.1067963   -2.104445157E-4
 88.2338333   -2.009850577E-4
 88.3608627   -1.913096785E-4
 88.4878998   -1.815179276E-4
 88.6149292   -1.717143896E-4
 88.7419586   -1.620065887E-4
 88.8689957   -1.525024272E-4
 88.9960251   -1.433076395E-4
 89.1230621   -1.345229684E-4
 89.2500916   -1.262415608E-4
 89.377121   -1.185463479E-4
 89.504158   -1.115075793E-4
 89.6311874   -1.051807121E-4
 89.7582245   -9.960457101E-5
 89.8852539   -9.480001609E-5
 90.012291   -9.076907008E-5
 90.1393204   -8.749451808E-5
 90.2663498   -8.494012582E-5
 90.3933868   -8.305138908E-5
 90.5204163   -8.175680705E-5
 90.6474533   -8.096966485E-5
 90.7744827   -8.059040556E-5
 90.9015198   -8.050926408E-5
 91.0285492   -8.060925029E-5
 91.1555786   -8.076945232E-5
 91.2826157   -8.08683908E-5
 91.4096451   -8.078748215E-5
 91.5366821   -8.041426918E-5
 91.6637115   -7.964562974E-5
 91.7907486   -7.83906944E-5
 91.917778   -7.657330571E-5
 92.0448074   -7.413407002E-5
 92.1718445   -7.103192911E-5
 92.2988739   -6.72452079E-5
 92.4259109   -6.277200009E-5
 92.5529404   -5.763008448E-5
 92.6799698   -5.185617192E-5
 92.8070068   -4.550465019E-5
 92.9340363   -3.864585597E-5
 93.0610733   -3.136387386E-5
 93.1881027   -2.375400254E-5
 93.3151398   -1.591995897E-5
 93.4421692   -7.970834304E-6
 93.5691986   -1.797793558E-8
 93.6962357   7.828085472E-6
 93.8232651   1.546066778E-5
 93.9503021   2.277977364E-5
 94.0773315   2.969466186E-5
 94.2043686   3.612610817E-5
 94.331398   4.200825424E-5
 94.4584274   4.729005013E-5
 94.5854645   5.193623292E-5
 94.7124939   5.592778689E-5
 94.8395309   5.926199083E-5
 94.9665604   6.195194146E-5
 95.0935974   6.402566942E-5
 95.2206268   6.552480772E-5
 95.3476563   6.650303112E-5
 95.4746933   6.702398969E-5
 95.6017227   6.715924974E-5
 95.7287598   6.698587822E-5
 95.8557892   6.658407801E-5
 95.9828186   6.603477959E-5
 96.1098557   6.541726179E-5
 96.2368851   6.480694719E-5
 96.3639221   6.42734376E-5
 96.4909515   6.387873145E-5
 96.6179886   6.367577589E-5
 96.745018   6.370741175E-5
 96.8720474   6.400557322E-5
 96.9990845   6.459098222E-5
 97.1261139   6.547311204E-5
 97.2531509   6.665054389E-5
 97.3801804   6.811167987E-5
 97.5072174   6.983566709E-5
 97.6342468   7.179367822E-5
 97.7612762   7.395024295E-5
 97.8883133   7.626481965E-5
 98.0153427   7.869335968E-5
 98.1423798   8.118990081E-5
 98.2694092   8.370808791E-5
 98.3964462   8.620259177E-5
 98.5234756   8.863033145E-5
 98.6505051   9.0951522E-5
 98.7775421   9.313048213E-5
 98.9045715   9.513617988E-5
 99.0316086   9.694250912E-5
 99.158638   9.852834773E-5
 99.2856674   9.987737576E-5
 99.4127045   1.009776897E-4
 99.5397339   1.018212788E-4
 99.6667709   1.024033336E-4
 99.7938004   1.027215694E-4
 99.9208374   1.027754915E-4
 100.047867   1.025656602E-4
 100.174896   1.020931013E-4
 100.301933   1.01358768E-4
 100.428963   1.003632424E-4
 100.556   9.91064444E-5
 100.683029   9.758771193E-5
 100.810066   9.58058954E-5
 100.937096   9.37597506E-5
 101.064125   9.144838987E-5
 101.191162   8.887190779E-5
 101.318192   8.603208698E-5
 101.445229   8.293312567E-5
 101.572258   7.958240894E-5
 101.699295   7.599119272E-5
 101.826324   7.217521488E-5
 101.953354   6.815518282E-5
 102.080391   6.395707896E-5
 102.20742   5.961226998E-5
 102.334457   5.515738667E-5
 102.461487   5.063399294E-5
 102.588516   4.608798554E-5
 102.715553   4.156876821E-5
 102.842583   3.712823673E-5
 102.96962   3.281956015E-5
 103.096649   2.869578384E-5
 103.223686   2.480836338E-5
 103.350716   2.120563477E-5
 103.477745   1.793126467E-5
 103.604782   1.502274699E-5
 103.731812   1.251002868E-5
 103.858849   1.041427277E-5
 103.985878   8.746835192E-6
 104.112915   7.508526323E-6
 104.239944   6.689111615E-6
 104.366974   6.267205208E-6
 104.494011   6.21045001E-6
 104.62104   6.476063845E-6
 104.748077   7.01171939E-6
 104.875107   7.756754712E-6
 105.002144   8.643663023E-6
 105.129173   9.599809346E-6
 105.256203   1.054937275E-5
 105.38324   1.141537541E-5
 105.510269   1.212181269E-5
 105.637306   1.259575311E-5
 105.764336   1.276935564E-5
 105.891365   1.258177144E-5
 106.018402   1.198077916E-5
 106.145432   1.092419461E-5
 106.272469   9.380944903E-6
 106.399498   7.331790584E-6
 106.526535   4.769667157E-6
 106.653564   1.699668928E-6
 106.780594   -1.861363785E-6
 106.907631   -5.885602604E-6
 107.03466   -1.033530953E-5
 107.161697   -1.516419434E-5
 107.288727   -2.031897748E-5
 107.415764   -2.574114478E-5
 107.542793   -3.136874875E-5
 107.669823   -3.713825936E-5
 107.79686   -4.298636486E-5
 107.923889   -4.885164162E-5
 108.050926   -5.467606024E-5
 108.177956   -6.040628796E-5
 108.304985   -6.599469634E-5
 108.432022   -7.140012167E-5
 108.559052   -7.658826507E-5
 108.686089   -8.153188537E-5
 108.813118   -8.621058805E-5
 108.940155   -9.061043966E-5
 109.067184   -9.472329111E-5
 109.194214   -9.854593372E-5
 109.321251   -1.020791096E-4
 109.44828   -1.05326435E-4
 109.575317   -1.082932504E-4
 109.702347   -1.109855948E-4
 109.829384   -1.134091435E-4
 109.956413   -1.155683276E-4
 110.083443   -1.174656281E-4
 110.21048   -1.191010451E-4
 110.337509   -1.20471741E-4
 110.464546   -1.215720476E-4
 110.591576   -1.223935687E-4
 110.718613   -1.229256013E-4
 110.845642   -1.231557835E-4
 110.972672   -1.230708294E-4
 111.099709   -1.226575405E-4
 111.226738   -1.219038968E-4
 111.353775   -1.208000613E-4
 111.480804   -1.193396383E-4
 111.607834   -1.175206635E-4
 111.734871   -1.153466292E-4
 111.8619   -1.128273143E-4
 111.988937   -1.099793953E-4
 112.115967   -1.068268975E-4
 112.243004   -1.034013403E-4
 112.370033   -9.974157001E-5
 112.497063   -9.589343244E-5
 112.6241   -9.190899436E-5
 112.751129   -8.784567035E-5
 112.878166   -8.37649568E-5
 113.005196   -7.973106403E-5
 113.132233   -7.58093156E-5
 113.259262   -7.206446753E-5
 113.386292   -6.855897664E-5
 113.513329   -6.53512252E-5
 113.640358   -6.24938184E-5
 113.767395   -6.003204544E-5
 113.894424   -5.800243162E-5
 114.021461   -5.643158875E-5
 114.148491   -5.533528383E-5
 114.27552   -5.471786062E-5
 114.402557   -5.457195584E-5
 114.529587   -5.487857197E-5
 114.656624   -5.560755744E-5
 114.783653   -5.67183306E-5
 114.910683   -5.816096382E-5
 115.03772   -5.987756958E-5
 115.164749   -6.180389028E-5
 115.291786   -6.387106987E-5
 115.418816   -6.600760389E-5
 115.545853   -6.814126391E-5
 115.672882   -7.020108751E-5
 115.799911   -7.211929187E-5
 115.926949   -7.383303455E-5
 116.053978   -7.528599963E-5
 116.181015   -7.642976561E-5
 116.308044   -7.722487499E-5
 116.435081   -7.764162001E-5
 116.562111   -7.766049384E-5
 116.68914   -7.727236516E-5
 116.816177   -7.647833991E-5
 116.943207   -7.528925926E-5
 117.070244   -7.372504479E-5
 117.197273   -7.181375258E-5
 117.32431   -6.959044549E-5
 117.45134   -6.709601439E-5
 117.578369   -6.437577395E-5
 117.705406   -6.147818931E-5
 117.832436   -5.845351916E-5
 117.959473   -5.535251694E-5
 118.086502   -5.222526306E-5
 118.213531   -4.91200808E-5
 118.340569   -4.60826268E-5
 118.467598   -4.315509432E-5
 118.594635   -4.037560211E-5
 118.721664   -3.777773236E-5
 118.848701   -3.539022873E-5
 118.975731   -3.323683995E-5
 119.10276   -3.133631617E-5
 119.229797   -2.970247806E-5
 119.356827   -2.834445149E-5
 119.483864   -2.726692583E-5
 119.610893   -2.647051406E-5
 119.73793   -2.595217302E-5
 119.86496   -2.570563265E-5
 119.991989   -2.572188714E-5
 120.119026   -2.59896733E-5
 120.246056   -2.649598173E-5
 120.373093   -2.722654608E-5
 120.500122   -2.816634333E-5
 120.627159   -2.930006121E-5
 120.754189   -3.061254029E-5
 120.881218   -3.208918497E-5
 121.008255   -3.371631101E-5
 121.135284   -3.548145469E-5
 121.262321   -3.737360021E-5
 121.389351   -3.938333248E-5
 121.51638   -4.150289533E-5
 121.643417   -4.372615876E-5
 121.770447   -4.604849164E-5
 121.897484   -4.846649244E-5
 122.024513   -5.097767644E-5
 122.15155   -5.358002818E-5
 122.27858   -5.62714813E-5
 122.405609   -5.904936552E-5
 122.532646   -6.190977729E-5
 122.659676   -6.484695768E-5
 122.786713   -6.785268488E-5
 122.913742   -7.091573934E-5
 123.040779   -7.402136544E-5
 123.167809   -7.71509367E-5
 123.294838   -8.028165757E-5