  -4.50000000         0.00000000    
  -4.37320757         0.00000000    
  -4.24641466         0.00000000    
  -4.11962223         0.00000000    
  -3.99282932         0.00000000    
  -3.86603665         0.00000000    
  -3.73924398         0.00000000    
  -3.61245155        -6.19384148E-31
  -3.48565888        -2.19611798E-30
  -3.35886621        -1.40104106E-29
  -3.23207355        -4.50333849E-29
  -3.10528088         1.07417611E-28
  -2.97848821         1.05365384E-27
  -2.85169554         3.41111467E-27
  -2.72490287         4.85115907E-27
  -2.59811020        -7.62071451E-27
  -2.47131753        -6.73728690E-26
  -2.34452486        -2.21837227E-25
  -2.21773219        -4.68517311E-25
  -2.09093952        -5.81577940E-25
  -1.96414697         1.69410258E-25
  -1.83735430         3.23288314E-24
  -1.71056163         1.04549724E-23
  -1.58376896         2.25271364E-23
  -1.45697629         3.57341936E-23
  -1.33018374         3.77350415E-23
  -1.20339108         5.43963179E-24
  -1.07659841        -8.93402456E-23
 -0.949805737        -2.60185385E-22
 -0.823013067        -4.70639212E-22
 -0.696220458        -5.93288882E-22
 -0.569427788        -3.90597598E-22
 -0.442635119         4.42084518E-22
 -0.315842479         2.13610649E-21
 -0.189049825         4.61369640E-21
  -6.22571707E-02     7.22929360E-21
   6.45354837E-02     8.64273362E-21
  0.191328138         7.02579101E-21
  0.318120778         7.57139407E-22
  0.444913447        -1.04179860E-20
  0.571706116        -2.40815525E-20
  0.698498726        -3.43234653E-20
  0.825291395        -3.22163455E-20
  0.952084064        -8.24605367E-21
   1.07887673         4.32098279E-20
   1.20566940         1.18201938E-19
   1.33246195         1.98221633E-19
   1.45925462         2.48523830E-19
   1.58604729         2.22307194E-19
   1.71283996         7.21125654E-20
   1.83963263        -2.32458457E-19
   1.96642530        -6.84417045E-19
   2.09321785        -1.22259693E-18
   2.22001052        -1.72547146E-18
   2.34680319        -2.02123527E-18
   2.47359586        -1.91591739E-18
   2.60038853        -1.23586781E-18
   2.72718120         1.24151822E-19
   2.85397387         2.15852471E-18
   2.98076653         4.72346021E-18
   3.10755920         7.52826753E-18
   3.23435187         1.01408579E-17
   3.36114454         1.19979876E-17
   3.48793697         1.24132927E-17
   3.61472964         1.05893561E-17
   3.74152231         5.66171339E-18
   3.86831498        -3.17567645E-18
   3.99510765        -1.64067486E-17
   4.12190056        -3.37578959E-17
   4.24869299        -5.36207094E-17
   4.37548542        -7.24630201E-17
   4.50227833        -8.44717172E-17
   4.62907076        -8.17538267E-17
   4.75586367        -5.54223716E-17
   4.88265610         2.23988764E-18
   5.00944901         9.46274504E-17
   5.13624144         2.17162625E-16
   5.26303434         3.54076686E-16
   5.38982677         4.76872297E-16
   5.51661968         5.45776150E-16
   5.64341211         5.15146274E-16
   5.77020502         3.43010360E-16
   5.89699745         3.76273707E-18
   6.02379036        -4.98235738E-16
   6.15058279        -1.11748125E-15
   6.27737522        -1.76237720E-15
   6.40416813        -2.29987805E-15
   6.53096056        -2.57161236E-15
   6.65775347        -2.42097750E-15
   6.78454590        -1.72779993E-15
   6.91133881        -4.44439776E-16
   7.03813124         1.37463759E-15
   7.16492414         3.55806777E-15
   7.29171658         5.82423836E-15
   7.41850948         7.81260500E-15
   7.54530191         9.13822342E-15
   7.67209482         9.46291402E-15
   7.79888725         8.57213606E-15
   7.92567968         6.44393190E-15
   8.05247211         3.29599324E-15
   8.17926502        -4.00905644E-16
   8.30605793        -3.95047569E-15
   8.43285084        -6.50117819E-15
   8.55964279        -7.15476449E-15
   8.68643570        -5.10336038E-15
   8.81322861         2.18675624E-16
   8.94002151         8.98418879E-15
   9.06681347         2.08406019E-14
   9.19360638         3.48111331E-14
   9.32039928         4.92439816E-14
   9.44719219         6.18212079E-14
   9.57398415         6.96359813E-14
   9.70077705         6.93429553E-14
   9.82756996         5.73818540E-14
   9.95436192         3.02685733E-14
   10.0811548        -1.50589515E-14
   10.2079477        -8.08596964E-14
   10.3347406        -1.68199967E-13
   10.4615326        -2.76587103E-13
   10.5883255        -4.03661154E-13
   10.7151184        -5.44977962E-13
   10.8419113        -6.93912701E-13
   10.9687033        -8.41704419E-13
   11.0954962        -9.77647867E-13
   11.2222891        -1.08942759E-12
   11.3490820        -1.16357011E-12
   11.4758739        -1.18598035E-12
   11.6026669        -1.14251750E-12
   11.7294598        -1.01956226E-12
   11.8562517        -8.04533686E-13
   11.9830446        -4.86329401E-13
   12.1098375        -5.56830074E-14
   12.2366304         4.94533234E-13
   12.3634224         1.16900619E-12
   12.4902153         1.96959658E-12
   12.6170082         2.89477079E-12
   12.7438011         3.93874126E-12
   12.8705931         5.09023899E-12
   12.9973860         6.33086162E-12
   13.1241789         7.63300707E-12
   13.2509708         8.95745630E-12
   13.3777637         1.02507577E-11
   13.5045567         1.14426090E-11
   13.6313496         1.24435358E-11
   13.7581415         1.31431957E-11
   13.8849344         1.34096709E-11
   14.0117273         1.30902121E-11
   14.1385202         1.20138222E-11
   14.2653122         9.99623214E-12
   14.3921051         6.84762273E-12
   14.5188980         2.38359029E-12
   14.6456909        -3.56038918E-12
   14.7724829        -1.11108874E-11
   14.8992758        -2.03349802E-11
   15.0260687        -3.12157800E-11
   15.1528606        -4.36260923E-11
   15.2796535        -5.73016565E-11
   15.4064465        -7.18162266E-11
   15.5332394        -8.65609737E-11
   15.6600313        -1.00731264E-10
   15.7868242        -1.13324169E-10
   15.9136171        -1.23149851E-10
   16.0404091        -1.28859659E-10
   16.1672020        -1.28993358E-10
   16.2939949        -1.22046540E-10
   16.4207878        -1.06558359E-10
   16.5475807        -8.12176645E-11
   16.6743736        -4.49846306E-11
   16.8011646         2.77764552E-12
   16.9279575         6.21682497E-11
   17.0547504         1.32618597E-10
   17.1815434         2.12777268E-10
   17.3083363         3.00419883E-10
   17.4351292         3.92394534E-10
   17.5619221         4.84612961E-10
   17.6887150         5.72096148E-10
   17.8155060         6.49081788E-10
   17.9422989         7.09197812E-10
   18.0690918         7.45703277E-10
   18.1958847         7.51794071E-10
   18.3226776         7.20966398E-10
   18.4494705         6.47427278E-10
   18.5762634         5.26535759E-10
   18.7030544         3.55255741E-10
   18.8298473         1.32597267E-10
   18.9566402        -1.39981055E-10
   19.0834332        -4.58234062E-10
   19.2102261        -8.14885659E-10
   19.3370190        -1.19950483E-09
   19.4638119        -1.59852309E-09
   19.5906048        -1.99541650E-09
   19.7173958        -2.37106179E-09
   19.8441887        -2.70427281E-09
   19.9709816        -2.97251579E-09
   20.0977745        -3.15279092E-09
   20.2245674        -3.22265614E-09
   20.3513603        -3.16136539E-09
   20.4781532        -2.95107716E-09
   20.6049442        -2.57809085E-09
   20.7317371        -2.03404982E-09
   20.8585300        -1.31705868E-09
   20.9853230        -4.32646946E-10
   21.1121159         6.05478223E-10
   21.2389088         1.77495119E-09
   21.3657017         3.04459125E-09
   21.4924946         4.37461845E-09
   21.6192856         5.71727332E-09
   21.7460785         7.01785785E-09
   21.8728714         8.21621171E-09
   21.9996643         9.24859833E-09
   22.1264572         1.00499724E-08
   22.2532501         1.05565743E-08
   22.3800430         1.07087796E-08
   22.5068340         1.04540989E-08
   22.6336269         9.75023351E-09
   22.7604198         8.56804494E-09
   22.8872128         6.89432200E-09
   23.0140057         4.73417838E-09
   23.1407986         2.11296913E-09
   23.2675915        -9.22428578E-10
   23.3943844        -4.30308500E-09
   23.5211754        -7.93833799E-09
   23.6479683        -1.17170433E-08
   23.7747612        -1.55097961E-08
   23.9015541        -1.91721341E-08
   24.0283470        -2.25487007E-08
   24.1551399        -2.54782595E-08
   24.2819328        -2.77994854E-08
   24.4087238        -2.93573343E-08
   24.5355167        -3.00097938E-08
   24.6623096        -2.96347835E-08
   24.7891026        -2.81369381E-08
   24.9158955        -2.54539536E-08
   25.0426884        -2.15622329E-08
   25.1694813        -1.64815077E-08
   25.2962742        -1.02781659E-08
   25.4230652        -3.06702019E-09
   25.5498581         4.98867925E-09
   25.6766510         1.36791574E-08
   25.8034439         2.27520243E-08
   25.9302368         3.19181979E-08
   26.0570297         4.08597920E-08
   26.1838226         4.92397376E-08
   26.3106136         5.67129739E-08
   26.4374065         6.29388097E-08
   26.5641994         6.75940868E-08
   26.6909924         7.03866689E-08
   26.8177853         7.10686621E-08
   26.9445782         6.94490083E-08
   27.0713711         6.54045991E-08
   27.1981640         5.88897002E-08
   27.3249550         4.99428978E-08
   27.4517479         3.86912973E-08
   27.5785408         2.53516035E-08
   27.7053337         1.02277582E-08
   27.8321266        -6.29487085E-09
   27.9589195        -2.37588296E-08
   28.0857124        -4.16471906E-08
   28.2125034        -5.93991913E-08
   28.3392963        -7.64283996E-08
   28.4660892        -9.21428267E-08
   28.5928822        -1.05966251E-07
   28.7196751        -1.17360052E-07
   28.8464680        -1.25844551E-07
   28.9732609        -1.31019107E-07
   29.1000538        -1.32580027E-07
   29.2268448        -1.30335408E-07
   29.3536377        -1.24216356E-07
   29.4804306        -1.14283630E-07
   29.6072235        -1.00729650E-07
   29.7340164        -8.38752356E-08
   29.8608093        -6.41611777E-08
   29.9876022        -4.21346940E-08
   30.1143932        -1.84313009E-08
   30.2411861         6.24759533E-09
   30.3679790         3.11602975E-08
   30.4947720         5.55528388E-08
   30.6215649         7.86882310E-08
   30.7483578         9.98756846E-08
   30.8751507         1.18498569E-07
   31.0019417         1.34039865E-07
   31.1287346         1.46103787E-07
   31.2555275         1.54432698E-07
   31.3823204         1.58918141E-07
   31.5091133         1.59605548E-07
   31.6359062         1.56692082E-07
   31.7626991         1.50517693E-07
   31.8894920         1.41549279E-07
   32.0162849         1.30358899E-07
   32.1430779         1.17596542E-07
   32.2698708         1.03958918E-07
   32.3966637         9.01552397E-08
   32.5234528         7.68719346E-08
   32.6502457         6.47375771E-08
   32.7770386         5.42898846E-08
   32.9038315         4.59464218E-08
   33.0306244         3.99803959E-08
   33.1574173         3.65027830E-08
   33.2842102         3.54520040E-08
   33.4110031         3.65916186E-08
   33.5377960         3.95164292E-08
   33.6645889         4.36669687E-08
   33.7913818         4.83517866E-08
   33.9181747         5.27768194E-08
   34.0449677         5.60803990E-08
   34.1717606         5.73728300E-08
   34.2985535         5.57780737E-08
   34.4253426         5.04765403E-08
   34.5521355         4.07463396E-08
   34.6789284         2.60011959E-08
   34.8057213         5.82351989E-09
   34.9325142        -2.00093382E-08
   35.0593071        -5.15067313E-08
   35.1861000        -8.84550673E-08
   35.3128929        -1.30417732E-07
   35.4396858        -1.76744308E-07
   35.5664787        -2.26588725E-07
   35.6932716        -2.78935460E-07
   35.8200645        -3.32632311E-07
   35.9468575        -3.86428354E-07
   36.0736504        -4.39014798E-07
   36.2004433        -4.89066622E-07
   36.3272324        -5.35282879E-07
   36.4540253        -5.76423190E-07
   36.5808182        -6.11339203E-07
   36.7076111        -6.38997847E-07
   36.8344040        -6.58496845E-07
   36.9611969        -6.69070801E-07
   37.0879898        -6.70087445E-07
   37.2147827        -6.61035415E-07
   37.3415756        -6.41504585E-07
   37.4683685        -6.11159408E-07
   37.5951614        -5.69709925E-07
   37.7219543        -5.16880561E-07
   37.8487473        -4.52382125E-07
   37.9755402        -3.75888845E-07
   38.1023293        -2.87023795E-07
   38.2291222        -1.85356726E-07
   38.3559151        -7.04154886E-08
   38.4827080         5.82862505E-08
   38.6095009         2.01203306E-07
   38.7362938         3.58695843E-07
   38.8630867         5.30948569E-07
   38.9898796         7.17874798E-07
   39.1166725         9.19006368E-07
   39.2434654         1.13337535E-06
   39.3702583         1.35938967E-06
   39.4970512         1.59471006E-06
   39.6238441         1.83613190E-06
   39.7506371         2.07947915E-06
   39.8774300         2.31951844E-06
   40.0042191         2.54989368E-06
   40.1310120         2.76309333E-06
   40.2578049         2.95045038E-06
   40.3845978         3.10217933E-06
   40.5113907         3.20745517E-06
   40.6381836         3.25453198E-06
   40.7649765         3.23090285E-06
   40.8917694         3.12349880E-06
   41.0185623         2.91892161E-06
   41.1453552         2.60370643E-06
   41.2721481         2.16460739E-06
   41.3989410         1.58889941E-06
   41.5257339         8.64685035E-07
   41.6525269        -1.88014244E-08
   41.7793198        -1.07090318E-06
   41.9061089        -2.29927423E-06
   42.0329018        -3.70964494E-06
   42.1596947        -5.30562920E-06
   42.2864876        -7.08858033E-06
   42.4132805        -9.05750585E-06
   42.5400734        -1.12090429E-05
   42.6668663        -1.35374930E-05
   42.7936592        -1.60349300E-05
   42.9204521        -1.86913658E-05
   43.0472450        -2.14949669E-05
   43.1740379        -2.44323528E-05
   43.3008308        -2.74889007E-05
   43.4276237        -3.06491238E-05
   43.5544167        -3.38970385E-05
   43.6812096        -3.72165850E-05
   43.8079987        -4.05920000E-05
   43.9347916        -4.40082040E-05
   44.0615845        -4.74511580E-05
   44.1883774        -5.09081510E-05
   44.3151703        -5.43680653E-05
   44.4419632        -5.78215549E-05
   44.5687561        -6.12611548E-05
   44.6955490        -6.46812914E-05
   44.8223419        -6.80782759E-05
   44.9491348        -7.14501002E-05
   45.0759277        -7.47962549E-05
   45.2027206        -7.81174313E-05
   45.3295135        -8.14151063E-05
   45.4563065        -8.46911644E-05
   45.5830994        -8.79474101E-05
   45.7098885        -9.11850875E-05
   45.8366814        -9.44043204E-05
   45.9634743        -9.76037263E-05
   46.0902672        -1.00779856E-04
   46.2170601        -1.03926839E-04
   46.3438530        -1.07036074E-04
   46.4706459        -1.10095883E-04
   46.5974388        -1.13091475E-04
   46.7242317        -1.16004849E-04
   46.8510246        -1.18814904E-04
   46.9778175        -1.21497680E-04
   47.1046104        -1.24026687E-04
   47.2314034        -1.26373416E-04
   47.3581963        -1.28507934E-04
   47.4849892        -1.30399581E-04
   47.6117783        -1.32017783E-04
   47.7385712        -1.33332942E-04
   47.8653641        -1.34317306E-04
   47.9921570        -1.34945905E-04
   48.1189499        -1.35197581E-04
   48.2457428        -1.35055685E-04
   48.3725357        -1.34509071E-04
   48.4993286        -1.33552734E-04
   48.6261215        -1.32188390E-04
   48.7529144        -1.30424931E-04
   48.8797073        -1.28278713E-04
   49.0065002        -1.25773644E-04
   49.1332932        -1.22941070E-04
   49.2600861        -1.19819437E-04
   49.3868790        -1.16453855E-04
   49.5136681        -1.12895323E-04
   49.6404610        -1.09199944E-04
   49.7672539        -1.05427833E-04
   49.8940468        -1.01641985E-04
   50.0208397        -9.79070028E-05
   50.1476326        -9.42877741E-05
   50.2744255        -9.08481161E-05
   50.4012184        -8.76493941E-05
   50.5280113        -8.47492047E-05
   50.6548042        -8.22001603E-05
   50.7815971        -8.00487032E-05
   50.9083900        -7.83341820E-05
   51.0351830        -7.70879633E-05
   51.1619759        -7.63328571E-05
   51.2887688        -7.60826588E-05
   51.4155579        -7.63419666E-05
   51.5423508        -7.71061750E-05
   51.6691437        -7.83617434E-05
   51.7959366        -8.00865892E-05
   51.9227295        -8.22507645E-05
   52.0495224        -8.48172494E-05
   52.1763153        -8.77429047E-05
   52.3031082        -9.09795272E-05
   52.4299011        -9.44750063E-05
   52.5566940        -9.81745616E-05
   52.6834869        -1.02021892E-04
   52.8102798        -1.05960433E-04
   52.9370728        -1.09934459E-04
   53.0638657        -1.13890193E-04
   53.1906586        -1.17776712E-04
   53.3174477        -1.21546829E-04
   53.4442406        -1.25157749E-04
   53.5710335        -1.28571570E-04
   53.6978264        -1.31755703E-04
   53.8246193        -1.34683069E-04
   53.9514122        -1.37332114E-04
   54.0782051        -1.39686759E-04
   54.2049980        -1.41736120E-04
   54.3317909        -1.43474244E-04
   54.4585838        -1.44899604E-04
   54.5853767        -1.46014660E-04
   54.7121696        -1.46825289E-04
   54.8389626        -1.47340223E-04
   54.9657555        -1.47570507E-04
   55.0925484        -1.47528961E-04
   55.2193375        -1.47229701E-04
   55.3461304        -1.46687715E-04
   55.4729233        -1.45918471E-04
   55.5997162        -1.44937701E-04
   55.7265091        -1.43761150E-04
   55.8533020        -1.42404504E-04
   55.9800949        -1.40883349E-04
   56.1068878        -1.39213211E-04
   56.2336807        -1.37409632E-04
   56.3604736        -1.35488342E-04
   56.4872665        -1.33465437E-04
   56.6140594        -1.31357549E-04
   56.7408524        -1.29182023E-04
   56.8676453        -1.26957064E-04
   56.9944382        -1.24701910E-04
   57.1212273        -1.22436846E-04
   57.2480202        -1.20183206E-04
   57.3748131        -1.17963355E-04
   57.5016060        -1.15800482E-04
   57.6283989        -1.13718415E-04
   57.7551918        -1.11741305E-04
   57.8819847        -1.09893263E-04
   58.0087776        -1.08197921E-04
   58.1355705        -1.06677988E-04
   58.2623634        -1.05354695E-04
   58.3891563        -1.04247294E-04
   58.5159492        -1.03372578E-04
   58.6427422        -1.02744321E-04
   58.7695351        -1.02372920E-04
   58.8963280        -1.02264930E-04
   59.0231171        -1.02422826E-04
   59.1499100        -1.02844780E-04
   59.2767029        -1.03524537E-04
   59.4034958        -1.04451465E-04
   59.5302887        -1.05610663E-04
   59.6570816        -1.06983192E-04
   59.7838745        -1.08546446E-04
   59.9106674        -1.10274603E-04
   60.0374603        -1.12139125E-04
   60.1642532        -1.14109404E-04
   60.2910461        -1.16153402E-04
   60.4178391        -1.18238298E-04
   60.5446320        -1.20331257E-04
   60.6714249        -1.22400073E-04
   60.7982178        -1.24413855E-04
   60.9250069        -1.26343584E-04
   61.0517998        -1.28162719E-04
   61.1785927        -1.29847642E-04
   61.3053856        -1.31378023E-04
   61.4321785        -1.32737114E-04
   61.5589714        -1.33911934E-04
   61.6857643        -1.34893358E-04
   61.8125572        -1.35676077E-04
   61.9393501        -1.36258532E-04
   62.0661430        -1.36642702E-04
   62.1929359        -1.36833856E-04
   62.3197289        -1.36840274E-04
   62.4465218        -1.36672839E-04
   62.5733147        -1.36344694E-04
   62.7001076        -1.35870781E-04
   62.8268967        -1.35267517E-04
   62.9536896        -1.34552334E-04
   63.0804825        -1.33743277E-04
   63.2072754        -1.32858724E-04
   63.3340683        -1.31917011E-04
   63.4608612        -1.30936183E-04
   63.5876541        -1.29933673E-04
   63.7144470        -1.28926229E-04
   63.8412399        -1.27929641E-04
   63.9680328        -1.26958694E-04
   64.0948257        -1.26027080E-04
   64.2216187        -1.25147315E-04
   64.3484116        -1.24330778E-04
   64.4752045        -1.23587684E-04
   64.6019974        -1.22927115E-04
   64.7287903        -1.22357116E-04
   64.8555832        -1.21884666E-04
   64.9823761        -1.21515870E-04
   65.1091690        -1.21255958E-04
   65.2359619        -1.21109406E-04
   65.3627548        -1.21080055E-04
   65.4895477        -1.21171186E-04
   65.6163330        -1.21385652E-04
   65.7431259        -1.21725985E-04
   65.8699188        -1.22194499E-04
   65.9967117        -1.22793455E-04
   66.1235046        -1.23525111E-04
   66.2502975        -1.24391881E-04
   66.3770905        -1.25396386E-04
   66.5038834        -1.26541563E-04
   66.6306763        -1.27830688E-04
   66.7574692        -1.29267428E-04
   66.8842621        -1.30855755E-04
   67.0110550        -1.32600006E-04
   67.1378479        -1.34504633E-04
   67.2646408        -1.36574148E-04
   67.3914337        -1.38812844E-04
   67.5182266        -1.41224577E-04
   67.6450195        -1.43812402E-04
   67.7718124        -1.46578299E-04
   67.8986053        -1.49522675E-04
   68.0253983        -1.52643974E-04
   68.1521912        -1.55938309E-04
   68.2789841        -1.59398987E-04
   68.4057770        -1.63016128E-04
   68.5325699        -1.66776314E-04
   68.6593628        -1.70662359E-04
   68.7861557        -1.74653047E-04
   68.9129486        -1.78723087E-04
   69.0397415        -1.82843156E-04
   69.1665344        -1.86980076E-04
   69.2933273        -1.91097119E-04
   69.4201126        -1.95154498E-04
   69.5469055        -1.99109956E-04
   69.6736984        -2.02919560E-04
   69.8004913        -2.06538549E-04
   69.9272842        -2.09922349E-04
   70.0540771        -2.13027626E-04
   70.1808701        -2.15813387E-04
   70.3076630        -2.18242189E-04
   70.4344559        -2.20281174E-04
   70.5612488        -2.21903218E-04
   70.6880417        -2.23087802E-04
   70.8148346        -2.23821989E-04
   70.9416275        -2.24100964E-04
   71.0684204        -2.23928611E-04
   71.1952133        -2.23317722E-04
   71.3220062        -2.22290051E-04
   71.4487991        -2.20876012E-04
   71.5755920        -2.19114285E-04
   71.7023849        -2.17050983E-04
   71.8291779        -2.14738728E-04
   71.9559708        -2.12235405E-04
   72.0827637        -2.09602847E-04
   72.2095566        -2.06905243E-04
   72.3363495        -2.04207478E-04
   72.4631424        -2.01573508E-04
   72.5899353        -1.99064627E-04
   72.7167282        -1.96737747E-04
   72.8435211        -1.94643944E-04
   72.9703140        -1.92826992E-04
   73.0971069        -1.91322149E-04
   73.2238922        -1.90155217E-04
   73.3506851        -1.89341852E-04
   73.4774780        -1.88887134E-04
   73.6042709        -1.88785561E-04
   73.7310638        -1.89021230E-04
   73.8578568        -1.89568455E-04
   73.9846497        -1.90392617E-04
   74.1114426        -1.91451283E-04
   74.2382355        -1.92695617E-04
   74.3650284        -1.94071996E-04
   74.4918213        -1.95523622E-04
   74.6186142        -1.96992420E-04
   74.7454071        -1.98420821E-04
   74.8722000        -1.99753515E-04
   74.9989929        -2.00939190E-04
   75.1257858        -2.01932024E-04
   75.2525787        -2.02693001E-04
   75.3793716        -2.03190983E-04
   75.5061646        -2.03403455E-04
   75.6329575        -2.03316973E-04
   75.7597504        -2.02927244E-04
   75.8865433        -2.02238982E-04
   76.0133362        -2.01265211E-04
   76.1401291        -2.00026509E-04
   76.2669220        -1.98549795E-04
   76.3937149        -1.96866997E-04
   76.5205078        -1.95013461E-04
   76.6473007        -1.93026266E-04
   76.7740936        -1.90942534E-04
   76.9008865        -1.88797683E-04
   77.0276718        -1.86623816E-04
   77.1544647        -1.84448130E-04
   77.2812576        -1.82291755E-04
   77.4080505        -1.80168689E-04
   77.5348434        -1.78085014E-04
   77.6616364        -1.76038622E-04
   77.7884293        -1.74019078E-04
   77.9152222        -1.72008076E-04
   78.0420151        -1.69980020E-04
   78.1688080        -1.67903243E-04
   78.2956009        -1.65741149E-04
   78.4223938        -1.63454068E-04
   78.5491867        -1.61000877E-04
   78.6759796        -1.58341150E-04
   78.8027725        -1.55437083E-04
   78.9295654        -1.52255612E-04
   79.0563583        -1.48770341E-04
   79.1831512        -1.44963313E-04
   79.3099442        -1.40826669E-04
   79.4367371        -1.36363858E-04
   79.5635300        -1.31590583E-04
   79.6903229        -1.26535393E-04
   79.8171158        -1.21239769E-04
   79.9439087        -1.15757830E-04
   80.0707016        -1.10155597E-04
   80.1974945        -1.04509883E-04
   80.3242874        -9.89067048E-05
   80.4510803        -9.34394338E-05
   80.5778732        -8.82066233E-05
   80.7046585        -8.33096201E-05
   80.8314514        -7.88500474E-05
   80.9582443        -7.49272149E-05
   81.0850372        -7.16355353E-05
   81.2118301        -6.90620218E-05
   81.3386230        -6.72840179E-05
   81.4654160        -6.63670944E-05
   81.5922089        -6.63633255E-05
   81.7190018        -6.73098621E-05
   81.8457947        -6.92279646E-05
   81.9725876        -7.21224642E-05
   82.0993805        -7.59815957E-05
   82.2261734        -8.07773686E-05
   82.3529663        -8.64662725E-05
   82.4797592        -9.29904490E-05
   82.6065521        -1.00279132E-04
   82.7333450        -1.08250511E-04
   82.8601379        -1.16813681E-04
   82.9869308        -1.25870894E-04
   83.1137238        -1.35319802E-04
   83.2405167        -1.45055834E-04
   83.3673096        -1.54974361E-04
   83.4941025        -1.64972967E-04
   83.6208954        -1.74953340E-04
   83.7476883        -1.84822929E-04
   83.8744812        -1.94496533E-04
   84.0012741        -2.03897216E-04
   84.1280670        -2.12957209E-04
   84.2548599        -2.21618291E-04
   84.3816528        -2.29831814E-04
   84.5084381        -2.37558430E-04
   84.6352310        -2.44767551E-04
   84.7620239        -2.51436461E-04
   84.8888168        -2.57549284E-04
   85.0156097        -2.63095717E-04
   85.1424026        -2.68069736E-04
   85.2691956        -2.72468344E-04
   85.3959885        -2.76290171E-04
   85.5227814        -2.79534230E-04
   85.6495743        -2.82199006E-04
   85.7763672        -2.84281501E-04
   85.9031601        -2.85776623E-04
   86.0299530        -2.86676979E-04
   86.1567459        -2.86972732E-04
   86.2835388        -2.86651921E-04
   86.4103317        -2.85700982E-04
   86.5371246        -2.84105685E-04
   86.6639175        -2.81852059E-04
   86.7907104        -2.78927764E-04
   86.9175034        -2.75323400E-04
   87.0442963        -2.71034020E-04
   87.1710892        -2.66060524E-04
   87.2978821        -2.60411209E-04
   87.4246750        -2.54102866E-04
   87.5514679        -2.47161835E-04
   87.6782608        -2.39625006E-04
   87.8050537        -2.31540078E-04
   87.9318466        -2.22965828E-04
   88.0586395        -2.13971784E-04
   88.1854324        -2.04637676E-04
   88.3122177        -1.95052256E-04
   88.4390106        -1.85311976E-04
   88.5658035        -1.75519090E-04
   88.6925964        -1.65779667E-04
   88.8193893        -1.56201160E-04
   88.9461823        -1.46889812E-04
   89.0729752        -1.37948067E-04
   89.1997681        -1.29471882E-04
   89.3265610        -1.21548044E-04
   89.4533539        -1.14251721E-04
   89.5801468        -1.07644199E-04
   89.7069397        -1.01770951E-04
   89.8337326        -9.66601074E-05
   89.9605255        -9.23214102E-05
   90.0873184        -8.87455972E-05
   90.2141113        -8.59043648E-05
   90.3409042        -8.37509288E-05
   90.4676971        -8.22210277E-05
   90.5944901        -8.12345024E-05
   90.7212830        -8.06974567E-05
   90.8480759        -8.05046366E-05
   90.9748688        -8.05423988E-05
   91.1016617        -8.06917960E-05
   91.2284546        -8.08318291E-05
   91.3552475        -8.08429249E-05
   91.4820404        -8.06102180E-05
   91.6088333        -8.00267881E-05
   91.7356262        -7.89966216E-05
   91.8624191        -7.74372966E-05
   91.9892120        -7.52822307E-05
   92.1159973        -7.24824131E-05
   92.2427902        -6.90076631E-05
   92.3695831        -6.48473797E-05
   92.4963760        -6.00105595E-05
   92.6231689        -5.45254079E-05
   92.7499619        -4.84383017E-05
   92.8767548        -4.18122690E-05
   93.0035477        -3.47250170E-05
   93.1303406        -2.72665930E-05
   93.2571335        -1.95366556E-05
   93.3839264        -1.16415849E-05
   93.5107193        -3.69144686E-06
   93.6375122         4.20309652E-06
   93.7643051         1.19338238E-05
   93.8910980         1.93978540E-05
   94.0178909         2.65003382E-05
   94.1446838         3.31568299E-05
   94.2714767         3.92953443E-05
   94.3982697         4.48579776E-05
   94.5250626         4.98020745E-05
   94.6518555         5.41009504E-05
   94.7786484         5.77441460E-05
   94.9054413         6.07371949E-05
   95.0322342         6.31009170E-05
   95.1590271         6.48703499E-05
   95.2858200         6.60932637E-05
   95.4126129         6.68283683E-05
   95.5394058         6.71432572E-05
   95.6661987         6.71121597E-05
   95.7929916         6.68135981E-05
   95.9197769         6.63280007E-05
   96.0465698         6.57352939E-05
   96.1733627         6.51126757E-05
   96.3001556         6.45325272E-05
   96.4269485         6.40604994E-05
   96.5537415         6.37539924E-05
   96.6805344         6.36608311E-05
   96.8073273         6.38184065E-05
   96.9341202         6.42530504E-05
   97.0609131         6.49799113E-05
   97.1877060         6.60031219E-05
   97.3144989         6.73162722E-05
   97.4412918         6.89032750E-05
   97.5680847         7.07394356E-05
   97.6948776         7.27927327E-05
   97.8216705         7.50253021E-05
   97.9484634         7.73949505E-05
   98.0752563         7.98567853E-05