  -4.50000000         0.00000000    
  -4.37500000         0.00000000    
  -4.25000000         0.00000000    
  -4.12500000         0.00000000    
  -4.00000000         0.00000000    
  -3.87500000         0.00000000    
  -3.75000000         0.00000000    
  -3.62500000         5.94673752E-31
  -3.50000000         3.37439364E-30
  -3.37500000         2.54672487E-29
  -3.25000000         1.21903469E-28
  -3.12500000         5.26361709E-28
  -3.00000000         2.60845082E-27
  -2.87500000         1.29540190E-26
  -2.75000000         5.52706272E-26
  -2.62500000         1.95179028E-25
  -2.50000000         5.74057680E-25
  -2.37500000         1.42150852E-24
  -2.25000000         2.97373602E-24
  -2.12500000         5.19841508E-24
  -2.00000000         7.28564559E-24
  -1.87500000         7.09023054E-24
  -1.75000000         1.10501920E-24
  -1.62500000        -1.40967535E-23
  -1.50000000        -3.81719253E-23
  -1.37500000        -6.15724680E-23
  -1.25000000        -6.14937460E-23
  -1.12500000        -5.42220467E-24
  -1.00000000         1.30441495E-22
 -0.875000000         3.25159150E-22
 -0.750000000         4.69422726E-22
 -0.625000000         3.43272432E-22
 -0.500000000        -3.40023360E-22
 -0.375000000        -1.78278061E-21
 -0.250000000        -3.84332185E-21
 -0.125000000        -5.74802436E-21
   0.00000000        -5.95544636E-21
  0.125000000        -2.41863714E-21
  0.250000000         6.55195102E-21
  0.375000000         2.08358912E-20
  0.500000000         3.68515845E-20
  0.625000000         4.65367741E-20
  0.750000000         3.80735953E-20
  0.875000000        -6.69370566E-22
   1.00000000        -7.57683870E-20
   1.12500000        -1.79111628E-19
   1.25000000        -2.81317509E-19
   1.37500000        -3.29808155E-19
   1.50000000        -2.56270687E-19
   1.62500000         3.94759750E-21
   1.75000000         4.81624619E-19
   1.87500000         1.13876239E-18
   2.00000000         1.84009202E-18
   2.12500000         2.34503491E-18
   2.25000000         2.33324779E-18
   2.37500000         1.47102729E-18
   2.50000000        -4.84530763E-19
   2.62500000        -3.55952154E-18
   2.75000000        -7.44304394E-18
   2.87500000        -1.14074708E-17
   3.00000000        -1.43031522E-17
   3.12500000        -1.46527121E-17
   3.25000000        -1.08551135E-17
   3.37500000        -1.49257338E-18
   3.50000000         1.42817200E-17
   3.62500000         3.63084379E-17
   3.75000000         6.29826303E-17
   3.87500000         9.08669219E-17
   4.00000000         1.14439538E-16
   4.12500000         1.26097318E-16
   4.25000000         1.16577197E-16
   4.37500000         7.59850559E-17
   4.50000000        -4.40503827E-18
   4.62500000        -1.29533731E-16
   4.75000000        -2.97299697E-16
   4.87500000        -4.95168738E-16
   5.00000000        -6.97519774E-16
   5.12500000        -8.64896713E-16
   5.25000000        -9.46415005E-16
   5.37500000        -8.86300759E-16
   5.50000000        -6.34836900E-16
   5.62500000        -1.62880399E-16
   5.75000000         5.22227152E-16
   5.87500000         1.36279184E-15
   6.00000000         2.24317152E-15
   6.12500000         2.99261335E-15
   6.25000000         3.40153100E-15
   6.37500000         3.25196129E-15
   6.50000000         2.35989202E-15
   6.62500000         6.23880370E-16
   6.75000000        -1.92835648E-15
   6.87500000        -5.10513830E-15
   7.00000000        -8.53723237E-15
   7.12500000        -1.16926063E-14
   7.25000000        -1.39227153E-14
   7.37500000        -1.45386192E-14
   7.50000000        -1.29102568E-14
   7.62500000        -8.57806444E-15
   7.75000000        -1.36334940E-15
   7.87500000         8.53729590E-15
   8.00000000         2.04879516E-14
   8.12500000         3.33926714E-14
   8.25000000         4.57289134E-14
   8.37500000         5.56430817E-14
   8.50000000         6.11120719E-14
   8.62500000         6.01692903E-14
   8.75000000         5.11857775E-14
   8.87500000         3.31868695E-14
   9.00000000         6.17301730E-15
   9.12500000        -2.85985462E-14
   9.25000000        -6.84240330E-14
   9.37500000        -1.09111762E-13
   9.50000000        -1.45141698E-13
   9.62500000        -1.70064077E-13
   9.75000000        -1.77151493E-13
   9.87500000        -1.60287107E-13
   10.0000000        -1.15035301E-13
   10.1250000        -3.98043787E-14
   10.2500000         6.30210199E-14
   10.3750000         1.86123754E-13
   10.5000000         3.16633682E-13
   10.6250000         4.36000574E-13
   10.7500000         5.20504809E-13
   10.8750000         5.42519263E-13
   11.0000000         4.72590500E-13
   11.1250000         2.82345924E-13
   11.2500000        -5.18467749E-14
   11.3750000        -5.44632536E-13
   11.5000000        -1.19710047E-12
   11.6250000        -1.99226334E-12
   11.7500000        -2.89104569E-12
   11.8750000        -3.82931447E-12
   12.0000000        -4.71651017E-12
   12.1250000        -5.43643949E-12
   12.2500000        -5.85070317E-12
   12.3750000        -5.80512678E-12
   12.5000000        -5.13937894E-12
   12.6250000        -3.69972282E-12
   12.7500000        -1.35459970E-12
   12.8750000         1.98757287E-12
   13.0000000         6.35931845E-12
   13.1250000         1.17149753E-11
   13.2500000         1.79130669E-11
   13.3750000         2.47019696E-11
   13.5000000         3.17108111E-11
   13.6250000         3.84476097E-11
   13.7500000         4.43065307E-11
   13.8750000         4.85858159E-11
   14.0000000         5.05174132E-11
   14.1250000         4.93086752E-11
   14.2500000         4.41954563E-11
   14.3750000         3.45050620E-11
   14.5000000         1.97262293E-11
   14.6250000        -4.17610770E-13
   14.7500000        -2.58965627E-11
   14.8750000        -5.63095161E-11
   15.0000000        -9.08323555E-11
   15.1250000        -1.28185212E-10
   15.2500000        -1.66624464E-10
   15.3750000        -2.03964512E-10
   15.5000000        -2.37632969E-10
   15.6250000        -2.64761407E-10
   15.7500000        -2.82311619E-10
   15.8750000        -2.87234903E-10
   16.0000000        -2.76659529E-10
   16.1250000        -2.48098514E-10
   16.2500000        -1.99667893E-10
   16.3750000        -1.30303227E-10
   16.5000000        -3.99602573E-11
   16.6250000         7.02145356E-11
   16.7500000         1.97758379E-10
   16.8750000         3.38825412E-10
   17.0000000         4.88190433E-10
   17.1250000         6.39332032E-10
   17.2500000         7.84601384E-10
   17.3750000         9.15476028E-10
   17.5000000         1.02289699E-09
   17.6250000         1.09767906E-09
   17.7500000         1.13098009E-09
   17.8750000         1.11481135E-09
   18.0000000         1.04256526E-09
   18.1250000         9.09534004E-10
   18.2500000         7.13390846E-10
   18.3750000         4.54604021E-10
   18.5000000         1.36754635E-10
   18.6250000        -2.33267489E-10
   18.7500000        -6.45212495E-10
   18.8750000        -1.08558040E-09
   19.0000000        -1.53790236E-09
   19.1250000        -1.98319516E-09
   19.2500000        -2.40058151E-09
   19.3750000        -2.76806378E-09
   19.5000000        -3.06342440E-09
   19.6250000        -3.26522254E-09
   19.7500000        -3.35385297E-09
   19.8750000        -3.31261529E-09
   20.0000000        -3.12875126E-09
   20.1250000        -2.79440138E-09
   20.2500000        -2.30742536E-09
   20.3750000        -1.67204450E-09
   20.5000000        -8.99258057E-10
   20.6250000        -7.00219136E-12
   20.7500000         9.79979875E-10
   20.8750000         2.03057215E-09
   21.0000000         3.10803028E-09
   21.1250000         4.17102708E-09
   21.2500000         5.17497911E-09
   21.3750000         6.07362605E-09
   21.5000000         6.82081147E-09
   21.6250000         7.37240358E-09
   21.7500000         7.68830333E-09
   21.8750000         7.73444686E-09
   22.0000000         7.48473550E-09
   22.1250000         6.92279878E-09
   22.2500000         6.04350792E-09
   22.3750000         4.85415885E-09
   22.5000000         3.37525030E-09
   22.6250000         1.64078995E-09
   22.7500000        -3.01926345E-10
   22.8750000        -2.39308773E-09
   23.0000000        -4.56172611E-09
   23.1250000        -6.72763933E-09
   23.2500000        -8.80385898E-09
   23.3750000        -1.06996136E-08
   23.5000000        -1.23237038E-08
   23.6250000        -1.35882026E-08
   23.7500000        -1.44123407E-08
   23.8750000        -1.47264583E-08
   24.0000000        -1.44758525E-08
   24.1250000        -1.36243488E-08
   24.2500000        -1.21574555E-08
   24.3750000        -1.00848752E-08
   24.5000000        -7.44227568E-09
   24.6250000        -4.29212088E-09
   24.7500000        -7.23476834E-10
   24.8750000         3.14930682E-09
   25.0000000         7.18910487E-09
   25.1250000         1.12396972E-08
   25.2500000         1.51305848E-08
   25.3750000         1.86828455E-08
   25.5000000         2.17159020E-08
   25.6250000         2.40549571E-08
   25.7500000         2.55389008E-08
   25.8750000         2.60283439E-08
   26.0000000         2.54135042E-08
   26.1250000         2.36215545E-08
   26.2500000         2.06230890E-08
   26.3750000         1.64373688E-08
   26.5000000         1.11359908E-08
   26.6250000         4.84467666E-09
   26.7500000        -2.25702457E-09
   26.8750000        -9.93835236E-09
   27.0000000        -1.79222948E-08
   27.1250000        -2.58929678E-08
   27.2500000        -3.35052306E-08
   27.3750000        -4.03964080E-08
   27.5000000        -4.61997729E-08
   27.6250000        -5.05593682E-08
   27.7500000        -5.31456976E-08
   27.8750000        -5.36716769E-08
   28.0000000        -5.19082768E-08
   28.1250000        -4.76990891E-08
   28.2500000        -4.09732266E-08
   28.3750000        -3.17558424E-08
   28.5000000        -2.01756691E-08
   28.6250000        -6.46902309E-09
   28.7500000         9.02011088E-09
   28.8750000         2.58443063E-08
   29.0000000         4.34612843E-08
   29.1250000         6.12470075E-08
   29.2500000         7.85129046E-08
   29.3750000         9.45270529E-08
   29.5000000         1.08538629E-07
   29.6250000         1.19805065E-07
   29.7500000         1.27620908E-07
   29.8750000         1.31347562E-07
   30.0000000         1.30442700E-07
   30.1250000         1.24488338E-07
   30.2500000         1.13216380E-07
   30.3750000         9.65304849E-08
   30.5000000         7.45233208E-08
   30.6250000         4.74880828E-08
   30.7500000         1.59237690E-08
   30.8750000        -1.94665954E-08
   31.0000000        -5.77850336E-08
   31.1250000        -9.79550947E-08
   31.2500000        -1.38745634E-07
   31.3750000        -1.78801443E-07
   31.5000000        -2.16679979E-07
   31.6250000        -2.50893549E-07
   31.7500000        -2.79955373E-07
   31.8750000        -3.02428532E-07
   32.0000000        -3.16976212E-07
   32.1250000        -3.22411495E-07
   32.2500000        -3.17745474E-07
   32.3750000        -3.02231456E-07
   32.5000000        -2.75404119E-07
   32.6250000        -2.37112133E-07
   32.7500000        -1.87542639E-07
   32.8750000        -1.27236831E-07
   33.0000000        -5.70955336E-08
   33.1250000         2.16254818E-08
   33.2500000         1.07331040E-07
   33.3750000         1.98112673E-07
   33.5000000         2.91785000E-07
   33.6250000         3.85931713E-07
   33.7500000         4.77960100E-07
   33.8750000         5.65162907E-07
   34.0000000         6.44786269E-07
   34.1250000         7.14101077E-07
   34.2500000         7.70477754E-07
   34.3750000         8.11459813E-07
   34.5000000         8.34837238E-07
   34.6250000         8.38715323E-07
   34.7500000         8.21577771E-07
   34.8750000         7.82342795E-07
   35.0000000         7.20410185E-07
   35.1250000         6.35697177E-07
   35.2500000         5.28663634E-07
   35.3750000         4.00323671E-07
   35.5000000         2.52244888E-07
   35.6250000         8.65337668E-08
   35.7500000        -9.41921954E-08
   35.8750000        -2.86844966E-07
   36.0000000        -4.87918498E-07
   36.1250000        -6.93552124E-07
   36.2500000        -8.99603663E-07
   36.3750000        -1.10172971E-06
   36.5000000        -1.29547266E-06
   36.6250000        -1.47635092E-06
   36.7500000        -1.63995139E-06
   36.8750000        -1.78202083E-06
   37.0000000        -1.89855541E-06
   37.1250000        -1.98588486E-06
   37.2500000        -2.04075013E-06
   37.3750000        -2.06037430E-06
   37.5000000        -2.04252024E-06
   37.6250000        -1.98554199E-06
   37.7500000        -1.88841966E-06
   37.8750000        -1.75078753E-06
   38.0000000        -1.57294585E-06
   38.1250000        -1.35586345E-06
   38.2500000        -1.10116957E-06
   38.3750000        -8.11134782E-07
   38.5000000        -4.88645412E-07
   38.6250000        -1.37170105E-07
   38.7500000         2.39277540E-07
   38.8750000         6.36179436E-07
   39.0000000         1.04855417E-06
   39.1250000         1.47099752E-06
   39.2500000         1.89772038E-06
   39.3750000         2.32258367E-06
   39.5000000         2.73912815E-06
   39.6250000         3.14059889E-06
   39.7500000         3.51996528E-06
   39.8750000         3.86993679E-06
   40.0000000         4.18297441E-06
   40.1250000         4.45129854E-06
   40.2500000         4.66689835E-06
   40.3750000         4.82154337E-06
   40.5000000         4.90679622E-06
   40.6250000         4.91403352E-06
   40.7500000         4.83447639E-06
   40.8750000         4.65923085E-06
   41.0000000         4.37934341E-06
   41.1250000         3.98587235E-06
   41.2500000         3.46997035E-06
   41.3750000         2.82298970E-06
   41.5000000         2.03660261E-06
   41.6250000         1.10293502E-06
   41.7500000         1.47196122E-08
   41.8750000        -1.23454322E-06
   42.0000000        -2.65041535E-06
   42.1250000        -4.23734127E-06
   42.2500000        -5.99847135E-06
   42.3750000        -7.93548952E-06
   42.5000000        -1.00484440E-05
   42.6250000        -1.23355976E-05
   42.7500000        -1.47932888E-05
   42.8750000        -1.74158231E-05
   43.0000000        -2.01953899E-05
   43.1250000        -2.31220001E-05
   43.2500000        -2.61834703E-05
   43.3750000        -2.93654339E-05
   43.5000000        -3.26513909E-05
   43.6250000        -3.60227968E-05
   43.7500000        -3.94591989E-05
   43.8750000        -4.29383945E-05
   44.0000000        -4.64366167E-05
   44.1250000        -4.99287744E-05
   44.2500000        -5.33887142E-05
   44.3750000        -5.67895113E-05
   44.5000000        -6.01037427E-05
   44.6250000        -6.33038362E-05
   44.7500000        -6.63623796E-05
   44.8750000        -6.92524627E-05
   45.0000000        -7.19480231E-05
   45.1250000        -7.44241552E-05
   45.2500000        -7.66574594E-05
   45.3750000        -7.86263336E-05
   45.5000000        -8.03112416E-05
   45.6250000        -8.16949832E-05
   45.7500000        -8.27629337E-05
   45.8750000        -8.35032406E-05
   46.0000000        -8.39069689E-05
   46.1250000        -8.39682471E-05
   46.2500000        -8.36843319E-05
   46.3750000        -8.30556601E-05
   46.5000000        -8.20858404E-05
   46.6250000        -8.07816177E-05
   46.7500000        -7.91527855E-05
   46.8750000        -7.72120475E-05
   47.0000000        -7.49748215E-05
   47.1250000        -7.24591082E-05
   47.2500000        -6.96852076E-05
   47.3750000        -6.66754568E-05
   47.5000000        -6.34539756E-05
   47.6250000        -6.00463536E-05
   47.7500000        -5.64793700E-05
   47.8750000        -5.27806442E-05
   48.0000000        -4.89783852E-05
   48.1250000        -4.51010419E-05
   48.2500000        -4.11770852E-05
   48.3750000        -3.72347386E-05
   48.5000000        -3.33016978E-05
   48.6250000        -2.94050242E-05
   48.7500000        -2.55708746E-05
   48.8750000        -2.18244222E-05
   49.0000000        -1.81897176E-05
   49.1250000        -1.46895954E-05
   49.2500000        -1.13456163E-05
   49.3750000        -8.17803175E-06
   49.5000000        -5.20573030E-06
   49.6250000        -2.44622174E-06
   49.7500000         8.43942942E-08
   49.8750000         2.37144332E-06
   50.0000000         4.40173380E-06
   50.1250000         6.16361058E-06
   50.2500000         7.64701417E-06
   50.3750000         8.84358451E-06
   50.5000000         9.74676823E-06
   50.6250000         1.03519678E-05
   50.7500000         1.06567040E-05
   50.8750000         1.06607640E-05
   51.0000000         1.03664033E-05
   51.1250000         9.77849140E-06
   51.2500000         8.90468436E-06
   51.3750000         7.75556236E-06
   51.5000000         6.34472826E-06
   51.6250000         4.68889493E-06
   51.7500000         2.80786776E-06
   51.8750000         7.24537870E-07
   52.0000000        -1.53526344E-06
   52.1250000        -3.94291874E-06
   52.2500000        -6.46730496E-06
   52.3750000        -9.07512731E-06
   52.5000000        -1.17313157E-05
   52.6250000        -1.43995176E-05
   52.7500000        -1.70426374E-05
   52.8750000        -1.96233977E-05
   53.0000000        -2.21049522E-05
   53.1250000        -2.44515013E-05
   53.2500000        -2.66289317E-05
   53.3750000        -2.86054092E-05
   53.5000000        -3.03519500E-05
   53.6250000        -3.18429811E-05
   53.7500000        -3.30567673E-05
   53.8750000        -3.39758080E-05
   54.0000000        -3.45871304E-05
   54.1250000        -3.48824833E-05
   54.2500000        -3.48583817E-05
   54.3750000        -3.45160952E-05
   54.5000000        -3.38615573E-05
   54.6250000        -3.29051109E-05
   54.7500000        -3.16612204E-05
   54.8750000        -3.01480977E-05
   55.0000000        -2.83872778E-05
   55.1250000        -2.64031059E-05
   55.2500000        -2.42222450E-05
   55.3750000        -2.18731129E-05
   55.5000000        -1.93853466E-05
   55.6250000        -1.67893377E-05
   55.7500000        -1.41157116E-05
   55.8750000        -1.13949018E-05
   56.0000000        -8.65677612E-06
   56.1250000        -5.93030245E-06
   56.2500000        -3.24326493E-06
   56.3750000        -6.22044070E-07
   56.5000000         1.90855712E-06
   56.6250000         4.32544084E-06
   56.7500000         6.60734349E-06
   56.8750000         8.73488079E-06
   57.0000000         1.06906282E-05
   57.1250000         1.24591679E-05
   57.2500000         1.40271286E-05
   57.3750000         1.53833025E-05
   57.5000000         1.65186812E-05
   57.6250000         1.74266042E-05
   57.7500000         1.81028845E-05
   57.8750000         1.85459739E-05
   58.0000000         1.87571259E-05
   58.1250000         1.87405622E-05
   58.2500000         1.85036515E-05
   58.3750000         1.80570223E-05
   58.5000000         1.74146662E-05
   58.6250000         1.65939891E-05
   58.7500000         1.56157730E-05
   58.8750000         1.45040894E-05
   59.0000000         1.32861396E-05
   59.1250000         1.19919550E-05
   59.2500000         1.06540128E-05
   59.3750000         9.30677925E-06
   59.5000000         7.98606288E-06
   59.6250000         6.72838723E-06
   59.7500000         5.57020121E-06
   59.8750000         4.54707197E-06
   60.0000000         3.69281952E-06
   60.1250000         3.03868865E-06
   60.2500000         2.61248033E-06
   60.3750000         2.43777504E-06
   60.5000000         2.53316239E-06
   60.6250000         2.91161223E-06
   60.7500000         3.57994372E-06
   60.8750000         4.53844950E-06
   61.0000000         5.78066783E-06
   61.1250000         7.29334852E-06
   61.2500000         9.05659635E-06
   61.3750000         1.10442079E-05
   61.5000000         1.32242158E-05
   61.6250000         1.55595808E-05
   61.7500000         1.80090501E-05
   61.8750000         2.05281267E-05
   62.0000000         2.30702135E-05
   62.1250000         2.55877458E-05
   62.2500000         2.80334589E-05
   62.3750000         3.03616216E-05
   62.5000000         3.25292640E-05
   62.6250000         3.44973450E-05
   62.7500000         3.62318133E-05
   62.8750000         3.77045690E-05
   63.0000000         3.88941990E-05
   63.1250000         3.97865952E-05
   63.2500000         4.03753074E-05
   63.3750000         4.06616855E-05
   63.5000000         4.06548425E-05
   63.6250000         4.03713748E-05
   63.7500000         3.98347984E-05
   63.8750000         3.90749447E-05
   64.0000000         3.81269419E-05
   64.1250000         3.70302114E-05
   64.2500000         3.58272264E-05
   64.3750000         3.45622102E-05
   64.5000000         3.32797972E-05
   64.6250000         3.20235813E-05
   64.7500000         3.08348208E-05
   64.8750000         2.97510924E-05
   65.0000000         2.88051579E-05
   65.1250000         2.80238492E-05
   65.2500000         2.74272243E-05
   65.3750000         2.70278560E-05
   65.5000000         2.68303866E-05
   65.6250000         2.68312815E-05
   65.7500000         2.70188721E-05
   65.8750000         2.73736532E-05
   66.0000000         2.78687876E-05
   66.1250000         2.84709022E-05
   66.2500000         2.91410925E-05
   66.3750000         2.98360810E-05
   66.5000000         3.05095582E-05
   66.6250000         3.11136027E-05
   66.7500000         3.16002079E-05
   66.8750000         3.19228457E-05
   67.0000000         3.20379404E-05
   67.1250000         3.19064020E-05
   67.2500000         3.14949430E-05
   67.3750000         3.07773225E-05
   67.5000000         2.97353672E-05
   67.6250000         2.83597947E-05
   67.7500000         2.66507504E-05
   67.8750000         2.46180880E-05
   68.0000000         2.22814069E-05
   68.1250000         1.96697802E-05
   68.2500000         1.68212209E-05
   68.3750000         1.37818834E-05
   68.5000000         1.06050838E-05
   68.6250000         7.35005506E-06
   68.7500000         4.08060532E-06
   68.8750000         8.63569255E-07
   69.0000000        -2.23283155E-06
   69.1250000        -5.14062367E-06
   69.2500000        -7.79380935E-06
   69.3750000        -1.01298774E-05
   69.5000000        -1.20913419E-05
   69.6250000        -1.36271292E-05
   69.7500000        -1.46937555E-05
   69.8750000        -1.52563098E-05
   70.0000000        -1.52892280E-05
   70.1250000        -1.47768269E-05
   70.2500000        -1.37135803E-05
   70.3750000        -1.21041676E-05
   70.5000000        -9.96323797E-06
   70.6250000        -7.31491991E-06
   70.7500000        -4.19211801E-06
   70.8750000        -6.35599349E-07
   71.0000000         3.30712351E-06
   71.1250000         7.58300348E-06
   71.2500000         1.21348030E-05
   71.3750000         1.69024697E-05
   71.5000000         2.18245677E-05
   71.6250000         2.68396379E-05
   71.7500000         3.18875973E-05
   71.8750000         3.69110494E-05
   72.0000000         4.18564450E-05
   72.1250000         4.66751226E-05
   72.2500000         5.13242121E-05
   72.3750000         5.57672938E-05
   72.5000000         5.99748855E-05
   72.6250000         6.39247301E-05
   72.7500000         6.76018826E-05
   72.8750000         7.09985688E-05
   73.0000000         7.41139665E-05
   73.1250000         7.69537219E-05
   73.2500000         7.95294400E-05
   73.3750000         8.18579138E-05
   73.5000000         8.39603745E-05
   73.6250000         8.58616331E-05
   73.7500000         8.75891419E-05
   73.8750000         8.91721065E-05
   74.0000000         9.06406131E-05
   74.1250000         9.20247840E-05
   74.2500000         9.33539704E-05
   74.3750000         9.46561559E-05
   74.5000000         9.59573008E-05
   74.6250000         9.72809867E-05
   74.7500000         9.86479572E-05
   74.8750000         1.00075973E-04
   75.0000000         1.01579608E-04
   75.1250000         1.03170321E-04
   75.2500000         1.04856503E-04
   75.3750000         1.06643645E-04
   75.5000000         1.08534652E-04
   75.6250000         1.10530076E-04
   75.7500000         1.12628542E-04
   75.8750000         1.14827017E-04
   76.0000000         1.17121250E-04
   76.1250000         1.19506039E-04
   76.2500000         1.21975485E-04
   76.3750000         1.24523300E-04
   76.5000000         1.27142921E-04
   76.6250000         1.29827677E-04
   76.7500000         1.32570713E-04
   76.8750000         1.35365073E-04
   77.0000000         1.38203468E-04
   77.1250000         1.41078126E-04
   77.2500000         1.43980520E-04
   77.3750000         1.46901060E-04
   77.5000000         1.49828702E-04
   77.6250000         1.52750668E-04
   77.7500000         1.55651971E-04
   77.8750000         1.58515162E-04
   78.0000000         1.61319957E-04
   78.1250000         1.64042984E-04
   78.2500000         1.66657672E-04
   78.3750000         1.69134073E-04
   78.5000000         1.71438980E-04
   78.6250000         1.73535911E-04
   78.7500000         1.75385445E-04
   78.8750000         1.76945512E-04
   79.0000000         1.78171947E-04
   79.1250000         1.79019131E-04
   79.2500000         1.79440598E-04
   79.3750000         1.79389928E-04
   79.5000000         1.78821530E-04
   79.6250000         1.77691603E-04
   79.7500000         1.75959052E-04
   79.8750000         1.73586377E-04
   80.0000000         1.70540661E-04
   80.1250000         1.66794372E-04
   80.2500000         1.62326163E-04
   80.3750000         1.57121511E-04
   80.5000000         1.51173313E-04
   80.6250000         1.44482226E-04
   80.7500000         1.37056952E-04
   80.8750000         1.28914311E-04
   81.0000000         1.20079167E-04
   81.1250000         1.10584195E-04
   81.2500000         1.00469530E-04
   81.3750000         8.97822174E-05
   81.5000000         7.85755547E-05
   81.6250000         6.69083383E-05
   81.7500000         5.48440185E-05
   81.8750000         4.24497339E-05
   82.0000000         2.97953684E-05
   82.1250000         1.69525592E-05
   82.2500000         3.99370310E-06
   82.3750000        -9.00898158E-06
   82.5000000        -2.19844205E-05
   82.6250000        -3.48634858E-05
   82.7500000        -4.75798261E-05
   82.8750000        -6.00705498E-05
   83.0000000        -7.22768600E-05
   83.1250000        -8.41445653E-05
   83.2500000        -9.56245203E-05
   83.3750000        -1.06672931E-04
   83.5000000        -1.17251562E-04
   83.6250000        -1.27327876E-04
   83.7500000        -1.36875096E-04
   83.8750000        -1.45872124E-04
   84.0000000        -1.54303430E-04
   84.1250000        -1.62158889E-04
   84.2500000        -1.69433508E-04
   84.3750000        -1.76127156E-04
   84.5000000        -1.82244257E-04
   84.6250000        -1.87793325E-04
   84.7500000        -1.92786654E-04
   84.8750000        -1.97239860E-04
   85.0000000        -2.01171468E-04
   85.1250000        -2.04602416E-04
   85.2500000        -2.07555699E-04
   85.3750000        -2.10055878E-04
   85.5000000        -2.12128725E-04
   85.6250000        -2.13800871E-04
   85.7500000        -2.15099382E-04
   85.8750000        -2.16051543E-04
   86.0000000        -2.16684450E-04
   86.1250000        -2.17024834E-04
   86.2500000        -2.17098859E-04
   86.3750000        -2.16931992E-04
   86.5000000        -2.16548870E-04
   86.6250000        -2.15973239E-04
   86.7500000        -2.15228021E-04
   86.8750000        -2.14335218E-04
   87.0000000        -2.13316060E-04
   87.1250000        -2.12191007E-04
   87.2500000        -2.10979939E-04
   87.3750000        -2.09702222E-04
   87.5000000        -2.08376834E-04
   87.6250000        -2.07022560E-04
   87.7500000        -2.05658012E-04
   87.8750000        -2.04301847E-04
   88.0000000        -2.02972689E-04
   88.1250000        -2.01689225E-04
   88.2500000        -2.00470153E-04
   88.3750000        -1.99334143E-04
   88.5000000        -1.98299545E-04
   88.6250000        -1.97384346E-04
   88.7500000        -1.96605746E-04
   88.8750000        -1.95979854E-04
   89.0000000        -1.95521323E-04
   89.1250000        -1.95242770E-04
   89.2500000        -1.95154382E-04
   89.3750000        -1.95263303E-04
   89.5000000        -1.95573171E-04
   89.6250000        -1.96083536E-04
   89.7500000        -1.96789464E-04
   89.8750000        -1.97681045E-04
   90.0000000        -1.98743190E-04
   90.1250000        -1.99955379E-04
   90.2500000        -2.01291623E-04
   90.3750000        -2.02720505E-04
   90.5000000        -2.04205571E-04
   90.6250000        -2.05705655E-04
   90.7500000        -2.07175603E-04
   90.8750000        -2.08567086E-04
   91.0000000        -2.09829552E-04
   91.1250000        -2.10911458E-04
   91.2500000        -2.11761391E-04
   91.3750000        -2.12329469E-04
   91.5000000        -2.12568717E-04
   91.6250000        -2.12436382E-04
   91.7500000        -2.11895313E-04
   91.8750000        -2.10915154E-04
   92.0000000        -2.09473408E-04
   92.1250000        -2.07556412E-04
   92.2500000        -2.05159842E-04
   92.3750000        -2.02289259E-04
   92.5000000        -1.98960086E-04
   92.6250000        -1.95197441E-04
   92.7500000        -1.91035651E-04
   92.8750000        -1.86517442E-04
   93.0000000        -1.81692812E-04
   93.1250000        -1.76617817E-04
   93.2500000        -1.71352978E-04
   93.3750000        -1.65961625E-04
   93.5000000        -1.60508120E-04
   93.6250000        -1.55055983E-04
   93.7500000        -1.49666128E-04
   93.8750000        -1.44395046E-04
   94.0000000        -1.39293261E-04
   94.1250000        -1.34403963E-04
   94.2500000        -1.29761815E-04
   94.3750000        -1.25392093E-04
   94.5000000        -1.21310128E-04
   94.6250000        -1.17521085E-04
   94.7500000        -1.14020062E-04
   94.8750000        -1.10792476E-04
   95.0000000        -1.07814907E-04
   95.1250000        -1.05056031E-04
   95.2500000        -1.02477934E-04
   95.3750000        -1.00037636E-04
   95.5000000        -9.76887022E-05
   95.6250000        -9.53830095E-05
   95.7500000        -9.30725218E-05
   95.8750000        -9.07110007E-05
   96.0000000        -8.82556706E-05
   96.1250000        -8.56687038E-05
   96.2500000        -8.29185228E-05
   96.3750000        -7.99808913E-05
   96.5000000        -7.68397076E-05
   96.6250000        -7.34874993E-05