  -4.50000000         0.00000000    
  -4.37320757         0.00000000    
  -4.24641466         0.00000000    
  -4.11962223         0.00000000    
  -3.99282932         0.00000000    
  -3.86603665         0.00000000    
  -3.73924398         0.00000000    
  -3.61245155        -3.95783729E-31
  -3.48565888         2.09148657E-31
  -3.35886621        -1.00615687E-30
  -3.23207355        -1.08530004E-28
  -3.10528088        -9.83260807E-28
  -2.97848821        -5.19168968E-27
  -2.85169554        -1.95322068E-26
  -2.72490287        -5.53062430E-26
  -2.59811020        -1.16216357E-25
  -2.47131753        -1.55078024E-25
  -2.34452486         1.52553435E-26
  -2.21773219         8.30196921E-25
  -2.09093952         2.98077996E-24
  -1.96414697         7.09006172E-24
  -1.83735430         1.28341508E-23
  -1.71056163         1.76142685E-23
  -1.58376896         1.56808682E-23
  -1.45697629        -3.53760014E-25
  -1.33018374        -3.32647087E-23
  -1.20339108        -6.95187964E-23
  -1.07659841        -6.63468688E-23
 -0.949805737         5.05425612E-23
 -0.823013067         3.60271942E-22
 -0.696220458         8.75131542E-22
 -0.569427788         1.42761993E-21
 -0.442635119         1.55989280E-21
 -0.315842479         5.09241900E-22
 -0.189049825        -2.58560968E-21
  -6.22571707E-02    -8.16180241E-21
   6.45354837E-02    -1.54227066E-20
  0.191328138        -2.14914222E-20
  0.318120778        -2.10297100E-20
  0.444913447        -6.97501068E-21
  0.571706116         2.70719429E-20
  0.698498726         8.27937160E-20
  0.825291395         1.52319520E-19
  0.952084064         2.14527586E-19
   1.07887673         2.35128028E-19
   1.20566940         1.73000676E-19
   1.33246195        -6.22752375E-21
   1.45925462        -3.11203002E-19
   1.58604729        -7.05822463E-19
   1.71283996        -1.09844178E-18
   1.83963263        -1.34824526E-18
   1.96642530        -1.29467869E-18
   2.09321785        -8.08776516E-19
   2.22001052         1.44595772E-19
   2.34680319         1.45392823E-18
   2.47359586         2.84260411E-18
   2.60038853         3.90534963E-18
   2.72718120         4.20505040E-18
   2.85397387         3.41176537E-18
   2.98076653         1.44063585E-18
   3.10755920        -1.47051465E-18
   3.23435187        -4.79879733E-18
   3.36114454        -7.91289080E-18
   3.48793697        -1.03572409E-17
   3.61472964        -1.21473591E-17
   3.74152231        -1.39298721E-17
   3.86831498        -1.68545958E-17
   3.99510765        -2.20647186E-17
   4.12190056        -2.98382874E-17
   4.24869299        -3.85853484E-17
   4.37548542        -4.40693607E-17
   4.50227833        -3.93097370E-17
   4.62907076        -1.55701646E-17
   4.75586367         3.53909821E-17
   4.88265610         1.18019602E-16
   5.00944901         2.29291078E-16
   5.13624144         3.55748226E-16
   5.26303434         4.72532788E-16
   5.38982677         5.45535487E-16
   5.51661968         5.37229641E-16
   5.64341211         4.15840449E-16
   5.77020502         1.66420626E-16
   5.89699745        -1.98570543E-16
   6.02379036        -6.32154347E-16
   6.15058279        -1.05205770E-15
   6.27737522        -1.34828396E-15
   6.40416813        -1.39948382E-15
   6.53096056        -1.09662148E-15
   6.65775347        -3.70477547E-16
   6.78454590         7.81954082E-16
   6.91133881         2.27774740E-15
   7.03813124         3.94014740E-15
   7.16492414         5.50617410E-15
   7.29171658         6.65115258E-15
   7.41850948         7.02893859E-15
   7.54530191         6.32403650E-15
   7.67209482         4.30965324E-15
   7.79888725         9.04329432E-16
   7.92567968        -3.78083278E-15
   8.05247211        -9.41210051E-15
   8.17926502        -1.54270568E-14
   8.30605793        -2.10578117E-14
   8.43285084        -2.53865244E-14
   8.55964279        -2.74333677E-14
   8.68643570        -2.62735102E-14
   8.81322861        -2.11755628E-14
   8.94002151        -1.17493897E-14
   9.06681347         1.91306563E-15
   9.19360638         1.91238135E-14
   9.32039928         3.85334532E-14
   9.44719219         5.81356998E-14
   9.57398415         7.53596133E-14
   9.70077705         8.72607718E-14
   9.82756996         9.08126384E-14
   9.95436192         8.32873335E-14
   10.0811548         6.27003603E-14
   10.2079477         2.82800432E-14
   10.3347406        -1.90912553E-14
   10.4615326        -7.65266417E-14
   10.5883255        -1.38942446E-13
   10.7151184        -1.99089484E-13
   10.8419113        -2.47862657E-13
   10.9687033        -2.74924696E-13
   11.0954962        -2.69650567E-13
   11.2222891        -2.22364851E-13
   11.3490820        -1.25803014E-13
   11.4758739         2.33125354E-14
   11.6026669         2.22728777E-13
   11.7294598         4.63327510E-13
   11.8562517         7.28192897E-13
   11.9830446         9.92275056E-13
   12.1098375         1.22282544E-12
   12.2366304         1.38074263E-12
   12.3634224         1.42290910E-12
   12.4902153         1.30552513E-12
   12.6170082         9.88358917E-13
   12.7438011         4.39725296E-13
   12.8705931        -3.58088179E-13
   12.9973860        -1.40333925E-12
   13.1241789        -2.66977217E-12
   13.2509708        -4.10252735E-12
   13.3777637        -5.61560781E-12
   13.5045567        -7.09148495E-12
   13.6313496        -8.38336345E-12
   13.7581415        -9.32053480E-12
   13.8849344        -9.71704661E-12
   14.0117273        -9.38371082E-12
   14.1385202        -8.14317017E-12
   14.2653122        -5.84743625E-12
   14.3921051        -2.39697650E-12
   14.5188980         2.23992005E-12
   14.6456909         8.00902053E-12
   14.7724829         1.47550236E-11
   14.8992758         2.22112728E-11
   15.0260687         2.99961514E-11
   15.1528606         3.76177076E-11
   15.2796535         4.44878301E-11
   15.4064465         4.99465573E-11
   15.5332394         5.32965720E-11
   15.6600313         5.38470137E-11
   15.7868242         5.09648261E-11
   15.9136171         4.41310634E-11
   16.0404091         3.29986212E-11
   16.1672020         1.74473838E-11
   16.2939949        -2.36790904E-12
   16.4207878        -2.59815607E-11
   16.5475807        -5.25971558E-11
   16.6743736        -8.10879003E-11
   16.8011646        -1.10019910E-10
   16.9279575        -1.37700046E-10
   17.0547504        -1.62248159E-10
   17.1815434        -1.81692050E-10
   17.3083363        -1.94081362E-10
   17.4351292        -1.97615160E-10
   17.5619221        -1.90776034E-10
   17.6887150        -1.72462655E-10
   17.8155060        -1.42111600E-10
   17.9422989        -9.97992036E-11
   18.0690918        -4.63145911E-11
   18.1958847         1.68044190E-11
   18.3226776         8.72784553E-11
   18.4494705         1.62141245E-10
   18.5762634         2.37842940E-10
   18.7030544         3.10400622E-10
   18.8298473         3.75590919E-10
   18.9566402         4.29176306E-10
   19.0834332         4.67154260E-10
   19.2102261         4.86015561E-10
   19.3370190         4.82995366E-10
   19.4638119         4.56301774E-10
   19.5906048         4.05304623E-10
   19.7173958         3.30669409E-10
   19.8441887         2.34424202E-10
   19.9709816         1.19948898E-10
   20.0977745        -8.11765846E-12
   20.2245674        -1.44053852E-10
   20.3513603        -2.81309809E-10
   20.4781532        -4.12830520E-10
   20.6049442        -5.31432509E-10
   20.7317371        -6.30214714E-10
   20.8585300        -7.02981007E-10
   20.9853230        -7.44648343E-10
   21.1121159        -7.51614937E-10
   21.2389088        -7.22061799E-10
   21.3657017        -6.56166177E-10
   21.4924946        -5.56204027E-10
   21.6192856        -4.26531310E-10
   21.7460785        -2.73435052E-10
   21.8728714        -1.04853744E-10
   21.9996643         7.00209543E-11
   22.1264572         2.41246523E-10
   22.2532501         3.98708760E-10
   22.3800430         5.32746403E-10
   22.5068340         6.34782726E-10
   22.6336269         6.97924718E-10
   22.7604198         7.17487014E-10
   22.8872128         6.91403712E-10
   23.0140057         6.20488272E-10
   23.1407986         5.08521225E-10
   23.2675915         3.62142843E-10
   23.3943844         1.90548327E-10
   23.5211754         4.98960812E-12
   23.6479683        -1.81891086E-10
   23.7747612        -3.56864122E-10
   23.9015541        -5.07005826E-10
   24.0283470        -6.20624607E-10
   24.1551399        -6.88158586E-10
   24.2819328        -7.02978953E-10
   24.4087238        -6.62033539E-10
   24.5355167        -5.66276193E-10
   24.6623096        -4.20826568E-10
   24.7891026        -2.34840203E-10
   24.9158955        -2.10573364E-11
   25.0426884         2.04944367E-10
   25.1694813         4.25780494E-10
   25.2962742         6.23516239E-10
   25.4230652         7.81069709E-10
   25.5498581         8.83688622E-10
   25.6766510         9.20383603E-10
   25.8034439         8.85215290E-10
   25.9302368         7.78325793E-10
   26.0570297         6.06609596E-10
   26.1838226         3.83937437E-10
   26.3106136         1.30868399E-10
   26.4374065        -1.26183883E-10
   26.5641994        -3.56336266E-10
   26.6909924        -5.26141297E-10
   26.8177853        -6.01937611E-10
   26.9445782        -5.52515811E-10
   27.0713711        -3.51991103E-10
   27.1981640         1.73080560E-11
   27.3249550         5.62151714E-10
   27.4517479         1.27607558E-09
   27.5785408         2.13764517E-09
   27.7053337         3.10949266E-09
   27.8321266         4.13826884E-09
   27.9589195         5.15565235E-09
   28.0857124         6.08048367E-09
   28.2125034         6.82201229E-09
   28.3392963         7.28422167E-09
   28.4660892         7.37108241E-09
   28.5928822         6.99253899E-09
   28.7196751         6.07096595E-09
   28.8464680         4.54778082E-09
   28.9732609         2.38981213E-09
   29.1000538        -4.04956901E-10
   29.2268448        -3.80262577E-09
   29.3536377        -7.73008413E-09
   29.4804306        -1.20733867E-08
   29.6072235        -1.66782694E-08
   29.7340164        -2.13528164E-08
   29.8608093        -2.58725077E-08
   29.9876022        -2.99875644E-08
   30.1143932        -3.34324781E-08
   30.2411861        -3.59374184E-08
   30.3679790        -3.72411577E-08
   30.4947720        -3.71049396E-08
   30.6215649        -3.53267566E-08
   30.7483578        -3.17553059E-08
   30.8751507        -2.63029207E-08
   31.0019417        -1.89567508E-08
   31.1287346        -9.78748371E-09
   31.2555275         1.04498998E-09
   31.3823204         1.32895552E-08
   31.5091133         2.66057860E-08
   31.6359062         4.05701535E-08
   31.7626991         5.46864669E-08
   31.8894920         6.84004249E-08
   32.0162849         8.11178822E-08
   32.1430779         9.22263936E-08
   32.2698708         1.01119127E-07
   32.3966637         1.07220394E-07
   32.5234528         1.10011698E-07
   32.6502457         1.09057218E-07
   32.7770386         1.04027620E-07
   32.9038315         9.47210808E-08
   33.0306244         8.10804366E-08
   33.1574173         6.32055333E-08
   33.2842102         4.13601349E-08
   33.4110031         1.59726081E-08
   33.5377960        -1.23696982E-08
   33.6645889        -4.29325446E-08
   33.7913818        -7.48531903E-08
   33.9181747        -1.07164404E-07
   34.0449677        -1.38823594E-07
   34.1717606        -1.68745842E-07
   34.2985535        -1.95839831E-07
   34.4253426        -2.19045290E-07
   34.5521355        -2.37370429E-07
   34.6789284        -2.49928235E-07
   34.8057213        -2.55969979E-07
   34.9325142        -2.54914511E-07
   35.0593071        -2.46372679E-07
   35.1861000        -2.30165384E-07
   35.3128929        -2.06335002E-07
   35.4396858        -1.75149410E-07
   35.5664787        -1.37098851E-07
   35.6932716        -9.28855002E-08
   35.8200645        -4.34062741E-08
   35.9468575         1.02701918E-08
   36.0736504         6.69318254E-08
   36.2004433         1.25255255E-07
   36.3272324         1.83840754E-07
   36.4540253         2.41248671E-07
   36.5808182         2.96036063E-07
   36.7076111         3.46792348E-07
   36.8344040         3.92172950E-07
   36.9611969         4.30930186E-07
   37.0879898         4.61939862E-07
   37.2147827         4.84224643E-07
   37.3415756         4.96972177E-07
   37.4683685         4.99549515E-07
   37.5951614         4.91512537E-07
   37.7219543         4.72612328E-07
   37.8487473         4.42797159E-07
   37.9755402         4.02212237E-07
   38.1023293         3.51197059E-07
   38.2291222         2.90280667E-07
   38.3559151         2.20175892E-07
   38.4827080         1.41772915E-07
   38.6095009         5.61315936E-08
   38.7362938        -3.55261314E-08
   38.8630867        -1.31824947E-07
   38.9898796        -2.31245593E-07
   39.1166725        -3.32135841E-07
   39.2434654        -4.32723112E-07
   39.3702583        -5.31129956E-07
   39.4970512        -6.25392317E-07
   39.6238441        -7.13481541E-07
   39.7506371        -7.93330571E-07
   39.8774300        -8.62864169E-07
   40.0042191        -9.20033926E-07
   40.1310120        -9.62856348E-07
   40.2578049        -9.89455316E-07
   40.3845978        -9.98106430E-07
   40.5113907        -9.87282533E-07
   40.6381836        -9.55698852E-07
   40.7649765        -9.02355964E-07
   40.8917694        -8.26579139E-07
   41.0185623        -7.28050509E-07
   41.1453552        -6.06834362E-07
   41.2721481        -4.63391729E-07
   41.3989410        -2.98583672E-07
   41.5257339        -1.13661741E-07
   41.6525269         8.97546002E-08
   41.7793198         3.09714892E-07
   41.9061089         5.43987426E-07
   42.0329018         7.90121646E-07
   42.1596947         1.04552078E-06
   42.2864876         1.30752358E-06
   42.4132805         1.57349109E-06
   42.5400734         1.84089640E-06
   42.6668663         2.10741291E-06
   42.7936592         2.37099812E-06
   42.9204521         2.62996946E-06
   43.0472450         2.88306728E-06
   43.1740379         3.12950351E-06
   43.3008308         3.36899325E-06
   43.4276237         3.60176409E-06
   43.5544167         3.82854887E-06
   43.6812096         4.05055425E-06
   43.8079987         4.26940733E-06
   43.9347916         4.48708624E-06
   44.0615845         4.70583154E-06
   44.1883774         4.92804429E-06
   44.3151703         5.15617194E-06
   44.4419632         5.39259099E-06
   44.5687561         5.63948470E-06
   44.6955490         5.89872707E-06
   44.8223419         6.17177193E-06
   44.9491348         6.45955606E-06
   45.0759277         6.76242234E-06
   45.2027206         7.08005564E-06
   45.3295135         7.41144959E-06
   45.4563065         7.75489661E-06
   45.5830994         8.10799975E-06
   45.7098885         8.46771854E-06
   45.8366814         8.83043049E-06
   45.9634743         9.19202557E-06
   46.0902672         9.54800998E-06
   46.2170601         9.89363798E-06
   46.3438530         1.02240474E-05
   46.4706459         1.05344016E-05
   46.5974388         1.08200338E-05
   46.7242317         1.10765932E-05
   46.8510246         1.13001743E-05
   46.9778175         1.14874356E-05
   47.1046104         1.16357060E-05
   47.2314034         1.17430582E-05
   47.3581963         1.18083653E-05
   47.4849892         1.18313437E-05
   47.6117783         1.18125436E-05
   47.7385712         1.17533427E-05
   47.8653641         1.16559013E-05
   47.9921570         1.15230905E-05
   48.1189499         1.13584156E-05
   48.2457428         1.11659201E-05
   48.3725357         1.09500716E-05
   48.4993286         1.07156566E-05
   48.6261215         1.04676528E-05
   48.7529144         1.02111262E-05
   48.8797073         9.95110713E-06
   49.0065002         9.69249959E-06
   49.1332932         9.43999021E-06
   49.2600861         9.19795821E-06
   49.3868790         8.97043719E-06
   49.5136681         8.76105332E-06
   49.6404610         8.57299528E-06
   49.7672539         8.40900157E-06
   49.8940468         8.27135864E-06
   50.0208397         8.16188913E-06
   50.1476326         8.08198820E-06
   50.2744255         8.03262810E-06
   50.4012184         8.01438364E-06
   50.5280113         8.02746308E-06
   50.6548042         8.07172364E-06
   50.7815971         8.14669420E-06
   50.9083900         8.25157804E-06
   51.0351830         8.38527922E-06
   51.1619759         8.54638711E-06
   51.2887688         8.73318095E-06
   51.4155579         8.94361165E-06
   51.5423508         9.17530269E-06
   51.6691437         9.42553106E-06
   51.7959366         9.69120356E-06
   51.9227295         9.96886774E-06
   52.0495224         1.02546992E-05
   52.1763153         1.05445033E-05
   52.3031082         1.08337490E-05
   52.4299011         1.11175950E-05
   52.5566940         1.13909346E-05
   52.6834869         1.16484762E-05
   52.8102798         1.18848038E-05
   52.9370728         1.20944915E-05
   53.0638657         1.22721995E-05
   53.1906586         1.24128128E-05
   53.3174477         1.25115503E-05
   53.4442406         1.25641163E-05
   53.5710335         1.25668275E-05
   53.6978264         1.25167380E-05
   53.8246193         1.24117796E-05
   53.9514122         1.22508536E-05
   54.0782051         1.20339209E-05
   54.2049980         1.17620775E-05
   54.3317909         1.14375907E-05
   54.4585838         1.10639076E-05
   54.5853767         1.06456564E-05
   54.7121696         1.01885735E-05
   54.8389626         9.69943812E-06
   54.9657555         9.18596379E-06
   55.0925484         8.65665788E-06
   55.2193375         8.12066446E-06
   55.3461304         7.58758733E-06
   55.4729233         7.06729816E-06
   55.5997162         6.56972861E-06
   55.7265091         6.10466577E-06
   55.8533020         5.68154701E-06
   55.9800949         5.30925536E-06
   56.1068878         4.99595308E-06
   56.2336807         4.74889248E-06
   56.3604736         4.57427723E-06
   56.4872665         4.47714046E-06
   56.6140594         4.46125205E-06
   56.7408524         4.52903441E-06
   56.8676453         4.68154303E-06
   56.9944382         4.91843912E-06
   57.1212273         5.23802191E-06
   57.2480202         5.63725098E-06
   57.3748131         6.11182895E-06
   57.5016060         6.65627431E-06
   57.6283989         7.26404232E-06
   57.7551918         7.92761784E-06
   57.8819847         8.63865080E-06
   58.0087776         9.38809535E-06
   58.1355705         1.01663436E-05
   58.2623634         1.09633602E-05
   58.3891563         1.17688296E-05
   58.5159492         1.25722936E-05
   58.6427422         1.33632811E-05
   58.7695351         1.41314395E-05
   58.8963280         1.48666722E-05
   59.0231171         1.55592534E-05
   59.1499100         1.61999433E-05
   59.2767029         1.67801099E-05
   59.4034958         1.72918371E-05
   59.5302887         1.77280308E-05
   59.6570816         1.80825082E-05
   59.7838745         1.83501052E-05
   59.9106674         1.85267400E-05
   60.0374603         1.86095040E-05
   60.1642532         1.85967183E-05
   60.2910461         1.84879682E-05
   60.4178391         1.82841577E-05
   60.5446320         1.79875060E-05
   60.6714249         1.76015492E-05
   60.7982178         1.71311094E-05
   60.9250069         1.65822348E-05
   61.0517998         1.59621413E-05
   61.1785927         1.52790981E-05
   61.3053856         1.45423001E-05
   61.4321785         1.37617471E-05
   61.5589714         1.29480431E-05
   61.6857643         1.21122457E-05
   61.8125572         1.12656599E-05
   61.9393501         1.04196370E-05
   62.0661430         9.58538476E-06
   62.1929359         8.77375533E-06
   62.3197289         7.99507052E-06
   62.4465218         7.25893005E-06
   62.5733147         6.57407509E-06
   62.7001076         5.94823996E-06
   62.8268967         5.38804670E-06
   62.9536896         4.89892136E-06
   63.0804825         4.48505762E-06
   63.2072754         4.14937949E-06
   63.3340683         3.89357501E-06
   63.4608612         3.71810188E-06
   63.5876541         3.62229389E-06
   63.7144470         3.60440572E-06
   63.8412399         3.66176255E-06
   63.9680328         3.79085168E-06
   64.0948257         3.98747079E-06
   64.2216187         4.24686004E-06
   64.3484116         4.56383259E-06
   64.4752045         4.93290281E-06
   64.6019974         5.34841774E-06
   64.7287903         5.80464575E-06
   64.8555832         6.29587657E-06
   64.9823761         6.81649226E-06
   65.1091690         7.36101856E-06
   65.2359619         7.92415085E-06
   65.3627548         8.50077868E-06
   65.4895477         9.08598304E-06
   65.6163330         9.67502456E-06
   65.7431259         1.02633239E-05
   65.8699188         1.08464583E-05
   65.9967117         1.14201121E-05
   66.1235046         1.19800934E-05
   66.2502975         1.25223232E-05
   66.3770905         1.30428389E-05
   66.5038834         1.35378277E-05
   66.6306763         1.40036873E-05
   66.7574692         1.44370679E-05
   66.8842621         1.48349545E-05
   67.0110550         1.51947779E-05
   67.1378479         1.55144735E-05
   67.2646408         1.57926261E-05
   67.3914337         1.60285254E-05
   67.5182266         1.62222841E-05
   67.6450195         1.63748864E-05
   67.7718124         1.64882422E-05
   67.8986053         1.65652236E-05
   68.0253983         1.66096288E-05
   68.1521912         1.66261470E-05
   68.2789841         1.66202535E-05
   68.4057770         1.65981091E-05
   68.5325699         1.65663914E-05
   68.6593628         1.65321126E-05
   68.7861557         1.65024048E-05
   68.9129486         1.64842968E-05
   69.0397415         1.64844914E-05
   69.1665344         1.65091024E-05
   69.2933273         1.65634719E-05
   69.4201126         1.66519421E-05
   69.5469055         1.67777071E-05
   69.6736984         1.69426985E-05
   69.8004913         1.71474530E-05
   69.9272842         1.73911267E-05
   70.0540771         1.76715021E-05
   70.1808701         1.79850358E-05
   70.3076630         1.83270331E-05
   70.4344559         1.86917623E-05
   70.5612488         1.90727060E-05
   70.6880417         1.94627955E-05
   70.8148346         1.98546786E-05
   70.9416275         2.02409865E-05
   71.0684204         2.06146324E-05
   71.1952133         2.09690625E-05
   71.3220062         2.12985142E-05
   71.4487991         2.15982036E-05
   71.5755920         2.18645109E-05
   71.7023849         2.20950442E-05
   71.8291779         2.22887284E-05
   71.9559708         2.24457635E-05
   72.0827637         2.25675558E-05
   72.2095566         2.26565608E-05
   72.3363495         2.27160963E-05
   72.4631424         2.27501132E-05
   72.5899353         2.27628898E-05
   72.7167282         2.27587534E-05
   72.8435211         2.27417604E-05
   72.9703140         2.27154014E-05
   73.0971069         2.26822995E-05
   73.2238922         2.26439861E-05
   73.3506851         2.26006850E-05
   73.4774780         2.25511867E-05
   73.6042709         2.24927662E-05
   73.7310638         2.24211999E-05
   73.8578568         2.23308416E-05
   73.9846497         2.22147792E-05
   74.1114426         2.20650782E-05
   74.2382355         2.18731093E-05
   74.3650284         2.16298686E-05
   74.4918213         2.13263756E-05
   74.6186142         2.09541522E-05
   74.7454071         2.05055967E-05
   74.8722000         1.99744718E-05
   74.9989929         1.93562610E-05
   75.1257858         1.86485104E-05
   75.2525787         1.78511709E-05
   75.3793716         1.69667437E-05
   75.5061646         1.60004656E-05
   75.6329575         1.49603020E-05
   75.7597504         1.38569039E-05
   75.8865433         1.27034291E-05
   76.0133362         1.15152670E-05
   76.1401291         1.03097082E-05
   76.2669220         9.10547442E-06
   76.3937149         7.92225273E-06
   76.5205078         6.78014385E-06
   76.6473007         5.69908389E-06
   76.7740936         4.69824954E-06
   76.9008865         3.79548464E-06
   77.0276718         3.00674401E-06
   77.1544647         2.34563549E-06
   77.2812576         1.82293945E-06
   77.4080505         1.44628086E-06
   77.5348434         1.21989126E-06
   77.6616364         1.14442332E-06
   77.7884293         1.21698235E-06
   77.9152222         1.43113175E-06
   78.0420151         1.77715276E-06
   78.1688080         2.24232713E-06
   78.2956009         2.81137090E-06
   78.4223938         3.46690626E-06
   78.5491867         4.19007665E-06
   78.6759796         4.96115854E-06
   78.8027725         5.76025013E-06
   78.9295654         6.56793418E-06
   79.0563583         7.36598986E-06
   79.1831512         8.13802126E-06
   79.3099442         8.87002534E-06
   79.4367371         9.55094038E-06
   79.5635300         1.01730166E-05
   79.6903229         1.07321457E-05
   79.8171158         1.12280150E-05
   79.9439087         1.16641468E-05
   80.0707016         1.20478135E-05
   80.1974945         1.23897553E-05
   80.3242874         1.27038566E-05
   80.4510803         1.30066310E-05
   80.5778732         1.33166204E-05
   80.7046585         1.36537337E-05
   80.8314514         1.40384818E-05
   80.9582443         1.44911965E-05
   81.0850372         1.50312662E-05
   81.2118301         1.56763344E-05
   81.3386230         1.64415796E-05
   81.4654160         1.73390599E-05
   81.5922089         1.83771499E-05
   81.7190018         1.95600933E-05
   81.8457947         2.08877118E-05
   81.9725876         2.23552197E-05
   82.0993805         2.39532237E-05
   82.2261734         2.56678541E-05
   82.3529663         2.74810718E-05
   82.4797592         2.93710891E-05
   82.6065521         3.13129349E-05
   82.7333450         3.32791169E-05
   82.8601379         3.52403549E-05
   82.9869308         3.71664064E-05
   83.1137238         3.90268760E-05
   83.2405167         4.07920816E-05
   83.3673096         4.24338468E-05
   83.4941025         4.39262876E-05
   83.6208954         4.52464992E-05
   83.7476883         4.63751749E-05
   83.8744812         4.72970896E-05
   84.0012741         4.80015005E-05
   84.1280670         4.84824013E-05
   84.2548599         4.87386205E-05
   84.3816528         4.87738253E-05
   84.5084381         4.85963865E-05
   84.6352310         4.82191062E-05
   84.7620239         4.76588430E-05
   84.8888168         4.69360457E-05
   85.0156097         4.60741794E-05
   85.1424026         4.50991029E-05
   85.2691956         4.40384065E-05
   85.3959885         4.29206921E-05
   85.5227814         4.17748670E-05
   85.6495743         4.06294421E-05
   85.7763672         3.95118659E-05
   85.9031601         3.84478844E-05
   86.0299530         3.74609917E-05
   86.1567459         3.65719461E-05
   86.2835388         3.57983554E-05
   86.4103317         3.51543968E-05
   86.5371246         3.46505985E-05
   86.6639175         3.42937674E-05
   86.7907104         3.40869810E-05
   86.9175034         3.40297192E-05
   87.0442963         3.41180603E-05
   87.1710892         3.43449719E-05
   87.2978821         3.47006862E-05
   87.4246750         3.51730960E-05
   87.5514679         3.57482386E-05
   87.6782608         3.64107800E-05
   87.8050537         3.71444803E-05
   87.9318466         3.79326921E-05
   88.0586395         3.87587825E-05
   88.1854324         3.96065479E-05
   88.3122177         4.04605380E-05
   88.4390106         4.13063426E-05
   88.5658035         4.21307668E-05
   88.6925964         4.29219799E-05
   88.8193893         4.36695191E-05
   88.9461823         4.43642821E-05
   89.0729752         4.49984254E-05
   89.1997681         4.55652153E-05
   89.3265610         4.60588271E-05
   89.4533539         4.64741061E-05
   89.5801468         4.68063627E-05
   89.7069397         4.70510968E-05
   89.8337326         4.72037973E-05
   89.9605255         4.72597276E-05
   90.0873184         4.72137981E-05
   90.2141113         4.70604318E-05
   90.3409042         4.67935570E-05
   90.4676971         4.64065706E-05
   90.5944901         4.58924696E-05
   90.7212830         4.52439381E-05
   90.8480759         4.44535617E-05
   90.9748688         4.35140537E-05
   91.1016617         4.24185018E-05
   91.2284546         4.11606707E-05
   91.3552475         3.97352705E-05
   91.4820404         3.81382633E-05
   91.6088333         3.63671206E-05
   91.7356262         3.44210202E-05
   91.8624191         3.23010754E-05
   91.9892120         3.00104148E-05
   92.1159973         2.75542716E-05
   92.2427902         2.49399636E-05
   92.3695831         2.21768314E-05
   92.4963760         1.92760981E-05
   92.6231689         1.62506622E-05
   92.7499619         1.31148545E-05
   92.8767548         9.88415104E-06
   93.0035477         6.57482769E-06
   93.1303406         3.20365598E-06
   93.2571335        -2.12449791E-07
   93.3839264        -3.65673259E-06
   93.5107193        -7.11287703E-06
   93.6375122        -1.05652434E-05
   93.7643051        -1.39990161E-05
   93.8910980        -1.74003271E-05
   94.0178909        -2.07562643E-05
   94.1446838        -2.40548470E-05
   94.2714767        -2.72849120E-05
   94.3982697        -3.04359110E-05
   94.5250626        -3.34977340E-05
   94.6518555        -3.64604166E-05
   94.7786484        -3.93138616E-05
   94.9054413        -4.20475881E-05
   95.0322342        -4.46504600E-05
   95.1590271        -4.71104649E-05
   95.2858200        -4.94145715E-05
   95.4126129        -5.15486572E-05
   95.5394058        -5.34975043E-05
   95.6661987        -5.52449492E-05
   95.7929916        -5.67740644E-05
   95.9197769        -5.80675114E-05
   96.0465698        -5.91079006E-05
   96.1733627        -5.98783663E-05
   96.3001556        -6.03630760E-05
   96.4269485        -6.05478599E-05
   96.5537415        -6.04208690E-05
   96.6805344        -5.99731684E-05
   96.8073273        -5.91993994E-05
   96.9341202        -5.80982523E-05
   97.0609131        -5.66729650E-05
   97.1877060        -5.49316537E-05
   97.3144989        -5.28875280E-05
   97.4412918        -5.05589778E-05
   97.5680847        -4.79695082E-05
   97.6948776        -4.51474953E-05
   97.8216705        -4.21258301E-05
   97.9484634        -3.89413908E-05
   98.0752563        -3.56343735E-05