 -4.5   3.449413258E-18
 -4.37320757   3.449436626E-18
 -4.24641466   3.449479846E-18
 -4.11962223   3.449538369E-18
 -3.99282932   3.449607439E-18
 -3.86603665   3.449680024E-18
 -3.73924398   3.449749507E-18
 -3.61245155   3.449809477E-18
 -3.48565888   3.449856627E-18
 -3.35886621   3.449888473E-18
 -3.23207355   3.449906464E-18
 -3.10528088   3.449912461E-18
 -2.97848821   3.449911014E-18
 -2.85169554   3.449907292E-18
 -2.72490287   3.449907705E-18
 -2.5981102   3.449917424E-18
 -2.47131753   3.449940792E-18
 -2.34452486   3.44998029E-18
 -2.21773219   3.450035711E-18
 -2.09093952   3.450105815E-18
 -1.96414697   3.450187085E-18
 -1.8373543   3.450274146E-18
 -1.71056163   3.450358105E-18
 -1.58376896   3.450426347E-18
 -1.45697629   3.450467913E-18
 -1.33018374   3.450475978E-18
 -1.20339108   3.45046295E-18
 -1.07659841   3.450472876E-18
 -0.949805737   3.450581857E-18
 -0.823013067   3.450874679E-18
 -0.696220458   3.451369126E-18
 -0.569427788   3.451903692E-18
 -0.442635119   3.452026528E-18
 -0.315842479   3.450978904E-18
 -0.189049825   3.447902619E-18
 -6.225717068E-2   3.442360509E-18
 6.453548372E-2   3.435147081E-18
 0.191328138   3.429135546E-18
 0.318120778   3.429659771E-18
 0.444913447   3.443777056E-18
 0.571706116   3.477882953E-18
 0.698498726   3.533657261E-18
 0.825291395   3.603226459E-18
 0.952084064   3.665468905E-18
 1.07887673   3.68609424E-18
 1.2056694   3.62398042E-18
 1.33246195   3.444751061E-18
 1.45925462   3.139757162E-18
 1.58604729   2.745099158E-18
 1.71283996   2.352421012E-18
 1.83963263   2.102545259E-18
 1.9664253   2.156042131E-18
 2.09321785   2.641904861E-18
 2.22001052   3.595301655E-18
 2.34680319   4.904756689E-18
 2.47359586   6.293678137E-18
 2.60038853   7.356796303E-18
 2.7271812   7.656971048E-18
 2.85397387   6.864201149E-18
 2.98076653   4.893545496E-18
 3.1075592   1.982735798E-18
 3.23435187   -1.345412678E-18
 3.36114454   -4.459615232E-18
 3.48793697   -6.904298729E-18
 3.61472964   -8.694902391E-18
 3.74152231   -1.047795968E-17
 3.86831498   -1.34032012E-17
 3.99510765   -1.861380213E-17
 4.12190056   -2.638786556E-17
 4.24869299   -3.513560494E-17
 4.37548542   -4.062067267E-17
 4.50227833   -3.586263383E-17
 4.62907076   -1.212523032E-17
 4.75586367   3.883334712E-17
 4.8826561   1.214593101E-16
 5.00944901   2.327284962E-16
 5.13624144   3.591841889E-16
 5.26303434   4.759681948E-16
 5.38982677   5.48970894E-16
 5.51661968   5.406647831E-16
 5.64341211   4.192734209E-16
 5.77020502   1.698477348E-16
 5.89699745   -1.951550279E-16
 6.02379036   -6.287574801E-16
 6.15058279   -1.048686928E-15
 6.27737522   -1.344944748E-15
 6.40416813   -1.396177218E-15
 6.53096056   -1.093341976E-15
 6.65775347   -3.672092173E-16
 6.7845459   7.852387174E-16
 6.91133881   2.281087891E-15
 7.03813124   3.943593126E-15
 7.16492414   5.509781186E-15
 7.29171658   6.654974813E-15
 7.41850948   7.03301917E-15
 7.54530191   6.328396601E-15
 7.67209482   4.314284813E-15
 7.79888725   9.091896014E-16
 7.92567968   -3.775818345E-15
 8.05247211   -9.407029328E-15
 8.17926502   -1.542203729E-14
 8.30605793   -2.1052948E-14
 8.43285084   -2.538190808E-14
 8.55964279   -2.742906983E-14
 8.6864357   -2.626959353E-14
 8.81322861   -2.117208657E-14
 8.94002151   -1.174641574E-14
 9.06681347   1.915458284E-15
 9.19360638   1.912552792E-14
 9.32039928   3.853439174E-14
 9.44719219   5.813578107E-14
 9.57398415   7.53588137E-14
 9.70077705   8.725911839E-14
 9.82756996   9.08102532E-14
 9.95436192   8.328437224E-14
 10.0811548   6.269699251E-14
 10.2079477   2.827634333E-14
 10.3347406   -1.909536846E-14
 10.4615326   -7.65315071E-14
 10.5883255   -1.389485993E-13
 10.7151184   -1.990976015E-13
 10.8419113   -2.478733093E-13
 10.9687033   -2.749382211E-13
 11.0954962   -2.696666675E-13
 11.2222891   -2.223821306E-13
 11.349082   -1.25818911E-13
 11.4758739   2.330183911E-14
 11.6026669   2.227283706E-13
 11.7294598   4.633433394E-13
 11.8562517   7.282311689E-13
 11.9830446   9.923413003E-13
 12.1098375   1.22292378E-12
 12.2366304   1.380874798E-12
 12.3634224   1.423073356E-12
 12.4902153   1.305716169E-12
 12.6170082   9.885668673E-13
 12.7438011   4.399366342E-13
 12.8705931   -3.578906377E-13
 12.997386   -1.403175536E-12
 13.1241789   -2.669662668E-12
 13.2509708   -4.102491784E-12
 13.3777637   -5.615663316E-12
 13.5045567   -7.091640643E-12
 13.6313496   -8.383621922E-12
 13.7581415   -9.320889546E-12
 13.8849344   -9.717484629E-12
 14.0117273   -9.384213025E-12
 14.1385202   -8.143712267E-12
 14.2653122   -5.847995699E-12
 14.3921051   -2.397532476E-12
 14.518898   2.239386411E-12
 14.6456909   8.008522664E-12
 14.7724829   1.475457083E-11
 14.8992758   2.22108807E-11
 15.0260687   2.999583915E-11
 15.1528606   3.761750286E-11
 15.2796535   4.448777458E-11
 15.4064465   4.994668915E-11
 15.5332394   5.329694672E-11
 15.6600313   5.384768673E-11
 15.7868242   5.096584266E-11
 15.9136171   4.413244076E-11
 16.0404091   3.300036633E-11
 16.167202   1.74494464E-11
 16.2939949   -2.36561183E-12
 16.4207878   -2.597916153E-11
 16.5475807   -5.259483474E-11
 16.6743736   -8.108588107E-11
 16.8011646   -1.100184527E-10
 16.9279575   -1.376993936E-10
 17.0547504   -1.622485896E-10
 17.1815434   -1.816937434E-10
 17.3083363   -1.94084443E-10
 17.4351292   -1.976196429E-10
 17.5619221   -1.907817931E-10
 17.688715   -1.724693721E-10
 17.815506   -1.421188445E-10
 17.9422989   -9.980642007E-11
 18.0690918   -4.632108933E-11
 18.1958847   1.679933102E-11
 18.3226776   8.727546463E-11
 18.4494705   1.621409534E-10
 18.5762634   2.378458541E-10
 18.7030544   3.104070612E-10
 18.8298473   3.75600856E-10
 18.9566402   4.291894617E-10
 19.0834332   4.671701914E-10
 19.2102261   4.860333802E-10
 19.337019   4.830140177E-10
 19.4638119   4.563200651E-10
 19.5906048   4.053210823E-10
 19.7173958   3.306827312E-10
 19.8441887   2.344331396E-10
 19.9709816   1.199524924E-10
 20.0977745   -8.120052374E-12
 20.2245674   -1.440624564E-10
 20.3513603   -2.813245192E-10
 20.4781532   -4.128508369E-10
 20.6049442   -5.314576557E-10
 20.7317371   -6.302438016E-10
 20.85853   -7.030130367E-10
 20.985323   -7.446824268E-10
 21.1121159   -7.516500755E-10
 21.2389088   -7.220970488E-10
 21.3657017   -6.562001498E-10
 21.4924946   -5.562353356E-10
 21.6192856   -4.26558816E-10
 21.7460785   -2.734572568E-10
 21.8728714   -1.048690093E-10
 21.9996643   7.001437624E-11
 22.1264572   2.412502975E-10
 22.2532501   3.987243591E-10
 22.380043   5.327748243E-10
 22.506834   6.348242487E-10
 22.6336269   6.979791745E-10
 22.7604198   7.175536831E-10
 22.8872128   6.91480373E-10
 23.0140057   6.205727043E-10
 23.1407986   5.086102095E-10
 23.2675915   3.622331601E-10
 23.3943844   1.906359237E-10
 23.5211754   5.069808722E-12
 23.6479683   -1.81823126E-10
 23.7747612   -3.568132179E-10
 23.9015541   -5.06977238E-10
 24.028347   -6.206229974E-10
 24.1551399   -6.8818784E-10
 24.2819328   -7.030413474E-10
 24.4087238   -6.621297954E-10
 24.5355167   -5.664042013E-10
 24.6623096   -4.209832483E-10
 24.7891026   -2.350188655E-10
 24.9158955   -2.125040248E-11
 25.0426884   2.04747358E-10
 25.1694813   4.255916453E-10
 25.2962742   6.233490391E-10
 25.4230652   7.809379809E-10
 25.5498581   8.836060772E-10
 25.676651   9.203620643E-10
 25.8034439   8.85265139E-10
 25.9302368   7.784533573E-10
 26.0570297   6.068175962E-10
 26.1838226   3.842239582E-10
 26.3106136   1.312294023E-10
 26.4374065   -1.257566828E-10
 26.5641994   -3.558567607E-10
 26.6909924   -5.256285962E-10
 26.8177853   -6.014100884E-10
 26.9445782   -5.519970037E-10
 27.0713711   -3.515086278E-10
 27.198164   1.772768911E-11
 27.324955   5.624782307E-10
 27.4517479   1.276275086E-9
 27.5785408   2.137690247E-9
 27.7053337   3.109353663E-9
 27.8321266   4.137914011E-9
 27.9589195   5.155060379E-9
 28.0857124   6.079635906E-9
 28.2125034   6.820904286E-9
 28.3392963   7.282858316E-9
 28.4660892   7.369484134E-9
 28.5928822   6.990744872E-9
 28.7196751   6.069034608E-9
 28.846468   4.545785082E-9
 28.9732609   2.387837705E-9
 29.1000538   -4.068088089E-10
 29.2268448   -3.804252913E-9
 29.3536377   -7.731368434E-9
 29.4804306   -1.207423406E-8
 29.6072235   -1.667857852E-8
 29.7340164   -2.135251087E-8
 29.8608093   -2.587153247E-8
 29.9876022   -2.9985884E-8
 30.1143932   -3.343008714E-8
 30.2411861   -3.593433817E-8
 30.367979   -3.723743447E-8
 30.494772   -3.710064433E-8
 30.6215649   -3.532198534E-8
 30.7483578   -3.175017227E-8
 30.8751507   -2.629755969E-8
 31.0019417   -1.895131518E-8
 31.1287346   -9.782148425E-9
 31.2555275   1.05004061E-9
 31.3823204   1.32941107E-8
 31.5091133   2.660964249E-8
 31.6359062   4.057309511E-8
 31.7626991   5.468829301E-8
 31.889492   6.840092226E-8
 32.0162849   8.111689453E-8
 32.1430779   9.222380015E-8
 32.2698708   1.011148498E-7
 32.3966637   1.072144187E-7
 32.5234528   1.100040876E-7
 32.6502457   1.09048095E-7
 32.7770386   1.040171753E-7
 32.9038315   9.470956996E-8
 33.0306244   8.10681513E-8
 33.1574173   6.319283585E-8
 33.2842102   4.134739129E-8
 33.4110031   1.59602056E-8
 33.537796   -1.238136083E-8
 33.6645889   -4.294308198E-8
 33.7913818   -7.486222842E-8
 33.9181747   -1.071716014E-7
 34.0449677   -1.388286677E-7
 34.1717606   -1.687485138E-7
 34.2985535   -1.958398883E-7
 34.4253426   -2.190425334E-7
 34.5521355   -2.373647732E-7
 34.6789284   -2.499196512E-7
 34.8057213   -2.559584686E-7
 34.9325142   -2.549002147E-7
 35.0593071   -2.463557678E-7
 35.1861   -2.301461564E-7
 35.3128929   -2.063138282E-7
 35.4396858   -1.751267718E-7
 35.5664787   -1.370752898E-7
 35.6932716   -9.286158331E-8
 35.8200645   -4.33826095E-8
 35.9468575   1.029301089E-8
 36.0736504   6.695321275E-8
 36.2004433   1.252746813E-7
 36.3272324   1.838577361E-7
 36.4540253   2.412627964E-7
 36.5808182   2.960469203E-7
 36.7076111   3.467995953E-7
 36.834404   3.921763607E-7
 36.9611969   4.309294468E-7
 37.0879898   4.619347749E-7
 37.2147827   4.842150361E-7
 37.3415756   4.969579663E-7
 37.4683685   4.995307563E-7
 37.5951614   4.914894021E-7
 37.7219543   4.725850715E-7
 37.8487473   4.427662645E-7
 37.9755402   4.021783582E-7
 38.1023293   3.51160935E-7
 38.2291222   2.902430367E-7
 38.3559151   2.201376361E-7
 38.482708   1.417348869E-7
 38.6095009   5.60946205E-8
 38.7362938   -3.556130324E-8
 38.8630867   -1.31857675E-7
 38.9898796   -2.312753651E-7
 39.1166725   -3.32162216E-7
 39.2434654   -4.327457646E-7
 39.3702583   -5.311485438E-7
 39.4970512   -6.25406642E-7
 39.6238441   -7.134913744E-7
 39.7506371   -7.933356301E-7
 39.87743   -8.628641126E-7
 40.0042191   -9.200284126E-7
 40.131012   -9.628452062E-7
 40.2578049   -9.894382629E-7
 40.3845978   -9.980833511E-7
 40.5113907   -9.872533155E-7
 40.6381836   -9.556637224E-7
 40.7649765   -9.023154348E-7
 40.8917694   -8.26533892E-7
 41.0185623   -7.280014529E-7
 41.1453552   -6.067824643E-7
 41.2721481   -4.633379262E-7
 41.398941   -2.985286756E-7
 41.5257339   -1.13606248E-7
 41.6525269   8.981034227E-8
 41.7793198   3.097708543E-7
 41.9061089   5.440439281E-7
 42.0329018   7.901792287E-7
 42.1596947   1.045580234E-6
 42.2864876   1.307585762E-6
 42.4132805   1.573557029E-6
 42.5400734   1.840966888E-6
 42.6668663   2.107488626E-6
 42.7936592   2.371079745E-6
 42.9204521   2.630057452E-6
 43.047245   2.883161642E-6
 43.1740379   3.129604011E-6
 43.3008308   3.369099431E-6
 43.4276237   3.601876188E-6
 43.5544167   3.828666649E-6
 43.6812096   4.050677489E-6
 43.8079987   4.269536475E-6
 43.9347916   4.487222668E-6
 44.0615845   4.705975698E-6
 44.1883774   4.928197086E-6
 44.3151703   5.156333373E-6
 44.4419632   5.392761068E-6
 44.5687561   5.639662049E-6
 44.695549   5.898910331E-6
 44.8223419   6.17195883E-6
 44.9491348   6.459744782E-6
 45.0759277   6.762610155E-6
 45.2027206   7.080240721E-6
 45.3295135   7.411630122E-6
 45.4563065   7.755069419E-6
 45.5830994   8.108162547E-6
 45.7098885   8.467868611E-6
 45.8366814   8.830565093E-6
 45.9634743   9.192141079E-6
 46.0902672   9.548103662E-6
 46.2170601   9.893708011E-6
 46.343853   1.022409106E-5
 46.4706459   1.053441611E-5
 46.5974388   1.082001836E-5
 46.7242317   1.10765468E-5
 46.8510246   1.130009696E-5
 46.9778175   1.148733008E-5
 47.1046104   1.163557317E-5
 47.2314034   1.174290173E-5
 47.3581963   1.180819072E-5
 47.4849892   1.183115364E-5
 47.6117783   1.181234347E-5
 47.7385712   1.17531381E-5
 47.8653641   1.165568665E-5
 47.992157   1.152286222E-5
 48.1189499   1.135817638E-5
 48.2457428   1.116566455E-5
 48.3725357   1.094980325E-5
 48.4993286   1.071537463E-5
 48.6261215   1.046736361E-5
 48.7529144   1.021082971E-5
 48.8797073   9.95080245E-6
 49.0065002   9.692193998E-6
 49.1332932   9.43968098E-6
 49.2600861   9.197655345E-6
 49.386879   8.970140698E-6
 49.5136681   8.760765922E-6
 49.640461   8.572717888E-6
 49.7672539   8.408731446E-6
 49.8940468   8.271083971E-6
 50.0208397   8.161609912E-6
 50.1476326   8.08169716E-6
 50.2744255   8.032318874E-6
 50.4012184   8.014054401E-6
 50.5280113   8.027117474E-6
 50.6548042   8.071362572E-6
 50.7815971   8.146317668E-6
 50.90839   8.251192412E-6
 51.035183   8.384887224E-6
 51.1619759   8.545994206E-6
 51.2887688   8.732789865E-6
 51.4155579   8.943222383E-6
 51.5423508   9.174917068E-6
 51.6691437   9.425143617E-6
 51.7959366   9.690814295E-6
 51.9227295   9.968466657E-6
 52.0495224   1.025427719E-5
 52.1763153   1.054405311E-5
 52.3031082   1.083326333E-5
 52.4299011   1.111706933E-5
 52.556694   1.139036613E-5
 52.6834869   1.164786045E-5
 52.8102798   1.188414717E-5
 52.9370728   1.209379388E-5
 53.0638657   1.227146822E-5
 53.1906586   1.241204245E-5
 53.3174477   1.251074445E-5
 53.4442406   1.256327323E-5
 53.5710335   1.256593987E-5
 53.6978264   1.251580761E-5
 53.8246193   1.241080281E-5
 53.9514122   1.224982498E-5
 54.0782051   1.203283864E-5
 54.204998   1.176094429E-5
 54.3317909   1.143640839E-5
 54.4585838   1.106268519E-5
 54.5853767   1.064440403E-5
 54.7121696   1.018729563E-5
 54.8389626   9.698147551E-6
 54.9657555   9.184672308E-6
 55.0925484   8.655370948E-6
 55.2193375   8.119392078E-6
 55.3461304   7.586340871E-6
 55.4729233   7.066083981E-6
 55.5997162   6.568549452E-6
 55.7265091   6.103527085E-6
 55.853302   5.680446066E-6
 55.9800949   5.308199889E-6
 56.1068878   4.994937626E-6
 56.2336807   4.747912044E-6
 56.3604736   4.573330443E-6
 56.4872665   4.476227332E-6
 56.6140594   4.460364835E-6
 56.7408524   4.528168574E-6
 56.8676453   4.680695383E-6
 56.9944382   4.917608294E-6
 57.1212273   5.237204732E-6
 57.2480202   5.63644835E-6
 57.3748131   6.111043149E-6
 57.501606   6.655515335E-6
 57.6283989   7.263312455E-6
 57.7551918   7.92692299E-6
 57.8819847   8.637996871E-6
 58.0087776   9.387477803E-6
 58.1355705   1.016576152E-5
 58.2623634   1.096280721E-5
 58.3891563   1.176829846E-5
 58.5159492   1.257177337E-5
 58.6427422   1.336276182E-5
 58.7695351   1.41309165E-5
 58.896328   1.486613655E-5
 59.0231171   1.55587004E-5
 59.14991   1.619936847E-5
 59.2767029   1.677951877E-5
 59.4034958   1.729123687E-5
 59.5302887   1.772742507E-5
 59.6570816   1.808190427E-5
 59.7838745   1.834950308E-5
 59.9106674   1.852614332E-5
 60.0374603   1.860891462E-5
 60.1642532   1.859612348E-5
 60.2910461   1.848736792E-5
 60.4178391   1.828353925E-5
 60.544632   1.79868548E-5
 60.6714249   1.760085615E-5
 60.7982178   1.713036181E-5
 60.9250069   1.658143265E-5
 61.0517998   1.596127913E-5
 61.1785927   1.527818131E-5
 61.3053856   1.454133235E-5
 61.4321785   1.376073396E-5
 61.5589714   1.294699996E-5
 61.6857643   1.211117342E-5
 61.8125572   1.126456846E-5
 61.9393501   1.041853011E-5
 62.066143   9.584269719E-6
 62.1929359   8.772629371E-6
 62.3197289   7.993935469E-6
 62.4465218   7.257791822E-6
 62.5733147   6.572928214E-6
 62.7001076   5.947083082E-6
 62.8268967   5.38688073E-6
 62.9536896   4.897750387E-6
 63.0804825   4.483874818E-6
 63.2072754   4.148198059E-6
 63.3340683   3.892396762E-6
 63.4608612   3.716938409E-6
 63.5876541   3.621145424E-6
 63.714447   3.603278856E-6
 63.8412399   3.660657512E-6
 63.9680328   3.789777338E-6
 64.0948257   3.986426236E-6
 64.2216187   4.245837772E-6
 64.3484116   4.562823051E-6
 64.4752045   4.931898275E-6
 64.6019974   5.347402293E-6
 64.7287903   5.803612112E-6
 64.8555832   6.294819286E-6
 64.9823761   6.81541178E-6
 65.109169   7.359911251E-6
 65.2359619   7.923018529E-6
 65.3627548   8.499621799E-6
 65.4895477   9.084807061E-6
 65.616333   9.673837667E-6
 65.7431259   1.026213704E-5
 65.8699188   1.084527321E-5
 65.9967117   1.141894154E-5
 66.1235046   1.197894289E-5
 66.2502975   1.252119273E-5
 66.3770905   1.304173566E-5
 66.5038834   1.353675543E-5
 66.6306763   1.400264773E-5
 66.7574692   1.443605743E-5
 66.8842621   1.483398501E-5
 67.011055   1.519384296E-5
 67.1378479   1.551358582E-5
 67.2646408   1.57917857E-5
 67.3914337   1.602773955E-5
 67.5182266   1.622154923E-5
 67.6450195   1.637419882E-5
 67.7718124   1.648761281E-5
 67.8986053   1.656465429E-5
 68.0253983   1.660911039E-5
 68.1521912   1.662567774E-5
 68.2789841   1.661982969E-5
 68.405777   1.659772352E-5
 68.5325699   1.656603854E-5
 68.6593628   1.653178333E-5
 68.7861557   1.650209015E-5
 68.9129486   1.648397847E-5
 69.0397415   1.648415855E-5
 69.1665344   1.650874765E-5
 69.2933273   1.656308814E-5
 69.4201126   1.665153832E-5
 69.5469055   1.677728505E-5
 69.6736984   1.694225102E-5
 69.8004913   1.71469801E-5
 69.9272842   1.739064282E-5
 70.0540771   1.76709982E-5
 70.1808701   1.79845174E-5
 70.307663   1.832649286E-5
 70.4344559   1.869120933E-5
 70.5612488   1.907214573E-5
 70.6880417   1.946222983E-5
 70.8148346   1.985410017E-5
 70.9416275   2.024039532E-5
 71.0684204   2.061402483E-5
 71.1952133   2.096843855E-5
 71.3220062   2.129787572E-5
 71.4487991   2.15975615E-5
 71.575592   2.186386337E-5
 71.7023849   2.209439845E-5
 71.8291779   2.228809535E-5
 71.9559708   2.244514508E-5
 72.0827637   2.256693733E-5
 72.2095566   2.265594048E-5
 72.3363495   2.271546873E-5
 72.4631424   2.27494711E-5
 72.5899353   2.276223495E-5
 72.7167282   2.27580822E-5
 72.8435211   2.274108374E-5
 72.970314   2.271472658E-5
 73.0971069   2.26816428E-5
 73.2238922   2.264336217E-5
 73.3506851   2.260011024E-5
 73.477478   2.255066647E-5
 73.6042709   2.249230238E-5
 73.7310638   2.242077971E-5
 73.8578568   2.233044688E-5
 73.9846497   2.22143899E-5
 74.1114426   2.206468889E-5
 74.2382355   2.187268728E-5
 74.3650284   2.162940291E-5
 74.4918213   2.132586451E-5
 74.6186142   2.095360287E-5
 74.7454071   2.050502917E-5
 74.8722   1.997391882E-5
 74.9989929   1.9355728E-5
 75.1257858   1.86480429E-5
 75.2525787   1.785078166E-5
 75.3793716   1.696645086E-5
 75.5061646   1.60002819E-5
 75.6329575   1.496023833E-5
 75.7597504   1.385694668E-5
 75.8865433   1.270354369E-5
 76.0133362   1.151542801E-5
 76.1401291   1.03098655E-5
 76.266922   9.105604477E-6
 76.3937149   7.922320037E-6
 76.5205078   6.780139302E-6
 76.6473007   5.698998393E-6
 76.7740936   4.698094472E-6
 76.9008865   3.795287739E-6
 77.0276718   3.00654051E-6
 77.1544647   2.345438361E-6
 77.2812576   1.822783474E-6
 77.4080505   1.446189685E-6
 77.5348434   1.219866704E-6
 77.6616364   1.144480052E-6
 77.7884293   1.217082968E-6
 77.9152222   1.431268288E-6
 78.0420151   1.777295324E-6
 78.168808   2.242449227E-6
 78.2956009   2.811442528E-6
 78.4223938   3.466916496E-6
 78.5491867   4.190025265E-6
 78.6759796   4.961055311E-6
 78.8027725   5.760100066E-6
 78.9295654   6.567772743E-6
 79.0563583   7.365840247E-6
 79.1831512   8.137903023E-6
 79.3099442   8.869964404E-6
 79.4367371   9.550946743E-6
 79.56353   1.017310478E-5
 79.6903229   1.073232306E-5
 79.8171158   1.122828508E-5
 79.9439087   1.16644942E-5
 80.0707016   1.204822183E-5
 80.1974945   1.239020366E-5
 80.3242874   1.270432858E-5
 80.4510803   1.300710755E-5
 80.5778732   1.331709791E-5
 80.7046585   1.365421667E-5
 80.8314514   1.403898204E-5
 80.9582443   1.449174397E-5
 81.0850372   1.503188741E-5
 81.2118301   1.567705658E-5
 81.338623   1.644242002E-5
 81.465416   1.734002763E-5
 81.5922089   1.837824493E-5
 81.7190018   1.956131564E-5
 81.8457947   2.088903784E-5
 81.9725876   2.235663123E-5
 82.0993805   2.395469528E-5
 82.2261734   2.566935291E-5
 82.3529663   2.748257612E-5
 82.4797592   2.93725825E-5
 82.6065521   3.131439735E-5
 82.733345   3.328052844E-5
 82.8601379   3.524171188E-5
 82.9869308   3.71677088E-5
 83.1137238   3.902813114E-5
 83.2405167   4.079329665E-5
 83.3673096   4.243503281E-5
 83.4941025   4.392744813E-5
 83.6208954   4.524764154E-5
 83.7476883   4.637629172E-5
 83.8744812   4.729818102E-5
 84.0012741   4.80025592E-5
 84.128067   4.848341632E-5
 84.2548599   4.873957369E-5
 84.3816528   4.877470565E-5
 84.5084381   4.859718319E-5
 84.635231   4.821981202E-5
 84.7620239   4.765945778E-5
 84.8888168   4.693656592E-5
 85.0156097   4.607459778E-5
 85.1424026   4.509943756E-5
 85.2691956   4.403866114E-5
 85.3959885   4.292088124E-5
 85.5227814   4.177501614E-5
 85.6495743   4.062957305E-5
 85.7763672   3.951199687E-5
 85.9031601   3.844803359E-5
 86.029953   3.746117E-5
 86.1567459   3.657214984E-5
 86.2835388   3.57985773E-5
 86.4103317   3.515462231E-5
 86.5371246   3.465081681E-5
 86.6639175   3.42939602E-5
 86.7907104   3.40871411E-5
 86.9175034   3.402983566E-5
 87.0442963   3.411813304E-5
 87.1710892   3.43449974E-5
 87.2978821   3.470066804E-5
 87.424675   3.51730414E-5
 87.5514679   3.574816583E-5
 87.6782608   3.641070361E-5
 87.8050537   3.714441846E-5
 87.9318466   3.793265569E-5
 88.0586395   3.875877883E-5
 88.1854324   3.960657341E-5
 88.3122177   4.04605853E-5
 88.4390106   4.13063899E-5
 88.5658035   4.213080319E-5
 88.6925964   4.292197627E-5
 88.8193893   4.366945723E-5
 88.9461823   4.436414747E-5
 89.0729752   4.499821807E-5
 89.1997681   4.556492786E-5
 89.326561   4.605845243E-5
 89.4533539   4.647365131E-5
 89.5801468   4.680581696E-5
 89.7069397   4.705045649E-5
 89.8337326   4.720305515E-5
 89.9605255   4.725887629E-5
 90.0873184   4.72128304E-5
 90.2141113   4.705934043E-5
 90.3409042   4.67923237E-5
 90.4676971   4.640520274E-5
 90.5944901   4.589095624E-5
 90.721283   4.524227552E-5
 90.8480759   4.445175364E-5
 90.9748688   4.351209282E-5
 91.1016617   4.241639544E-5
 91.2284546   4.115841875E-5
 91.3552475   3.973288767E-5
 91.4820404   3.813577132E-5
 91.6088333   3.636451947E-5
 91.7356262   3.441833542E-5
 91.8624191   3.229830691E-5
 91.989212   3.000757351E-5
 92.1159973   2.75513612E-5
 92.2427902   2.493699503E-5
 92.3695831   2.217381552E-5
 92.496376   1.927304402E-5
 92.6231689   1.624757533E-5
 92.7499619   1.311174765E-5
 92.8767548   9.881023288E-6
 93.0035477   6.571673566E-6
 93.1303406   3.200467063E-6
 93.2571335   -2.156862564E-7
 93.3839264   -3.660036782E-6
 93.5107193   -7.116263077E-6
 93.6375122   -1.056869951E-5
 93.7643051   -1.400253041E-5
 93.891098   -1.740388507E-5
 94.0178909   -2.075983684E-5
 94.1446838   -2.405841406E-5
 94.2714767   -2.728844447E-5
 94.3982697   -3.043939614E-5
 94.5250626   -3.35011573E-5
 94.6518555   -3.646376717E-5
 94.7786484   -3.931713582E-5
 94.9054413   -4.205079313E-5
 95.0322342   -4.465358506E-5
 95.1590271   -4.711350994E-5
 95.28582   -4.941754014E-5
 95.4126129   -5.155154213E-5
 95.5394058   -5.350031279E-5
 95.6661987   -5.524766311E-5
 95.7929916   -5.677668014E-5
 95.9197769   -5.806998161E-5
 96.0465698   -5.911020708E-5
 96.1733627   -5.988049088E-5
 96.3001556   -6.036498598E-5
 96.4269485   -6.054956611E-5
 96.5537415   -6.042237146E-5
 96.6805344   -5.997449625E-5
 96.8073273   -5.920056719E-5
 96.9341202   -5.80992928E-5
 97.0609131   -5.667390724E-5
 97.187706   -5.493251228E-5
 97.3144989   -5.288833563E-5
 97.4412918   -5.055974907E-5
 97.5680847   -4.797027213E-5
 97.6948776   -4.514827378E-5
 97.8216705   -4.21266559E-5
 97.9484634   -3.894227848E-5
 98.0752563   -3.563534483E-5
 98.2020493   -3.224859756E-5
 98.3288422   -2.882647823E-5
 98.4556351   -2.541418871E-5
 98.582428   -2.205671444E-5
 98.7092209   -1.879784395E-5
 98.8360138   -1.567919207E-5
 98.9628067   -1.273928228E-5
 99.0895996   -1.001269266E-5
 99.2163925   -7.529307823E-6
 99.3431854   -5.313677775E-6
 99.4699783   -3.384517868E-6
 99.5967712   -1.754351274E-6
 99.7235565   -4.293348752E-7
 99.8503494   5.907787681E-7
 99.9771423   1.3125142E-6
 100.103935   1.748371233E-6
 100.230728   1.916399924E-6
 100.357521   1.839635729E-6
 100.484314   1.545395889E-6
 100.611107   1.064525009E-6
 100.7379   4.305379662E-7
 100.864693   -3.212697379E-7
 100.991486   -1.154728579E-6
 101.118279   -2.03369973E-6
 101.245071   -2.922943395E-6
 101.371864   -3.788922641E-6
 101.498657   -4.600543434E-6
 101.62545   -5.329785836E-6
 101.752243   -5.952236734E-6
 101.879036   -6.447494343E-6
 102.005829   -6.799467883E-6
 102.132622   -6.99653765E-6
 102.259415   -7.031613677E-6
 102.386208   -6.902071163E-6
 102.513   -6.609594493E-6
 102.639793   -6.159934856E-6
 102.766586   -5.56259738E-6
 102.893379   -4.83047279E-6
 103.020172   -3.979425401E-6
 103.146965   -3.027852017E-6
 103.273758   -1.996229003E-6
 103.400551   -9.066536677E-7
 103.527336   2.176122393E-7
 103.654129   1.352586878E-6
 103.780922   2.474001803E-6
 103.907715   3.557715672E-6
 104.034508   4.580120276E-6
 104.161301   5.518523722E-6
 104.288094   6.351515367E-6
 104.414886   7.059320069E-6
 104.541679   7.624144473E-6
 104.668472   8.030499885E-6
 104.795265   8.265520592E-6
 104.922058   8.319253539E-6
 105.048851   8.184918443E-6
 105.175644   7.859157449E-6
 105.302437   7.342219305E-6
 105.42923   6.638119885E-6
 105.556023   5.754729045E-6
 105.682816   4.703801096E-6
 105.809608   3.50092705E-6
 105.936401   2.165412752E-6
 106.063194   7.200613936E-7
 106.189987   -8.091142263E-7
 106.31678   -2.393282557E-6
 106.443573   -4.001267371E-6
 106.570366   -5.600088571E-6
 106.697159   -7.155585081E-6
 106.823952   -8.633085599E-6
 106.950745   -9.998128917E-6
 107.077538   -1.121719015E-5
 107.20433   -1.225842698E-5
 107.331116   -1.309239997E-5
 107.457909   -1.369275924E-5
 107.584702   -1.403684291E-5
 107.711494   -1.410623008E-5
 107.838287   -1.388716828E-5
 107.96508   -1.337089816E-5
 108.091873   -1.255384177E-5
 108.218666   -1.143767713E-5
 108.345459   -1.002926274E-5
 108.472252   -8.340437489E-6
 108.599045   -6.387692338E-6
 108.725838   -4.19172693E-6
 108.852631   -1.776920271E-6
 108.979424   8.293022802E-7
 109.106216   3.597119985E-6
 109.233009   6.495047728E-6
 109.359802   9.490633602E-6
 109.486595   1.255116786E-5
 109.613388   1.564432569E-5
 109.740181   1.873875226E-5
 109.866974   2.180455522E-5
 109.993767   2.481371848E-5
 110.12056   2.774034692E-5
 110.247353   3.056084461E-5
 110.374146   3.325396028E-5
 110.500938   3.580068733E-5
 110.627731   3.818408004E-5
 110.754524   4.038902625E-5
 110.881317   4.24019272E-5
 111.008102   4.421031554E-5
 111.134895   4.580253153E-5
 111.261688   4.716739204E-5
 111.388481   4.829391037E-5
 111.515274   4.917110709E-5
 111.642067   4.978791185E-5
 111.76886   5.013320697E-5
 111.895653   5.019595847E-5
 112.022446   4.996550342E-5
 112.149239   4.943196473E-5
 112.276031   4.858678585E-5
 112.402824   4.742332021E-5
 112.529617   4.593754056E-5
 112.65641   4.412873386E-5
 112.783203   4.200022158E-5
 112.909996   3.955999637E-5
 113.036789   3.682132592E-5
 113.163582   3.380314956E-5
 113.290375   3.053038017E-5
 113.417168   2.703398786E-5
 113.543961   2.335083263E-5
 113.670753   1.952330967E-5
 113.797546   1.559873817E-5
 113.924339   1.162852277E-5
 114.051132   7.667093087E-6
 114.177925   3.770683861E-6
 114.304718   -4.057541858E-9
 114.431511   -3.601531262E-6
 114.558304   -6.968723937E-6
 114.685097   -1.005670765E-5
 114.811882   -1.282209632E-5
 114.938675   -1.522837556E-5
 115.065468   -1.724704816E-5
 115.192261   -1.885857091E-5
 115.319054   -2.005301212E-5
 115.445847   -2.083043546E-5
 115.572639   -2.120094723E-5
 115.699432   -2.118443263E-5
 115.826225   -2.080996819E-5
 115.953018   -2.011492325E-5
 116.079811   -1.914377572E-5
 116.206604   -1.794669879E-5
 116.333397   -1.657794201E-5
 116.46019   -1.509408594E-5
 116.586983   -1.355218865E-5
 116.713776   -1.200793304E-5
 116.840569   -1.051381423E-5
 116.967361   -9.11742336E-6
 117.094154   -7.859899597E-6
 117.220947   -6.774606391E-6
 117.34774   -5.886073723E-6
 117.474533   -5.209233223E-6
 117.601326   -4.748987067E-6
 117.728119   -4.500118393E-6
 117.854912   -4.44755733E-6
 117.981705   -4.566979896E-6
 118.108498   -4.825731594E-6
 118.235291   -5.184036127E-6
 118.362083   -5.596450592E-6
 118.488876   -6.013528036E-6
 118.615662   -6.383615982E-6
 118.742455   -6.654734079E-6
 118.869247   -6.776476766E-6
 118.99604   -6.701851362E-6
 119.122833   -6.389019745E-6
 119.249626   -5.802865417E-6
 119.376419   -4.916338639E-6
 119.503212   -3.711550107E-6
 119.630005   -2.180551974E-6
 119.756798   -3.258248E-7
 119.883591   1.839583433E-6
 120.010384   4.292231097E-6
 120.137177   6.998789559E-6
 120.263969   9.916835552E-6
 120.390762   1.299592259E-5
 120.517555   1.617888302E-5
 120.644348   1.940332186E-5
 120.771141   2.260325891E-5
 120.897934   2.571086043E-5
 121.024727   2.865820898E-5
 121.15152   3.137908789E-5
 121.278313   3.381070565E-5
 121.405106   3.589531116E-5
 121.531898   3.75816926E-5
 121.658691   3.882652163E-5
 121.785484   3.959544483E-5
 121.912277   3.986402589E-5
 122.03907   3.961837501E-5
 122.165863   3.885557817E-5
 122.292656   3.7583839E-5
 122.419441   3.582235149E-5
 122.546234   3.360093979E-5
 122.673027   3.095943248E-5
 122.79982   2.794678949E-5
 122.926613   2.462002158E-5
 123.053406   2.104290797E-5
 123.180199   1.728454117E-5
 123.306992   1.341772713E-5
 123.433784   9.517294529E-6
 123.560577   5.658341706E-6
 123.68737   1.914442464E-6
 123.814163   -1.644086296E-6
 123.940956   -4.951878509E-6
 124.067749   -7.950071449E-6
 124.194542   -1.058770522E-5
 124.321335   -1.282291942E-5
 124.448128   -1.462391265E-5
 124.574921   -1.596963193E-5
 124.701714   -1.685018105E-5