 -4.5   3.449413258E-18
 -4.37296724   3.449436626E-18
 -4.24593449   3.449480053E-18
 -4.11890221   3.449539403E-18
 -3.99186945   3.449608473E-18
 -3.86483669   3.449681058E-18
 -3.73780417   3.449750541E-18
 -3.61077142   3.449810511E-18
 -3.4837389   3.449857454E-18
 -3.35670614   3.4498893E-18
 -3.22967362   3.449906464E-18
 -3.10264087   3.449911841E-18
 -2.97560835   3.449910187E-18
 -2.84857559   3.449907085E-18
 -2.72154307   3.449908325E-18
 -2.59451032   3.449918252E-18
 -2.46747756   3.449942033E-18
 -2.34044504   3.449981324E-18
 -2.21341228   3.450036538E-18
 -2.08637977   3.450106849E-18
 -1.95934713   3.450188119E-18
 -1.83231449   3.450274973E-18
 -1.70528185   3.450358932E-18
 -1.57824922   3.450427175E-18
 -1.45121646   3.4504675E-18
 -1.32418382   3.450474737E-18
 -1.19715118   3.450461709E-18
 -1.07011855   3.450474324E-18
 -0.943085909   3.450591577E-18
 -0.816053271   3.450897427E-18
 -0.689020634   3.451403041E-18
 -0.561987996   3.451931609E-18
 -0.434955359   3.452009778E-18
 -0.307922721   3.450857722E-18
 -0.180890068   3.447617035E-18
 -5.385742337E-2   3.441900804E-18
 7.317522168E-2   3.434622855E-18
 0.200207874   3.428841276E-18
 0.327240527   3.430090939E-18
 0.454273164   3.445534815E-18
 0.581305802   3.481419564E-18
 0.708338439   3.538878011E-18
 0.835371077   3.60904857E-18
 0.962403715   3.669530775E-18
 1.08943641   3.684899377E-18
 1.21646905   3.613701874E-18
 1.34350169   3.422757363E-18
 1.47053432   3.106607071E-18
 1.59756696   2.706369735E-18
 1.7245996   2.319439667E-18
 1.85163224   2.091070196E-18
 1.97866488   2.182360743E-18
 2.10569763   2.716681368E-18
 2.23273015   3.716678829E-18
 2.35976291   5.053248016E-18
 2.48679543   6.4317656E-18
 2.61382818   7.435379288E-18
 2.7408607   7.628713731E-18
 2.86789346   6.700737852E-18
 2.99492598   4.600474578E-18
 3.12195873   1.604773815E-18
 3.24899125   -1.73541624E-18
 3.37602401   -4.789118907E-18
 3.50305653   -7.14027516E-18
 3.63008928   -8.878408274E-18
 3.75712204   -1.073285125E-17
 3.88415456   -1.389900664E-17
 4.01118708   -1.94737573E-17
 4.13821983   -2.755376009E-17
 4.26525259   -3.622695395E-17
 4.39228535   -4.084849144E-17
 4.51931763   -3.406702325E-17
 4.64635038   -6.991572074E-18
 4.77338314   4.836700073E-17
 4.9004159   1.356565749E-16
 5.02744818   2.504978445E-16
 5.15448093   3.776976822E-16
 5.28151369   4.906624694E-16
 5.40854645   5.540960786E-16
 5.53557873   5.304382896E-16
 5.66261148   3.8953375E-16
 5.78964424   1.199201189E-16
 5.916677   -2.608231497E-16
 6.04370975   -6.997080303E-16
 6.17074203   -1.10878021E-15
 6.29777479   -1.374196607E-15
 6.42480755   -1.374101634E-15
 6.55184031   -1.003441498E-15
 6.67887259   -2.019243828E-16
 6.80590534   1.020060179E-15
 6.9329381   2.563208731E-15
 7.05997086   4.233791696E-15
 7.18700314   5.754245059E-15
 7.31403589   6.790858379E-15
 7.44106865   6.996841122E-15
 7.56810141   6.066488508E-15
 7.69513416   3.794105363E-15
 7.82216644   1.300491639E-16
 7.9491992   -4.77419321E-15
 8.07623196   -1.053965299E-14
 8.20326424   -1.655893677E-14
 8.33029747   -2.202565184E-14
 8.45732975   -2.599677946E-14
 8.58436203   -2.748750324E-14
 8.71139526   -2.559425416E-14
 8.83842754   -1.963744583E-14
 8.96546078   -9.310746245E-15
 9.09249306   5.180452658E-15
 9.21952534   2.301206575E-14
 9.34655857   4.268801431E-14
 9.47359085   6.206165004E-14
 9.60062313   7.84489593E-14
 9.72765636   8.884300224E-14
 9.85468864   9.022851097E-14
 9.98172188   7.998270557E-14
 10.1087542   5.633359312E-14
 10.2357864   1.883264256E-14
 10.3628197   -3.121400436E-14
 10.489852   -9.042097718E-14
 10.6168852   -1.531741449E-13
 10.7439175   -2.117209809E-13
 10.8709497   -2.565525646E-13
 10.997983   -2.77107547E-13
 11.1250153   -2.627978401E-13
 11.2520475   -2.04317791E-13
 11.3790808   -9.515822917E-14
 11.5061131   6.679533093E-14
 11.6331463   2.777371432E-13
 11.7601786   5.266725641E-13
 11.8872108   7.946040202E-13
 12.0142441   1.054365254E-12
 12.1412764   1.271274969E-12
 12.2683096   1.404736028E-12
 12.3953419   1.41084876E-12
 12.5223742   1.246019455E-12
 12.6494074   8.714576912E-13
 12.7764397   2.583512289E-13
 12.9034719   -6.066005987E-13
 13.0305052   -1.715712425E-12
 13.1575375   -3.035401791E-12
 13.2845707   -4.502413199E-12
 13.411603   -6.021770756E-12
 13.5386353   -7.467045211E-12
 13.6656685   -8.683435915E-12
 13.7927008   -9.494064389E-12
 13.919734   -9.709650618E-12
 14.0467663   -9.141516537E-12
 14.1737986   -7.617565433E-12
 14.3008318   -5.000524734E-12
 14.4278641   -1.207435736E-12
 14.5548964   3.770971816E-12
 14.6819296   9.852650813E-12
 14.8089619   1.685016363E-11
 14.9359951   2.446205564E-11
 15.0630274   3.227143552E-11
 15.1900597   3.975334298E-11
 15.3170929   4.629200495E-11
 15.4441252   5.120842639E-11
 15.5711575   5.379813262E-11
 15.6981907   5.337788198E-11
 15.825223   4.933934511E-11
 15.9522562   4.120676717E-11
 16.0792885   2.869495266E-11
 16.2063217   1.176318071E-11
 16.333353   -9.3395916E-12
 16.4603863   -3.404291779E-11
 16.5874195   -6.144083853E-11
 16.7144508   -9.029919867E-11
 16.8414841   -1.190868654E-10
 16.9685173   -1.460319227E-10
 17.0955505   -1.692021939E-10
 17.2225819   -1.866076738E-10
 17.3496151   -1.963207652E-10
 17.4766483   -1.966079521E-10
 17.6036797   -1.860657045E-10
 17.7307129   -1.637517899E-10
 17.8577461   -1.293026797E-10
 17.9847775   -8.302769583E-11
 18.1118107   -2.597102568E-11
 18.2388439   4.006590892E-11
 18.3658752   1.125475407E-10
 18.4929085   1.882760337E-10
 18.6199417   2.635121843E-10
 18.7469749   3.341426302E-10
 18.8740063   3.958872119E-10
 19.0010395   4.445370183E-10
 19.1280727   4.762106265E-10
 19.2551041   4.876142823E-10
 19.3821373   4.762893968E-10
 19.5091705   4.408305943E-10
 19.6362019   3.810587679E-10
 19.7632351   2.981328795E-10
 19.8902683   1.94590552E-10
 20.0172997   7.430732418E-11
 20.1443329   -5.762787469E-11
 20.2713661   -1.951203227E-10
 20.3983994   -3.313534724E-10
 20.5254307   -4.591370339E-10
 20.6524639   -5.713028384E-10
 20.7794971   -6.611267089E-10
 20.9065285   -7.227524135E-10
 21.0335617   -7.515920109E-10
 21.1605949   -7.446747663E-10
 21.2876263   -7.009200997E-10
 21.4146595   -6.213124459E-10
 21.5416927   -5.089590971E-10
 21.6687241   -3.690208972E-10
 21.7957573   -2.085096679E-10
 21.9227905   -3.595806639E-11
 22.0498238   1.390266374E-10
 22.1768551   3.063033993E-10
 22.3038883   4.558043942E-10
 22.4309216   5.781735091E-10
 22.5579529   6.653957385E-10
 22.6849861   7.113769573E-10
 22.8120193   7.124310031E-10
 22.9390507   6.676370012E-10
 23.0660839   5.790353197E-10
 23.1931171   4.516360619E-10
 23.3201485   2.932274978E-10
 23.4471817   1.139884853E-10
 23.5742149   -7.409090008E-11
 23.7012463   -2.57942695E-10
 23.8282795   -4.242775853E-10
 23.9553127   -5.605072517E-10
 24.082346   -6.556756804E-10
 24.2093773   -7.013326586E-10
 24.3364105   -6.922842855E-10
 24.4634438   -6.271566044E-10
 24.5904751   -5.087175126E-10
 24.7175083   -3.439136753E-10
 24.8445415   -1.43599993E-10
 24.9715729   7.804801944E-11
 25.0986061   3.044207941E-10
 25.2256393   5.176210016E-10
 25.3526707   6.998096547E-10
 25.4797039   8.346675573E-10
 25.6067371   9.08878528E-10
 25.7337704   9.13525422E-10
 25.8608017   8.452858413E-10
 25.9878349   7.073211461E-10
 26.1148682   5.097609557E-10
 26.2418995   2.697005119E-10
 26.3689327   1.066030077E-11
 26.495966   -2.385151521E-10
 26.6229973   -4.453048763E-10
 26.7500305   -5.756444765E-10
 26.8770638   -5.964730931E-10
 27.0040951   -4.785455365E-10
 27.1311283   -1.993549215E-10
 27.2581615   2.540240518E-10
 27.3851948   8.823451969E-10
 27.5122261   1.672118333E-9
 27.6392593   2.59419064E-9
 27.7662926   3.603203069E-9
 27.8933239   4.638049056E-9
 28.0203571   5.623426169E-9
 28.1473904   6.47254117E-9
 28.2744217   7.090928289E-9
 28.4014549   7.381298239E-9
 28.5284882   7.249225664E-9
 28.6555195   6.609470748E-9
 28.7825527   5.392612135E-9
 28.909586   3.55165386E-9
 29.0366192   1.068186095E-9
 29.1636505   -2.042253255E-9
 29.2906837   -5.726076946E-9
 29.417717   -9.889109087E-9
 29.5447483   -1.439603015E-8
 29.6717815   -1.907196356E-8
 29.7988148   -2.370638263E-8
 29.9258461   -2.805941079E-8
 30.0528793   -3.187037123E-8
 30.1799126   -3.486845657E-8
 30.3069439   -3.678504612E-8
 30.4339771   -3.736736431E-8
 30.5610104   -3.639275903E-8
 30.6880436   -3.368303325E-8
 30.8150749   -2.911807861E-8
 30.9421082   -2.264811449E-8
 31.0691414   -1.43037342E-8
 31.1961727   -4.203172033E-9
 31.3232059   7.443891281E-9
 31.4502392   2.033636726E-8
 31.5772705   3.408598559E-8
 31.7043037   4.822584643E-8
 31.831337   6.222324345E-8
 31.9583683   7.549648018E-8
 32.0854034   8.743512581E-8
 32.2124329   9.742320373E-8
 32.3394661   1.048643341E-7
 32.4664993   1.092079387E-7
 32.5935326   1.09975332E-7
 32.7205658   1.06784718E-7
 32.847599   9.93737217E-8
 32.9746284   8.761860926E-8
 33.1016617   7.154902448E-8
 33.2286949   5.135741077E-8
 33.3557281   2.740254601E-8
 33.4827614   2.066752047E-10
 33.6097946   -2.955388645E-8
 33.7368279   -6.106458983E-8
 33.8638573   -9.339451879E-8
 33.9908905   -1.255236981E-7
 34.1179237   -1.563748526E-7
 34.244957   -1.848486733E-7
 34.3719902   -2.098610139E-7
 34.4990234   -2.303810192E-7
 34.6260529   -2.454682715E-7
 34.7530861   -2.543080768E-7
 34.8801193   -2.562428563E-7
 35.0071526   -2.507990757E-7
 35.1341858   -2.377081927E-7
 35.261219   -2.169208528E-7
 35.3882523   -1.886142087E-7
 35.5152817   -1.531916354E-7
 35.6423149   -1.112750851E-7
 35.7693481   -6.369043604E-8
 35.8963814   -1.144651485E-8
 36.0234146   4.429142919E-8
 36.1504478   1.022327893E-7
 36.2774773   1.609958815E-7
 36.4045105   2.19144269E-7
 36.5315437   2.752238402E-7
 36.658577   3.277993414E-7
 36.7856102   3.754891793E-7
 36.9126434   4.169976648E-7
 37.0396767   4.511438476E-7
 37.1667061   4.768862709E-7
 37.2937393   4.933432933E-7
 37.4207726   4.998090049E-7
 37.5478058   4.957647661E-7
 37.674839   4.808865697E-7
 37.8018723   4.55048621E-7
 37.9289017   4.18324106E-7
 38.0559349   3.709830025E-7
 38.1829681   3.134881013E-7
 38.3100014   2.464897477E-7
 38.4370346   1.708192059E-7
 38.5640678   8.748162372E-8
 38.6911011   -2.351749018E-9
 38.8181305   -9.735187945E-8
 38.9451637   -1.960411993E-7
 39.072197   -2.968039325E-7
 39.1992302   -3.978984182E-7
 39.3262634   -4.974713192E-7
 39.4532967   -5.93575237E-7
 39.5803261   -6.841895015E-7
 39.7073593   -7.672451261E-7
 39.8343925   -8.406539678E-7
 39.9614258   -9.023423218E-7
 40.088459   -9.502886655E-7
 40.2154922   -9.82564984E-7
 40.3425255   -9.973809938E-7
 40.4695549   -9.931296745E-7
 40.5965881   -9.684338238E-7
 40.7236214   -9.221896562E-7
 40.8506546   -8.536084124E-7
 40.9776878   -7.622510907E-7
 41.1047211   -6.480566412E-7
 41.2317505   -5.113600423E-7
 41.3587837   -3.52899832E-7
 41.485817   -1.738124382E-7
 41.6128502   2.438643953E-8
 41.7398834   2.39834435E-7
 41.8669167   4.703688035E-7
 41.9939499   7.135856777E-7
 42.1209793   9.669104202E-7
 42.2480125   1.227677217E-6
 42.3750458   1.493216018E-6
 42.502079   1.760942155E-6
 42.6291122   2.028446261E-6
 42.7561455   2.293580792E-6
 42.8831749   2.554539378E-6
 43.0102081   2.809924581E-6
 43.1372414   3.058801894E-6
 43.2642746   3.300735671E-6
 43.3913078   3.535807309E-6
 43.5183411   3.76461162E-6
 43.6453743   3.988230674E-6
 43.7724037   4.208189239E-6
 43.899437   4.426386568E-6
 44.0264702   4.645012723E-6
 44.1535034   4.866449672E-6
 44.2805367   5.093157597E-6
 44.4075699   5.327557574E-6
 44.5345993   5.571909242E-6
 44.6616325   5.828191661E-6
 44.7886658   6.097988717E-6
 44.915699   6.382388619E-6
 45.0427322   6.681898412E-6
 45.1697655   6.996378033E-6
 45.2967987   7.324998478E-6
 45.4238281   7.666221791E-6
 45.5508614   8.017812434E-6
 45.6778946   8.376870028E-6
 45.8049278   8.73989211E-6
 45.9319611   9.102857803E-6
 46.0589943   9.46133332E-6
 46.1860237   9.810597476E-6
 46.3130569   1.014577356E-5
 46.4400902   1.046197849E-5
 46.5671234   1.075446562E-5
 46.6941566   1.101877024E-5
 46.8211899   1.1250846E-5
 46.9482231   1.144719135E-5
 47.0752525   1.160495322E-5
 47.2022858   1.172201701E-5
 47.329319   1.179706487E-5
 47.4563522   1.182961569E-5
 47.5833855   1.18200378E-5
 47.7104187   1.176953265E-5
 47.8374481   1.168010112E-5
 47.9644814   1.155447899E-5
 48.0915146   1.13960632E-5
 48.2185478   1.120880916E-5
 48.3455811   1.099713063E-5
 48.4726143   1.076577792E-5
 48.5996475   1.051973504E-5
 48.7266769   1.026407699E-5
 48.8537102   1.00038842E-5
 48.9807434   9.74411887E-6
 49.1077766   9.489544027E-6
 49.2348099   9.244638022E-6
 49.3618431   9.013524505E-6
 49.4888725   8.79993604E-6
 49.6159058   8.607169548E-6
 49.742939   8.43806356E-6
 49.8699722   8.294995496E-6
 49.9970055   8.179892575E-6
 50.1240387   8.094231816E-6
 50.2510719   8.039069144E-6
 50.3781013   8.015055755E-6
 50.5051346   8.022469956E-6
 50.6321678   8.061235349E-6
 50.759201   8.130935385E-6
 50.8862343   8.230837011E-6
 51.0132675   8.359884305E-6
 51.1402969   8.516713933E-6
 51.2673302   8.69964515E-6
 51.3943634   8.906679795E-6
 51.5213966   9.135475921E-6
 51.6484299   9.383350516E-6
 51.7754631   9.647255865E-6
 51.9024925   9.923774087E-6
 52.0295258   1.020911532E-5
 52.156559   1.049912316E-5
 52.2835922   1.07892929E-5
 52.4106255   1.107480148E-5
 52.5376587   1.135055572E-5
 52.6646919   1.161125056E-5
 52.7917213   1.18514572E-5
 52.9187546   1.206571415E-5
 53.0457878   1.224862808E-5
 53.172821   1.239501398E-5
 53.2998543   1.250000514E-5
 53.4268875   1.255920233E-5
 53.5539169   1.256880387E-5
 53.6809502   1.252574475E-5
 53.8079834   1.242781764E-5
 53.9350166   1.227378471E-5
 54.0620499   1.20634686E-5
 54.1890831   1.179783067E-5
 54.3161163   1.147900639E-5
 54.4431458   1.111032452E-5
 54.570179   1.069629434E-5
 54.6972122   1.024255744E-5
 54.8242455   9.755812243E-6
 54.9512787   9.243711247E-6
 55.0783119   8.714722753E-6
 55.2053413   8.17797536E-6
 55.3323746   7.643091521E-6
 55.4594078   7.119972452E-6
 55.586441   6.61861668E-6
 55.7134743   6.14888495E-6
 55.8405075   5.720319677E-6
 55.9675407   5.341919405E-6
 56.0945702   5.021975994E-6
 56.2216034   4.767874998E-6
 56.3486366   4.585967417E-6
 56.4756699   4.48143328E-6
 56.6027031   4.45816886E-6
 56.7297363   4.518740297E-6
 56.8567657   4.664325388E-6
 56.983799   4.894696758E-6
 57.1108322   5.20824824E-6
 57.2378654   5.60203307E-6
 57.3648987   6.071825283E-6
 57.4919319   6.6122102E-6
 57.6189651   7.216678114E-6
 57.7459946   7.877745702E-6
 57.8730278   8.587076081E-6
 58.000061   9.335616596E-6
 58.1270943   1.011373752E-5
 58.2541275   1.09113771E-5
 58.3811607   1.171817257E-5
 58.5081902   1.252360653E-5
 58.6352234   1.331714702E-5
 58.7622566   1.408837124E-5
 58.8892899   1.482710559E-5
 59.0163231   1.552354479E-5
 59.1433563   1.616837289E-5
 59.2703896   1.675286694E-5
 59.397419   1.726902883E-5
 59.5244522   1.770967356E-5
 59.6514854   1.806854743E-5
 59.7785187   1.834040086E-5
 59.9055519   1.852108653E-5
 60.0325851   1.860763041E-5
 60.1596146   1.85982899E-5
 60.2866478   1.849261207E-5
 60.413681   1.829145913E-5
 60.5407143   1.799701931E-5
 60.6677475   1.76128051E-5
 60.7947807   1.714363498E-5
 60.921814   1.659556801E-5
 61.0488434   1.597582923E-5
 61.1758766   1.529271321E-5
 61.3029099   1.455545225E-5
 61.4299431   1.37740808E-5
 61.5569763   1.29592554E-5
 61.6840096   1.212208372E-5
 61.811039   1.127393625E-5
 61.9380722   1.042623262E-5
 62.0651054   9.590240552E-6
 62.1921387   8.77688035E-6
 62.3191719   7.996540262E-6
 62.4462051   7.258895039E-6
 62.5732384   6.572727216E-6
 62.7002678   5.945814337E-6
 62.827301   5.384813903E-6
 62.9543343   4.895186521E-6
 63.0813675   4.481123597E-6
 63.2084007   4.145556431E-6
 63.335434   3.890164862E-6
 63.4624634   3.715403409E-6
 63.5894966   3.620578582E-6
 63.7165298   3.603927553E-6
 63.8435631   3.662737981E-6
 63.9705963   3.793464657E-6
 64.0976257   3.991874564E-6
 64.2246628   4.253168299E-6
 64.3516922   4.572113994E-6
 64.4787292   4.943206022E-6
 64.6057587   5.360750492E-6
 64.7327881   5.818981663E-6
 64.8598251   6.312167898E-6
 64.9868546   6.834664873E-6
 65.1138916   7.380971965E-6
 65.240921   7.945762263E-6
 65.3679581   8.523905308E-6
 65.4949875   9.110456631E-6
 65.6220169   9.700658666E-6
 65.749054   1.028991755E-5
 65.8760834   1.08737795E-5
 66.0031204   1.144792259E-5
 66.1301498   1.200812767E-5
 66.2571869   1.255030566E-5
 66.3842163   1.307047933E-5
 66.5112457   1.356482244E-5
 66.6382828   1.402972794E-5
 66.7653122   1.446184069E-5
 66.8923492   1.485816665E-5
 67.0193787   1.521613831E-5
 67.1464081   1.553372931E-5
 67.2734451   1.580954995E-5
 67.4004745   1.604293539E-5
 67.5275116   1.623404751E-5
 67.654541   1.638395224E-5
 67.7815781   1.649463229E-5
 67.9086075   1.656904169E-5
 68.0356369   1.661107854E-5
 68.162674   1.662552859E-5
 68.2897034   1.661796887E-5
 68.4167404   1.659464942E-5
 68.5437698   1.656233871E-5
 68.6708069   1.652811079E-5
 68.7978363   1.649913611E-5
 68.9248657   1.648247417E-5
 69.0519028   1.648481157E-5
 69.1789322   1.651223647E-5
 69.3059692   1.657001849E-5
 69.4329987   1.666241951E-5
 69.5600357   1.679252637E-5
 69.6870651   1.696210711E-5
 69.8140945   1.71715692E-5
 69.9411316   1.741990854E-5
 70.068161   1.770473682E-5
 70.1951981   1.802235965E-5
 70.3222275   1.836792399E-5
 70.4492569   1.873558176E-5
 70.5762939   1.911869731E-5
 70.7033234   1.951011109E-5
 70.8303604   1.990242527E-5
 70.9573898   2.028823474E-5
 71.0844269   2.066047637E-5
 71.2114563   2.101263999E-5
 71.3384857   2.133903945E-5
 71.4655228   2.163500722E-5
 71.5925522   2.189705265E-5
 71.7195892   2.212296022E-5
 71.8466187   2.231182225E-5
 71.9736557   2.246402437E-5
 72.1006851   2.258114364E-5
 72.2277145   2.266579577E-5
 72.3547516   2.27214332E-5
 72.481781   2.275210318E-5
 72.6088181   2.27621349E-5
 72.7358475   2.275586667E-5
 72.8628845   2.273730934E-5
 72.9899139   2.270984987E-5
 73.1169434   2.267597301E-5
 73.2439804   2.263701208E-5
 73.3710098   2.25929507E-5
 73.4980469   2.254232822E-5
 73.6250763   2.248212877E-5
 73.7521057   2.240787035E-5
 73.8791428   2.231363214E-5
 74.0061722   2.21922819E-5
 74.1332092   2.203570148E-5
 74.2602386   2.183511424E-5
 74.3872757   2.15814398E-5
 74.5143051   2.126572872E-5
 74.6413345   2.087957E-5
 74.7683716   2.041556036E-5
 74.895401   1.986768439E-5
 75.022438   1.923175842E-5
 75.1494675   1.850575609E-5
 75.2765045   1.769007213E-5
 75.4035339   1.678774061E-5
 75.5305634   1.580457138E-5
 75.6576004   1.474910096E-5
 75.7846298   1.36325516E-5
 75.9116669   1.246861484E-5
 76.0386963   1.127319229E-5
 76.1657333   1.006400271E-5
 76.2927628   8.860095477E-6
 76.4197922   7.681436728E-6
 76.5468292   6.54825044E-6
 76.6738586   5.480459095E-6
 76.8008957   4.497130249E-6
 76.9279251   3.615855348E-6
 77.0549545   2.852220632E-6
 77.1819916   2.219314865E-6
 77.309021   1.727313474E-6
 77.436058   1.383168183E-6
 77.5630875   1.19032336E-6
 77.6901245   1.148641104E-6
 77.8171539   1.254364406E-6
 77.9441833   1.500245617E-6
 78.0712204   1.875788598E-6
 78.1982498   2.367535444E-6
 78.3252869   2.959593076E-6
 78.4523163   3.634074346E-6
 78.5793533   4.371747764E-6
 78.7063828   5.152704489E-6
 78.8334122   5.956966106E-6
 78.9604492   6.765280887E-6
 79.0874786   7.559694495E-6
 79.2145157   8.324262126E-6
 79.3415451   9.045595107E-6
 79.4685822   9.713371583E-6
 79.5956116   1.032068758E-5
 79.722641   1.086436532E-5
 79.849678   1.134508329E-5
 79.9767075   1.176736441E-5
 80.1037445   1.213946143E-5
 80.2307739   1.247304863E-5
 80.3578033   1.278284253E-5
 80.4848404   1.308606898E-5
 80.6118698   1.340183189E-5
 80.7389069   1.375039938E-5
 80.8659363   1.415245151E-5
 80.9929733   1.462826549E-5
 81.1200027   1.519693251E-5
 81.2470322   1.587557563E-5
 81.3740692   1.667863035E-5
 81.5010986   1.761722342E-5
 81.6281357   1.869862717E-5
 81.7551651   1.992584657E-5
 81.8822021   2.129736276E-5
 82.0092316   2.280700755E-5
 82.136261   2.444399797E-5
 82.263298   2.619312545E-5
 82.3903275   2.803509233E-5
 82.5173645   2.994698116E-5
 82.6443939   3.190286225E-5
 82.771431   3.387447214E-5
 82.8984604   3.583199577E-5
 83.0254898   3.774488505E-5
 83.1525269   3.958271191E-5
 83.2795563   4.131599417E-5
 83.4065933   4.291702498E-5
 83.5336227   4.436061863E-5
 83.6606522   4.562481263E-5
 83.7876892   4.669142072E-5
 83.9147186   4.754652764E-5
 84.0417557   4.81808238E-5
 84.1687851   4.858981993E-5
 84.2958221   4.87739344E-5
 84.4228516   4.873842408E-5
 84.549881   4.84932134E-5
 84.676918   4.805257049E-5
 84.8039474   4.743471072E-5
 84.9309845   4.666127279E-5
 85.0580139   4.575672574E-5
 85.185051   4.474774323E-5
 85.3120804   4.366247595E-5
 85.4391098   4.252986764E-5
 85.5661469   4.137892756E-5
 85.6931763   4.02380283E-5
 85.8202133   3.913424371E-5
 85.9472427   3.809274858E-5
 86.0742722   3.713625483E-5
 86.2013092   3.628457125E-5
 86.3283386   3.555421426E-5
 86.4553757   3.49581569E-5
 86.5824051   3.45056651E-5
 86.7094421   3.420222492E-5
 86.8364716   3.404960808E-5
 86.963501   3.404601375E-5
 87.090538   3.418631604E-5
 87.2175674   3.446239134E-5
 87.3446045   3.486349306E-5
 87.4716339   3.537670636E-5
 87.598671   3.598742114E-5
 87.7257004   3.667981582E-5
 87.8527298   3.743735942E-5
 87.9797668   3.824326996E-5
 88.1067963   3.908094732E-5
 88.2338333   3.993434802E-5
 88.3608627   4.078831262E-5
 88.4878998   4.162880214E-5
 88.6149292   4.244307274E-5
 88.7419586   4.321974484E-5
 88.8689957   4.394886128E-5
 88.9960251   4.462178549E-5
 89.1230621   4.523109601E-5
 89.2500916   4.577040454E-5
 89.377121   4.62341668E-5
 89.504158   4.661740968E-5
 89.6311874   4.691552022E-5
 89.7582245   4.712399095E-5
 89.8852539   4.72382053E-5
 90.012291   4.725327017E-5
 90.1393204   4.716385956E-5
 90.2663498   4.696415635E-5
 90.3933868   4.664781954E-5
 90.5204163   4.62080352E-5
 90.6474533   4.563759649E-5
 90.7744827   4.49290892E-5
 90.9015198   4.407507731E-5
 91.0285492   4.306835399E-5
 91.1555786   4.190222535E-5
 91.2826157   4.057079786E-5
 91.4096451   3.906924394E-5
 91.5366821   3.739412205E-5
 91.6637115   3.554360592E-5
 91.7907486   3.351769556E-5
 91.917778   3.131837366E-5
 92.0448074   2.894972022E-5
 92.1718445   2.641793253E-5
 92.2988739   2.373128882E-5
 92.4259109   2.090005546E-5
 92.5529404   1.793630145E-5
 92.6799698   1.485368284E-5
 92.8070068   1.166716993E-5
 92.9340363   8.392720702E-6
 93.0610733   5.046970273E-6
 93.1881027   1.646879014E-6
 93.3151398   -1.790598049E-6
 93.4421692   -5.248793514E-6
 93.5691986   -8.711591363E-6
 93.6962357   -1.216362762E-5
 93.8232651   -1.559043812E-5
 93.9503021   -1.897852235E-5
 94.0773315   -2.231534017E-5
 94.2043686   -2.558923552E-5
 94.331398   -2.878929809E-5
 94.4584274   -3.190516873E-5
 94.5854645   -3.492677206E-5
 94.7124939   -3.784407454E-5
 94.8395309   -4.064677705E-5
 94.9665604   -4.332405297E-5
 95.0935974   -4.586430441E-5
 95.2206268   -4.82549658E-5
 95.3476563   -5.048239473E-5
 95.4746933   -5.253183554E-5
 95.6017227   -5.438749213E-5
 95.7287598   -5.603265527E-5
 95.8557892   -5.745002636E-5
 95.9828186   -5.862207763E-5
 96.1098557   -5.953149594E-5
 96.2368851   -6.016175757E-5
 96.3639221   -6.049769945E-5
 96.4909515   -6.052618482E-5
 96.6179886   -6.023671085E-5
 96.745018   -5.962206342E-5
 96.8720474   -5.867886648E-5
 96.9990845   -5.740810593E-5
 97.1261139   -5.58155225E-5
 97.2531509   -5.391191007E-5
 97.3801804   -5.171325392E-5
 97.5072174   -4.924075256E-5
 97.6342468   -4.652063944E-5
 97.7612762   -4.358389197E-5
 97.8883133   -4.046577305E-5
 98.0153427   -3.720521636E-5
 98.1423798   -3.384412048E-5
 98.2694092   -3.042649223E-5
 98.3964462   -2.699756442E-5
 98.5234756   -2.360279359E-5
 98.6505051   -2.028689596E-5
 98.7775421   -1.709284334E-5
 98.9045715   -1.406090814E-5
 99.0316086   -1.122777485E-5
 99.158638   -8.625735973E-6
 99.2856674   -6.281980404E-6
 99.4127045   -4.218033155E-6
 99.5397339   -2.44933176E-6
 99.6667709   -9.849651406E-7
 99.7938004   1.724488214E-7
 99.9208374   1.026686732E-6
 100.047867   1.587703537E-6
 100.174896   1.871263066E-6
 100.301933   1.898412734E-6
 100.428963   1.694842922E-6
 100.556   1.290135856E-6
 100.683029   7.169502396E-7
 100.810066   1.013016515E-8
 100.937096   -7.942132356E-7
 101.064125   -1.659611939E-6
 101.191162   -2.550139016E-6
 101.318192   -3.431257255E-6
 101.445229   -4.270588306E-6
 101.572258   -5.0385961E-6
 101.699295   -5.709168363E-6
 101.826324   -6.260081136E-6
 101.953354   -6.673339158E-6
 102.080391   -6.935396868E-6
 102.20742   -7.037256637E-6
 102.334457   -6.974454664E-6
 102.461487   -6.746939562E-6
 102.588516   -6.358866813E-6
 102.715553   -5.818310456E-6
 102.842583   -5.136911568E-6
 102.96962   -4.329477179E-6
 103.096649   -3.413547802E-6
 103.223686   -2.408941327E-6
 103.350716   -1.337293497E-6
 103.477745   -2.21592785E-7
 103.604782   9.142690942E-7
 103.731812   2.04594653E-6
 103.858849   3.149064241E-6
 103.985878   4.199628165E-6
 104.112915   5.174417311E-6
 104.239944   6.051369382E-6
 104.366974   6.809932529E-6
 104.494011   7.431424365E-6
 104.62104   7.899368939E-6
 104.748077   8.199814147E-6
 104.875107   8.32162641E-6
 105.002144   8.256781257E-6
 105.129173   8.000602975E-6
 105.256203   7.551991985E-6
 105.38324   6.913584912E-6
 105.510269   6.091883279E-6
 105.637306   5.0973008E-6
 105.764336   3.944142009E-6
 105.891365   2.650517445E-6
 106.018402   1.238148798E-6
 106.145432   -2.678874864E-7
 106.272469   -1.839527386E-6
 106.399498   -3.446167739E-6
 106.526535   -5.055191195E-6
 106.653564   -6.632572422E-6
 106.780594   -8.143536434E-6
 106.907631   -9.553269592E-6
 107.03466   -1.08276563E-5
 107.161697   -1.193402568E-5
 107.288727   -1.284188693E-5
 107.415764   -1.352363961E-5
 107.542793   -1.395520121E-5
 107.669823   -1.411659287E-5
 107.79686   -1.3992405E-5
 107.923889   -1.357216024E-5
 108.050926   -1.285055987E-5
 108.177956   -1.182759843E-5
 108.304985   -1.050852188E-5
 108.432022   -8.903686648E-6
 108.559052   -7.028243999E-6
 108.686089   -4.901756711E-6
 108.813118   -2.547653594E-6
 108.940155   7.345831943E-9
 109.067184   2.733921747E-6
 109.194214   5.600844815E-6
 109.321251   8.575708307E-6
 109.44828   1.162564331E-5
 109.575317   1.471797987E-5
 109.702347   1.782085747E-5
 109.829384   2.090375892E-5
 109.956413   2.393792965E-5
 110.083443   2.689669236E-5
 110.21048   2.975563984E-5
 110.337509   3.249272413E-5
 110.464546   3.508817099E-5
 110.591576   3.752436896E-5
 110.718613   3.978562017E-5
 110.845642   4.185782745E-5
 110.972672   4.372818148E-5
 111.099709   4.538475332E-5
 111.226738   4.681619248E-5
 111.353775   4.801143587E-5
 111.480804   4.89594604E-5
 111.607834   4.964915206E-5
 111.734871   5.006933497E-5
 111.8619   5.020883327E-5
 111.988937   5.005678031E-5
 112.115967   4.960296428E-5
 112.243004   4.883833026E-5
 112.370033   4.775562047E-5
 112.497063   4.635000732E-5
 112.6241   4.461984281E-5
 112.751129   4.256736429E-5
 112.878166   4.019937842E-5
 113.005196   3.752785778E-5
 113.132233   3.457044295E-5
 113.259262   3.13507262E-5
 113.386292   2.789839891E-5
 113.513329   2.424914965E-5
 113.640358   2.044435678E-5
 113.767395   1.653052095E-5
 113.894424   1.255846382E-5
 114.021461   8.582324881E-6
 114.148491   4.658354555E-6
 114.27552   8.435609402E-7
 114.402557   -2.80577342E-6
 114.529587   -6.235601177E-6
 114.656624   -9.395662346E-6
 114.783653   -1.224096741E-5
 114.910683   -1.473316115E-5
 115.03772   -1.684173731E-5
 115.164749   -1.854502807E-5
 115.291786   -1.983093898E-5
 115.418816   -2.069739094E-5
 115.545853   -2.115244024E-5
 115.672882   -2.121407852E-5
 115.799911   -2.090970702E-5
 115.926949   -2.027528717E-5
 116.053978   -1.93542146E-5
 116.181015   -1.819593126E-5
 116.308044   -1.685432471E-5
 116.435081   -1.538598553E-5
 116.562111   -1.384835741E-5
 116.68914   -1.229786631E-5
 116.816177   -1.078805781E-5
 116.943207   -9.367852726E-6
 117.070244   -8.079957297E-6
 117.197273   -6.959458915E-6
 117.32431   -6.032713372E-6
 117.45134   -5.316518127E-6
 117.578369   -4.817606623E-6
 117.705406   -4.532511866E-6
 117.832436   -4.447761967E-6
 117.959473   -4.540433565E-6
 118.086502   -4.779030405E-6
 118.213531   -5.124658401E-6
 118.340569   -5.532466275E-6
 118.467598   -5.953280834E-6
 118.594635   -6.335406852E-6
 118.721664   -6.626513368E-6
 118.848701   -6.775542715E-6
 118.975731   -6.734581348E-6
 119.10276   -6.46063836E-6
 119.229797   -5.917252565E-6
 119.356827   -5.075895842E-6
 119.483864   -3.917113645E-6
 119.610893   -2.431370831E-6
 119.73793   -6.195906508E-7
 119.86496   1.506648118E-6
 119.991989   3.925248166E-6
 120.119026   6.60404703E-6
 120.246056   9.501589375E-6
 120.373093   1.256816631E-5
 120.500122   1.57471095E-5
 120.627159   1.897627226E-5
 120.754189   2.218967529E-5
 120.881218   2.53192411E-5
 121.008255   2.829658661E-5
 121.135284   3.105482028E-5
 121.262321   3.353028296E-5
 121.389351   3.5664194E-5
 121.51638   3.740420289E-5
 121.643417   3.870571527E-5
 121.770447   3.953307169E-5
 121.897484   3.98604825E-5
 122.024513   3.967273733E-5
 122.15155   3.89656343E-5
 122.27858   3.774618017E-5
 122.405609   3.603249934E-5
 122.532646   3.385347372E-5
 122.659676   3.124814975E-5
 122.786713   2.826489253E-5
 122.913742   2.496029083E-5
 123.040779   2.139788376E-5
 123.167809   1.76467056E-5
 123.294838   1.377969966E-5
 123.421875   9.871988368E-6
 123.548904   5.999130735E-6
 123.675941   2.235316742E-6
 123.802971   -1.348398769E-6
 123.930008   -4.685797649E-6
 124.057037   -7.717073458E-6
 124.184067   -1.039027211E-5
 124.311104   -1.26625082E-5
 124.438133   -1.450096624E-5
 124.56517   -1.588361738E-5
 124.6922   -1.679966408E-5
 124.819229   -1.724966023E-5
 124.946266   -1.72453183E-5
 125.073296   -1.680902824E-5