 -4.5   9.708150665E-18
 -4.37320757   9.708503871E-18
 -4.24641466   9.709045675E-18
 -4.11962223   9.709632973E-18
 -3.99282932   9.710182221E-18
 -3.86603665   9.710676875E-18
 -3.73924398   9.711142578E-18
 -3.61245155   9.711616552E-18
 -3.48565888   9.712126923E-18
 -3.35886621   9.712679479E-18
 -3.23207355   9.713270086E-18
 -3.10528088   9.713886336E-18
 -2.97848821   9.714524092E-18
 -2.85169554   9.715187491E-18
 -2.72490287   9.715880668E-18
 -2.5981102   9.716606106E-18
 -2.47131753   9.717358013E-18
 -2.34452486   9.718122328E-18
 -2.21773219   9.718883334E-18
 -2.09093952   9.719626969E-18
 -1.96414697   9.720349098E-18
 -1.8373543   9.721051374E-18
 -1.71056163   9.721740416E-18
 -1.58376896   9.722417877E-18
 -1.45697629   9.723077139E-18
 -1.33018374   9.723704142E-18
 -1.20339108   9.724280687E-18
 -1.07659841   9.724792712E-18
 -0.949805737   9.725235254E-18
 -0.823013067   9.725613275E-18
 -0.696220458   9.725936703E-18
 -0.569427788   9.726220426E-18
 -0.442635119   9.72646858E-18
 -0.315842479   9.726678684E-18
 -0.189049825   9.726840811E-18
 -6.225717068E-2   9.7269409E-18
 6.453548372E-2   9.726973987E-18
 0.191328138   9.726944209E-18
 0.318120778   9.726869763E-18
 0.444913447   9.726777946E-18
 0.571706116   9.726698536E-18
 0.698498726   9.726651387E-18
 0.825291395   9.726647251E-18
 0.952084064   9.726680338E-18
 1.07887673   9.726740722E-18
 1.2056694   9.726818477E-18
 1.33246195   9.726907813E-18
 1.45925462   9.727018655E-18
 1.58604729   9.727167548E-18
 1.71283996   9.727373516E-18
 1.83963263   9.727654757E-18
 1.9664253   9.728013753E-18
 2.09321785   9.728442233E-18
 2.22001052   9.728922825E-18
 2.34680319   9.729438158E-18
 2.47359586   9.729974171E-18
 2.60038853   9.730526728E-18
 2.7271812   9.7311041E-18
 2.85397387   9.731719523E-18
 2.98076653   9.732382094E-18
 3.1075592   9.733088506E-18
 3.23435187   9.73382387E-18
 3.36114454   9.734565024E-18
 3.48793697   9.735285498E-18
 3.61472964   9.735961305E-18
 3.74152231   9.736582517E-18
 3.86831498   9.737153272E-18
 3.99510765   9.737681013E-18
 4.12190056   9.738181457E-18
 4.24869299   9.738659568E-18
 4.37548542   9.73911369E-18
 4.50227833   9.739531416E-18
 4.62907076   9.73989703E-18
 4.75586367   9.740195642E-18
 4.8826561   9.740423944E-18
 5.00944901   9.740590207E-18
 5.13624144   9.740711803E-18
 5.26303434   9.740808583E-18
 5.38982677   9.740896264E-18
 5.51661968   9.740980637E-18
 5.64341211   9.741056737E-18
 5.77020502   9.74111464E-18
 5.89699745   9.741141937E-18
 6.02379036   9.741133665E-18
 6.15058279   9.741094788E-18
 6.27737522   9.741045157E-18
 6.40416813   9.741002143E-18
 6.53096056   9.740988081E-18
 6.65775347   9.74101207E-18
 6.7845459   9.741072454E-18
 6.91133881   9.741160135E-18
 7.03813124   9.741260224E-18
 7.16492414   9.74136693E-18
 7.29171658   9.741476118E-18
 7.41850948   9.741596059E-18
 7.54530191   9.74174247E-18
 7.67209482   9.741928586E-18
 7.79888725   9.742158542E-18
 7.92567968   9.742426548E-18
 8.05247211   9.742716062E-18
 8.17926502   9.743004748E-18
 8.30605793   9.743271927E-18
 8.43285084   9.743506019E-18
 8.55964279   9.743702888E-18
 8.6864357   9.743871633E-18
 8.81322861   9.744025488E-18
 8.94002151   9.744173554E-18
 9.06681347   9.744317483E-18
 9.19360638   9.744449005E-18
 9.32039928   9.744555711E-18
 9.44719219   9.744626849E-18
 9.57398415   9.744657454E-18
 9.70077705   9.744654973E-18
 9.82756996   9.744638429E-18
 9.95436192   9.744626849E-18
 10.0811548   9.744641738E-18
 10.2079477   9.744693023E-18
 10.3347406   9.744779877E-18
 10.4615326   9.744895682E-18
 10.5883255   9.745023895E-18
 10.7151184   9.745156244E-18
 10.8419113   9.745291902E-18
 10.9687033   9.745436659E-18
 11.0954962   9.745604576E-18
 11.2222891   9.74580889E-18
 11.349082   9.746056217E-18
 11.4758739   9.746342421E-18
 11.6026669   9.746653441E-18
 11.7294598   9.746968597E-18
 11.8562517   9.747270518E-18
 11.9830446   9.747550105E-18
 12.1098375   9.74780405E-18
 12.2366304   9.748040623E-18
 12.3634224   9.748272234E-18
 12.4902153   9.748504671E-18
 12.6170082   9.748735455E-18
 12.7438011   9.748956312E-18
 12.8705931   9.749147391E-18
 12.997386   9.749295456E-18
 13.1241789   9.749388928E-18
 13.2509708   9.749431114E-18
 13.3777637   9.749431114E-18
 13.5045567   9.749406298E-18
 13.6313496   9.74937073E-18
 13.7581415   9.749331852E-18
 13.8849344   9.749290493E-18
 14.0117273   9.749236726E-18
 14.1385202   9.749161453E-18
 14.2653122   9.749056401E-18
 14.3921051   9.748924879E-18
 14.518898   9.748776814E-18
 14.6456909   9.748630403E-18
 14.7724829   9.74850219E-18
 14.8992758   9.748401274E-18
 15.0260687   9.748331791E-18
 15.1528606   9.74828216E-18
 15.2796535   9.748240801E-18
 15.4064465   9.748195306E-18
 15.5332394   9.748141539E-18
 15.6600313   9.748081155E-18
 15.7868242   9.748028215E-18
 15.9136171   9.747995128E-18
 16.0404091   9.74799182E-18
 16.167202   9.748018289E-18
 16.2939949   9.748068747E-18
 16.4207878   9.748129131E-18
 16.5475807   9.74818538E-18
 16.6743736   9.74822343E-18
 16.8011646   9.748245764E-18
 16.9279575   9.748256517E-18
 17.0547504   9.748268098E-18
 17.1815434   9.748289605E-18
 17.3083363   9.748326E-18
 17.4351292   9.748372323E-18
 17.5619221   9.748421126E-18
 17.688715   9.748462485E-18
 17.815506   9.748489782E-18
 17.9422989   9.748503844E-18
 18.0690918   9.74851377E-18
 18.1958847   9.748536932E-18
 18.3226776   9.748588217E-18
 18.4494705   9.748673416E-18
 18.5762634   9.748793358E-18
 18.7030544   9.748937287E-18
 18.8298473   9.749092797E-18
 18.9566402   9.749245825E-18
 19.0834332   9.749386446E-18
 19.2102261   9.749517968E-18
 19.337019   9.749645354E-18
 19.4638119   9.749781011E-18
 19.5906048   9.749930731E-18
 19.7173958   9.750093685E-18
 19.8441887   9.750259949E-18
 19.9709816   9.750419595E-18
 20.0977745   9.750557734E-18
 20.2245674   9.750666094E-18
 20.3513603   9.750746331E-18
 20.4781532   9.750805061E-18
 20.6049442   9.750853037E-18
 20.7317371   9.750901841E-18
 20.85853   9.750953953E-18
 20.985323   9.751006066E-18
 21.1121159   9.751047425E-18
 21.2389088   9.751068104E-18
 21.3657017   9.751063968E-18
 21.4924946   9.751035844E-18
 21.6192856   9.750994485E-18
 21.7460785   9.750956435E-18
 21.8728714   9.750934928E-18
 21.9996643   9.750940718E-18
 22.1264572   9.750974633E-18
 22.2532501   9.751030881E-18
 22.380043   9.751097883E-18
 22.506834   9.751167366E-18
 22.6336269   9.751236022E-18
 22.7604198   9.751308814E-18
 22.8872128   9.751393186E-18
 23.0140057   9.751499892E-18
 23.1407986   9.751633069E-18
 23.2675915   9.751790233E-18
 23.3943844   9.751962286E-18
 23.5211754   9.75213434E-18
 23.6479683   9.752292332E-18
 23.7747612   9.752431298E-18
 23.9015541   9.752549585E-18
 24.028347   9.752654637E-18
 24.1551399   9.752755553E-18
 24.2819328   9.752862259E-18
 24.4087238   9.75297641E-18
 24.5355167   9.753094697E-18
 24.6623096   9.75320802E-18
 24.7891026   9.753308109E-18
 24.9158955   9.75339E-18
 25.0426884   9.753456175E-18
 25.1694813   9.753514904E-18
 25.2962742   9.753578597E-18
 25.4230652   9.753658834E-18
 25.5498581   9.753762231E-18
 25.676651   9.753889617E-18
 25.8034439   9.754033547E-18
 25.9302368   9.754185748E-18
 26.0570297   9.754336295E-18
 26.1838226   9.754482706E-18
 26.3106136   9.754629117E-18
 26.4374065   9.754782972E-18
 26.5641994   9.754953372E-18
 26.6909924   9.755146932E-18
 26.8177853   9.755361172E-18
 26.9445782   9.755589473E-18
 27.0713711   9.755821084E-18
 27.198164   9.756046904E-18
 27.324955   9.75625949E-18
 27.4517479   9.756459667E-18
 27.5785408   9.756653228E-18
 27.7053337   9.756850097E-18
 27.8321266   9.757053583E-18
 27.9589195   9.757263687E-18
 28.0857124   9.757473791E-18
 28.2125034   9.757674796E-18
 28.3392963   9.757855121E-18
 28.4660892   9.758010631E-18
 28.5928822   9.758139671E-18
 28.7196751   9.758247205E-18
 28.846468   9.758343985E-18
 28.9732609   9.758441592E-18
 29.1000538   9.758547471E-18
 29.2268448   9.758663277E-18
 29.3536377   9.758787354E-18
 29.4804306   9.758913085E-18
 29.6072235   9.759037989E-18
 29.7340164   9.759161239E-18
 29.8608093   9.759287798E-18
 29.9876022   9.759424283E-18
 30.1143932   9.759577311E-18
 30.2411861   9.759750192E-18
 30.367979   9.759942925E-18
 30.494772   9.760147239E-18
 30.6215649   9.760355688E-18
 30.7483578   9.760559175E-18
 30.8751507   9.760756044E-18
 31.0019417   9.760947122E-18
 31.1287346   9.761139855E-18
 31.2555275   9.761344996E-18
 31.3823204   9.761568335E-18
 31.5091133   9.761814835E-18
 31.6359062   9.762081187E-18
 31.7626991   9.762360774E-18
 31.889492   9.762646151E-18
 32.0162849   9.76292822E-18
 32.1430779   9.763206153E-18
 32.2698708   9.763481604E-18
 32.3966637   9.763760364E-18
 32.5234528   9.764048222E-18
 32.6502457   9.764348489E-18
 32.7770386   9.764659509E-18
 32.9038315   9.764973837E-18
 33.0306244   9.765286512E-18
 33.1574173   9.765590914E-18
 33.2842102   9.765886218E-18
 33.4110031   9.766176558E-18
 33.537796   9.766468553E-18
 33.6645889   9.766771301E-18
 33.7913818   9.767084802E-18
 33.9181747   9.767409884E-18
 34.0449677   9.767737448E-18
 34.1717606   9.768060876E-18
 34.2985535   9.76836776E-18
 34.4253426   9.768654791E-18
 34.5521355   9.768922798E-18
 34.6789284   9.769179224E-18
 34.8057213   9.769431514E-18
 34.9325142   9.76968794E-18
 35.0593071   9.769954292E-18
 35.1861   9.770227262E-18
 35.3128929   9.77050354E-18
 35.4396858   9.770775682E-18
 35.5664787   9.77104038E-18
 35.6932716   9.771297633E-18
 35.8200645   9.771551578E-18
 35.9468575   9.771810485E-18
 36.0736504   9.772080973E-18
 36.2004433   9.772369659E-18
 36.3272324   9.772676543E-18
 36.4540253   9.772997489E-18
 36.5808182   9.77332588E-18
 36.7076111   9.773658407E-18
 36.834404   9.773990933E-18
 36.9611969   9.774325114E-18
 37.0879898   9.774662604E-18
 37.2147827   9.775008365E-18
 37.3415756   9.775364053E-18
 37.4683685   9.775726358E-18
 37.5951614   9.776087009E-18
 37.7219543   9.776433598E-18
 37.8487473   9.776759507E-18
 37.9755402   9.777057292E-18
 38.1023293   9.77732778E-18
 38.2291222   9.77757428E-18
 38.3559151   9.77780589E-18
 38.482708   9.778029229E-18
 38.6095009   9.778247605E-18
 38.7362938   9.778461017E-18
 38.8630867   9.778666158E-18
 38.9898796   9.778858891E-18
 39.1166725   9.779036735E-18
 39.2434654   9.779203826E-18
 39.3702583   9.779365953E-18
 39.4970512   9.779530562E-18
 39.6238441   9.779707579E-18
 39.7506371   9.779899484E-18
 39.87743   9.780107934E-18
 40.0042191   9.780331273E-18
 40.131012   9.780562056E-18
 40.2578049   9.780797803E-18
 40.3845978   9.781036031E-18
 40.5113907   9.781280049E-18
 40.6381836   9.781533166E-18
 40.7649765   9.781797037E-18
 40.8917694   9.782076624E-18
 41.0185623   9.782370273E-18
 41.1453552   9.782672194E-18
 41.2721481   9.782976596E-18
 41.398941   9.783276863E-18
 41.5257339   9.783572166E-18
 41.6525269   9.783863334E-18
 41.7793198   9.784155329E-18
 41.9061089   9.784454768E-18
 42.0329018   9.784764134E-18
 42.1596947   9.78508508E-18
 42.2864876   9.785415952E-18
 42.4132805   9.78575096E-18
 42.5400734   9.786085141E-18
 42.6668663   9.786413532E-18
 42.7936592   9.786738614E-18
 42.9204521   9.787061214E-18
 43.047245   9.787386296E-18
 43.1740379   9.787717996E-18
 43.3008308   9.788057967E-18
 43.4276237   9.788403728E-18
 43.5544167   9.788748663E-18
 43.6812096   9.789089461E-18
 43.8079987   9.789418679E-18
 43.9347916   9.789737143E-18
 44.0615845   9.790047336E-18
 44.1883774   9.790355047E-18
 44.3151703   9.790666894E-18
 44.4419632   9.790985359E-18
 44.5687561   9.79131375E-18
 44.695549   9.791647931E-18
 44.8223419   9.791982939E-18
 44.9491348   9.792315465E-18
 45.0759277   9.792643029E-18
 45.2027206   9.792967284E-18
 45.3295135   9.793292366E-18
 45.4563065   9.793622411E-18
 45.5830994   9.793961555E-18
 45.7098885   9.794308144E-18
 45.8366814   9.794660522E-18
 45.9634743   9.795015383E-18
 46.0902672   9.795368589E-18
 46.2170601   9.795716832E-18
 46.343853   9.796062594E-18
 46.4706459   9.796406701E-18
 46.5974388   9.796754944E-18
 46.7242317   9.797112286E-18
 46.8510246   9.797477072E-18
 46.9778175   9.797845995E-18
 47.1046104   9.798216572E-18
 47.2314034   9.798579704E-18
 47.3581963   9.798932083E-18
 47.4849892   9.799271227E-18
 47.6117783   9.799597136E-18
 47.7385712   9.799916428E-18
 47.8653641   9.800233238E-18
 47.992157   9.800551703E-18
 48.1189499   9.800876785E-18
 48.2457428   9.801206003E-18
 48.3725357   9.801539356E-18
 48.4993286   9.801873537E-18
 48.6261215   9.802207718E-18
 48.7529144   9.802543554E-18
 48.8797073   9.802883525E-18
 49.0065002   9.803231768E-18
 49.1332932   9.803590764E-18
 49.2600861   9.803957205E-18
 49.386879   9.804326128E-18
 49.5136681   9.804690087E-18
 49.640461   9.805044121E-18
 49.7672539   9.805384092E-18
 49.8940468   9.805708347E-18
 50.0208397   9.806017712E-18
 50.1476326   9.806317979E-18
 50.2744255   9.80661411E-18
 50.4012184   9.806907759E-18
 50.5280113   9.807200581E-18
 50.6548042   9.807490921E-18
 50.7815971   9.807776298E-18
 50.90839   9.808056713E-18
 51.035183   9.808332164E-18
 51.1619759   9.808606788E-18
 51.2887688   9.80888472E-18
 51.4155579   9.809171752E-18
 51.5423508   9.809470364E-18
 51.6691437   9.809778075E-18
 51.7959366   9.810091577E-18
 51.9227295   9.81040756E-18
 52.0495224   9.810719407E-18
 52.1763153   9.811027118E-18
 52.3031082   9.811331521E-18
 52.4299011   9.81163675E-18
 52.556694   9.811946116E-18
 52.6834869   9.812262926E-18
 52.8102798   9.812589662E-18
 52.9370728   9.812923843E-18
 53.0638657   9.813262987E-18
 53.1906586   9.813607922E-18
 53.3174477   9.813953683E-18
 53.4442406   9.814301926E-18
 53.5710335   9.814655132E-18
 53.6978264   9.815014956E-18
 53.8246193   9.815384706E-18
 53.9514122   9.815763554E-18
 54.0782051   9.816149848E-18
 54.204998   9.816538623E-18
 54.3317909   9.816925743E-18
 54.4585838   9.817307073E-18
 54.5853767   9.817680132E-18
 54.7121696   9.818049054E-18
 54.8389626   9.818414668E-18
 54.9657555   9.818782764E-18
 55.0925484   9.819155822E-18
 55.2193375   9.819532189E-18
 55.3461304   9.819909384E-18
 55.4729233   9.820286578E-18
 55.5997162   9.820660464E-18
 55.7265091   9.821031868E-18
 55.853302   9.821404099E-18
 55.9800949   9.821781293E-18
 56.1068878   9.822167587E-18
 56.2336807   9.82256546E-18
 56.3604736   9.822974088E-18
 56.4872665   9.823390987E-18
 56.6140594   9.82380954E-18
 56.7408524   9.824227266E-18
 56.8676453   9.824640029E-18
 56.9944382   9.825045348E-18
 57.1212273   9.825446531E-18
 57.2480202   9.825844404E-18
 57.3748131   9.826241451E-18
 57.501606   9.826634362E-18
 57.6283989   9.827023137E-18
 57.7551918   9.82740364E-18
 57.8819847   9.82777339E-18
 58.0087776   9.828129904E-18
 58.1355705   9.828473184E-18
 58.2623634   9.828807365E-18
 58.3891563   9.829134102E-18
 58.5159492   9.829458357E-18
 58.6427422   9.829782611E-18
 58.7695351   9.830107693E-18
 58.896328   9.830433602E-18
 59.0231171   9.830758684E-18
 59.14991   9.831079631E-18
 59.2767029   9.831398095E-18
 59.4034958   9.831715732E-18
 59.5302887   9.832037506E-18
 59.6570816   9.832366724E-18
 59.7838745   9.832704213E-18
 59.9106674   9.833052456E-18
 60.0374603   9.83340649E-18
 60.1642532   9.83376135E-18
 60.2910461   9.834112902E-18
 60.4178391   9.834457009E-18
 60.544632   9.834792844E-18
 60.6714249   9.835120408E-18
 60.7982178   9.835443835E-18
 60.9250069   9.835765609E-18
 61.0517998   9.836086555E-18
 61.1785927   9.836408328E-18
 61.3053856   9.836729274E-18
 61.4321785   9.837051047E-18
 61.5589714   9.837371993E-18
 61.6857643   9.837693767E-18
 61.8125572   9.838020503E-18
 61.9393501   9.838355511E-18
 62.066143   9.8387021E-18
 62.1929359   9.839060269E-18
 62.3197289   9.839430019E-18
 62.4465218   9.839808868E-18
 62.5733147   9.840193506E-18
 62.7001076   9.840581454E-18
 62.8268967   9.840971883E-18
 62.9536896   9.841366449E-18
 63.0804825   9.841770113E-18
 63.2072754   9.84218453E-18
 63.3340683   9.842609701E-18
 63.4608612   9.84304728E-18
 63.5876541   9.843489821E-18
 63.714447   9.843934844E-18
 63.8412399   9.844374904E-18
 63.9680328   9.84480752E-18
 64.0948257   9.845231036E-18
 64.2216187   9.845647108E-18
 64.3484116   9.846054908E-18
 64.4752045   9.846455264E-18
 64.6019974   9.846849829E-18
 64.7287903   9.847238604E-18
 64.8555832   9.847619107E-18
 64.9823761   9.847995474E-18
 65.109169   9.848366051E-18
 65.2359619   9.848733319E-18
 65.3627548   9.849101415E-18
 65.4895477   9.849470337E-18
 65.616333   9.849843396E-18
 65.7431259   9.850218108E-18
 65.8699188   9.850595303E-18
 65.9967117   9.850973324E-18
 66.1235046   9.851348864E-18
 66.2502975   9.851721096E-18
 66.3770905   9.852087537E-18
 66.5038834   9.852450669E-18
 66.6306763   9.852810492E-18
 66.7574692   9.853168662E-18
 66.8842621   9.853526831E-18
 67.011055   9.853885E-18
 67.1378479   9.854240688E-18
 67.2646408   9.854596375E-18
 67.3914337   9.854948754E-18
 67.5182266   9.855299479E-18
 67.6450195   9.855647722E-18
 67.7718124   9.855995965E-18
 67.8986053   9.856344208E-18
 68.0253983   9.856694933E-18
 68.1521912   9.85705062E-18
 68.2789841   9.857411271E-18
 68.405777   9.857776885E-18
 68.5325699   9.858145807E-18
 68.6593628   9.858517211E-18
 68.7861557   9.858892751E-18
 68.9129486   9.859269946E-18
 69.0397415   9.859650449E-18
 69.1665344   9.860034261E-18
 69.2933273   9.860422208E-18
 69.4201126   9.860815946E-18
 69.5469055   9.861215475E-18
 69.6736984   9.861619139E-18
 69.8004913   9.862024457E-18
 69.9272842   9.862429776E-18
 70.0540771   9.86283344E-18
 70.1808701   9.863233795E-18
 70.307663   9.863631669E-18
 70.4344559   9.864025407E-18
 70.5612488   9.864415836E-18
 70.6880417   9.86480213E-18
 70.8148346   9.86518346E-18
 70.9416275   9.865559E-18
 71.0684204   9.865927923E-18
 71.1952133   9.866286919E-18
 71.3220062   9.866639298E-18
 71.4487991   9.866985059E-18
 71.575592   9.867328339E-18
 71.7023849   9.867671619E-18
 71.8291779   9.868019862E-18
 71.9559708   9.868371414E-18
 72.0827637   9.86873041E-18
 72.2095566   9.869092716E-18
 72.3363495   9.869458329E-18
 72.4631424   9.869825598E-18
 72.5899353   9.870193693E-18
 72.7167282   9.870562615E-18
 72.8435211   9.870935674E-18
 72.970314   9.871312041E-18
 73.0971069   9.871695026E-18
 73.2238922   9.872083801E-18
 73.3506851   9.872475884E-18
 73.477478   9.872870449E-18
 73.6042709   9.873264187E-18
 73.7310638   9.873658753E-18
 73.8578568   9.874054972E-18
 73.9846497   9.874455327E-18
 74.1114426   9.8748623E-18
 74.2382355   9.875279199E-18
 74.3650284   9.875705197E-18
 74.4918213   9.876136158E-18
 74.6186142   9.876569601E-18
 74.7454071   9.877000562E-18
 74.8722   9.877423251E-18
 74.9989929   9.877838496E-18
 75.1257858   9.87824216E-18
 75.2525787   9.878636725E-18
 75.3793716   9.879022192E-18
 75.5061646   9.879401868E-18
 75.6329575   9.879774099E-18
 75.7597504   9.880138885E-18
 75.8865433   9.880493746E-18
 76.0133362   9.880839507E-18
 76.1401291   9.881178651E-18
 76.266922   9.881512832E-18
 76.3937149   9.881848668E-18
 76.5205078   9.882189466E-18
 76.6473007   9.882540191E-18
 76.7740936   9.882900014E-18
 76.9008865   9.883265628E-18
 77.0276718   9.883634551E-18
 77.1544647   9.8840043E-18
 77.2812576   9.88437405E-18
 77.4080505   9.884745454E-18
 77.5348434   9.885120167E-18
 77.6616364   9.88550067E-18
 77.7884293   9.885890272E-18
 77.9152222   9.886287319E-18
 78.0420151   9.886692637E-18
 78.168808   9.887102919E-18
 78.2956009   9.887511546E-18
 78.4223938   9.887918519E-18
 78.5491867   9.88832301E-18
 78.6759796   9.888729156E-18
 78.8027725   9.889136956E-18
 78.9295654   9.889549719E-18
 79.0563583   9.889967445E-18
 79.1831512   9.890389308E-18
 79.3099442   9.89081117E-18
 79.4367371   9.891229723E-18
 79.56353   9.891640832E-18
 79.6903229   9.892043669E-18
 79.8171158   9.892437407E-18
 79.9439087   9.892827009E-18
 80.0707016   9.893211648E-18
 80.1974945   9.893594632E-18
 80.3242874   9.893974308E-18
 80.4510803   9.894349021E-18
 80.5778732   9.894714635E-18
 80.7046585   9.895070323E-18
 80.8314514   9.895415257E-18
 80.9582443   9.895753574E-18
 81.0850372   9.896088582E-18
 81.2118301   9.896426899E-18
 81.338623   9.896773488E-18
 81.465416   9.89713083E-18
 81.5922089   9.897498925E-18
 81.7190018   9.897878601E-18
 81.8457947   9.898267376E-18
 81.9725876   9.89866525E-18
 82.0993805   9.89907305E-18
 82.2261734   9.899493257E-18
 82.3529663   9.899928354E-18
 82.4797592   9.900377513E-18
 82.6065521   9.900836599E-18
 82.733345   9.901301474E-18
 82.8601379   9.901765523E-18
 82.9869308   9.902222126E-18
 83.1137238   9.902661359E-18
 83.2405167   9.903079085E-18
 83.3673096   9.903472823E-18
 83.4941025   9.903840092E-18
 83.6208954   9.904179236E-18
 83.7476883   9.904491083E-18
 83.8744812   9.90477067E-18
 84.0012741   9.90501717E-18
 84.128067   9.905228928E-18
 84.2548599   9.90540429E-18
 84.3816528   9.905547392E-18
 84.5084381   9.905668161E-18
 84.635231   9.905778176E-18
 84.7620239   9.905893981E-18
 84.8888168   9.906031293E-18
 85.0156097   9.906209964E-18
 85.1424026   9.906444883E-18
 85.2691956   9.906751767E-18
 85.3959885   9.907145505E-18
 85.5227814   9.907637678E-18
 85.6495743   9.908240692E-18
 85.7763672   9.908963648E-18
 85.9031601   9.909809854E-18
 86.029953   9.910774347E-18
 86.1567459   9.911842237E-18
 86.2835388   9.912992018E-18
 86.4103317   9.91419143E-18
 86.5371246   9.915400768E-18
 86.6639175   9.916576191E-18
 86.7907104   9.917671379E-18
 86.9175034   9.918637526E-18
 87.0442963   9.919430792E-18
 87.1710892   9.920005682E-18
 87.2978821   9.920322492E-18
 87.424675   9.920348135E-18
 87.5514679   9.92005614E-18
 87.6782608   9.919437409E-18
 87.8050537   9.91849525E-18
 87.9318466   9.917251998E-18
 88.0586395   9.915756455E-18
 88.1854324   9.914073143E-18
 88.3122177   9.91228726E-18
 88.4390106   9.91049476E-18
 88.5658035   9.908806484E-18
 88.6925964   9.907343201E-18
 88.8193893   9.906224853E-18
 88.9461823   9.905571381E-18
 89.0729752   9.905500243E-18
 89.1997681   9.906113184E-18
 89.326561   9.907492921E-18
 89.4533539   9.909693222E-18
 89.5801468   9.912733937E-18
 89.7069397   9.916586945E-18
 89.8337326   9.921186069E-18
 89.9605255   9.926410542E-18
 90.0873184   9.932095754E-18
 90.2141113   9.938037392E-18
 90.3409042   9.943991438E-18
 90.4676971   9.949688231E-18
 90.5944901   9.954836603E-18
 90.721283   9.959134634E-18
 90.8480759   9.962283711E-18
 90.9748688   9.964005073E-18
 91.1016617   9.964050568E-18
 91.2284546   9.962229944E-18
 91.3552475   9.95841995E-18
 91.4820404   9.952584191E-18
 91.6088333   9.944783878E-18
 91.7356262   9.935181965E-18
 91.8624191   9.924053077E-18
 91.989212   9.911772754E-18
 92.1159973   9.898816624E-18
 92.2427902   9.885749652E-18
 92.3695831   9.873203803E-18
 92.496376   9.861863984E-18
 92.6231689   9.852434125E-18
 92.7499619   9.845614848E-18
 92.8767548   9.842056317E-18
 93.0035477   9.84232846E-18
 93.1303406   9.846877953E-18
 93.2571335   9.855993483E-18
 93.3839264   9.869774312E-18
 93.5107193   9.888105462E-18
 93.6375122   9.910637035E-18
 93.7643051   9.936784214E-18
 93.891098   9.965723955E-18
 94.0178909   9.996411528E-18
 94.1446838   1.002760451E-17
 94.2714767   1.005789917E-17
 94.3982697   1.008577929E-17
 94.5250626   1.010967489E-17
 94.6518555   1.012803333E-17
 94.7786484   1.013940045E-17
 94.9054413   1.014249907E-17
 95.0322342   1.013630845E-17
 95.1590271   1.01201412E-17
 95.28582   1.009371278E-17
 95.4126129   1.005719359E-17
 95.5394058   1.001124619E-17
 95.6661987   9.957044349E-18
 95.7929916   9.896273043E-18
 95.9197769   9.83110031E-18
 96.0465698   9.764125977E-18
 96.1733627   9.698305562E-18
 96.3001556   9.636847697E-18
 96.4269485   9.58308592E-18
 96.5537415   9.540332263E-18
 96.6805344   9.511720085E-18
 96.8073273   9.500032023E-18
 96.9341202   9.507541169E-18
 97.0609131   9.535850598E-18
 97.187706   9.585760195E-18
 97.3144989   9.657145054E-18
 97.4412918   9.748873594E-18
 97.5680847   9.858763711E-18
 97.6948776   9.98357534E-18
 97.8216705   1.011905842E-17
 97.9484634   1.026005467E-17
 98.0752563   1.040064559E-17
 98.2020493   1.053435769E-17
 98.3288422   1.065441468E-17
 98.4556351   1.075401633E-17
 98.582428   1.082665602E-17
 98.7092209   1.086644837E-17
 98.8360138   1.086845345E-17
 98.9628067   1.08290019E-17
 99.0895996   1.074596868E-17
 99.2163925   1.061902045E-17
 99.3431854   1.044979667E-17
 99.4699783   1.0242018E-17
 99.5967712   1.000150531E-17
 99.7235565   9.736108543E-18
 99.8503494   9.455533842E-18
 99.9771423   9.171060639E-18
 100.103935   8.895174398E-18
 100.230728   8.641100083E-18
 100.357521   8.422268625E-18
 100.484314   8.251727143E-18
 100.611107   8.141513599E-18
 100.7379   8.102023996E-18
 100.864693   8.141400275E-18
 100.991486   8.264964515E-18
 101.118279   8.474734209E-18
 101.245071   8.769041763E-18
 101.371864   9.142292125E-18
 101.498657   9.584875111E-18
 101.62545   1.008325308E-17
 101.752243   1.062023806E-17
 101.879036   1.117544582E-17
 102.005829   1.172594693E-17
 102.132622   1.224706906E-17
 102.259415   1.271335242E-17
 102.386208   1.309961103E-17
 102.513   1.338207253E-17
 102.639793   1.353954952E-17
 102.766586   1.355458435E-17
 102.893379   1.341453192E-17
 103.020172   1.311250347E-17
 103.146965   1.264813916E-17
 103.273758   1.202814578E-17
 103.400551   1.126656804E-17
 103.527336   1.038475215E-17
 103.654129   9.410989339E-18
 103.780922   8.379828469E-18
 103.907715   7.331055269E-18
 104.034508   6.308372173E-18
 104.161301   5.357808887E-18
 104.288094   4.525904246E-18
 104.414886   3.857732149E-18
 104.541679   3.394846841E-18
 104.668472   3.173225096E-18
 104.795265   3.221302281E-18
 104.922058   3.558183166E-18
 105.048851   4.192137282E-18
 105.175644   5.119441077E-18
 105.302437   6.323664261E-18
 105.42923   7.775444818E-18
 105.556023   9.432797956E-18
 105.682816   1.12419925E-17
 105.809608   1.313897904E-17
 105.936401   1.505136188E-17
 106.063194   1.690084178E-17
 106.189987   1.860610604E-17
 106.31678   2.008600826E-17
 106.443573   2.126296716E-17
 106.570366   2.206644905E-17
 106.697159   2.243636256E-17
 106.823952   2.232626151E-17
 106.950745   2.17061573E-17
 107.077538   2.056485319E-17
 107.20433   1.891162686E-17
 107.331116   1.677718489E-17
 107.457909   1.421379188E-17
 107.584702   1.129452013E-17
 107.711494   8.111596957E-18
 107.838287   4.773899611E-18
 107.96508   1.403594185E-18
 108.091873   -1.867950633E-18
 108.218666   -4.904856778E-18
 108.345459   -7.571868225E-18
 108.472252   -9.739772953E-18
 108.599045   -1.12908582E-17
 108.725838   -1.212421619E-17
 108.852631   -1.216067418E-17
 108.979424   -1.134712054E-17
 109.106216   -9.660041841E-18
 109.233009   -7.108079636E-18
 109.359802   -3.73347225E-18
 109.486595   3.877399299E-19
 109.613388   5.14679015E-18
 109.740181   1.040458132E-17
 109.866974   1.599534701E-17
 109.993767   2.173149549E-17
 110.12056   2.740948325E-17
 110.247353   3.28166074E-17
 110.374146   3.773836182E-17
 110.500938   4.196621428E-17
 110.627731   4.530549279E-17
 110.754524   4.758305189E-17
 110.881317   4.865454856E-17
 111.008102   4.841085123E-17
 111.134895   4.678353219E-17
 111.261688   4.37491293E-17
 111.388481   3.933190542E-17
 111.515274   3.360514214E-17
 111.642067   2.669070135E-17
 111.76886   1.875703507E-17
 111.895653   1.001547142E-17
 112.022446   7.150069082E-19
 112.149239   -8.86432387E-18
 112.276031   -1.841921947E-17
 112.402824   -2.763191377E-17
 112.529617   -3.617966569E-17
 112.65641   -4.374463606E-17
 112.783203   -5.002396261E-17
 112.909996   -5.473960679E-17
 113.036789   -5.764781169E-17
 113.163582   -5.854769817E-17
 113.290375   -5.728902045E-17
 113.417168   -5.377869092E-17
 113.543961   -4.798593186E-17
 113.670753   -3.994600431E-17
 113.797546   -2.976224299E-17
 113.924339   -1.760654099E-17
 114.051132   -3.718105716E-18
 114.177925   1.159948921E-17
 114.304718   2.79828683E-17
 114.431511   4.501499688E-17
 114.558304   6.223294662E-17
 114.685097   7.913702433E-17
 114.811882   9.520132181E-17
 114.938675   1.09885432E-16
 115.065468   1.226473664E-16
 115.192261   1.329574515E-16
 115.319054   1.403130327E-16
 115.445847   1.442537476E-16
 115.572639   1.443773482E-16
 115.699432   1.403555299E-16
 115.826225   1.319494823E-16
 115.953018   1.190251095E-16
 116.079811   1.015667479E-16
 116.206604   7.968973318E-17
 116.333397   5.36506963E-17
 116.46019   2.385512951E-17
 116.586983   -9.138267064E-18
 116.713776   -4.461739763E-17
 116.840569   -8.172097774E-17
 116.967361   -1.194479642E-16
 117.094154   -1.566726005E-16
 117.220947   -1.921651471E-16
 117.34774   -2.246190822E-16
 117.474533   -2.526840101E-16
 117.601326   -2.75004387E-16
 117.728119   -2.902635003E-16
 117.854912   -2.972316433E-16
 117.981705   -2.948174935E-16
 118.108498   -2.821212373E-16
 118.235291   -2.584878269E-16
 118.362083   -2.235579881E-16
 118.488876   -1.773148861E-16
 118.615662   -1.201249156E-16
 118.742455   -5.276885229E-17
 118.869247   2.353782799E-17
 118.99604   1.071380079E-16
 119.122833   1.959417494E-16
 119.249626   2.874514039E-16
 119.376419   3.788052307E-16
 119.503212   4.668391384E-16
 119.630005   5.481670598E-16
 119.756798   6.192784932E-16
 119.883591   6.766516876E-16
 120.010384   7.168799292E-16
 120.137177   7.368072793E-16
 120.263969   7.336696045E-16
 120.390762   7.052370378E-16
 120.517555   6.499508268E-16
 120.644348   5.670500711E-16
 120.771141   4.566823663E-16
 120.897934   3.199912068E-16
 121.024727   1.591758343E-16
 121.15152   -2.24822562E-17
 121.278313   -2.206301525E-16
 121.405106   -4.298962728E-16
 121.531898   -6.439854385E-16
 121.658691   -8.558173142E-16
 121.785484   -1.057708782E-15
 121.912277   -1.241595082E-15
 122.03907   -1.399286676E-15
 122.165863   -1.522754751E-15
 122.292656   -1.60443848E-15
 122.419441   -1.637562127E-15
 122.546234   -1.616453642E-15