 -4.5   9.708150665E-18
 -4.37296724   9.708504699E-18
 -4.24593449   9.709048156E-18
 -4.11890221   9.709637109E-18
 -3.99186945   9.710187184E-18
 -3.86483669   9.710683492E-18
 -3.73780417   9.711150022E-18
 -3.61077142   9.711624824E-18
 -3.4837389   9.712134367E-18
 -3.35670614   9.712688578E-18
 -3.22967362   9.713282494E-18
 -3.10264087   9.713902879E-18
 -2.97560835   9.714543944E-18
 -2.84857559   9.715209825E-18
 -2.72154307   9.715904656E-18
 -2.59451032   9.716631748E-18
 -2.46747756   9.717383655E-18
 -2.34044504   9.71814797E-18
 -2.21341228   9.718907322E-18
 -2.08637977   9.71965013E-18
 -1.95934713   9.720372259E-18
 -1.83231449   9.721077017E-18
 -1.70528185   9.721767713E-18
 -1.57824922   9.722446828E-18
 -1.45121646   9.723106918E-18
 -1.32418382   9.723733094E-18
 -1.19715118   9.72430633E-18
 -1.07011855   9.724815873E-18
 -0.943085909   9.725255106E-18
 -0.816053271   9.725630646E-18
 -0.689020634   9.725954074E-18
 -0.561987996   9.726236969E-18
 -0.434955359   9.726484296E-18
 -0.307922721   9.726692746E-18
 -0.180890068   9.726849083E-18
 -5.385742337E-2   9.726944209E-18
 7.317522168E-2   9.726970679E-18
 0.200207874   9.726935937E-18
 0.327240527   9.726859836E-18
 0.454273164   9.726769674E-18
 0.581305802   9.726693573E-18
 0.708338439   9.726651387E-18
 0.835371077   9.72665056E-18
 0.962403715   9.726686956E-18
 1.08943641   9.726748167E-18
 1.21646905   9.726825095E-18
 1.34350169   9.726916912E-18
 1.47053432   9.727031063E-18
 1.59756696   9.727184918E-18
 1.7245996   9.727399985E-18
 1.85163224   9.727689499E-18
 1.97866488   9.728056767E-18
 2.10569763   9.728492691E-18
 2.23273015   9.728979073E-18
 2.35976291   9.729495234E-18
 2.48679543   9.730032901E-18
 2.61382818   9.730589594E-18
 2.7408607   9.731172756E-18
 2.86789346   9.731794796E-18
 2.99492598   9.732462331E-18
 3.12195873   9.733172052E-18
 3.24899125   9.733909897E-18
 3.37602401   9.734650223E-18
 3.50305653   9.735367389E-18
 3.63008928   9.73603906E-18
 3.75712204   9.736656136E-18
 3.88415456   9.737221101E-18
 4.01118708   9.737747188E-18
 4.13821983   9.738244323E-18
 4.26525259   9.738720779E-18
 4.39228535   9.739171593E-18
 4.51931763   9.739583529E-18
 4.64635038   9.739940871E-18
 4.77338314   9.740230384E-18
 4.9004159   9.740450414E-18
 5.02744818   9.740610887E-18
 5.15448093   9.740727519E-18
 5.28151369   9.740821818E-18
 5.40854645   9.740908672E-18
 5.53557873   9.740993044E-18
 5.66261148   9.741067491E-18
 5.78964424   9.741121257E-18
 5.916677   9.741143591E-18
 6.04370975   9.741129529E-18
 6.17074203   9.74108817E-18
 6.29777479   9.741036885E-18
 6.42480755   9.74099718E-18
 6.55184031   9.740988081E-18
 6.67887259   9.741018687E-18
 6.80590534   9.741085689E-18
 6.9329381   9.741177506E-18
 7.05997086   9.741280903E-18
 7.18700314   9.74138761E-18
 7.31403589   9.741497625E-18
 7.44106865   9.741622529E-18
 7.56810141   9.741776384E-18
 7.69513416   9.741969945E-18
 7.82216644   9.742208173E-18
 7.9491992   9.742481142E-18
 8.07623196   9.742770655E-18
 8.20326424   9.74305686E-18
 8.33029747   9.743317422E-18
 8.45732975   9.743544069E-18
 8.58436203   9.743736802E-18
 8.71139526   9.743903066E-18
 8.83842754   9.744056921E-18
 8.96546078   9.744204987E-18
 9.09249306   9.744346435E-18
 9.21952534   9.744472166E-18
 9.34655857   9.7445706E-18
 9.47359085   9.744630985E-18
 9.60062313   9.744653319E-18
 9.72765636   9.744647528E-18
 9.85468864   9.744630985E-18
 9.98172188   9.744626022E-18
 10.1087542   9.74465001E-18
 10.2357864   9.744710394E-18
 10.3628197   9.744804693E-18
 10.489852   9.744923807E-18
 10.6168852   9.745053674E-18
 10.7439175   9.745187677E-18
 10.8709497   9.745325816E-18
 10.997983   9.745476363E-18
 11.1250153   9.745654207E-18
 11.2520475   9.745868447E-18
 11.3790808   9.746124873E-18
 11.5061131   9.746415213E-18
 11.6331463   9.74672706E-18
 11.7601786   9.747038907E-18
 11.8872108   9.74733752E-18
 12.0142441   9.747612971E-18
 12.1412764   9.747866915E-18
 12.2683096   9.74810597E-18
 12.3953419   9.748337581E-18
 12.5223742   9.748569192E-18
 12.6494074   9.748795839E-18
 12.7764397   9.74900677E-18
 12.9034719   9.749186268E-18
 13.0305052   9.749321099E-18
 13.1575375   9.749400508E-18
 13.2845707   9.749431114E-18
 13.411603   9.749422015E-18
 13.5386353   9.749391409E-18
 13.6656685   9.749352532E-18
 13.7927008   9.749312E-18
 13.919734   9.749267332E-18
 14.0467663   9.749208602E-18
 14.1737986   9.749127538E-18
 14.3008318   9.749017523E-18
 14.4278641   9.748882693E-18
 14.5548964   9.748736282E-18
 14.6819296   9.748595661E-18
 14.8089619   9.748474066E-18
 14.9359951   9.748381422E-18
 15.0630274   9.74831442E-18
 15.1900597   9.748265616E-18
 15.3170929   9.748222603E-18
 15.4441252   9.748174626E-18
 15.5711575   9.748120033E-18
 15.6981907   9.748062957E-18
 15.825223   9.748017462E-18
 15.9522562   9.747993474E-18
 16.0792885   9.747999264E-18
 16.2063217   9.748034006E-18
 16.333353   9.748089427E-18
 16.4603863   9.748150638E-18
 16.5874195   9.748204405E-18
 16.7144508   9.748239974E-18
 16.8414841   9.748258999E-18
 16.9685173   9.748266443E-18
 17.0955505   9.748277197E-18
 17.2225819   9.748299531E-18
 17.3496151   9.748336754E-18
 17.4766483   9.748385557E-18
 17.6036797   9.748433534E-18
 17.7307129   9.74846993E-18
 17.8577461   9.748492264E-18
 17.9847775   9.748503844E-18
 18.1118107   9.748515425E-18
 18.2388439   9.748545203E-18
 18.3658752   9.748603933E-18
 18.4929085   9.748700713E-18
 18.6199417   9.748830581E-18
 18.7469749   9.748981955E-18
 18.8740063   9.749140773E-18
 19.0010395   9.749292975E-18
 19.1280727   9.749433595E-18
 19.2551041   9.749565117E-18
 19.3821373   9.749696639E-18
 19.5091705   9.749837259E-18
 19.6362019   9.749991115E-18
 19.7632351   9.750157378E-18
 19.8902683   9.750324469E-18
 20.0172997   9.750479152E-18
 20.1443329   9.750609019E-18
 20.2713661   9.750709108E-18
 20.3983994   9.750779418E-18
 20.5254307   9.750829876E-18
 20.6524639   9.750872062E-18
 20.7794971   9.750915903E-18
 20.9065285   9.750963052E-18
 21.0335617   9.75100772E-18
 21.1605949   9.751042462E-18
 21.2876263   9.751056524E-18
 21.4146595   9.751046598E-18
 21.5416927   9.751015165E-18
 21.6687241   9.750974633E-18
 21.7957573   9.750942373E-18
 21.9227905   9.750931619E-18
 22.0498238   9.750948163E-18
 22.1768551   9.750992004E-18
 22.3038883   9.751055697E-18
 22.4309216   9.751126834E-18
 22.5579529   9.751198799E-18
 22.6849861   9.751269109E-18
 22.8120193   9.75134521E-18
 22.9390507   9.751435372E-18
 23.0660839   9.751548696E-18
 23.1931171   9.751689317E-18
 23.3201485   9.751853099E-18
 23.4471817   9.752027634E-18
 23.5742149   9.752200514E-18
 23.7012463   9.752357679E-18
 23.8282795   9.752492509E-18
 23.9553127   9.752607487E-18
 24.082346   9.752710058E-18
 24.2093773   9.752810974E-18
 24.3364105   9.75291768E-18
 24.4634438   9.753031831E-18
 24.5904751   9.753147636E-18
 24.7175083   9.753256824E-18
 24.8445415   9.753351123E-18
 24.9715729   9.753427223E-18
 25.0986061   9.753489262E-18
 25.2256393   9.753547165E-18
 25.3526707   9.753614166E-18
 25.4797039   9.753701847E-18
 25.6067371   9.753815171E-18
 25.7337704   9.753950001E-18
 25.8608017   9.754098894E-18
 25.9878349   9.754251095E-18
 26.1148682   9.754399988E-18
 26.2418995   9.754546399E-18
 26.3689327   9.754695291E-18
 26.495966   9.754855764E-18
 26.6229973   9.755036917E-18
 26.7500305   9.755242058E-18
 26.8770638   9.755468705E-18
 27.0040951   9.755703624E-18
 27.1311283   9.755936889E-18
 27.2581615   9.756159401E-18
 27.3851948   9.756366196E-18
 27.5122261   9.756562238E-18
 27.6392593   9.756753317E-18
 27.7662926   9.756947704E-18
 27.8933239   9.757152018E-18
 28.0203571   9.757362121E-18
 28.1473904   9.757569744E-18
 28.2744217   9.757763304E-18
 28.4014549   9.757933703E-18
 28.5284882   9.758075978E-18
 28.6555195   9.758192611E-18
 28.7825527   9.758291872E-18
 28.909586   9.758387825E-18
 29.0366192   9.758487914E-18
 29.1636505   9.758598757E-18
 29.2906837   9.758720352E-18
 29.417717   9.758846911E-18
 29.5447483   9.758973469E-18
 29.6717815   9.759098374E-18
 29.7988148   9.759222451E-18
 29.9258461   9.759352318E-18
 30.0528793   9.759496247E-18
 30.1799126   9.759660856E-18
 30.3069439   9.759847799E-18
 30.4339771   9.760051286E-18
 30.5610104   9.760263044E-18
 30.6880436   9.760473148E-18
 30.8150749   9.76067498E-18
 30.9421082   9.76086854E-18
 31.0691414   9.761057137E-18
 31.1961727   9.761252352E-18
 31.3232059   9.761463283E-18
 31.4502392   9.761696548E-18
 31.5772705   9.761953801E-18
 31.7043037   9.762230079E-18
 31.831337   9.762515457E-18
 31.9583683   9.762802488E-18
 32.0854034   9.763082903E-18
 32.2124329   9.763360008E-18
 32.3394661   9.763637941E-18
 32.4664993   9.763921664E-18
 32.5935326   9.76421614E-18
 32.7205658   9.764520543E-18
 32.847599   9.764833217E-18
 32.9746284   9.765146718E-18
 33.1016617   9.765453602E-18
 33.2286949   9.765753042E-18
 33.3557281   9.766045864E-18
 33.4827614   9.766337031E-18
 33.6097946   9.766633989E-18
 33.7368279   9.766945009E-18
 33.8638573   9.767266782E-18
 33.9908905   9.767596827E-18
 34.1179237   9.767925218E-18
 34.244957   9.768242855E-18
 34.3719902   9.768541467E-18
 34.4990234   9.768821882E-18
 34.6260529   9.769085752E-18
 34.7530861   9.769339697E-18
 34.8801193   9.769595296E-18
 35.0071526   9.769855857E-18
 35.1341858   9.770123864E-18
 35.261219   9.770396834E-18
 35.3882523   9.77067063E-18
 35.5152817   9.770938637E-18
 35.6423149   9.771197544E-18
 35.7693481   9.771451489E-18
 35.8963814   9.77170626E-18
 36.0234146   9.771970131E-18
 36.1504478   9.772251373E-18
 36.2774773   9.772553293E-18
 36.4045105   9.772870931E-18
 36.5315437   9.773198494E-18
 36.658577   9.773532675E-18
 36.7856102   9.773865202E-18
 36.9126434   9.774199383E-18
 37.0396767   9.774536045E-18
 37.1667061   9.774878498E-18
 37.2937393   9.775229223E-18
 37.4207726   9.775589873E-18
 37.5478058   9.775952179E-18
 37.674839   9.776307039E-18
 37.8018723   9.776642874E-18
 37.9289017   9.77695224E-18
 38.0559349   9.777232654E-18
 38.1829681   9.77748908E-18
 38.3100014   9.777726481E-18
 38.4370346   9.777953128E-18
 38.5640678   9.778174813E-18
 38.6911011   9.778392361E-18
 38.8181305   9.778601638E-18
 38.9451637   9.778800161E-18
 39.072197   9.778983796E-18
 39.1992302   9.779154195E-18
 39.3262634   9.779317149E-18
 39.4532967   9.77947845E-18
 39.5803261   9.779648022E-18
 39.7073593   9.779832483E-18
 39.8343925   9.780035142E-18
 39.9614258   9.780251863E-18
 40.088459   9.780478511E-18
 40.2154922   9.780710949E-18
 40.3425255   9.780946695E-18
 40.4695549   9.781187405E-18
 40.5965881   9.781436386E-18
 40.7236214   9.781697775E-18
 40.8506546   9.781975708E-18
 40.9776878   9.78226853E-18
 41.1047211   9.782572105E-18
 41.2317505   9.782879816E-18
 41.3587837   9.783185046E-18
 41.485817   9.783483658E-18
 41.6128502   9.78377648E-18
 41.7398834   9.784068475E-18
 41.8669167   9.784363778E-18
 41.9939499   9.784669008E-18
 42.1209793   9.784986645E-18
 42.2480125   9.785313382E-18
 42.3750458   9.785646735E-18
 42.502079   9.785981744E-18
 42.6291122   9.786312616E-18
 42.7561455   9.786639352E-18
 42.8831749   9.786963607E-18
 43.0102081   9.787288689E-18
 43.1372414   9.787619561E-18
 43.2642746   9.787958705E-18
 43.3913078   9.788302812E-18
 43.5183411   9.788649401E-18
 43.6453743   9.788992681E-18
 43.7724037   9.789325208E-18
 43.899437   9.789647808E-18
 44.0264702   9.789961309E-18
 44.1535034   9.790271502E-18
 44.2805367   9.790582522E-18
 44.4075699   9.790900159E-18
 44.5345993   9.791227723E-18
 44.6616325   9.791562731E-18
 44.7886658   9.791901048E-18
 44.915699   9.792235229E-18
 45.0427322   9.792564447E-18
 45.1697655   9.792887874E-18
 45.2967987   9.793208821E-18
 45.4238281   9.793533902E-18
 45.5508614   9.793867256E-18
 45.6778946   9.794211363E-18
 45.8049278   9.794565397E-18
 45.9319611   9.79492522E-18
 46.0589943   9.795284217E-18
 46.1860237   9.79563825E-18
 46.3130569   9.795986493E-18
 46.4400902   9.796331427E-18
 46.5671234   9.796678843E-18
 46.6941566   9.797032876E-18
 46.8211899   9.797396009E-18
 46.9482231   9.797767413E-18
 47.0752525   9.798138817E-18
 47.2022858   9.798504431E-18
 47.329319   9.798858464E-18
 47.4563522   9.799196781E-18
 47.5833855   9.799523517E-18
 47.7104187   9.799841982E-18
 47.8374481   9.800157965E-18
 47.9644814   9.800477257E-18
 48.0915146   9.800803166E-18
 48.2185478   9.801134865E-18
 48.3455811   9.801469873E-18
 48.4726143   9.801805709E-18
 48.5996475   9.802139062E-18
 48.7266769   9.802473243E-18
 48.8537102   9.80281156E-18
 48.9807434   9.803157322E-18
 49.1077766   9.803514664E-18
 49.2348099   9.803881932E-18
 49.3618431   9.804254163E-18
 49.4888725   9.80462474E-18
 49.6159058   9.804982909E-18
 49.742939   9.805326189E-18
 49.8699722   9.805651271E-18
 49.9970055   9.805962291E-18
 50.1240387   9.806263385E-18
 50.2510719   9.806560343E-18
 50.3781013   9.806855646E-18
 50.5051346   9.807150123E-18
 50.6321678   9.807442117E-18
 50.759201   9.807729149E-18
 50.8862343   9.808007909E-18
 51.0132675   9.808284187E-18
 51.1402969   9.808557984E-18
 51.2673302   9.808835917E-18
 51.3943634   9.809122121E-18
 51.5213966   9.809419079E-18
 51.6484299   9.80972679E-18
 51.7754631   9.810041119E-18
 51.9024925   9.810356275E-18
 52.0295258   9.810668122E-18
 52.156559   9.810975006E-18
 52.2835922   9.811278581E-18
 52.4106255   9.811582156E-18
 52.5376587   9.811889867E-18
 52.6646919   9.812208332E-18
 52.7917213   9.81253755E-18
 52.9187546   9.812877521E-18
 53.0457878   9.813223283E-18
 53.172821   9.813572353E-18
 53.2998543   9.813920596E-18
 53.4268875   9.814269666E-18
 53.5539169   9.814621218E-18
 53.6809502   9.814980214E-18
 53.8079834   9.815349137E-18
 53.9350166   9.815727986E-18
 54.0620499   9.816114279E-18
 54.1890831   9.816502227E-18
 54.3161163   9.816886866E-18
 54.4431458   9.817263233E-18
 54.570179   9.817632982E-18
 54.6972122   9.817996115E-18
 54.8242455   9.818360901E-18
 54.9512787   9.81872817E-18
 55.0783119   9.819102882E-18
 55.2053413   9.819482558E-18
 55.3323746   9.819865543E-18
 55.4594078   9.820246873E-18
 55.586441   9.820624068E-18
 55.7134743   9.820995472E-18
 55.8405075   9.821366876E-18
 55.9675407   9.821741589E-18
 56.0945702   9.822126228E-18
 56.2216034   9.822524929E-18
 56.3486366   9.82293521E-18
 56.4756699   9.823353764E-18
 56.6027031   9.823774799E-18
 56.7297363   9.824192525E-18
 56.8567657   9.824604461E-18
 56.983799   9.825008952E-18
 57.1108322   9.825409307E-18
 57.2378654   9.825808008E-18
 57.3648987   9.826208364E-18
 57.4919319   9.826607892E-18
 57.6189651   9.827003284E-18
 57.7459946   9.827389578E-18
 57.8730278   9.827760155E-18
 58.000061   9.828115015E-18
 58.1270943   9.828454986E-18
 58.2541275   9.828785031E-18
 58.3811607   9.829109286E-18
 58.5081902   9.829433541E-18
 58.6352234   9.829760277E-18
 58.7622566   9.830089495E-18
 58.8892899   9.830418713E-18
 59.0163231   9.830743795E-18
 59.1433563   9.831063087E-18
 59.2703896   9.831378243E-18
 59.397419   9.831693399E-18
 59.5244522   9.83201269E-18
 59.6514854   9.832342735E-18
 59.7785187   9.832684361E-18
 59.9055519   9.833035913E-18
 60.0325851   9.833392427E-18
 60.1596146   9.833747288E-18
 60.2866478   9.834096358E-18
 60.413681   9.834436329E-18
 60.5407143   9.834768029E-18
 60.6677475   9.835097247E-18
 60.7947807   9.83542481E-18
 60.921814   9.835754855E-18
 61.0488434   9.836085728E-18
 61.1758766   9.836414945E-18
 61.3029099   9.836740027E-18
 61.4299431   9.837060146E-18
 61.5569763   9.837374475E-18
 61.6840096   9.837688804E-18
 61.811039   9.83800975E-18
 61.9380722   9.838341449E-18
 62.0651054   9.838688865E-18
 62.1921387   9.839051997E-18
 62.3191719   9.83942671E-18
 62.4462051   9.839808868E-18
 62.5732384   9.840194334E-18
 62.7002678   9.840582281E-18
 62.827301   9.840973538E-18
 62.9543343   9.841370585E-18
 63.0813675   9.841777557E-18
 63.2084007   9.842196938E-18
 63.335434   9.842629553E-18
 63.4624634   9.843068786E-18
 63.5894966   9.843511328E-18
 63.7165298   9.843950561E-18
 63.8435631   9.844382349E-18
 63.9705963   9.84480752E-18
 64.0976257   9.845226073E-18
 64.2246628   9.845640491E-18
 64.3516922   9.8460516E-18
 64.4787292   9.846460227E-18
 64.6057587   9.846863891E-18
 64.7327881   9.847259283E-18
 64.8598251   9.847645577E-18
 64.9868546   9.848021944E-18
 65.1138916   9.848390039E-18
 65.240921   9.848753171E-18
 65.3679581   9.849116304E-18
 65.4949875   9.849483572E-18
 65.6220169   9.84985663E-18
 65.749054   9.850233825E-18
 65.8760834   9.850611846E-18
 66.0031204   9.850987386E-18
 66.1301498   9.851360445E-18
 66.2571869   9.851727713E-18
 66.3842163   9.852093327E-18
 66.5112457   9.852457286E-18
 66.6382828   9.8528229E-18
 66.7653122   9.853189341E-18
 66.8923492   9.853554955E-18
 67.0193787   9.853918914E-18
 67.1464081   9.854278738E-18
 67.2734451   9.854631944E-18
 67.4004745   9.854977706E-18
 67.5275116   9.855320986E-18
 67.654541   9.855664265E-18
 67.7815781   9.856010854E-18
 67.9086075   9.856362406E-18
 68.0356369   9.856720575E-18
 68.162674   9.857083707E-18
 68.2897034   9.857450148E-18
 68.4167404   9.857818244E-18
 68.5437698   9.858187994E-18
 68.6708069   9.858559398E-18
 68.7978363   9.85893411E-18
 68.9248657   9.859313786E-18
 69.0519028   9.859697598E-18
 69.1789322   9.8600872E-18
 69.3059692   9.860477629E-18
 69.4329987   9.860871367E-18
 69.5600357   9.861264278E-18
 69.6870651   9.861659671E-18
 69.8140945   9.862058372E-18
 69.9411316   9.862460381E-18
 70.068161   9.862864873E-18
 70.1951981   9.863270191E-18
 70.3222275   9.863673855E-18
 70.4492569   9.864073384E-18
 70.5762939   9.864466294E-18
 70.7033234   9.864851761E-18
 70.8303604   9.865228955E-18
 70.9573898   9.86559705E-18
 71.0844269   9.865960183E-18
 71.2114563   9.866317525E-18
 71.3384857   9.866671558E-18
 71.4655228   9.86702311E-18
 71.5925522   9.867373007E-18
 71.7195892   9.867722077E-18
 71.8466187   9.868071147E-18
 71.9736557   9.868423526E-18
 72.1006851   9.868779214E-18
 72.2277145   9.869139865E-18
 72.3547516   9.869507133E-18
 72.481781   9.869879364E-18
 72.6088181   9.870255731E-18
 72.7358475   9.870632926E-18
 72.8628845   9.871010947E-18
 72.9899139   9.871388142E-18
 73.1169434   9.871767818E-18
 73.2439804   9.872149975E-18
 73.3710098   9.872537096E-18
 73.4980469   9.872928352E-18
 73.6250763   9.873324572E-18
 73.7521057   9.8737241E-18
 73.8791428   9.874125282E-18
 74.0061722   9.874529774E-18
 74.1332092   9.874939228E-18
 74.2602386   9.8753553E-18
 74.3872757   9.875778816E-18
 74.5143051   9.876207296E-18
 74.6413345   9.876640739E-18
 74.7683716   9.877073354E-18
 74.895401   9.877500179E-18
 75.022438   9.877918733E-18
 75.1494675   9.878325706E-18
 75.2765045   9.878719444E-18
 75.4035339   9.879100774E-18
 75.5305634   9.879473832E-18
 75.6576004   9.879838619E-18
 75.7846298   9.880195961E-18
 75.9116669   9.880549994E-18
 76.0386963   9.880899064E-18
 76.1657333   9.881243172E-18
 76.2927628   9.881585624E-18
 76.4197922   9.881926423E-18
 76.5468292   9.88227053E-18
 76.6738586   9.882620427E-18
 76.8008957   9.882976942E-18
 76.9279251   9.883340902E-18
 77.0549545   9.883710651E-18
 77.1819916   9.88408371E-18
 77.309021   9.884458423E-18
 77.436058   9.884831481E-18
 77.5630875   9.885205367E-18
 77.6901245   9.885584215E-18
 77.8171539   9.885968854E-18
 77.9441833   9.886364247E-18
 78.0712204   9.88677122E-18
 78.1982498   9.887185637E-18
 78.3252869   9.887602536E-18
 78.4523163   9.888020262E-18
 78.5793533   9.888435507E-18
 78.7063828   9.888845789E-18
 78.8334122   9.889253589E-18
 78.9604492   9.88966387E-18
 79.0874786   9.890079942E-18
 79.2145157   9.89050015E-18
 79.3415451   9.890922839E-18
 79.4685822   9.891343874E-18
 79.5956116   9.891758292E-18
 79.722641   9.892164437E-18
 79.849678   9.89255983E-18
 79.9767075   9.892943641E-18
 80.1037445   9.893321663E-18
 80.2307739   9.893697203E-18
 80.3578033   9.894070261E-18
 80.4848404   9.894440011E-18
 80.6118698   9.894804798E-18
 80.7389069   9.895159658E-18
 80.8659363   9.895503765E-18
 80.9929733   9.895838773E-18
 81.1200027   9.896169646E-18
 81.2470322   9.896503827E-18
 81.3740692   9.896846279E-18
 81.5010986   9.897202794E-18
 81.6281357   9.89757668E-18
 81.7551651   9.897966282E-18
 81.8822021   9.898368292E-18
 82.0092316   9.898781882E-18
 82.136261   9.89920209E-18
 82.263298   9.899630569E-18
 82.3903275   9.900069802E-18
 82.5173645   9.900520616E-18
 82.6443939   9.900982183E-18
 82.771431   9.901450367E-18
 82.8984604   9.901917724E-18
 83.0254898   9.902374327E-18
 83.1525269   9.902810252E-18
 83.2795563   9.90322136E-18
 83.4065933   9.903604345E-18
 83.5336227   9.903955897E-18
 83.6606522   9.904280152E-18
 83.7876892   9.904576282E-18
 83.9147186   9.904843462E-18
 84.0417557   9.905080035E-18
 84.1687851   9.905282695E-18
 84.2958221   9.905451439E-18
 84.4228516   9.905588751E-18
 84.549881   9.905703729E-18
 84.676918   9.905811263E-18
 84.8039474   9.905927068E-18
 84.9309845   9.906072652E-18
 85.0580139   9.906267039E-18
 85.185051   9.906525947E-18
 85.3120804   9.906865091E-18
 85.4391098   9.907295225E-18
 85.5661469   9.907827929E-18
 85.6931763   9.908473957E-18
 85.8202133   9.909239927E-18
 85.9472427   9.910129146E-18
 86.0742722   9.911134997E-18
 86.2013092   9.912241765E-18
 86.3283386   9.913422152E-18
 86.4553757   9.914639762E-18
 86.5824051   9.9158491E-18
 86.7094421   9.917005498E-18
 86.8364716   9.918060153E-18
 86.963501   9.918965916E-18
 87.090538   9.919678119E-18
 87.2175674   9.920157883E-18
 87.3446045   9.920366333E-18
 87.4716339   9.920273689E-18
 87.598671   9.919859271E-18
 87.7257004   9.919115636E-18
 87.8527298   9.918053536E-18
 87.9797668   9.916705232E-18
 88.1067963   9.915123662E-18
 88.2338333   9.913383274E-18
 88.3608627   9.911575885E-18
 88.4878998   9.909804891E-18
 88.6149292   9.908187753E-18
 88.7419586   9.906844412E-18
 88.8689957   9.905894808E-18
 88.9960251   9.905459711E-18
 89.1230621   9.90565079E-18
 89.2500916   9.906562343E-18
 89.377121   9.908268817E-18
 89.504158   9.91081157E-18
 89.6311874   9.914193911E-18
 89.7582245   9.918373655E-18
 89.8852539   9.923259811E-18
 90.012291   9.928713413E-18
 90.1393204   9.934549999E-18
 90.2663498   9.940544577E-18
 90.3933868   9.94644072E-18
 90.5204163   9.951955533E-18
 90.6474533   9.956792886E-18
 90.7744827   9.960650029E-18
 90.9015198   9.96323166E-18
 91.0285492   9.964270598E-18
 91.1555786   9.963538544E-18
 91.2826157   9.960869232E-18
 91.4096451   9.9561725E-18
 91.5366821   9.949452485E-18
 91.6637115   9.940815892E-18
 91.7907486   9.930476134E-18
 91.917778   9.918752504E-18
 92.0448074   9.906073479E-18
 92.1718445   9.892957703E-18
 92.2988739   9.880004882E-18
 92.4259109   9.867880069E-18
 92.5529404   9.857281404E-18
 92.6799698   9.848920262E-18
 92.8070068   9.843483204E-18
 92.9340363   9.841595578E-18
 93.0610733   9.84377768E-18
 93.1881027   9.850412496E-18
 93.3151398   9.861707647E-18
 93.4421692   9.877664788E-18
 93.5691986   9.898060581E-18
 93.6962357   9.922433457E-18
 93.8232651   9.950080315E-18
 93.9503021   9.980067267E-18
 94.0773315   1.001124288E-17
 94.2043686   1.004227621E-17
 94.331398   1.007169241E-17
 94.4584274   1.00979314E-17
 94.5854645   1.011941494E-17
 94.7124939   1.013461769E-17
 94.8395309   1.014215083E-17
 94.9665604   1.014084388E-17
 95.0935974   1.012982418E-17
 95.2206268   1.010859128E-17
 95.3476563   1.007707653E-17
 95.4746933   1.003568937E-17
 95.6017227   9.985350469E-18
 95.7287598   9.927497457E-18
 95.8557892   9.864071729E-18
 95.9828186   9.7974779E-18
 96.1098557   9.730524247E-18
 96.2368851   9.666327586E-18
 96.3639221   9.608194987E-18
 96.4909515   9.559490593E-18
 96.6179886   9.523476803E-18
 96.745018   9.503149667E-18
 96.8720474   9.501070962E-18
 96.9990845   9.519198625E-18
 97.1261139   9.558747785E-18
 97.2531509   9.620050967E-18
 97.3801804   9.702463799E-18
 97.5072174   9.804298004E-18
 97.6342468   9.92279659E-18
 97.7612762   1.005415701E-17
 97.8883133   1.019360477E-17
 98.0153427   1.033552332E-17
 98.1423798   1.047363188E-17
 98.2694092   1.06012187E-17
 98.3964462   1.071141321E-17
 98.5234756   1.079748798E-17
 98.6505051   1.085319032E-17
 98.7775421   1.087307326E-17
 98.9045715   1.085282222E-17
 99.0316086   1.078955862E-17
 99.158638   1.068210538E-17
 99.2856674   1.05311962E-17
 99.4127045   1.033962365E-17
 99.5397339   1.011230201E-17
 99.6667709   9.856231711E-18
 99.7938004   9.58037773E-18
 99.9208374   9.295429726E-18
 100.047867   9.013471152E-18
 100.174896   8.747548301E-18
 100.301933   8.51115828E-18
 100.428963   8.317675772E-18
 100.556   8.179731824E-18
 100.683029   8.108576921E-18
 100.810066   8.113448188E-18
 100.937096   8.200977958E-18
 101.064125   8.374660244E-18
 101.191162   8.63442639E-18
 101.318192   8.976329915E-18
 101.445229   9.392400936E-18
 101.572258   9.870645334E-18
 101.699295   1.039525155E-17
 101.826324   1.094696861E-17
 101.953354   1.150368681E-17
 102.080391   1.204118877E-17
 102.20742   1.253405193E-17
 102.334457   1.295668497E-17
 102.461487   1.328445198E-17
 102.588516   1.349484702E-17
 102.715553   1.356866876E-17
 102.842583   1.34911396E-17
 102.96962   1.325292565E-17
 103.096649   1.285098866E-17
 103.223686   1.228923045E-17
 103.350716   1.157888166E-17
 103.477745   1.07385861E-17
 103.604782   9.794172486E-18
 103.731812   8.778085328E-18
 103.858849   7.728480812E-18
 103.985878   6.68800837E-18
 104.112915   5.702299006E-18
 104.239944   4.818214985E-18
 104.366974   4.08190099E-18
 104.494011   3.536740163E-18
 104.62104   3.22125844E-18
 104.748077   3.16709941E-18
 104.875107   3.397142061E-18
 105.002144   3.923855726E-18
 105.129173   4.748001827E-18
 105.256203   5.857736997E-18
 105.38324   7.228197014E-18
 105.510269   8.821619844E-18
 105.637306   1.058802103E-17
 105.764336   1.246643653E-17
 105.891365   1.438672557E-17
 106.018402   1.627188507E-17
 106.145432   1.804080585E-17
 106.272469   1.961140015E-17
 106.399498   2.090396581E-17
 106.526535   2.184470509E-17
 106.653564   2.236918722E-17
 106.780594   2.242567043E-17
 106.907631   2.197809954E-17
 107.03466   2.100863559E-17
 107.161697   1.951958641E-17
 107.288727   1.75346408E-17
 107.415764   1.50992606E-17
 107.542793   1.228022908E-17
 107.669823   9.164292647E-18
 107.79686   5.855891143E-18
 107.923889   2.474044273E-18
 108.050926   -8.515499221E-19
 108.177956   -3.98506916E-18
 108.304985   -6.789644465E-18
 108.432022   -9.132756387E-18
 108.559052   -1.089175844E-17
 108.686089   -1.19593045E-17
 108.813118   -1.224847857E-17
 108.940155   -1.169736618E-17
 109.067184   -1.027289251E-17
 109.194214   -7.97372911E-18
 109.321251   -4.832091767E-18
 109.44828   -9.143479749E-19
 109.575317   3.67968814E-18
 109.702347   8.818772688E-18
 109.829384   1.434355667E-17
 109.956413   2.007114713E-17
 110.083443   2.580075923E-17
 110.21048   3.132031047E-17
 110.337509   3.641371148E-17
 110.464546   4.08686548E-17
 110.591576   4.44845425E-17
 110.718613   4.708033121E-17
 110.845642   4.850202638E-17
 110.972672   4.862941882E-17
 111.099709   4.73819345E-17
 111.226738   4.472325359E-17
 111.353775   4.06645728E-17
 111.480804   3.526628955E-17
 111.607834   2.863806483E-17
 111.734871   2.093722343E-17
 111.8619   1.236544522E-17
 111.988937   3.16388602E-18
 112.115967   -6.393124685E-18
 112.243004   -1.600570662E-17
 112.370033   -2.535702481E-17
 112.497063   -3.412275537E-17
 112.6241   -4.19809745E-17
 112.751129   -4.862230175E-17
 112.878166   -5.375993377E-17
 113.005196   -5.71392809E-17
 113.132233   -5.854692393E-17
 113.259262   -5.781873368E-17
 113.386292   -5.48466605E-17
 113.513329   -4.958436906E-17
 113.640358   -4.205128816E-17
 113.767395   -3.233514196E-17
 113.894424   -2.059275399E-17
 114.021461   -7.049209192E-18
 114.148491   8.004706197E-18
 114.27552   2.421671001E-17
 114.402557   4.117896995E-17
 114.529587   5.84354266E-17
 114.656624   7.549080557E-17
 114.783653   9.182093243E-17
 114.910683   1.068843215E-16
 115.03772   1.201350005E-16
 115.164749   1.310362749E-16
 115.291786   1.390754381E-16
 115.418816   1.437790518E-16
 115.545853   1.44728933E-16
 115.672882   1.415779572E-16
 115.799911   1.340660853E-16
 115.926949   1.220355572E-16
 116.053978   1.054454177E-16
 116.181015   8.438426109E-17
 116.308044   5.90812429E-17
 116.435081   2.991430526E-17
 116.562111   -2.584807479E-18
 116.68914   -3.772938857E-17
 116.816177   -7.468120089E-17
 116.943207   -1.124588571E-16
 117.070244   -1.499518838E-16
 117.197273   -1.85940752E-16
 117.32431   -2.191229236E-16
 117.45134   -2.481450517E-16
 117.578369   -2.716411368E-16
 117.705406   -2.88275911E-16
 117.832436   -2.967930126E-16
 117.959473   -2.960662848E-16
 118.086502   -2.851533505E-16
 118.213531   -2.63349346E-16
 118.340569   -2.30238934E-16
 118.467598   -1.85744783E-16
 118.594635   -1.301692837E-16
 118.721664   -6.422821214E-17
 118.848701   1.092695084E-17
 118.975731   9.369971107E-17
 119.10276   1.820546045E-16
 119.229797   2.7353992E-16
 119.356827   3.653289365E-16
 119.483864   4.542795985E-16
 119.610893   5.370124299E-16
 119.73793   6.100071882E-16
 119.86496   6.697143819E-16
 119.991989   7.126812398E-16
 120.119026   7.356877135E-16
 120.246056   7.358888309E-16
 120.373093   7.109580043E-16
 120.500122   6.592268964E-16
 120.627159   5.798148576E-16
 120.754189   4.727433815E-16
 120.881218   3.390277694E-16
 121.008255   1.807418226E-16
 121.135284   1.049085977E-18
 121.262321   -1.958034448E-16
 121.389351   -4.04532983E-16
 121.51638   -6.189113574E-16
 121.643417   -8.319001213E-16
 121.770447   -1.035828862E-15
 121.897484   -1.222614979E-15
 122.024513   -1.384018484E-15
 122.15155   -1.511927976E-15
 122.27858   -1.598668279E-15
 122.405609   -1.637321252E-15
 122.532646   -1.622047024E-15
 122.659676   -1.548396768E-15
 122.786713   -1.413600898E-15