-4.500000 3.4494133E-18
-4.372967 3.4550734E-18
-4.245934 3.4657019E-18
-4.118902 3.4801184E-18
-3.991869 3.4968014E-18
-3.864837 3.5140754E-18
-3.737804 3.5303212E-18
-3.610771 3.5441728E-18
-3.483739 3.5546817E-18
-3.356706 3.5614298E-18
-3.229674 3.5645669E-18
-3.102641 3.5647779E-18
-2.975608 3.5631802E-18
-2.848576 3.5611639E-18
-2.721543 3.5602027E-18
-2.594510 3.5616474E-18
-2.467478 3.5665455E-18
-2.340445 3.5754944E-18
-2.213412 3.5885581E-18
-2.086380 3.6052514E-18
-1.959347 3.6245996E-18
-1.832314 3.6452559E-18
-1.705282 3.6656724E-18
-1.578249 3.6842976E-18
-1.451216 3.6997729E-18
-1.324184 3.7111152E-18
-1.197151 3.7178555E-18
-1.070119 3.7201141E-18
-0.9430859 3.7185909E-18
-0.8160533 3.7144620E-18
-0.6890206 3.7091680E-18
-0.5619880 3.7041181E-18
-0.4349554 3.7003921E-18
-0.3079227 3.6985350E-18
-0.1808901 3.6986190E-18
-5.3857423E-02 3.7006534E-18
7.3175222E-02 3.7053390E-18
0.2002079 3.7149020E-18
0.3272405 3.7335128E-18
0.4542732 3.7666319E-18
0.5813058 3.8187595E-18
0.7083384 3.8895865E-18
0.8353711 3.9694359E-18
0.9624037 4.0359184E-18
1.089436 4.0544142E-18
1.216469 3.9848003E-18
1.343502 3.7953073E-18
1.470534 3.4815168E-18
1.597567 3.0849763E-18
1.724600 2.7030091E-18
1.851632 2.4807378E-18
1.978665 2.5795654E-18
2.105698 3.1237039E-18
2.232730 4.1364196E-18
2.359763 5.4872217E-18
2.486795 6.8757225E-18
2.613828 7.8731233E-18
2.740861 8.0263899E-18
2.867893 7.0056102E-18
2.994926 4.7490532E-18
3.121959 1.5442153E-18
3.248991 -2.0119932E-18
3.376024 -5.1982958E-18
3.503057 -7.4665450E-18
3.630089 -8.7522963E-18
3.757122 -9.6488658E-18
3.884155 -1.1290492E-17
4.011187 -1.4852423E-17
4.138220 -2.0706510E-17
4.265253 -2.7443942E-17
4.392285 -3.1137596E-17
4.519318 -2.5295008E-17
4.646350 -1.8848801E-18
4.773383 4.6426147E-17
4.900416 1.2308748E-16
5.027448 2.2425044E-16
5.154481 3.3622385E-16
5.281514 4.3503218E-16
5.408546 4.8907592E-16
5.535579 4.6525789E-16
5.662611 3.3798610E-16
5.789644 9.9412617E-17
5.916677 -2.3158815E-16
6.043710 -6.0455118E-16
6.170742 -9.3914662E-16
6.297775 -1.1348636E-15
6.424808 -1.0883084E-15
6.551840 -7.1585068E-16
6.678873 2.2316562E-17
6.805905 1.1015918E-15
6.932938 2.4206969E-15
7.059971 3.8014597E-15
7.187003 5.0024339E-15
7.314036 5.7458184E-15
7.441069 5.7549113E-15
7.568101 4.7976759E-15
7.695134 2.7311317E-15
7.822166 -4.5881837E-16
7.949199 -4.6270492E-15
8.076232 -9.4526539E-15
8.203264 -1.4439831E-14
8.330297 -1.8939369E-14
8.457330 -2.2193264E-14
8.584362 -2.3403832E-14
8.711395 -2.1826589E-14
8.838428 -1.6882756E-14
8.965461 -8.2828345E-15
9.092493 3.8524189E-15
9.219525 1.8891820E-14
9.346559 3.5635581E-14
9.473591 5.2320409E-14
9.600623 6.6705695E-14
9.727656 7.6251234E-14
9.854689 7.8386069E-14
9.981722 7.0855255E-14
10.10875 5.2117161E-14
10.23579 2.1751300E-14
10.36282 -1.9173814E-14
10.48985 -6.7829233E-14
10.61689 -1.1950805E-13
10.74392 -1.6771374E-13
10.87095 -2.0449431E-13
10.99798 -2.2104448E-13
11.12502 -2.0857158E-13
11.25205 -1.5939336E-13
11.37908 -6.8202198E-14
11.50611 6.6602506E-14
11.63315 2.4164061E-13
11.76018 4.4748761E-13
11.88721 6.6798341E-13
12.01424 8.8007650E-13
12.14128 1.0543495E-12
12.26831 1.1563384E-12
12.39534 1.1487100E-12
12.52237 9.9429373E-13
12.64941 6.5988794E-13
12.77644 1.2067245E-13
12.90347 -6.3503131E-13
13.03051 -1.6010026E-12
13.15754 -2.7487942E-12
13.28457 -4.0243225E-12
13.41160 -5.3458965E-12
13.53864 -6.6041977E-12
13.66567 -7.6646736E-12
13.79270 -8.3727027E-12
13.91973 -8.5617199E-12
14.04677 -8.0643010E-12
14.17380 -6.7259171E-12
14.30083 -4.4208270E-12
14.42786 -1.0692193E-12
14.55490 3.3455118E-12
14.68193 8.7607742E-12
14.80896 1.5021614E-11
14.93600 2.1872055E-11
15.06303 2.8952526E-11
15.19006 3.5804811E-11
15.31709 4.1885603E-11
15.44413 4.6589205E-11
15.57116 4.9279341E-11
15.69819 4.9329329E-11
15.82522 4.6168916E-11
15.95226 3.9335476E-11
16.07929 2.8526421E-11
16.20632 1.3649105E-11
16.33335 -5.1358618E-12
16.46039 -2.7382107E-11
16.58742 -5.2339740E-11
16.71445 -7.8955883E-11
16.84148 -1.0589604E-10
16.96852 -1.3158771E-10
17.09555 -1.5428638E-10
17.22258 -1.7216202E-10
17.34962 -1.8340333E-10
17.47665 -1.8633446E-10
17.60368 -1.7953812E-10
17.73071 -1.6197799E-10
17.85775 -1.3311144E-10
17.98478 -9.2985113E-11
18.11181 -4.2304382E-11
18.23884 1.7530335E-11
18.36588 8.4426445E-11
18.49291 1.5564527E-10
18.61994 2.2789282E-10
18.74697 2.9745412E-10
18.87401 3.6036718E-10
19.00104 4.1262910E-10
19.12807 4.5042467E-10
19.25510 4.7036530E-10
19.38214 4.6972404E-10
19.50917 4.4665216E-10
19.63620 4.0036158E-10
19.76324 3.3125969E-10
19.89027 2.4102390E-10
20.01730 1.3260626E-10
20.14433 1.0163021E-11
20.27137 -1.2109312E-10
20.39840 -2.5511468E-10
20.52543 -3.8530684E-10
20.65246 -5.0486804E-10
20.77950 -6.0716643E-10
20.90653 -6.8613165E-10
21.03356 -7.3663842E-10
21.16059 -7.5485829E-10
21.28763 -7.3855361E-10
21.41466 -6.8729372E-10
21.54169 -6.0257238E-10
21.66872 -4.8781451E-10
21.79576 -3.4826364E-10
21.92279 -1.9075083E-10
22.04982 -2.3352232E-11
22.17686 1.4504867E-10
22.30389 3.0527131E-10
22.43092 4.4839224E-10
22.55795 5.6630861E-10
22.68499 6.5227462E-10
22.81202 7.0137490E-10
22.93905 7.1089712E-10
23.06608 6.8057632E-10
23.19312 6.1268324E-10
23.32015 5.1194637E-10
23.44718 3.8529882E-10
23.57421 2.4146063E-10
23.70125 9.0375776E-11
23.82828 -5.7464915E-11
23.95531 -1.9177260E-10
24.08235 -3.0323016E-10
24.20938 -3.8422787E-10
24.33641 -4.2950690E-10
24.46344 -4.3665629E-10
24.59048 -4.0641551E-10
24.71751 -3.4274325E-10
24.84454 -2.5263369E-10
24.97157 -1.4566623E-10
25.09861 -3.3308037E-11
25.22564 7.2000704E-11
25.35267 1.5792721E-10
25.47970 2.1342582E-10
25.60674 2.2993174E-10
25.73377 2.0247845E-10
25.86080 1.3064402E-10
25.98783 1.9231922E-11
26.11487 -1.2139592E-10
26.24190 -2.7540240E-10
26.36893 -4.2201814E-10
26.49597 -5.3656934E-10
26.62300 -5.9196248E-10
26.75003 -5.6059923E-10
26.87706 -4.1660519E-10
27.00410 -1.3830062E-10
27.13113 2.8927549E-10
27.25816 8.7191565E-10
27.38519 1.6040824E-09
27.51223 2.4671951E-09
27.63926 3.4285541E-09
27.76629 4.4410560E-09
27.89332 5.4438214E-09
28.02036 6.3638255E-09
28.14739 7.1185529E-09
28.27442 7.6196587E-09
28.40145 7.7775280E-09
28.52849 7.5065909E-09
28.65552 6.7311525E-09
28.78255 5.3914775E-09
28.90959 3.4497916E-09
29.03662 8.9585628E-10
29.16365 -2.2482782E-09
29.29068 -5.9246834E-09
29.41772 -1.0037460E-08
29.54475 -1.4452493E-08
29.67178 -1.8999184E-08
29.79881 -2.3474371E-08
29.92585 -2.7648420E-08
30.05288 -3.1273444E-08
30.17991 -3.4093368E-08
30.30694 -3.5855621E-08
30.43398 -3.6323918E-08
30.56101 -3.5291635E-08
30.68804 -3.2595189E-08
30.81507 -2.8126719E-08
30.94211 -2.1845382E-08
31.06914 -1.3786645E-08
31.19617 -4.0688568E-09
31.32321 7.1033623E-09
31.45024 1.9439382E-08
31.57727 3.2566760E-08
31.70430 4.6039496E-08
31.83134 5.9350270E-08
31.95837 7.1946396E-08
32.08540 8.3249098E-08
32.21243 9.2675428E-08
32.33947 9.9662010E-08
32.46650 1.0368980E-07
32.59353 1.0430875E-07
32.72057 1.0116125E-07
32.84760 9.4003518E-08
32.97463 8.2723574E-08
33.10166 6.7355089E-08
33.22869 4.8086196E-08
33.35573 2.5262761E-08
33.48276 -6.1449212E-10
33.60979 -2.8898961E-08
33.73683 -5.8813278E-08
33.86386 -8.9470149E-08
33.99089 -1.1989836E-07
34.11792 -1.4907297E-07
34.24496 -1.7594881E-07
34.37199 -1.9949596E-07
34.49902 -2.1873598E-07
34.62605 -2.3277738E-07
34.75309 -2.4084903E-07
34.88012 -2.4233040E-07
35.00715 -2.3677697E-07
35.13419 -2.2394033E-07
35.26122 -2.0378194E-07
35.38825 -1.7647997E-07
35.51528 -1.4242907E-07
35.64231 -1.0223318E-07
35.76935 -5.6691437E-08
35.89638 -6.7779440E-09
36.02341 4.6383668E-08
36.15045 1.0155030E-07
36.27748 1.5739245E-07
36.40451 2.1252947E-07
36.53154 2.6556557E-07
36.65858 3.1512531E-07
36.78561 3.5988765E-07
36.91264 3.9861749E-07
37.03968 4.3019364E-07
37.16671 4.5363325E-07
37.29374 4.6811161E-07
37.42077 4.7297758E-07
37.54781 4.6776464E-07
37.67484 4.5219767E-07
37.80187 4.2619604E-07
37.92890 3.8987321E-07
38.05593 3.4353371E-07
38.18297 2.8766780E-07
38.31000 2.2294465E-07
38.43703 1.5020420E-07
38.56407 7.0448166E-08
38.69110 -1.5169462E-08
38.81813 -1.0535247E-07
38.94516 -1.9867326E-07
39.07220 -2.9358455E-07
39.19923 -3.8843234E-07
39.32626 -4.8147047E-07
39.45330 -5.7087760E-07
39.58033 -6.5477678E-07
39.70736 -7.3125813E-07
39.83439 -7.9840453E-07
39.96143 -8.5432151E-07
40.08846 -8.9716974E-07
40.21549 -9.2520025E-07
40.34253 -9.3679273E-07
40.46955 -9.3049437E-07
40.59659 -9.0505915E-07
40.72362 -8.5948540E-07
40.85065 -7.9305079E-07
40.97769 -7.0534264E-07
41.10472 -5.9628189E-07
41.23175 -4.6613886E-07
41.35878 -3.1553978E-07
41.48582 -1.4546272E-07
41.61285 4.2778026E-08
41.73988 2.4755968E-07
41.86692 4.6699012E-07
41.99395 6.9895822E-07
42.12098 9.4119446E-07
42.24801 1.1913395E-06
42.37505 1.4470188E-06
42.50208 1.7059212E-06
42.62911 1.9658762E-06
42.75615 2.2249308E-06
42.88317 2.4814192E-06
43.01021 2.7340236E-06
43.13724 2.9818239E-06
43.26427 3.2243299E-06
43.39131 3.4615016E-06
43.51834 3.6937479E-06
43.64537 3.9219076E-06
43.77240 4.1472126E-06
43.89944 4.3712307E-06
44.02647 4.5957972E-06
44.15350 4.8229267E-06
44.28054 5.0547169E-06
44.40757 5.2932478E-06
44.53460 5.5404716E-06
44.66163 5.7981078E-06
44.78867 6.0675447E-06
44.91570 6.3497464E-06
45.04273 6.6451757E-06
45.16977 6.9537336E-06
45.29680 7.2747189E-06
45.42383 7.6068100E-06
45.55086 7.9480678E-06
45.67789 8.2959632E-06
45.80493 8.6474338E-06
45.93196 8.9989462E-06
46.05899 9.3465942E-06
46.18602 9.6862068E-06
46.31306 1.0013465E-05
46.44009 1.0324027E-05
46.56712 1.0613662E-05
46.69416 1.0878382E-05
46.82119 1.1114555E-05
46.94822 1.1319026E-05
47.07525 1.1489205E-05
47.20229 1.1623149E-05
47.32932 1.1719625E-05
47.45635 1.1778134E-05
47.58339 1.1798929E-05
47.71042 1.1783000E-05
47.83745 1.1732044E-05
47.96448 1.1648407E-05
48.09151 1.1535009E-05
48.21855 1.1395258E-05
48.34558 1.1232947E-05
48.47261 1.1052165E-05
48.59965 1.0857161E-05
48.72668 1.0652264E-05
48.85371 1.0441765E-05
48.98074 1.0229812E-05
49.10778 1.0020356E-05
49.23481 9.8170540E-06
49.36184 9.6232352E-06
49.48887 9.4418356E-06
49.61591 9.2754071E-06
49.74294 9.1260781E-06
49.86997 8.9955820E-06
49.99701 8.8852603E-06
50.12404 8.7960898E-06
50.25107 8.7287244E-06
50.37810 8.6835144E-06
50.50513 8.6605605E-06
50.63217 8.6597365E-06
50.75920 8.6807258E-06
50.88623 8.7230464E-06
51.01327 8.7860590E-06
51.14030 8.8689794E-06
51.26733 8.9708801E-06
51.39436 9.0906788E-06
51.52140 9.2271111E-06
51.64843 9.3787212E-06
51.77546 9.5438227E-06
51.90249 9.7204857E-06
52.02953 9.9064882E-06
52.15656 1.0099322E-05
52.28359 1.0296158E-05
52.41063 1.0493857E-05
52.53766 1.0688979E-05
52.66469 1.0877811E-05
52.79172 1.1056411E-05
52.91875 1.1220665E-05
53.04579 1.1366370E-05
53.17282 1.1489322E-05
53.29985 1.1585413E-05
53.42689 1.1650762E-05
53.55392 1.1681806E-05
53.68095 1.1675456E-05
53.80798 1.1629186E-05
53.93502 1.1541160E-05
54.06205 1.1410335E-05
54.18908 1.1236537E-05
54.31612 1.1020526E-05
54.44315 1.0764043E-05
54.57018 1.0469839E-05
54.69721 1.0141642E-05
54.82425 9.7841257E-06
54.95128 9.4028583E-06
55.07831 9.0041904E-06
55.20534 8.5951569E-06
55.33237 8.1833168E-06
55.45941 7.7766226E-06
55.58644 7.3832357E-06
55.71347 7.0113565E-06
55.84051 6.6690509E-06
55.96754 6.3640709E-06
56.09457 6.1036817E-06
56.22160 5.8945175E-06
56.34864 5.7424213E-06
56.47567 5.6523336E-06
56.60270 5.6281847E-06
56.72974 5.6728286E-06
56.85677 5.7879734E-06
56.98380 5.9741601E-06
57.11083 6.2307622E-06
57.23787 6.5559962E-06
57.36490 6.9469638E-06
57.49193 7.3997057E-06
57.61897 7.9092815E-06
57.74599 8.4698495E-06
57.87303 9.0747662E-06
58.00006 9.7166794E-06
58.12709 1.0387646E-05
58.25413 1.1079244E-05
58.38116 1.1782675E-05
58.50819 1.2488882E-05
58.63522 1.3188672E-05
58.76226 1.3872811E-05
58.88929 1.4532153E-05
59.01632 1.5157732E-05
59.14336 1.5740890E-05
59.27039 1.6273383E-05
59.39742 1.6747481E-05
59.52445 1.7156090E-05
59.65149 1.7492845E-05
59.77852 1.7752227E-05
59.90555 1.7929657E-05
60.03259 1.8021597E-05
60.15961 1.8025637E-05
60.28665 1.7940545E-05
60.41368 1.7766355E-05
60.54071 1.7504397E-05
60.66775 1.7157292E-05
60.79478 1.6728991E-05
60.92181 1.6224696E-05
61.04884 1.5650834E-05
61.17588 1.5014951E-05
61.30291 1.4325606E-05
61.42994 1.3592221E-05
61.55698 1.2824949E-05
61.68401 1.2034448E-05
61.81104 1.1231714E-05
61.93807 1.0427871E-05
62.06511 9.6339645E-06
62.19214 8.8607330E-06
62.31917 8.1184335E-06
62.44621 7.4166446E-06
62.57324 6.7640954E-06
62.70027 6.1685287E-06
62.82730 5.6365730E-06
62.95433 5.1736738E-06
63.08137 4.7840344E-06
63.20840 4.4705794E-06
63.33543 4.2349820E-06
63.46246 4.0777077E-06
63.58950 3.9980587E-06
63.71653 3.9943079E-06
63.84356 4.0637815E-06
63.97060 4.2029769E-06
64.09763 4.4077283E-06
64.22466 4.6733226E-06
64.35169 4.9946557E-06
64.47873 5.3663516E-06
64.60576 5.7828784E-06
64.73279 6.2386921E-06
64.85983 6.7282904E-06
64.98685 7.2462890E-06
65.11389 7.7874984E-06
65.24092 8.3469204E-06
65.36796 8.9197883E-06
65.49499 9.5015484E-06
65.62202 1.0087833E-05
65.74905 1.0674439E-05
65.87608 1.1257307E-05
66.00312 1.1832461E-05
66.13015 1.2396001E-05
66.25719 1.2944075E-05
66.38422 1.3472876E-05
66.51125 1.3978655E-05
66.63828 1.4457747E-05
66.76531 1.4906615E-05
66.89235 1.5321913E-05
67.01938 1.5700572E-05
67.14641 1.6039874E-05
67.27345 1.6337568E-05
67.40047 1.6591979E-05
67.52751 1.6802091E-05
67.65454 1.6967642E-05
67.78158 1.7089229E-05
67.90861 1.7168342E-05
68.03564 1.7207405E-05
68.16267 1.7209793E-05
68.28970 1.7179775E-05
68.41674 1.7122497E-05
68.54377 1.7043852E-05
68.67081 1.6950366E-05
68.79784 1.6849039E-05
68.92487 1.6747161E-05
69.05190 1.6652102E-05
69.17893 1.6571104E-05
69.30597 1.6511081E-05
69.43300 1.6478380E-05
69.56004 1.6478607E-05
69.68707 1.6516433E-05
69.81409 1.6595439E-05
69.94113 1.6718033E-05
70.06816 1.6885324E-05
70.19520 1.7097125E-05
70.32223 1.7351942E-05
70.44926 1.7647024E-05
70.57629 1.7978466E-05
70.70332 1.8341363E-05
70.83036 1.8729954E-05
70.95739 1.9137840E-05
71.08443 1.9558196E-05
71.21146 1.9984009E-05
71.33849 2.0408308E-05
71.46552 2.0824365E-05
71.59255 2.1225953E-05
71.71959 2.1607471E-05
71.84662 2.1964117E-05
71.97366 2.2291992E-05
72.10069 2.2588139E-05
72.22771 2.2850572E-05
72.35475 2.3078253E-05
72.48178 2.3270979E-05
72.60882 2.3429286E-05
72.73585 2.3554278E-05
72.86288 2.3647448E-05
72.98991 2.3710467E-05
73.11694 2.3744991E-05
73.24398 2.3752429E-05
73.37101 2.3733766E-05
73.49805 2.3689401E-05
73.62508 2.3619001E-05
73.75211 2.3521448E-05
73.87914 2.3394736E-05
74.00617 2.3236078E-05
74.13321 2.3041906E-05
74.26024 2.2808035E-05
74.38728 2.2529824E-05
74.51431 2.2202397E-05
74.64133 2.1820910E-05
74.76837 2.1380827E-05
74.89540 2.0878178E-05
75.02244 2.0309906E-05
75.14947 1.9674109E-05
75.27650 1.8970317E-05
75.40353 1.8199682E-05
75.53056 1.7365155E-05
75.65760 1.6471608E-05
75.78463 1.5525844E-05
75.91167 1.4536555E-05
76.03870 1.3514243E-05
76.16573 1.2470984E-05
76.29276 1.1420233E-05
76.41979 1.0376471E-05
76.54683 9.3548433E-06
76.67386 8.3707482E-06
76.80090 7.4394120E-06
76.92793 6.5754352E-06
77.05495 5.7923421E-06
77.18199 5.1022098E-06
77.30902 4.5152260E-06
77.43606 4.0393838E-06
77.56309 3.6802091E-06
77.69012 3.4405912E-06
77.81715 3.3206431E-06
77.94418 3.3176946E-06
78.07122 3.4263637E-06
78.19825 3.6387271E-06
78.32529 3.9445481E-06
78.45232 4.3316413E-06
78.57935 4.7862777E-06
78.70638 5.2936307E-06
78.83341 5.8382839E-06
78.96045 6.4048131E-06
79.08748 6.9782523E-06
79.21452 7.5447051E-06
79.34155 8.0917762E-06
79.46858 8.6090577E-06
79.59561 9.0885096E-06
79.72264 9.5247442E-06
79.84968 9.9152703E-06
79.97671 1.0260562E-05
80.10374 1.0564098E-05
80.23077 1.0832195E-05
80.35780 1.1073837E-05
80.48484 1.1300314E-05
80.61187 1.1524832E-05
80.73891 1.1762008E-05
80.86594 1.2027337E-05
80.99297 1.2336553E-05
81.12000 1.2705050E-05
81.24703 1.3147263E-05
81.37407 1.3676065E-05
81.50110 1.4302246E-05
81.62814 1.5034016E-05
81.75517 1.5876616E-05
81.88220 1.6832020E-05
82.00923 1.7898756E-05
82.13626 1.9071831E-05
82.26330 2.0342779E-05
82.39033 2.1699831E-05
82.51736 2.3128192E-05
82.64439 2.4610415E-05
82.77143 2.6126883E-05
82.89846 2.7656333E-05
83.02549 2.9176452E-05
83.15253 3.0664505E-05
83.27956 3.2097971E-05
83.40659 3.3455177E-05
83.53362 3.4715871E-05
83.66065 3.5861791E-05
83.78769 3.6877154E-05
83.91472 3.7749054E-05
84.04176 3.8467773E-05
84.16879 3.9027032E-05
84.29582 3.9424096E-05
84.42285 3.9659808E-05
84.54988 3.9738519E-05
84.67692 3.9667928E-05
84.80395 3.9458846E-05
84.93098 3.9124858E-05
85.05801 3.8681952E-05
85.18505 3.8148115E-05
85.31208 3.7542828E-05
85.43911 3.6886624E-05
85.56615 3.6200563E-05
85.69318 3.5505756E-05
85.82021 3.4822879E-05
85.94724 3.4171742E-05
86.07427 3.3570846E-05
86.20131 3.3037053E-05
86.32834 3.2585238E-05
86.45538 3.2228032E-05
86.58241 3.1975647E-05
86.70944 3.1835716E-05
86.83647 3.1813237E-05
86.96350 3.1910560E-05
87.09054 3.2127438E-05
87.21757 3.2461157E-05
87.34460 3.2906653E-05
87.47163 3.3456752E-05
87.59867 3.4102395E-05
87.72570 3.4832898E-05
87.85273 3.5636243E-05
87.97977 3.6499376E-05
88.10680 3.7408496E-05
88.23383 3.8349343E-05
88.36086 3.9307484E-05
88.48790 4.0268544E-05
88.61493 4.1218449E-05
88.74196 4.2143602E-05
88.86900 4.3031039E-05
88.99603 4.3868553E-05
89.12306 4.4644763E-05
89.25009 4.5349167E-05
89.37712 4.5972163E-05
89.50416 4.6505033E-05
89.63119 4.6939909E-05
89.75822 4.7269728E-05
89.88525 4.7488185E-05
90.01229 4.7589667E-05
90.13932 4.7569196E-05
90.26635 4.7422378E-05
90.39339 4.7145364E-05
90.52042 4.6734793E-05
90.64745 4.6187797E-05
90.77448 4.5501980E-05
90.90152 4.4675409E-05
91.02855 4.3706652E-05
91.15558 4.2594776E-05
91.28262 4.1339390E-05
91.40965 3.9940682E-05
91.53668 3.8399448E-05
91.66371 3.6717131E-05
91.79075 3.4895857E-05
91.91778 3.2938467E-05
92.04481 3.0848529E-05
92.17184 2.8630355E-05
92.29887 2.6288995E-05
92.42591 2.3830264E-05
92.55294 2.1260690E-05
92.67997 1.8587525E-05
92.80701 1.5818714E-05
92.93404 1.2962852E-05
93.06107 1.0029196E-05
93.18810 7.0275846E-06
93.31514 3.9684451E-06
93.44217 8.6275497E-07
93.56920 -2.2779896E-06
93.69624 -5.4417851E-06
93.82327 -8.6161454E-06
93.95030 -1.1788102E-05
94.07733 -1.4944233E-05
94.20437 -1.8070677E-05
94.33140 -2.1153148E-05
94.45843 -2.4176936E-05
94.58546 -2.7126973E-05
94.71249 -2.9987843E-05
94.83953 -3.2743872E-05
94.96656 -3.5379173E-05
95.09360 -3.7877791E-05
95.22063 -4.0223800E-05
95.34766 -4.2401483E-05
95.47469 -4.4395496E-05
95.60172 -4.6191093E-05
95.72876 -4.7774349E-05
95.85579 -4.9132388E-05
95.98282 -5.0253671E-05
96.10986 -5.1128231E-05
96.23689 -5.1747909E-05
96.36392 -5.2106654E-05
96.49095 -5.2200656E-05
96.61799 -5.2028587E-05
96.74502 -5.1591716E-05
96.87205 -5.0893977E-05
96.99908 -4.9942046E-05
97.12611 -4.8745293E-05
97.25315 -4.7315716E-05
97.38018 -4.5667777E-05
97.50722 -4.3818247E-05
97.63425 -4.1785945E-05
97.76128 -3.9591479E-05
97.88831 -3.7256945E-05
98.01534 -3.4805591E-05
98.14238 -3.2261512E-05
98.26941 -2.9649305E-05
98.39645 -2.6993774E-05
98.52348 -2.4319603E-05
98.65051 -2.1651100E-05
98.77754 -1.9011970E-05
98.90457 -1.6425052E-05
99.03161 -1.3912175E-05
99.15864 -1.1493978E-05
99.28567 -9.1897637E-06
99.41270 -7.0173892E-06
99.53973 -4.9931637E-06
99.66677 -3.1317272E-06
99.79380 -1.4459634E-06
99.92084 5.3113435E-08
100.0479 1.3564687E-06
100.1749 2.4571734E-06
100.3019 3.3505123E-06
100.4290 4.0341361E-06
100.5560 4.5081611E-06
100.6830 4.7753097E-06
100.8101 4.8409852E-06
100.9371 4.7133526E-06
101.0641 4.4033586E-06
101.1912 3.9247229E-06
101.3182 3.2938676E-06
101.4452 2.5297807E-06
101.5723 1.6538150E-06
101.6993 6.8942154E-07
101.8263 -3.3819617E-07
101.9534 -1.4024868E-06
102.0804 -2.4760295E-06
102.2074 -3.5310666E-06
102.3345 -4.5400798E-06
102.4615 -5.4764091E-06
102.5885 -6.3148832E-06
102.7156 -7.0324577E-06
102.8426 -7.6088322E-06
102.9696 -8.0270402E-06
103.0966 -8.2739807E-06
103.2237 -8.3408568E-06
103.3507 -8.2235538E-06
103.4777 -7.9228748E-06
103.6048 -7.4446693E-06
103.7318 -6.7998221E-06
103.8588 -6.0040957E-06
103.9859 -5.0778331E-06
104.1129 -4.0455093E-06
104.2399 -2.9351520E-06
104.3670 -1.7776312E-06
104.4940 -6.0584506E-07
104.6210 5.4618539E-07
104.7481 1.6442843E-06
104.8751 2.6551181E-06
105.0021 3.5471999E-06
105.1292 4.2918609E-06
105.2562 4.8641623E-06
105.3832 5.2437117E-06
105.5103 5.4153634E-06
105.6373 5.3697640E-06
105.7643 5.1037377E-06
105.8914 4.6205009E-06
106.0184 3.9296697E-06
106.1454 3.0470942E-06
106.2725 1.9944982E-06
106.3995 7.9895881E-07
106.5265 -5.0778942E-07
106.6536 -1.8901644E-06
106.7806 -3.3096590E-06
106.9076 -4.7258422E-06
107.0347 -6.0973989E-06
107.1617 -7.3831802E-06
107.2887 -8.5432384E-06
107.4158 -9.5398027E-06
107.5428 -1.0338178E-05
107.6698 -1.0907544E-05
107.7969 -1.1221628E-05
107.9239 -1.1259248E-05
108.0509 -1.1004702E-05
108.1780 -1.0448020E-05
108.3050 -9.5850637E-06
108.4320 -8.4174735E-06
108.5591 -6.9525131E-06
108.6861 -5.2027599E-06
108.8131 -3.1857169E-06
108.9402 -9.2332908E-07
109.0672 1.5585626E-06
109.1942 4.2308334E-06
109.3213 7.0616811E-06
109.4483 1.0017287E-05
109.5753 1.3062456E-05
109.7023 1.6161219E-05
109.8294 1.9277462E-05
109.9564 2.2375436E-05
110.0834 2.5420295E-05
110.2105 2.8378516E-05
110.3375 3.1218318E-05
110.4645 3.3909982E-05
110.5916 3.6426110E-05
110.7186 3.8741859E-05
110.8456 4.0835035E-05
110.9727 4.2686264E-05
111.0997 4.4278971E-05
111.2267 4.5599416E-05
111.3538 4.6636680E-05
111.4808 4.7382578E-05
111.6078 4.7831614E-05
111.7349 4.7980899E-05
111.8619 4.7830068E-05
111.9889 4.7381211E-05
112.1160 4.6638797E-05
112.2430 4.5609646E-05
112.3700 4.4302884E-05
112.4971 4.2729920E-05
112.6241 4.0904455E-05
112.7511 3.8842481E-05
112.8782 3.6562262E-05
113.0052 3.4084362E-05
113.1322 3.1431573E-05
113.2593 2.8628903E-05
113.3863 2.5703433E-05
113.5133 2.2684193E-05
113.6404 1.9601912E-05
113.7674 1.6488751E-05
113.8944 1.3377928E-05
114.0215 1.0303270E-05
114.1485 7.2987204E-06
114.2755 4.3977343E-06
114.4026 1.6326723E-06
114.5296 -9.6587212E-07
114.6566 -3.3697379E-06
114.7837 -5.5538790E-06
114.9107 -7.4969862E-06
115.0377 -9.1820839E-06
115.1647 -1.0597013E-05
115.2918 -1.1734835E-05
115.4188 -1.2594090E-05
115.5459 -1.3178929E-05
115.6729 -1.3499078E-05
115.7999 -1.3569642E-05
115.9269 -1.3410739E-05
116.0540 -1.3046984E-05
116.1810 -1.2506804E-05
116.3080 -1.1821617E-05
116.4351 -1.1024923E-05
116.5621 -1.0151281E-05
116.6891 -9.2352502E-06
116.8162 -8.3103087E-06
116.9432 -7.4077957E-06
117.0702 -6.5558961E-06
117.1973 -5.7787320E-06
117.3243 -5.0955755E-06
117.4513 -4.5202141E-06
117.5784 -4.0605000E-06
117.7054 -3.7180935E-06
117.8324 -3.4884240E-06
117.9595 -3.3608653E-06
118.0865 -3.3191202E-06
118.2135 -3.3418141E-06
118.3406 -3.4032694E-06
118.4676 -3.4744369E-06
118.5946 -3.5239614E-06
118.7217 -3.5193339E-06
118.8487 -3.4281006E-06
118.9757 -3.2190799E-06
119.1028 -2.8635493E-06
119.2298 -2.3363571E-06
119.3568 -1.6169290E-06
119.4839 -6.9012486E-07
119.6109 4.5306751E-07
119.7379 1.8150348E-06
119.8650 3.3912415E-06
119.9920 5.1701527E-06
120.1190 7.1333584E-06
120.2461 9.2559103E-06
120.3731 1.1506840E-05
120.5001 1.3849853E-05
120.6272 1.6244174E-05
120.7542 1.8645511E-05
120.8812 2.1007118E-05
121.0083 2.3280903E-05
121.1353 2.5418605E-05
121.2623 2.7372937E-05
121.3894 2.9098728E-05
121.5164 3.0554031E-05
121.6434 3.1701114E-05
121.7704 3.2507429E-05
121.8975 3.2946413E-05
122.0245 3.2998214E-05
122.1516 3.2650245E-05
122.2786 3.1897645E-05
122.4056 3.0743537E-05
122.5326 2.9199164E-05
122.6597 2.7283859E-05
122.7867 2.5024819E-05
122.9137 2.2456736E-05
123.0408 1.9621250E-05
123.1678 1.6566233E-05
123.2948 1.3344901E-05
123.4219 1.0014790E-05
123.5489 6.6365819E-06
123.6759 3.2728183E-06
123.8030 -1.3481467E-08
123.9300 -3.1602638E-06
124.0570 -6.1079222E-06
124.1841 -8.8007610E-06
124.3111 -1.1188416E-05
124.4381 -1.3227175E-05
124.5652 -1.4881184E-05
124.6922 -1.6123444E-05
124.8192 -1.6936625E-05
124.9463 -1.7313618E-05
125.0733 -1.7257807E-05
125.2003 -1.6783077E-05
125.3274 -1.5913471E-05
125.4544 -1.4682608E-05
125.5814 -1.3132755E-05
125.7085 -1.1313694E-05
125.8355 -9.2813116E-06
125.9625 -7.0960245E-06
126.0896 -4.8210673E-06
126.2166 -2.5206803E-06
126.3436 -2.5830769E-07
126.4707 1.9051867E-06
126.5977 3.9131942E-06
126.7247 5.7148768E-06
126.8518 7.2664893E-06
126.9788 8.5324245E-06
127.1058 9.4860025E-06
127.2329 1.0109938E-05
127.3599 1.0396497E-05
127.4869 1.0347361E-05
127.6140 9.9731751E-06
127.7410 9.2928376E-06
127.8680 8.3325613E-06
127.9950 7.1247428E-06
128.1221 5.7066950E-06
128.2491 4.1192961E-06
128.3761 2.4056187E-06
128.5032 6.0957336E-07
128.6302 -1.2253693E-06
128.7572 -3.0573281E-06
128.8843 -4.8470156E-06
129.0113 -6.5585459E-06
129.1383 -8.1600410E-06
129.2654 -9.6240101E-06
129.3924 -1.0927554E-05
129.5194 -1.2052327E-05
129.6465 -1.2984352E-05
129.7735 -1.3713669E-05
129.9005 -1.4233874E-05
130.0276 -1.4541592E-05
130.1546 -1.4635902E-05
130.2816 -1.4517777E-05
130.4087 -1.4189572E-05
130.5357 -1.3654579E-05
130.6627 -1.2916687E-05
130.7898 -1.1980169E-05
130.9168 -1.0849601E-05
131.0438 -9.5299074E-06
131.1709 -8.0265490E-06
131.2979 -6.3457978E-06
131.4249 -4.4951194E-06
131.5520 -2.4835892E-06
131.6790 -3.2235508E-07
131.8060 1.9749386E-06
131.9331 4.3917698E-06
132.0601 6.9084444E-06
132.1871 9.5019368E-06
132.3142 1.2145866E-05
132.4412 1.4810642E-05
132.5682 1.7463792E-05
132.6953 2.0070458E-05
132.8223 2.2594062E-05
132.9493 2.4997116E-05
133.0764 2.7242158E-05
133.2034 2.9292754E-05
133.3304 3.1114549E-05
133.4575 3.2676318E-05
133.5845 3.3950946E-05
133.7115 3.4916338E-05
133.8385 3.5556197E-05
133.9656 3.5860587E-05
134.0926 3.5826357E-05
134.2197 3.5457295E-05
134.3467 3.4764125E-05
134.4737 3.3764209E-05
134.6008 3.2481079E-05
134.7278 3.0943771E-05
134.8548 2.9185974E-05
134.9818 2.7245045E-05
135.1089 2.5160947E-05
135.2359 2.2975122E-05
135.3629 2.0729336E-05
135.4900 1.8464552E-05
135.6170 1.6219888E-05
135.7440 1.4031632E-05
135.8711 1.1932420E-05
135.9981 9.9505332E-06
136.1251 8.1093831E-06
136.2522 6.4271344E-06
136.3792 4.9165465E-06
136.5062 3.5849362E-06
136.6333 2.4343572E-06
136.7603 1.4618871E-06
136.8873 6.6006032E-07
137.0144 1.7417884E-08
137.1414 -4.8087145E-07
137.2684 -8.5230636E-07
137.3955 -1.1163164E-06
137.5225 -1.2935159E-06
137.6495 -1.4049456E-06
137.7766 -1.4713619E-06
137.9036 -1.5125689E-06
138.0306 -1.5468203E-06
138.1577 -1.5902922E-06
138.2847 -1.6566585E-06
138.4117 -1.7567663E-06
138.5388 -1.8984127E-06
138.6658 -2.0862424E-06
138.7928 -2.3217426E-06
138.9199 -2.6033504E-06
139.0469 -2.9266498E-06
139.1739 -3.2846624E-06
139.3009 -3.6682120E-06
139.4280 -4.0663535E-06
139.5550 -4.4668418E-06
139.6821 -4.8566335E-06
139.8091 -5.2223891E-06
139.9361 -5.5509727E-06
140.0632 -5.8299192E-06
140.1902 -6.0478560E-06
140.3172 -6.1948640E-06
140.4442 -6.2627623E-06
140.5713 -6.2453141E-06
140.6983 -6.1383398E-06
140.8253 -5.9397448E-06
140.9524 -5.6494637E-06
141.0794 -5.2693204E-06
141.2065 -4.8028232E-06
141.3335 -4.2549109E-06
141.4605 -3.6316578E-06
141.5875 -2.9399612E-06
141.7146 -2.1872349E-06
141.8416 -1.3811192E-06
141.9686 -5.2922559E-07
142.0957 3.6107002E-07
142.2227 1.2827693E-06
142.3497 2.2293257E-06
142.4768 3.1946540E-06
142.6038 4.1730614E-06
142.7308 5.1591237E-06
142.8579 6.1475048E-06
142.9849 7.1327445E-06
143.1119 8.1090184E-06
143.2390 9.0698968E-06
143.3660 1.0008123E-05
143.4930 1.0915436E-05
143.6201 1.1782427E-05
143.7471 1.2598493E-05
143.8741 1.3351852E-05
144.0012 1.4029659E-05
144.1282 1.4618210E-05
144.2552 1.5103244E-05
144.3823 1.5470325E-05
144.5093 1.5705309E-05
144.6363 1.5794847E-05
144.7634 1.5726962E-05
144.8904 1.5491611E-05
145.0174 1.5081268E-05
145.1445 1.4491483E-05
145.2715 1.3721361E-05
145.3985 1.2774002E-05
145.5256 1.1656824E-05
145.6526 1.0381778E-05
145.7796 8.9654559E-06
145.9066 7.4290297E-06
146.0337 5.7980687E-06
146.1607 4.1021990E-06
146.2878 2.3746268E-06
146.4148 6.5151841E-07
146.5418 -1.0287309E-06
146.6689 -2.6263531E-06
146.7959 -4.1011235E-06
146.9229 -5.4133743E-06
147.0499 -6.5250101E-06
147.1770 -7.4005634E-06
147.3040 -8.0082018E-06
147.4310 -8.3206951E-06
147.5581 -8.3163040E-06
147.6851 -7.9795409E-06
147.8121 -7.3018205E-06
