-4.500000 8.9563970E-20
-4.372967 7.9624787E-20
-4.245934 6.1005591E-20
-4.118902 3.5859876E-20
-3.991869 6.9239977E-21
-3.864837 -2.2815157E-20
-3.737804 -4.9657429E-20
-3.610771 -6.6886962E-20
-3.483739 -6.2464156E-20
-3.356706 -2.4207483E-20
-3.229674 3.9788757E-20
-3.102641 7.3588327E-20
-2.975608 -2.6270730E-20
-2.848576 -3.4081328E-19
-2.721543 -7.9748224E-19
-2.594510 -1.0864515E-18
-2.467478 -8.0198118E-19
-2.340445 8.8590992E-20
-2.213412 5.9889980E-19
-2.086380 -1.6506607E-18
-1.959347 -1.0003299E-17
-1.832314 -2.7326894E-17
-1.705282 -5.4018077E-17
-1.578249 -8.6503418E-17
-1.451216 -1.1737471E-16
-1.324184 -1.3766895E-16
-1.197151 -1.4075321E-16
-1.070119 -1.2638178E-16
-0.9430859 -1.0321044E-16
-0.8160533 -8.8372833E-17
-0.6890206 -1.0326109E-16
-0.5619880 -1.6516741E-16
-0.4349554 -2.7528997E-16
-0.3079227 -4.0558727E-16
-0.1808901 -4.9037601E-16
-5.3857423E-02 -4.3215679E-16
7.3175222E-02 -1.3173338E-16
0.2002079 4.5333600E-16
0.3272405 1.2319734E-15
0.4542732 1.9131414E-15
0.5813058 1.9927439E-15
0.7083384 8.3600061E-16
0.8353711 -2.1262884E-15
0.9624037 -7.1136690E-15
1.089436 -1.3701714E-14
1.216469 -2.0630914E-14
1.343502 -2.5830837E-14
1.470534 -2.6722548E-14
1.597567 -2.0774081E-14
1.724600 -6.1841384E-15
1.851632 1.7504708E-14
1.978665 4.9076638E-14
2.105698 8.5754029E-14
2.232730 1.2379114E-13
2.359763 1.5945538E-13
2.486795 1.9019159E-13
2.613828 2.1572014E-13
2.740861 2.3885302E-13
2.867893 2.6590587E-13
2.994926 3.0669523E-13
3.121959 3.7419002E-13
3.248991 4.8390588E-13
3.376024 6.5308490E-13
3.503057 8.9963074E-13
3.630089 1.2407204E-12
3.757122 1.6910287E-12
3.884155 2.2606166E-12
4.011187 2.9527186E-12
4.138220 3.7618732E-12
4.265253 4.6730050E-12
4.392285 5.6621136E-12
4.519318 6.6991139E-12
4.646350 7.7530647E-12
4.773383 8.7995505E-12
4.900416 9.8294125E-12
5.027448 1.0857434E-11
5.154481 1.1929102E-11
5.281514 1.3123393E-11
5.408546 1.4549758E-11
5.535579 1.6338195E-11
5.662611 1.8622558E-11
5.789644 2.1518860E-11
5.916677 2.5101863E-11
6.043710 2.9384582E-11
6.170742 3.4305551E-11
6.297775 3.9727884E-11
6.424808 4.5451719E-11
6.551840 5.1238069E-11
6.678873 5.6837913E-11
6.805905 6.2016454E-11
6.932938 6.6560236E-11
7.059971 7.0255177E-11
7.187003 7.2827411E-11
7.314036 7.3845839E-11
7.441069 7.2594902E-11
7.568101 6.7936497E-11
7.695134 5.8188159E-11
7.822166 4.1049199E-11
7.949199 1.3604463E-11
8.076232 -2.7573756E-11
8.203264 -8.6220378E-11
8.330297 -1.6608397E-10
8.457330 -2.7058020E-10
8.584362 -4.0244513E-10
8.711395 -5.6344984E-10
8.838428 -7.5423562E-10
8.965461 -9.7431185E-10
9.092493 -1.2222310E-09
9.219525 -1.4959141E-09
9.346559 -1.7930595E-09
9.473591 -2.1115243E-09
9.600623 -2.4495443E-09
9.727656 -2.8056346E-09
9.854689 -3.1780445E-09
9.981722 -3.5636523E-09
10.10875 -3.9562624E-09
10.23579 -4.3443324E-09
10.36282 -4.7082436E-09
10.48985 -5.0173092E-09
10.61689 -5.2267888E-09
10.74392 -5.2752287E-09
10.87095 -5.0824664E-09
10.99798 -4.5486792E-09
11.12502 -3.5547487E-09
11.25205 -1.9642625E-09
11.37908 3.7266415E-10
11.50611 3.6136389E-09
11.63315 7.9163165E-09
11.76018 1.3428949E-08
11.88721 2.0279456E-08
12.01424 2.8563539E-08
12.14128 3.8332605E-08
12.26831 4.9582475E-08
12.39534 6.2244261E-08
12.52237 7.6179056E-08
12.64941 9.1178109E-08
12.77644 1.0697124E-07
12.90347 1.2324521E-07
13.03051 1.3967509E-07
13.15754 1.5597075E-07
13.28457 1.7194081E-07
13.41160 1.8757605E-07
13.53864 2.0315318E-07
13.66567 2.1936012E-07
13.79270 2.3744171E-07
13.91973 2.5936487E-07
14.04677 2.8800054E-07
14.17380 3.2731779E-07
14.30083 3.8258580E-07
14.42786 4.6057619E-07
14.55490 5.6975978E-07
14.68193 7.2048664E-07
14.80896 9.2514375E-07
14.93600 1.1982787E-06
15.06303 1.5566825E-06
15.19006 2.0194191E-06
15.31709 2.6077969E-06
15.44413 3.3452768E-06
15.57116 4.2573060E-06
15.69819 5.3710810E-06
15.82522 6.7152305E-06
15.95226 8.3194236E-06
16.07929 1.0213907E-05
16.20632 1.2428978E-05
16.33335 1.4994383E-05
16.46039 1.7938686E-05
16.58742 2.1288579E-05
16.71445 2.5068190E-05
16.84148 2.9298360E-05
16.96852 3.3995992E-05
17.09555 3.9173374E-05
17.22258 4.4837601E-05
17.34962 5.0990093E-05
17.47665 5.7626221E-05
17.60368 6.4735024E-05
17.73071 7.2299132E-05
17.85775 8.0294922E-05
17.98478 8.8692628E-05
18.11181 9.7456934E-05
18.23884 1.0654753E-04
18.36588 1.1591996E-04
18.49291 1.2552661E-04
18.61994 1.3531769E-04
18.74697 1.4524269E-04
18.87401 1.5525140E-04
19.00104 1.6529537E-04
19.12807 1.7532914E-04
19.25510 1.8531141E-04
19.38214 1.9520623E-04
19.50917 2.0498372E-04
19.63620 2.1462100E-04
19.76324 2.2410246E-04
19.89027 2.3342005E-04
20.01730 2.4257314E-04
20.14433 2.5156816E-04
20.27137 2.6041802E-04
20.39840 2.6914111E-04
20.52543 2.7776023E-04
20.65246 2.8630145E-04
20.77950 2.9479247E-04
20.90653 3.0326139E-04
21.03356 3.1173517E-04
21.16059 3.2023835E-04
21.28763 3.2879174E-04
21.41466 3.3741150E-04
21.54169 3.4610837E-04
21.66872 3.5488707E-04
21.79576 3.6374634E-04
21.92279 3.7267886E-04
22.04982 3.8167185E-04
22.17686 3.9070769E-04
22.30389 3.9976498E-04
22.43092 4.0881976E-04
22.55795 4.1784660E-04
22.68499 4.2682019E-04
22.81202 4.3571653E-04
22.93905 4.4451436E-04
23.06608 4.5319620E-04
23.19312 4.6174935E-04
23.32015 4.7016665E-04
23.44718 4.7844695E-04
23.57421 4.8659538E-04
23.70125 4.9462327E-04
23.82828 5.0254789E-04
23.95531 5.1039207E-04
24.08235 5.1818334E-04
24.20938 5.2595331E-04
24.33641 5.3373683E-04
24.46344 5.4157100E-04
24.59048 5.4949417E-04
24.71751 5.5754534E-04
24.84454 5.6576321E-04
24.97157 5.7418551E-04
25.09861 5.8284821E-04
25.22564 5.9178506E-04
25.35267 6.0102710E-04
25.47970 6.1060215E-04
25.60674 6.2053406E-04
25.73377 6.3084270E-04
25.86080 6.4154278E-04
25.98783 6.5264356E-04
26.11487 6.6414801E-04
26.24190 6.7605183E-04
26.36893 6.8834232E-04
26.49597 7.0099771E-04
26.62300 7.1398536E-04
26.75003 7.2726095E-04
26.87706 7.4076687E-04
27.00410 7.5443124E-04
27.13113 7.6816662E-04
27.25816 7.8186893E-04
27.38519 7.9541706E-04
27.51223 8.0867205E-04
27.63926 8.2147704E-04
27.76629 8.3365774E-04
27.89332 8.4502297E-04
28.02036 8.5536594E-04
28.14739 8.6446595E-04
28.27442 8.7209040E-04
28.40145 8.7799755E-04
28.52849 8.8193925E-04
28.65552 8.8366464E-04
28.78255 8.8292343E-04
28.90959 8.7946962E-04
29.03662 8.7306567E-04
29.16365 8.6348614E-04
29.29068 8.5052173E-04
29.41772 8.3398260E-04
29.54475 8.1370195E-04
29.67178 7.8953890E-04
29.79881 7.6138158E-04
29.92585 7.2914880E-04
30.05288 6.9279259E-04
30.17991 6.5229897E-04
30.30694 6.0768932E-04
30.43398 5.5902067E-04
30.56101 5.0638593E-04
30.68804 4.4991329E-04
30.81507 3.8976592E-04
30.94211 3.2614052E-04
31.06914 2.5926635E-04
31.19617 1.8940325E-04
31.32321 1.1684020E-04
31.45024 4.1893072E-05
31.57727 -3.5097524E-05
31.70430 -1.1376847E-04
31.83134 -1.9373681E-04
31.95837 -2.7460200E-04
32.08540 -3.5594890E-04
32.21243 -4.3735025E-04
32.33947 -5.1836972E-04
32.46650 -5.9856492E-04
32.59353 -6.7749032E-04
32.72057 -7.5470057E-04
32.84760 -8.2975382E-04
32.97463 -9.0221502E-04
33.10166 -9.7165938E-04
33.22869 -1.0376764E-03
33.35573 -1.0998728E-03
33.48276 -1.1578768E-03
33.60979 -1.2113417E-03
33.73683 -1.2599487E-03
33.86386 -1.3034118E-03
33.99089 -1.3414796E-03
34.11792 -1.3739393E-03
34.24496 -1.4006190E-03
34.37199 -1.4213903E-03
34.49902 -1.4361696E-03
34.62605 -1.4449198E-03
34.75309 -1.4476507E-03
34.88012 -1.4444200E-03
35.00715 -1.4353313E-03
35.13419 -1.4205342E-03
35.26122 -1.4002221E-03
35.38825 -1.3746289E-03
35.51528 -1.3440272E-03
35.64231 -1.3087243E-03
35.76935 -1.2690573E-03
35.89638 -1.2253899E-03
36.02341 -1.1781065E-03
36.15045 -1.1276081E-03
36.27748 -1.0743069E-03
36.40451 -1.0186206E-03
36.53154 -9.6096803E-04
36.65858 -9.0176432E-04
36.78561 -8.4141624E-04
36.91264 -7.8031764E-04
37.03968 -7.1884628E-04
37.16671 -6.5736030E-04
37.29374 -5.9619563E-04
37.42077 -5.3566409E-04
37.54781 -4.7605147E-04
37.67484 -4.1761703E-04
37.80187 -3.6059297E-04
37.92890 -3.0518469E-04
38.05593 -2.5157156E-04
38.18297 -1.9990776E-04
38.31000 -1.5032401E-04
38.43703 -1.0292901E-04
38.56407 -5.7811503E-05
38.69110 -1.5042267E-05
38.81813 2.5324131E-05
38.94516 6.3247207E-05
39.07220 9.8698969E-05
39.19923 1.3166234E-04
39.32626 1.6212993E-04
39.45330 1.9010309E-04
39.58033 2.1559137E-04
39.70736 2.3861219E-04
39.83439 2.5919097E-04
39.96143 2.7736137E-04
40.08846 2.9316585E-04
40.21549 3.0665647E-04
40.34253 3.1789544E-04
40.46955 3.2695595E-04
40.59659 3.3392294E-04
40.72362 3.3889315E-04
40.85065 3.4197557E-04
40.97769 3.4329100E-04
41.10472 3.4297141E-04
41.23175 3.4115894E-04
41.35878 3.3800409E-04
41.48582 3.3366377E-04
41.61285 3.2829886E-04
41.73988 3.2207111E-04
41.86692 3.1514021E-04
41.99395 3.0766023E-04
42.12098 2.9977635E-04
42.24801 2.9162140E-04
42.37505 2.8331278E-04
42.50208 2.7494974E-04
42.62911 2.6661096E-04
42.75615 2.5835307E-04
42.88317 2.5020973E-04
43.01021 2.4219134E-04
43.13724 2.3428602E-04
43.26427 2.2646104E-04
43.39131 2.1866539E-04
43.51834 2.1083285E-04
43.64537 2.0288596E-04
43.77240 1.9474051E-04
43.89944 1.8631028E-04
44.02647 1.7751212E-04
44.15350 1.6827106E-04
44.28054 1.5852510E-04
44.40757 1.4822985E-04
44.53460 1.3736232E-04
44.66163 1.2592424E-04
44.78867 1.1394436E-04
44.91570 1.0147973E-04
45.04273 8.8616165E-05
45.16977 7.5467346E-05
45.29680 6.2173029E-05
45.42383 4.8896251E-05
45.55086 3.5819587E-05
45.67789 2.3140663E-05
45.80493 1.1067040E-05
45.93196 -1.8934060E-07
46.05899 -1.0417931E-05
46.18602 -1.9415453E-05
46.31306 -2.6991569E-05
46.44009 -3.2974258E-05
46.56712 -3.7214726E-05
46.69416 -3.9591629E-05
46.82119 -4.0014562E-05
46.94822 -3.8426773E-05
47.07525 -3.4806959E-05
47.20229 -2.9170156E-05
47.32932 -2.1567830E-05
47.45635 -1.2087045E-05
47.58339 -8.4891332E-07
47.71042 1.1993709E-05
47.83745 2.6259040E-05
47.96448 4.1739797E-05
48.09151 5.8206952E-05
48.21855 7.5413831E-05
48.34558 9.3100418E-05
48.47261 1.1099781E-04
48.59965 1.2883272E-04
48.72668 1.4633195E-04
48.85371 1.6322684E-04
48.98074 1.7925749E-04
49.10778 1.9417699E-04
49.23481 2.0775521E-04
49.36184 2.1978255E-04
49.48887 2.3007322E-04
49.61591 2.3846829E-04
49.74294 2.4483821E-04
49.86997 2.4908519E-04
49.99701 2.5114461E-04
50.12404 2.5098649E-04
50.25107 2.4861592E-04
50.37810 2.4407329E-04
50.50513 2.3743349E-04
50.63217 2.2880480E-04
50.75920 2.1832707E-04
50.88623 2.0616926E-04
51.01327 1.9252648E-04
51.14030 1.7761624E-04
51.26733 1.6167459E-04
51.39436 1.4495170E-04
51.52140 1.2770707E-04
51.64843 1.1020467E-04
51.77546 9.2707873E-05
51.90249 7.5474629E-05
52.02953 5.8752510E-05
52.15656 4.2774198E-05
52.28359 2.7753307E-05
52.41063 1.3880656E-05
52.53766 1.3211617E-06
52.66469 -9.7887569E-06
52.79172 -1.9342910E-05
52.91875 -2.7266487E-05
53.04579 -3.3516320E-05
53.17282 -3.8080547E-05
53.29985 -4.0977407E-05
53.42689 -4.2253505E-05
53.55392 -4.1981431E-05
53.68095 -4.0256866E-05
53.80798 -3.7195383E-05
53.93502 -3.2928870E-05
54.06205 -2.7601860E-05
54.18908 -2.1367823E-05
54.31612 -1.4385500E-05
54.44315 -6.8154463E-06
54.57018 1.1831896E-06
54.69721 9.4555508E-06
54.82425 1.7853568E-05
54.95128 2.6238064E-05
55.07831 3.4480421E-05
55.20534 4.2463831E-05
55.33237 5.0084192E-05
55.45941 5.7250611E-05
55.58644 6.3885622E-05
55.71347 6.9925169E-05
55.84051 7.5318349E-05
55.96754 8.0027014E-05
56.09457 8.4025349E-05
56.22160 8.7299253E-05
56.34864 8.9845787E-05
56.47567 9.1672518E-05
56.60270 9.2796865E-05
56.72974 9.3245413E-05
56.85677 9.3053248E-05
56.98380 9.2263137E-05
57.11083 9.0924768E-05
57.23787 8.9093846E-05
57.36490 8.6831133E-05
57.49193 8.4201463E-05
57.61897 8.1272701E-05
57.74599 7.8114572E-05
57.87303 7.4797572E-05
58.00006 7.1391849E-05
58.12709 6.7966095E-05
58.25413 6.4586515E-05
58.38116 6.1315892E-05
58.50819 5.8212740E-05
58.63522 5.5330580E-05
58.76226 5.2717391E-05
58.88929 5.0415205E-05
59.01632 4.8459835E-05
59.14336 4.6880770E-05
59.27039 4.5701228E-05
59.39742 4.4938348E-05
59.52445 4.4603421E-05
59.65149 4.4702294E-05
59.77852 4.5235778E-05
59.90555 4.6200043E-05
60.03259 4.7587062E-05
60.15961 4.9384947E-05
60.28665 5.1578165E-05
60.41368 5.4147687E-05
60.54071 5.7070978E-05
60.66775 6.0321810E-05
60.79478 6.3869971E-05
60.92181 6.7680761E-05
61.04884 7.1714494E-05
61.17588 7.5925840E-05
61.30291 8.0263198E-05
61.42994 8.4668172E-05
61.55698 8.9075169E-05
61.68401 9.3411130E-05
61.81104 9.7595628E-05
61.93807 1.0154131E-04
62.06511 1.0515463E-04
62.19214 1.0833706E-04
62.31917 1.1098682E-04
62.44621 1.1300077E-04
62.57324 1.1427695E-04
62.70027 1.1471724E-04
62.82730 1.1423033E-04
62.95433 1.1273487E-04
63.08137 1.1016259E-04
63.20840 1.0646138E-04
63.33543 1.0159810E-04
63.46246 9.5561139E-05
63.58950 8.8362467E-05
63.71653 8.0039201E-05
63.84356 7.0654489E-05
63.97060 6.0297698E-05
64.09763 4.9083832E-05
64.22466 3.7152269E-05
64.35169 2.4664680E-05
64.47873 1.1802254E-05
64.60576 -1.2377219E-06
64.73279 -1.4245808E-05
64.85983 -2.7004853E-05
64.98685 -3.9294689E-05
65.11389 -5.0897019E-05
65.24092 -6.1600324E-05
65.36796 -7.1204653E-05
65.49499 -7.9526122E-05
65.62202 -8.6400993E-05
65.74905 -9.1689217E-05
65.87608 -9.5277377E-05
66.00312 -9.7080876E-05
66.13015 -9.7045413E-05
66.25719 -9.5147647E-05
66.38422 -9.1395130E-05
66.51125 -8.5825530E-05
66.63828 -7.8505109E-05
66.76531 -6.9526774E-05
66.89235 -5.9007503E-05
67.01938 -4.7085552E-05
67.14641 -3.3917328E-05
67.27345 -1.9674111E-05
67.40047 -4.5388051E-06
67.52751 1.1297258E-05
67.65454 2.7637449E-05
67.78158 4.4282697E-05
67.90861 6.1034141E-05
68.03564 7.7695535E-05
68.16267 9.4075382E-05
68.28970 1.0998880E-04
68.41674 1.2525915E-04
68.54377 1.3971938E-04
68.67081 1.5321338E-04
68.79784 1.6559698E-04
68.92487 1.7673898E-04
69.05190 1.8652203E-04
69.17893 1.9484351E-04
69.30597 2.0161635E-04
69.43300 2.0676981E-04
69.56004 2.1025022E-04
69.68707 2.1202186E-04
69.81409 2.1206753E-04
69.94113 2.1038919E-04
70.06816 2.0700850E-04
70.19520 2.0196705E-04
70.32223 1.9532660E-04
70.44926 1.8716897E-04
70.57629 1.7759558E-04
70.70332 1.6672681E-04
70.83036 1.5470095E-04
70.95739 1.4167272E-04
71.08443 1.2781151E-04
71.21146 1.1329913E-04
71.33849 9.8327291E-05
71.46552 8.3094681E-05
71.59255 6.7803820E-05
71.71959 5.2657662E-05
71.84662 3.7856098E-05
71.97366 2.3592378E-05
72.10069 1.0049676E-05
72.22771 -2.6022442E-06
72.35475 -1.4210080E-05
72.48178 -2.4639652E-05
72.60882 -3.3778171E-05
72.73585 -4.1535928E-05
72.86288 -4.7847523E-05
72.98991 -5.2672476E-05
73.11694 -5.5995311E-05
73.24398 -5.7825091E-05
73.37101 -5.8194451E-05
73.49805 -5.7158220E-05
73.62508 -5.4791664E-05
73.75211 -5.1188439E-05
73.87914 -4.6458339E-05
74.00617 -4.0724903E-05
74.13321 -3.4122972E-05
74.26024 -2.6796184E-05
74.38728 -1.8894487E-05
74.51431 -1.0571766E-05
74.64133 -1.9835295E-06
74.76837 6.7153151E-06
74.89540 1.5372605E-05
75.02244 2.3840934E-05
75.14947 3.1979602E-05
75.27650 3.9656483E-05
75.40353 4.6749803E-05
75.53056 5.3149804E-05
75.65760 5.8760324E-05
75.78463 6.3500258E-05
75.91167 6.7304834E-05
76.03870 7.0126713E-05
76.16573 7.1936796E-05
76.29276 7.2724841E-05
76.41979 7.2499715E-05
76.54683 7.1289280E-05
76.67386 6.9140027E-05
76.80090 6.6116234E-05
76.92793 6.2298874E-05
77.05495 5.7784146E-05
77.18199 5.2681717E-05
77.30902 4.7112764E-05
77.43606 4.1207739E-05
77.56309 3.5104051E-05
77.69012 2.8943583E-05
77.81715 2.2870161E-05
77.94418 1.7026996E-05
78.07122 1.1554098E-05
78.19825 6.5857826E-06
78.32529 2.2481913E-06
78.45232 -1.3431098E-06
78.57935 -4.0853879E-06
78.70638 -5.8908699E-06
78.83341 -6.6887210E-06
78.96045 -6.4267601E-06
79.08748 -5.0730168E-06
79.21452 -2.6168443E-06
79.34155 9.3014916E-07
79.46858 5.5337036E-06
79.59561 1.1136830E-05
79.72264 1.7660317E-05
79.84968 2.5003654E-05
79.97671 3.3046519E-05
80.10374 4.1650801E-05
80.23077 5.0663100E-05
80.35780 5.9917773E-05
80.48484 6.9240319E-05
80.61187 7.8451245E-05
80.73891 8.7370136E-05
80.86594 9.5819887E-05
80.99297 1.0363109E-04
81.12000 1.1064628E-04
81.24703 1.1672395E-04
81.37407 1.2174243E-04
81.50110 1.2560310E-04
81.62814 1.2823319E-04
81.75517 1.2958802E-04
81.88220 1.2965224E-04
82.00923 1.2844069E-04
82.13626 1.2599815E-04
82.26330 1.2239844E-04
82.39033 1.1774269E-04
82.51736 1.1215678E-04
82.64439 1.0578824E-04
82.77143 9.8802331E-05
82.89846 9.1377718E-05
83.02549 8.3701707E-05
83.15253 7.5965159E-05
83.27956 6.8357316E-05
83.40659 6.1060535E-05
83.53362 5.4245374E-05
83.66065 4.8065740E-05
83.78769 4.2654672E-05
83.91472 3.8120685E-05
84.04176 3.4544741E-05
84.16879 3.1978088E-05
84.29582 3.0441035E-05
84.42285 2.9922468E-05
84.54988 3.0380503E-05
84.67692 3.1743959E-05
84.80395 3.3914734E-05
84.93098 3.6771060E-05
85.05801 4.0171450E-05
85.18505 4.3959175E-05
85.31208 4.7967311E-05
85.43911 5.2024028E-05
85.56615 5.5957946E-05
85.69318 5.9603444E-05
85.82021 6.2805688E-05
85.94724 6.5425236E-05
86.07427 6.7342015E-05
86.20131 6.8458627E-05
86.32834 6.8702750E-05
86.45538 6.8028763E-05
86.58241 6.6418346E-05
86.70944 6.3880339E-05
86.83647 6.0449576E-05
86.96350 5.6185047E-05
87.09054 5.1167361E-05
87.21757 4.5495624E-05
87.34460 3.9283925E-05
87.47163 3.2657554E-05
87.59867 2.5749010E-05
87.72570 1.8694122E-05
87.85273 1.1628326E-05
87.97977 4.6831155E-06
88.10680 -2.0169978E-06
88.23383 -8.3571313E-06
88.36086 -1.4234163E-05
88.48790 -1.9558254E-05
88.61493 -2.4253874E-05
88.74196 -2.8260331E-05
88.86900 -3.1531730E-05
88.99603 -3.4036595E-05
89.12306 -3.5757141E-05
89.25009 -3.6688220E-05
89.37712 -3.6836114E-05
89.50416 -3.6217221E-05
89.63119 -3.4856668E-05
89.75822 -3.2786989E-05
89.88525 -3.0046804E-05
90.01229 -2.6679683E-05
90.13932 -2.2733142E-05
90.26635 -1.8257808E-05
90.39339 -1.3306781E-05
90.52042 -7.9351967E-06
90.64745 -2.1999595E-06
90.77448 3.8404046E-06
90.90152 1.0125746E-05
91.02855 1.6594231E-05
91.15558 2.3182292E-05
91.28262 2.9824578E-05
91.40965 3.6454043E-05
91.53668 4.3002117E-05
91.66371 4.9399096E-05
91.79075 5.5574674E-05
91.91778 6.1458755E-05
92.04481 6.6982371E-05
92.17184 7.2078888E-05
92.29887 7.6685232E-05
92.42591 8.0743368E-05
92.55294 8.4201754E-05
92.67997 8.7016793E-05
92.80701 8.9154215E-05
92.93404 9.0590416E-05
93.06107 9.1313523E-05
93.18810 9.1324262E-05
93.31514 9.0636539E-05
93.44217 8.9277622E-05
93.56920 8.7288143E-05
93.69624 8.4721534E-05
93.82327 8.1643258E-05
93.95030 7.8129677E-05
94.07733 7.4266572E-05
94.20437 7.0147369E-05
94.33140 6.5871303E-05
94.45843 6.1541192E-05
94.58546 5.7261335E-05
94.71249 5.3135187E-05
94.83953 4.9263166E-05
94.96656 4.5740395E-05
95.09360 4.2654607E-05
95.22063 4.0084269E-05
95.34766 3.8096743E-05
95.47469 3.6746773E-05
95.60172 3.6075209E-05
95.72876 3.6108024E-05
95.85579 3.6855563E-05
95.98282 3.8312330E-05
96.10986 4.0456835E-05
96.23689 4.3252046E-05
96.36392 4.6646022E-05
96.49095 5.0572977E-05
96.61799 5.4954591E-05
96.74502 5.9701681E-05
96.87205 6.4716034E-05
96.99908 6.9892558E-05
97.12611 7.5121461E-05
97.25315 8.0290672E-05
97.38018 8.5288186E-05
97.50722 9.0004505E-05
97.63425 9.4334937E-05
97.76128 9.8181838E-05
97.88831 1.0145662E-04
98.01534 1.0408161E-04
98.14238 1.0599159E-04
98.26941 1.0713511E-04
98.39645 1.0747548E-04
98.52348 1.0699131E-04
98.65051 1.0567698E-04
98.77754 1.0354257E-04
98.90457 1.0061356E-04
99.03161 9.6930227E-05
99.15864 9.2546768E-05
99.28567 8.7530199E-05
99.41270 8.1958991E-05
99.53973 7.5921511E-05
99.66677 6.9514346E-05
99.79380 6.2840423E-05
99.92084 5.6007037E-05
100.0479 4.9123777E-05
100.1749 4.2300449E-05
100.3019 3.5644945E-05
100.4290 2.9261108E-05
100.5560 2.3246692E-05
100.6830 1.7691438E-05
100.8101 1.2675308E-05
100.9371 8.2668666E-06
101.0641 4.5220286E-06
101.1912 1.4829761E-06
101.3182 -8.2251688E-07
101.4452 -2.3814450E-06
101.5723 -3.1955208E-06
101.6993 -3.2808066E-06
101.8263 -2.6669272E-06
101.9534 -1.3959798E-06
102.0804 4.7889847E-07
102.2074 2.8951677E-06
102.3345 5.7827283E-06
102.4615 9.0659905E-06
102.5885 1.2665891E-05
102.7156 1.6501965E-05
102.8426 2.0494390E-05
102.9696 2.4565885E-05
103.0966 2.8643422E-05
103.2237 3.2659758E-05
103.3507 3.6554688E-05
103.4777 4.0276071E-05
103.6048 4.3780488E-05
103.7318 4.7033707E-05
103.8588 5.0010822E-05
103.9859 5.2696058E-05
104.1129 5.5082390E-05
104.2399 5.7170877E-05
104.3670 5.8969774E-05
104.4940 6.0493447E-05
104.6210 6.1761210E-05
104.7481 6.2795894E-05
104.8751 6.3622472E-05
105.0021 6.4266642E-05
105.1292 6.4753265E-05
105.2562 6.5105101E-05
105.3832 6.5341446E-05
105.5103 6.5477056E-05
105.6373 6.5521257E-05
105.7643 6.5477201E-05
105.8914 6.5341555E-05
106.0184 6.5104367E-05
106.1454 6.4749300E-05
106.2725 6.4254207E-05
106.3995 6.3592008E-05
106.5265 6.2731873E-05
106.6536 6.1640669E-05
106.7806 6.0284659E-05
106.9076 5.8631365E-05
107.0347 5.6651534E-05
107.1617 5.4321168E-05
107.2887 5.1623440E-05
107.4158 4.8550552E-05
107.5428 4.5105317E-05
107.6698 4.1302465E-05
107.7969 3.7169582E-05
107.9239 3.2747575E-05
108.0509 2.8090641E-05
108.1780 2.3265755E-05
108.3050 1.8351599E-05
108.4320 1.3436979E-05
108.5591 8.6187847E-06
108.6861 3.9995671E-06
108.8131 -3.1525028E-07
108.9402 -4.2203283E-06
109.0672 -7.6135152E-06
109.1942 -1.0398932E-05
109.3213 -1.2489890E-05
109.4483 -1.3811674E-05
109.5753 -1.4303917E-05
109.7023 -1.3922587E-05
109.8294 -1.2641522E-05
109.9564 -1.0453404E-05
110.0834 -7.3702336E-06
110.2105 -3.4232057E-06
110.3375 1.3379697E-06
110.4645 6.8462555E-06
110.5916 1.3018966E-05
110.7186 1.9759895E-05
110.8456 2.6961769E-05
110.9727 3.4509038E-05
111.0997 4.2280852E-05
111.2267 5.0154151E-05
111.3538 5.8006673E-05
111.4808 6.5720051E-05
111.6078 7.3182586E-05
111.7349 8.0291793E-05
111.8619 8.6956592E-05
111.9889 9.3099035E-05
112.1160 9.8655633E-05
112.2430 1.0357807E-04
112.3700 1.0783351E-04
112.4971 1.1140426E-04
112.6241 1.1428701E-04
112.7511 1.1649161E-04
112.8782 1.1803945E-04
113.0052 1.1896157E-04
113.1322 1.1929656E-04
113.2593 1.1908835E-04
113.3863 1.1838409E-04
113.5133 1.1723208E-04
113.6404 1.1567994E-04
113.7674 1.1377307E-04
113.8944 1.1155353E-04
114.0215 1.0905926E-04
114.1485 1.0632376E-04
114.2755 1.0337607E-04
114.4026 1.0024128E-04
114.5296 9.6941112E-05
114.6566 9.3494993E-05
114.7837 8.9921028E-05
114.9107 8.6237182E-05
115.0377 8.2462298E-05
115.1647 7.8617071E-05
115.2918 7.4724783E-05
115.4188 7.0811773E-05
115.5459 6.6907618E-05
115.6729 6.3044943E-05
115.7999 5.9258953E-05
115.9269 5.5586632E-05
116.0540 5.2065658E-05
116.1810 4.8733160E-05
116.3080 4.5624281E-05
116.4351 4.2770676E-05
116.5621 4.0199069E-05
116.6891 3.7929894E-05
116.8162 3.5976125E-05
116.9432 3.4342349E-05
117.0702 3.3024186E-05
117.1973 3.2007978E-05
117.3243 3.1270920E-05
117.4513 3.0781503E-05
117.5784 3.0500300E-05
117.7054 3.0381143E-05
117.8324 3.0372499E-05
117.9595 3.0419065E-05
118.0865 3.0463581E-05
118.2135 3.0448700E-05
118.3406 3.0318859E-05
118.4676 3.0022207E-05
118.5946 2.9512357E-05
118.7217 2.8749999E-05
118.8487 2.7704395E-05
118.9757 2.6354513E-05
119.1028 2.4689980E-05
119.2298 2.2711689E-05
119.3568 2.0432104E-05
119.4839 1.7875174E-05
119.6109 1.5075912E-05
119.7379 1.2079652E-05
119.8650 8.9409950E-06
119.9920 5.7223774E-06
120.1190 2.4923984E-06
120.2461 -6.7599564E-07
120.3731 -3.7076766E-06
120.5001 -6.5274294E-06
120.6272 -9.0621543E-06
120.7542 -1.1243058E-05
120.8812 -1.3007641E-05
121.0083 -1.4301564E-05
121.1353 -1.5080193E-05
121.2623 -1.5309844E-05
121.3894 -1.4968620E-05
121.5164 -1.4046829E-05
121.6434 -1.2547028E-05
121.7704 -1.0483580E-05
121.8975 -7.8818857E-06
122.0245 -4.7772214E-06
122.1516 -1.2132566E-06
122.2786 2.7595686E-06
122.4056 7.0859051E-06
122.5326 1.1707347E-05
122.6597 1.6564294E-05
122.7867 2.1597718E-05
122.9137 2.6750693E-05
123.0408 3.1969805E-05
123.1678 3.7206242E-05
123.2948 4.2416548E-05
123.4219 4.7563091E-05
123.5489 5.2614232E-05
123.6759 5.7544163E-05
123.8030 6.2332503E-05
123.9300 6.6963737E-05
124.0570 7.1426337E-05
124.1841 7.5711891E-05
124.3111 7.9814141E-05
124.4381 8.3727959E-05
124.5652 8.7448403E-05
124.6922 9.0969821E-05
124.8192 9.4285111E-05
124.9463 9.7385055E-05
125.0733 1.0025784E-04
125.2003 1.0288881E-04
125.3274 1.0526034E-04
125.4544 1.0735194E-04
125.5814 1.0914059E-04
125.7085 1.1060126E-04
125.8355 1.1170767E-04
125.9625 1.1243312E-04
126.0896 1.1275168E-04
126.2166 1.1263937E-04
126.3436 1.1207546E-04
126.4707 1.1104383E-04
126.5977 1.0953433E-04
126.7247 1.0754407E-04
126.8518 1.0507851E-04
126.9788 1.0215247E-04
127.1058 9.8790762E-05
127.2329 9.5028605E-05
127.3599 9.0911642E-05
127.4869 8.6495638E-05
127.6140 8.1845668E-05
127.7410 7.7035111E-05
127.8680 7.2144088E-05
127.9950 6.7257657E-05
128.1221 6.2463674E-05
128.2491 5.7850444E-05
128.3761 5.3504209E-05
128.5032 4.9506601E-05
128.6302 4.5932073E-05
128.7572 4.2845470E-05
128.8843 4.0299870E-05
129.0113 3.8334667E-05
129.1383 3.6974099E-05
129.2654 3.6226251E-05
129.3924 3.6082489E-05
129.5194 3.6517489E-05
129.6465 3.7489870E-05
129.7735 3.8943213E-05
129.9005 4.0807707E-05
130.0276 4.3002135E-05
130.1546 4.5436289E-05
130.2816 4.8013691E-05
130.4087 5.0634426E-05
130.5357 5.3198139E-05
130.6627 5.5607074E-05
130.7898 5.7768950E-05
130.9168 5.9599730E-05
131.0438 6.1026069E-05
131.1709 6.1987463E-05
131.2979 6.2437983E-05
131.4249 6.2347492E-05
131.5520 6.1702478E-05
131.6790 6.0506180E-05
131.8060 5.8778336E-05
131.9331 5.6554301E-05
132.0601 5.3883701E-05
132.1871 5.0828661E-05
132.3142 4.7461654E-05
132.4412 4.3862998E-05
132.5682 4.0118277E-05
132.6953 3.6315560E-05
132.8223 3.2542688E-05
132.9493 2.8884662E-05
133.0764 2.5421286E-05
133.2034 2.2225073E-05
133.3304 1.9359522E-05
133.4575 1.6877850E-05
133.5845 1.4822099E-05
133.7115 1.3222826E-05
133.8385 1.2099075E-05
133.9656 1.1458876E-05
134.0926 1.1300024E-05
134.2197 1.1611133E-05
134.3467 1.2372924E-05
134.4737 1.3559596E-05
134.6008 1.5140265E-05
134.7278 1.7080305E-05
134.8548 1.9342597E-05
134.9818 2.1888589E-05
135.1089 2.4679164E-05
135.2359 2.7675256E-05
135.3629 3.0838262E-05
135.4900 3.4130160E-05
135.6170 3.7513517E-05
135.7440 4.0951330E-05
135.8711 4.4406737E-05
135.9981 4.7842739E-05
136.1251 5.1221981E-05
136.2522 5.4506527E-05
136.3792 5.7657893E-05
136.5062 6.0637081E-05
136.6333 6.3405001E-05
136.7603 6.5922992E-05
136.8873 6.8153553E-05
137.0144 7.0061309E-05
137.1414 7.1614064E-05
137.2684 7.2784038E-05
137.3955 7.3549076E-05
137.5225 7.3893825E-05
137.6495 7.3810850E-05
137.7766 7.3301555E-05
137.9036 7.2376875E-05
138.0306 7.1057701E-05
138.1577 6.9374852E-05
138.2847 6.7368892E-05
138.4117 6.5089400E-05
138.5388 6.2593965E-05
138.6658 5.9946859E-05
138.7928 5.7217432E-05
138.9199 5.4478274E-05
139.0469 5.1803236E-05
139.1739 4.9265404E-05
139.3009 4.6935060E-05
139.4280 4.4877703E-05
139.5550 4.3152151E-05
139.6821 4.1808980E-05
139.8091 4.0889052E-05
139.9361 4.0422387E-05
140.0632 4.0427371E-05
140.1902 4.0910167E-05
140.3172 4.1864620E-05
140.4442 4.3272346E-05
140.5713 4.5103207E-05
140.6983 4.7316098E-05
140.8253 4.9859998E-05
140.9524 5.2675205E-05
141.0794 5.5694818E-05
141.2065 5.8846348E-05
141.3335 6.2053463E-05
141.4605 6.5237800E-05
141.5875 6.8320784E-05
141.7146 7.1225440E-05
141.8416 7.3878204E-05
141.9686 7.6210519E-05
142.0957 7.8160418E-05
142.2227 7.9673933E-05
142.3497 8.0706224E-05
142.4768 8.1222657E-05
142.6038 8.1199454E-05
142.7308 8.0624290E-05
142.8579 7.9496502E-05
142.9849 7.7827070E-05
143.1119 7.5638418E-05
143.2390 7.2963885E-05
143.3660 6.9847039E-05
143.4930 6.6340741E-05
143.6201 6.2506100E-05
143.7471 5.8411173E-05
143.8741 5.4129581E-05
144.0012 4.9739025E-05
144.1282 4.5319655E-05
144.2552 4.0952349E-05
144.3823 3.6717003E-05
144.5093 3.2690779E-05
144.6363 2.8946381E-05
144.7634 2.5550318E-05
144.8904 2.2561364E-05
145.0174 2.0029043E-05
145.1445 1.7992468E-05
145.2715 1.6479255E-05
145.3985 1.5504755E-05
145.5256 1.5071560E-05
145.6526 1.5169392E-05
145.7796 1.5775202E-05
145.9066 1.6853697E-05
146.0337 1.8358191E-05
146.1607 2.0231751E-05
146.2878 2.2408667E-05
146.4148 2.4816238E-05
146.5418 2.7376778E-05
146.6689 3.0009802E-05
146.7959 3.2634409E-05
146.9229 3.5171732E-05
147.0499 3.7547310E-05
147.1770 3.9693510E-05
147.3040 4.1551630E-05
147.4310 4.3073942E-05
147.5581 4.4225239E-05
147.6851 4.4984106E-05
147.8121 4.5343713E-05
