  -4.50000000         0.00000000    
  -4.37320757         0.00000000    
  -4.24641466         0.00000000    
  -4.11962223         0.00000000    
  -3.99282932         0.00000000    
  -3.86603665         0.00000000    
  -3.73924398         0.00000000    
  -3.61245155         0.00000000    
  -3.48565888         0.00000000    
  -3.35886621         0.00000000    
  -3.23207355         0.00000000    
  -3.10528088         0.00000000    
  -2.97848821         0.00000000    
  -2.85169554         0.00000000    
  -2.72490287         0.00000000    
  -2.59811020         0.00000000    
  -2.47131753         0.00000000    
  -2.34452486         0.00000000    
  -2.21773219         0.00000000    
  -2.09093952         0.00000000    
  -1.96414697         0.00000000    
  -1.83735430         0.00000000    
  -1.71056163         0.00000000    
  -1.58376896         0.00000000    
  -1.45697629         0.00000000    
  -1.33018374         0.00000000    
  -1.20339108         0.00000000    
  -1.07659841         0.00000000    
 -0.949805737         0.00000000    
 -0.823013067         0.00000000    
 -0.696220458         0.00000000    
 -0.569427788         0.00000000    
 -0.442635119         0.00000000    
 -0.315842479         0.00000000    
 -0.189049825         0.00000000    
  -6.22571707E-02     0.00000000    
   6.45354837E-02     0.00000000    
  0.191328138         0.00000000    
  0.318120778         0.00000000    
  0.444913447         0.00000000    
  0.571706116         0.00000000    
  0.698498726         0.00000000    
  0.825291395         0.00000000    
  0.952084064         0.00000000    
   1.07887673         0.00000000    
   1.20566940         0.00000000    
   1.33246195         0.00000000    
   1.45925462         0.00000000    
   1.58604729         0.00000000    
   1.71283996         0.00000000    
   1.83963263         0.00000000    
   1.96642530         0.00000000    
   2.09321785         0.00000000    
   2.22001052         0.00000000    
   2.34680319         0.00000000    
   2.47359586         0.00000000    
   2.60038853         0.00000000    
   2.72718120         0.00000000    
   2.85397387         0.00000000    
   2.98076653         0.00000000    
   3.10755920         0.00000000    
   3.23435187         0.00000000    
   3.36114454         0.00000000    
   3.48793697         0.00000000    
   3.61472964         0.00000000    
   3.74152231         0.00000000    
   3.86831498         0.00000000    
   3.99510765         0.00000000    
   4.12190056         0.00000000    
   4.24869299         0.00000000    
   4.37548542         0.00000000    
   4.50227833         0.00000000    
   4.62907076         0.00000000    
   4.75586367         0.00000000    
   4.88265610         0.00000000    
   5.00944901         0.00000000    
   5.13624144         0.00000000    
   5.26303434         0.00000000    
   5.38982677         0.00000000    
   5.51661968         0.00000000    
   5.64341211         0.00000000    
   5.77020502         0.00000000    
   5.89699745         0.00000000    
   6.02379036         0.00000000    
   6.15058279         0.00000000    
   6.27737522         0.00000000    
   6.40416813         0.00000000    
   6.53096056         0.00000000    
   6.65775347         0.00000000    
   6.78454590         0.00000000    
   6.91133881         0.00000000    
   7.03813124         0.00000000    
   7.16492414         0.00000000    
   7.29171658         0.00000000    
   7.41850948         0.00000000    
   7.54530191         0.00000000    
   7.67209482         0.00000000    
   7.79888725         0.00000000    
   7.92567968         0.00000000    
   8.05247211         0.00000000    
   8.17926502         0.00000000    
   8.30605793         0.00000000    
   8.43285084         0.00000000    
   8.55964279         0.00000000    
   8.68643570         0.00000000    
   8.81322861         0.00000000    
   8.94002151         0.00000000    
   9.06681347         0.00000000    
   9.19360638         0.00000000    
   9.32039928         0.00000000    
   9.44719219         0.00000000    
   9.57398415         0.00000000    
   9.70077705         0.00000000    
   9.82756996         0.00000000    
   9.95436192         0.00000000    
   10.0811548         0.00000000    
   10.2079477         0.00000000    
   10.3347406         0.00000000    
   10.4615326         0.00000000    
   10.5883255         0.00000000    
   10.7151184         0.00000000    
   10.8419113         0.00000000    
   10.9687033         0.00000000    
   11.0954962         0.00000000    
   11.2222891         0.00000000    
   11.3490820         0.00000000    
   11.4758739         0.00000000    
   11.6026669         0.00000000    
   11.7294598         0.00000000    
   11.8562517         0.00000000    
   11.9830446         0.00000000    
   12.1098375         0.00000000    
   12.2366304         0.00000000    
   12.3634224         0.00000000    
   12.4902153         0.00000000    
   12.6170082         0.00000000    
   12.7438011         0.00000000    
   12.8705931         0.00000000    
   12.9973860         0.00000000    
   13.1241789         0.00000000    
   13.2509708         0.00000000    
   13.3777637         0.00000000    
   13.5045567         0.00000000    
   13.6313496         0.00000000    
   13.7581415         0.00000000    
   13.8849344         0.00000000    
   14.0117273         0.00000000    
   14.1385202         0.00000000    
   14.2653122         0.00000000    
   14.3921051         0.00000000    
   14.5188980         0.00000000    
   14.6456909         0.00000000    
   14.7724829         0.00000000    
   14.8992758         0.00000000    
   15.0260687         0.00000000    
   15.1528606         0.00000000    
   15.2796535         0.00000000    
   15.4064465         0.00000000    
   15.5332394         0.00000000    
   15.6600313         0.00000000    
   15.7868242         0.00000000    
   15.9136171         0.00000000    
   16.0404091         0.00000000    
   16.1672020         0.00000000    
   16.2939949         0.00000000    
   16.4207878         0.00000000    
   16.5475807         0.00000000    
   16.6743736         0.00000000    
   16.8011646         0.00000000    
   16.9279575         0.00000000    
   17.0547504         0.00000000    
   17.1815434         0.00000000    
   17.3083363         0.00000000    
   17.4351292         0.00000000    
   17.5619221         0.00000000    
   17.6887150         0.00000000    
   17.8155060         0.00000000    
   17.9422989         0.00000000    
   18.0690918         0.00000000    
   18.1958847         0.00000000    
   18.3226776         0.00000000    
   18.4494705         0.00000000    
   18.5762634         0.00000000    
   18.7030544         0.00000000    
   18.8298473         0.00000000    
   18.9566402         0.00000000    
   19.0834332         0.00000000    
   19.2102261         0.00000000    
   19.3370190         0.00000000    
   19.4638119         0.00000000    
   19.5906048         0.00000000    
   19.7173958         0.00000000    
   19.8441887         0.00000000    
   19.9709816         0.00000000    
   20.0977745         0.00000000    
   20.2245674         0.00000000    
   20.3513603         0.00000000    
   20.4781532         0.00000000    
   20.6049442         0.00000000    
   20.7317371         0.00000000    
   20.8585300         0.00000000    
   20.9853230         0.00000000    
   21.1121159         0.00000000    
   21.2389088         0.00000000    
   21.3657017         0.00000000    
   21.4924946         0.00000000    
   21.6192856         0.00000000    
   21.7460785         0.00000000    
   21.8728714         0.00000000    
   21.9996643         0.00000000    
   22.1264572         0.00000000    
   22.2532501         0.00000000    
   22.3800430         0.00000000    
   22.5068340         0.00000000    
   22.6336269         0.00000000    
   22.7604198         0.00000000    
   22.8872128         0.00000000    
   23.0140057         0.00000000    
   23.1407986         0.00000000    
   23.2675915         0.00000000    
   23.3943844         0.00000000    
   23.5211754         0.00000000    
   23.6479683         0.00000000    
   23.7747612         0.00000000    
   23.9015541         0.00000000    
   24.0283470         0.00000000    
   24.1551399         0.00000000    
   24.2819328         0.00000000    
   24.4087238         0.00000000    
   24.5355167         0.00000000    
   24.6623096         0.00000000    
   24.7891026         0.00000000    
   24.9158955         0.00000000    
   25.0426884         0.00000000    
   25.1694813         0.00000000    
   25.2962742         0.00000000    
   25.4230652         0.00000000    
   25.5498581         0.00000000    
   25.6766510         0.00000000    
   25.8034439         0.00000000    
   25.9302368         0.00000000    
   26.0570297         0.00000000    
   26.1838226         0.00000000    
   26.3106136         0.00000000    
   26.4374065         0.00000000    
   26.5641994         0.00000000    
   26.6909924         0.00000000    
   26.8177853         0.00000000    
   26.9445782         0.00000000    
   27.0713711         0.00000000    
   27.1981640         0.00000000    
   27.3249550         0.00000000    
   27.4517479         0.00000000    
   27.5785408         0.00000000    
   27.7053337         0.00000000    
   27.8321266         0.00000000    
   27.9589195         0.00000000    
   28.0857124         0.00000000    
   28.2125034         0.00000000    
   28.3392963         0.00000000    
   28.4660892         0.00000000    
   28.5928822         0.00000000    
   28.7196751         0.00000000    
   28.8464680         0.00000000    
   28.9732609         1.28581174E-33
   29.1000538         1.82106869E-33
   29.2268448         1.47458245E-33
   29.3536377         1.66532872E-33
   29.4804306         6.99753787E-33
   29.6072235         1.65560342E-32
   29.7340164         2.49807096E-32
   29.8608093         2.89347699E-32
   29.9876022         1.24810376E-32
   30.1143932        -2.43899429E-32
   30.2411861        -8.01874404E-32
   30.3679790        -1.24347848E-31
   30.4947720        -1.29741580E-31
   30.6215649        -1.08072165E-31
   30.7483578        -3.71006147E-32
   30.8751507         3.66508853E-32
   31.0019417         1.40721520E-31
   31.1287346         2.55442210E-31
   31.2555275         3.33238472E-31
   31.3823204         4.20657894E-31
   31.5091133         4.32004753E-31
   31.6359062         5.08227663E-31
   31.7626991         7.86534226E-31
   31.8894920         1.28117364E-30
   32.0162849         2.03401392E-30
   32.1430779         2.71994873E-30
   32.2698708         2.85137220E-30
   32.3966637         3.21119741E-30
   32.5234528         3.90372684E-30
   32.6502457         3.64206405E-30
   32.7770386         2.00286840E-30
   32.9038315        -1.46711522E-30
   33.0306244        -1.00235806E-29
   33.1574173        -2.05317087E-29
   33.2842102        -2.95966351E-29
   33.4110031        -3.51530062E-29
   33.5377960        -3.15588628E-29
   33.6645889        -1.80641395E-29
   33.7913818         4.89003543E-30
   33.9181747         3.38206268E-29
   34.0449677         6.00473239E-29
   34.1717606         8.59978035E-29
   34.2985535         1.05210291E-28
   34.4253426         1.18992763E-28
   34.5521355         1.14354630E-28
   34.6789284         8.88961114E-29
   34.8057213         5.03437395E-29
   34.9325142         4.73321095E-30
   35.0593071        -3.74027181E-29
   35.1861000        -5.23002767E-29
   35.3128929        -3.61615676E-29
   35.4396858         8.32655273E-30
   35.5664787         8.75266067E-29
   35.6932716         1.75975385E-28
   35.8200645         2.66496873E-28
   35.9468575         3.39905522E-28
   36.0736504         3.83668789E-28
   36.2004433         3.93214926E-28
   36.3272324         3.62622444E-28
   36.4540253         2.87210297E-28
   36.5808182         1.72118048E-28
   36.7076111         3.77500851E-30
   36.8344040        -2.05686140E-28
   36.9611969        -4.46632013E-28
   37.0879898        -7.03544327E-28
   37.2147827        -9.51705601E-28
   37.3415756        -1.17466589E-27
   37.4683685        -1.35653839E-27
   37.5951614        -1.48422186E-27
   37.7219543        -1.54701767E-27
   37.8487473        -1.53417788E-27
   37.9755402        -1.43543170E-27
   38.1023293        -1.24725669E-27
   38.2291222        -9.65150710E-28
   38.3559151        -5.82092200E-28
   38.4827080        -1.01127548E-28
   38.6095009         4.79775438E-28
   38.7362938         1.15772098E-27
   38.8630867         1.90679448E-27
   38.9898796         2.71144628E-27
   39.1166725         3.53535950E-27
   39.2434654         4.33641115E-27
   39.3702583         5.07230359E-27
   39.4970512         5.68863083E-27
   39.6238441         6.12547219E-27
   39.7506371         6.32272786E-27
   39.8774300         6.21646429E-27
   40.0042191         5.74534061E-27
   40.1310120         4.85488459E-27
   40.2578049         3.49333455E-27
   40.3845978         1.63498529E-27
   40.5113907        -7.25966437E-28
   40.6381836        -3.58013351E-27
   40.7649765        -6.87127739E-27
   40.8917694        -1.05072166E-26
   41.0185623        -1.43531085E-26
   41.1453552        -1.82292751E-26
   41.2721481        -2.19108258E-26
   41.3989410        -2.51344797E-26
   41.5257339        -2.76068930E-26
   41.6525269        -2.90188924E-26
   41.7793198        -2.90664121E-26
   41.9061089        -2.74659088E-26
   42.0329018        -2.39770205E-26
   42.1596947        -1.84278123E-26
   42.2864876        -1.07355688E-26
   42.4132805        -9.23160430E-28
   42.5400734         1.08595987E-26
   42.6668663         2.43236801E-26
   42.7936592         3.90224591E-26
   42.9204521         5.43533607E-26
   43.0472450         6.95569537E-26
   43.1740379         8.37324082E-26
   43.3008308         9.58588890E-26
   43.4276237         1.04834844E-25
   43.5544167         1.09529836E-25
   43.6812096         1.08853610E-25
   43.8079987         1.01833839E-25
   43.9347916         8.77090745E-26
   44.0615845         6.60268073E-26
   44.1883774         3.67411196E-26
   44.3151703         3.02836330E-28
   44.4419632        -4.22669547E-26
   44.5687561        -8.93282670E-26
   44.6955490        -1.38610146E-25
   44.8223419        -1.87241239E-25
   44.9491348        -2.31832933E-25
   45.0759277        -2.68617739E-25
   45.2027206        -2.93644893E-25
   45.3295135        -3.03032486E-25
   45.4563065        -2.93266832E-25
   45.5830994        -2.61541360E-25
   45.7098885        -2.06122662E-25
   45.8366814        -1.26719497E-25
   45.9634743        -2.48348959E-26
   46.0902672         9.59388659E-26
   46.2170601         2.29705498E-25
   46.3438530         3.68180440E-25
   46.4706459         5.00765353E-25
   46.5974388         6.14825962E-25
   46.7242317         6.96196373E-25
   46.8510246         7.29932305E-25
   46.9778175         7.01319088E-25
   47.1046104         5.97115542E-25
   47.2314034         4.07001420E-25
   47.3581963         1.25165503E-25
   47.4849892        -2.48052652E-25
   47.6117783        -7.04571660E-25
   47.7385712        -1.22717835E-24
   47.8653641        -1.78847547E-24
   47.9921570        -2.35034658E-24
   48.1189499        -2.86410684E-24
   48.2457428        -3.27150813E-24
   48.3725357        -3.50670958E-24
   48.4993286        -3.49936686E-24
   48.6261215        -3.17882980E-24
   48.7529144        -2.47947778E-24
   48.8797073        -1.34703088E-24
   49.0065002         2.54310982E-25
   49.1332932         2.33428044E-24
   49.2600861         4.86887120E-24
   49.3868790         7.79317976E-24
   49.5136681         1.09953303E-23
   49.6404610         1.43122955E-23
   49.7672539         1.75282369E-23
   49.8940468         2.03762409E-23
   50.0208397         2.25441222E-23
   50.1476326         2.36848135E-23
   50.2744255         2.34319678E-23
   50.4012184         2.14206517E-23
   50.5280113         1.73132139E-23
   50.6548042         1.08295953E-23
   50.7815971         1.78125640E-24
   50.9083900        -9.89283719E-24
   51.0351830        -2.40901554E-23
   51.1619759        -4.05107748E-23
   51.2887688        -5.86286663E-23
   51.4155579        -7.76711753E-23
   51.5423508        -9.66100911E-23
   51.6691437        -1.14167446E-22
   51.7959366        -1.28839161E-22
   51.9227295        -1.38939320E-22
   52.0495224        -1.42666441E-22
   52.1763153        -1.38193032E-22
   52.3031082        -1.23777489E-22
   52.4299011        -9.78962499E-23
   52.5566940        -5.93925424E-23
   52.6834869        -7.63558823E-24
   52.8102798         5.73175416E-23
   52.9370728         1.34566935E-22
   53.0638657         2.22233376E-22
   53.1906586         3.17352835E-22
   53.3174477         4.15815601E-22
   53.4442406         5.12363416E-22
   53.5710335         6.00657272E-22
   53.6978264         6.73428063E-22
   53.8246193         7.22715890E-22
   53.9514122         7.40205378E-22
   54.0782051         7.17654761E-22
   54.2049980         6.47411809E-22
   54.3317909         5.23005339E-22
   54.4585838         3.39789100E-22
   54.5853767         9.56125670E-23
   54.7121696        -2.08518202E-22
   54.8389626        -5.67830965E-22
   54.9657555        -9.73277854E-22
   55.0925484        -1.41117416E-21
   55.2193375        -1.86303955E-21
   55.3461304        -2.30569245E-21
   55.4729233        -2.71163840E-21
   55.5997162        -3.04979553E-21
   55.7265091        -3.28657336E-21
   55.8533020        -3.38731693E-21
   55.9800949        -3.31810235E-21
   56.1068878        -3.04784148E-21
   56.2336807        -2.55064090E-21
   56.3604736        -1.80832345E-21
   56.4872665        -8.12992829E-22
   56.6140594         4.30490812E-22
   56.7408524         1.90229468E-21
   56.8676453         3.56582456E-21
   56.9944382         5.36655717E-21
   57.1212273         7.23166286E-21
   57.2480202         9.07061137E-21
   57.3748131         1.07768782E-20
   57.5016060         1.22308921E-20
   57.6283989         1.33042526E-20
   57.7551918         1.38652370E-20
   57.8819847         1.37855013E-20
   58.0087776         1.29478282E-20
   58.1355705         1.12546590E-20
   58.2623634         8.63709361E-21
   58.3891563         5.06391287E-21
   58.5159492         5.50132865E-22
   58.6427422        -4.83545997E-21
   58.7695351        -1.09643978E-20
   58.8963280        -1.76448675E-20
   59.0231171        -2.46208694E-20
   59.1499100        -3.15747571E-20
   59.2767029        -3.81335723E-20
   59.4034958        -4.38795178E-20
   59.5302887        -4.83646333E-20
   59.6570816        -5.11296880E-20
   59.7838745        -5.17268252E-20
   59.9106674        -4.97455305E-20
   60.0374603        -4.48408600E-20
   60.1642532        -3.67629922E-20
   60.2910461        -2.53865090E-20
   60.4178391        -1.07379595E-20
   60.5446320         6.98019106E-21
   60.6714249         2.73710769E-20
   60.7982178         4.98322326E-20
   60.9250069         7.35535075E-20
   61.0517998         9.75256928E-20
   61.1785927         1.20561019E-19
   61.3053856         1.41326431E-19
   61.4321785         1.58389784E-19
   61.5589714         1.70278567E-19
   61.6857643         1.75550060E-19
   61.8125572         1.72870835E-19
   61.9393501         1.61103040E-19
   62.0661430         1.39393737E-19
   62.1929359         1.07263263E-19
   62.3197289         6.46876888E-20
   62.4465218         1.21701314E-20
   62.5733147        -4.92043121E-20
   62.7001076        -1.17735628E-19
   62.8268967        -1.91102593E-19
   62.9536896        -2.66387778E-19
   63.0804825        -3.40136952E-19
   63.2072754        -4.08454600E-19
   63.3340683        -4.67136499E-19
   63.4608612        -5.11837236E-19
   63.5876541        -5.38269534E-19
   63.7144470        -5.42428960E-19
   63.8412399        -5.20837323E-19
   63.9680328        -4.70792896E-19
   64.0948257        -3.90618079E-19
   64.2216187        -2.79888865E-19
   64.3484116        -1.39633774E-19
   64.4752045         2.75133067E-20
   64.6019974         2.17220007E-19
   64.7287903         4.23435358E-19
   64.8555832         6.38453824E-19
   64.9823761         8.53070797E-19
   65.1091690         1.05683521E-18
   65.2359619         1.23839867E-18
   65.3627548         1.38595663E-18
   65.4895477         1.48777170E-18
   65.6163330         1.53276226E-18
   65.7431259         1.51113769E-18
   65.8699188         1.41505188E-18
   65.9967117         1.23924394E-18
   66.1235046         9.81635912E-19
   66.2502975         6.43848282E-19
   66.3770905         2.31596690E-19
   66.5038834        -2.45061562E-19
   66.6306763        -7.71667333E-19
   66.7574692        -1.32950868E-18
   66.8842621        -1.89599971E-18
   67.0110550        -2.44529954E-18
   67.1378479        -2.94916627E-18
   67.2646408        -3.37803936E-18
   67.3914337        -3.70231691E-18
   67.5182266        -3.89379309E-18
   67.6450195        -3.92720084E-18
   67.7718124        -3.78179780E-18
   67.8986053        -3.44291927E-18
   68.0253983        -2.90341884E-18
   68.1521912        -2.16491137E-18
   68.2789841        -1.23873171E-18
   68.4057770        -1.46529320E-19
   68.5325699         1.07957141E-18
   68.6593628         2.39730983E-18
   68.7861557         3.75516093E-18
   68.9129486         5.09376415E-18
   69.0397415         6.34789817E-18
   69.1665344         7.44897152E-18
   69.2933273         8.32795763E-18
   69.4201126         8.91868535E-18
   69.5469055         9.16136443E-18
   69.6736984         9.00618286E-18
   69.8004913         8.41683074E-18
   69.9272842         7.37374606E-18
   70.0540771         5.87690360E-18
   70.1808701         3.94795936E-18
   70.3076630         1.63156144E-18
   70.4344559        -1.00431441E-18
   70.5612488        -3.86913235E-18
   70.6880417        -6.85174836E-18
   70.8148346        -9.82358703E-18
   70.9416275        -1.26430015E-17
   71.0684204        -1.51607433E-17
   71.1952133        -1.72263820E-17
   71.3220062        -1.86954697E-17
   71.4487991        -1.94371628E-17
   71.5755920        -1.93419858E-17
   71.7023849        -1.83293678E-17
   71.8291779        -1.63545535E-17
   71.9559708        -1.34144707E-17
   72.0827637        -9.55220313E-18
   72.2095566        -4.85964226E-18
   72.3363495         5.21961720E-19
   72.4631424         6.40380317E-18
   72.5899353         1.25538282E-17
   72.7167282         1.87035909E-17
   72.8435211         2.45576160E-17
   72.9703140         2.98050016E-17
   73.0971069         3.41329727E-17
   73.2238922         3.72418946E-17
   73.3506851         3.88611669E-17
   73.4774780         3.87653099E-17
   73.6042709         3.67894500E-17
   73.7310638         3.28434478E-17
   73.8578568         2.69237611E-17
   73.9846497         1.91223031E-17
   74.1114426         9.63151238E-18
   74.2382355        -1.25490826E-18
   74.3650284        -1.31461697E-17
   74.4918213        -2.55636678E-17
   74.6186142        -3.79554537E-17
   74.7454071        -4.97156922E-17
   74.8722000        -6.02086504E-17
   74.9989929        -6.87965255E-17
   75.1257858        -7.48700959E-17
   75.2525787        -7.78810134E-17
   75.3793716        -7.73743289E-17
   75.5061646        -7.30196862E-17
   75.6329575        -6.46395790E-17
   75.7597504        -5.22329981E-17
   75.8865433        -3.59929446E-17
   76.0133362        -1.63162584E-17
   76.1401291         6.19533257E-18
   76.2669220         3.07438086E-17
   76.3937149         5.63537703E-17
   76.5205078         8.19015149E-17
   76.6473007         1.06154020E-16
   76.7740936         1.27816848E-16
   76.9008865         1.45589532E-16
   77.0276718         1.58226509E-16
   77.1544647         1.64601199E-16
   77.2812576         1.63770670E-16
   77.4080505         1.55037523E-16
   77.5348434         1.38006297E-16
   77.6616364         1.12630818E-16
   77.7884293         7.92497856E-17
   77.9152222         3.86075566E-17
   78.0420151        -8.14190237E-18
   78.1688080        -5.94498346E-17
   78.2956009        -1.13407031E-16
   78.4223938        -1.67798021E-16
   78.5491867        -2.20174290E-16
   78.6759796        -2.67944791E-16
   78.8027725        -3.08481194E-16
   78.9295654        -3.39233943E-16
   79.0563583        -3.57855432E-16
   79.1831512        -3.62324431E-16
   79.3099442        -3.51066755E-16
   79.4367371        -3.23065989E-16
   79.5635300        -2.77958891E-16
   79.6903229        -2.16109154E-16
   79.8171158        -1.38654714E-16
   79.9439087        -4.75246695E-17
   80.0707016         5.45783363E-17
   80.1974945         1.64231390E-16
   80.3242874         2.77381347E-16
   80.4510803         3.89470223E-16
   80.5778732         4.95593207E-16
   80.7046585         5.90684726E-16
   80.8314514         6.69726664E-16
   80.9582443         7.27970767E-16
   81.0850372         7.61166676E-16
   81.2118301         7.65785918E-16
   81.3386230         7.39231329E-16
   81.4654160         6.80021555E-16
   81.5922089         5.87941027E-16
   81.7190018         4.64145415E-16
   81.8457947         3.11215046E-16
   81.9725876         1.33150416E-16
   82.0993805        -6.46943450E-17
   82.2261734        -2.75742179E-16
   82.3529663        -4.92385864E-16
   82.4797592        -7.06239078E-16
   82.6065521        -9.08438389E-16
   82.7333450        -1.08998741E-15
   82.8601379        -1.24212914E-15
   82.9869308        -1.35673365E-15
   83.1137238        -1.42668375E-15
   83.2405167        -1.44624248E-15
   83.3673096        -1.41138464E-15
   83.4941025        -1.32007417E-15
   83.6208954        -1.17247455E-15
   83.7476883        -9.71075523E-16
   83.8744812        -7.20726888E-16
   84.0012741        -4.28571540E-16
   84.1280670        -1.03875025E-16
   84.2548599         2.42249517E-16
   84.3816528         5.97211009E-16
   84.5084381         9.47399469E-16
   84.6352310         1.27871461E-15
   84.7620239         1.57714729E-15
   84.8888168         1.82939021E-15
   85.0156097         2.02345244E-15
   85.1424026         2.14924933E-15
   85.2691956         2.19914021E-15
   85.3959885         2.16838825E-15
   85.5227814         2.05551010E-15
   85.6495743         1.86250390E-15
   85.7763672         1.59492715E-15
   85.9031601         1.26181408E-15
   86.0299530         8.75432903E-16
   86.1567459         4.50875638E-16
   86.2835388         5.49275058E-18
   86.4103317        -4.41808415E-16
   86.5371246        -8.71382498E-16
   86.6639175        -1.26374701E-15
   86.7907104        -1.60053027E-15
   86.9175034        -1.86542532E-15
   87.0442963        -2.04509964E-15
   87.1710892        -2.13002253E-15
   87.2978821        -2.11515901E-15
   87.4246750        -2.00048684E-15
   87.5514679        -1.79130295E-15
   87.6782608        -1.49828535E-15
   87.8050537        -1.13729092E-15
   87.9318466        -7.28879051E-16
   88.0586395        -2.97559127E-16
   88.1854324         1.29222645E-16
   88.3122177         5.22325355E-16
   88.4390106         8.52344638E-16
   88.5658035         1.09118786E-15
   88.6925964         1.21372039E-15
   88.8193893         1.19940712E-15
   88.9461823         1.03388302E-15
   89.0729752         7.10358834E-16
   89.1997681         2.30780426E-16
   89.3265610        -3.93327743E-16
   89.4533539        -1.14041880E-15
   89.5801468        -1.97892307E-15
   89.7069397        -2.86775710E-15
   89.8337326        -3.75733482E-15
   89.9605255        -4.59111466E-15
   90.0873184        -5.30765160E-15
   90.2141113        -5.84309797E-15
   90.3409042        -6.13411477E-15
   90.4676971        -6.12105818E-15
   90.5944901        -5.75137108E-15
   90.7212830        -4.98301055E-15
   90.8480759        -3.78777887E-15
   90.9748688        -2.15438510E-15
   91.1016617        -9.11072939E-17
   91.2284546         2.37215664E-15
   91.3552475         5.18255626E-15
   91.4820404         8.26383300E-15
   91.6088333         1.15168469E-14
   91.7356262         1.48211504E-14
   91.8624191         1.80376818E-14
   91.9892120         2.10125445E-14
   92.1159973         2.35818530E-14
   92.2427902         2.55775286E-14
   92.3695831         2.68339225E-14
   92.4963760         2.71950499E-14
   92.6231689         2.65222245E-14
   92.7499619         2.47018016E-14
   92.8767548         2.16527337E-14
   93.0035477         1.73336009E-14
   93.1303406         1.17488035E-14
   93.2571335         4.95353168E-15
   93.3839264        -2.94272205E-15
   93.5107193        -1.17744822E-14
   93.6375122        -2.13206324E-14
   93.7643051        -3.13070018E-14
   93.8910980        -4.14112511E-14
   94.0178909        -5.12701623E-14
   94.1446838        -6.04892316E-14
   94.2714767        -6.86544259E-14
   94.3982697        -7.53458643E-14
   94.5250626        -8.01530202E-14
   94.6518555        -8.26911375E-14
   94.7786484        -8.26181571E-14
   94.9054413        -7.96517190E-14
   95.0322342        -7.35855536E-14
   95.1590271        -6.43045120E-14
   95.2858200        -5.17976402E-14
   95.4126129        -3.61686490E-14
   95.5394058        -1.76430034E-14
   95.6661987         3.42871038E-15
   95.7929916         2.65718098E-14
   95.9197769         5.11930789E-14
   96.0465698         7.65911857E-14
   96.1733627         1.01971938E-13
   96.3001556         1.26468199E-13
   96.4269485         1.49164142E-13
   96.5537415         1.69123382E-13
   96.6805344         1.85420052E-13
   96.8073273         1.97172302E-13
   96.9341202         2.03576779E-13
   97.0609131         2.03943308E-13
   97.1877060         1.97728186E-13
   97.3144989         1.84565091E-13
   97.4412918         1.64292055E-13
   97.5680847         1.36973427E-13
   97.6948776         1.02915547E-13
   97.8216705         6.26751729E-14
   97.9484634         1.70597077E-14
   98.0752563        -3.28812024E-14