  -4.50000000         0.00000000    
  -4.37320757         0.00000000    
  -4.24641466         0.00000000    
  -4.11962223         0.00000000    
  -3.99282932         0.00000000    
  -3.86603665         0.00000000    
  -3.73924398         0.00000000    
  -3.61245155         0.00000000    
  -3.48565888         0.00000000    
  -3.35886621         0.00000000    
  -3.23207355         0.00000000    
  -3.10528088         0.00000000    
  -2.97848821         0.00000000    
  -2.85169554         0.00000000    
  -2.72490287         0.00000000    
  -2.59811020         0.00000000    
  -2.47131753         0.00000000    
  -2.34452486         0.00000000    
  -2.21773219         0.00000000    
  -2.09093952         0.00000000    
  -1.96414697         0.00000000    
  -1.83735430         0.00000000    
  -1.71056163         0.00000000    
  -1.58376896         0.00000000    
  -1.45697629         0.00000000    
  -1.33018374         0.00000000    
  -1.20339108         0.00000000    
  -1.07659841         0.00000000    
 -0.949805737         0.00000000    
 -0.823013067         0.00000000    
 -0.696220458         0.00000000    
 -0.569427788         0.00000000    
 -0.442635119         0.00000000    
 -0.315842479         0.00000000    
 -0.189049825         0.00000000    
  -6.22571707E-02     0.00000000    
   6.45354837E-02     0.00000000    
  0.191328138         0.00000000    
  0.318120778         0.00000000    
  0.444913447         0.00000000    
  0.571706116         0.00000000    
  0.698498726         0.00000000    
  0.825291395         0.00000000    
  0.952084064         0.00000000    
   1.07887673         0.00000000    
   1.20566940         0.00000000    
   1.33246195         0.00000000    
   1.45925462         0.00000000    
   1.58604729         0.00000000    
   1.71283996         0.00000000    
   1.83963263         0.00000000    
   1.96642530         0.00000000    
   2.09321785         0.00000000    
   2.22001052         0.00000000    
   2.34680319         0.00000000    
   2.47359586         0.00000000    
   2.60038853         0.00000000    
   2.72718120         0.00000000    
   2.85397387         0.00000000    
   2.98076653         0.00000000    
   3.10755920         0.00000000    
   3.23435187         0.00000000    
   3.36114454         0.00000000    
   3.48793697         0.00000000    
   3.61472964         0.00000000    
   3.74152231         0.00000000    
   3.86831498         0.00000000    
   3.99510765         0.00000000    
   4.12190056         0.00000000    
   4.24869299         0.00000000    
   4.37548542         0.00000000    
   4.50227833         0.00000000    
   4.62907076         0.00000000    
   4.75586367         0.00000000    
   4.88265610         0.00000000    
   5.00944901         0.00000000    
   5.13624144         0.00000000    
   5.26303434         0.00000000    
   5.38982677         0.00000000    
   5.51661968         0.00000000    
   5.64341211         0.00000000    
   5.77020502         0.00000000    
   5.89699745         0.00000000    
   6.02379036         0.00000000    
   6.15058279         0.00000000    
   6.27737522         0.00000000    
   6.40416813         0.00000000    
   6.53096056         0.00000000    
   6.65775347         0.00000000    
   6.78454590         0.00000000    
   6.91133881         0.00000000    
   7.03813124         0.00000000    
   7.16492414         0.00000000    
   7.29171658         0.00000000    
   7.41850948         0.00000000    
   7.54530191         0.00000000    
   7.67209482         0.00000000    
   7.79888725         0.00000000    
   7.92567968         0.00000000    
   8.05247211         0.00000000    
   8.17926502         0.00000000    
   8.30605793         0.00000000    
   8.43285084         0.00000000    
   8.55964279         0.00000000    
   8.68643570         0.00000000    
   8.81322861         0.00000000    
   8.94002151         0.00000000    
   9.06681347         0.00000000    
   9.19360638         0.00000000    
   9.32039928         0.00000000    
   9.44719219         0.00000000    
   9.57398415         0.00000000    
   9.70077705         0.00000000    
   9.82756996         0.00000000    
   9.95436192         0.00000000    
   10.0811548         0.00000000    
   10.2079477         0.00000000    
   10.3347406         0.00000000    
   10.4615326         0.00000000    
   10.5883255         0.00000000    
   10.7151184         0.00000000    
   10.8419113         0.00000000    
   10.9687033         0.00000000    
   11.0954962         0.00000000    
   11.2222891         0.00000000    
   11.3490820         0.00000000    
   11.4758739         0.00000000    
   11.6026669         0.00000000    
   11.7294598         0.00000000    
   11.8562517         0.00000000    
   11.9830446         0.00000000    
   12.1098375         0.00000000    
   12.2366304         0.00000000    
   12.3634224         0.00000000    
   12.4902153         0.00000000    
   12.6170082         0.00000000    
   12.7438011         0.00000000    
   12.8705931         0.00000000    
   12.9973860         0.00000000    
   13.1241789         0.00000000    
   13.2509708         0.00000000    
   13.3777637         0.00000000    
   13.5045567         0.00000000    
   13.6313496         0.00000000    
   13.7581415         0.00000000    
   13.8849344         0.00000000    
   14.0117273         0.00000000    
   14.1385202         0.00000000    
   14.2653122         0.00000000    
   14.3921051         0.00000000    
   14.5188980         0.00000000    
   14.6456909         0.00000000    
   14.7724829         0.00000000    
   14.8992758         0.00000000    
   15.0260687         0.00000000    
   15.1528606         0.00000000    
   15.2796535         0.00000000    
   15.4064465         0.00000000    
   15.5332394         0.00000000    
   15.6600313         0.00000000    
   15.7868242         0.00000000    
   15.9136171         0.00000000    
   16.0404091         0.00000000    
   16.1672020         0.00000000    
   16.2939949         0.00000000    
   16.4207878         0.00000000    
   16.5475807         0.00000000    
   16.6743736         0.00000000    
   16.8011646         0.00000000    
   16.9279575         0.00000000    
   17.0547504         0.00000000    
   17.1815434         0.00000000    
   17.3083363         0.00000000    
   17.4351292         0.00000000    
   17.5619221         0.00000000    
   17.6887150         0.00000000    
   17.8155060         0.00000000    
   17.9422989         0.00000000    
   18.0690918         0.00000000    
   18.1958847         0.00000000    
   18.3226776         0.00000000    
   18.4494705         0.00000000    
   18.5762634         0.00000000    
   18.7030544         0.00000000    
   18.8298473         0.00000000    
   18.9566402         0.00000000    
   19.0834332         0.00000000    
   19.2102261         0.00000000    
   19.3370190         0.00000000    
   19.4638119         0.00000000    
   19.5906048         0.00000000    
   19.7173958         0.00000000    
   19.8441887         0.00000000    
   19.9709816         0.00000000    
   20.0977745         0.00000000    
   20.2245674         0.00000000    
   20.3513603         0.00000000    
   20.4781532         0.00000000    
   20.6049442         0.00000000    
   20.7317371         0.00000000    
   20.8585300         0.00000000    
   20.9853230         0.00000000    
   21.1121159         0.00000000    
   21.2389088         0.00000000    
   21.3657017         0.00000000    
   21.4924946         0.00000000    
   21.6192856         0.00000000    
   21.7460785         0.00000000    
   21.8728714         0.00000000    
   21.9996643         0.00000000    
   22.1264572         0.00000000    
   22.2532501         0.00000000    
   22.3800430         0.00000000    
   22.5068340         0.00000000    
   22.6336269         0.00000000    
   22.7604198         0.00000000    
   22.8872128         0.00000000    
   23.0140057         0.00000000    
   23.1407986         0.00000000    
   23.2675915         0.00000000    
   23.3943844         0.00000000    
   23.5211754         0.00000000    
   23.6479683         0.00000000    
   23.7747612         0.00000000    
   23.9015541         0.00000000    
   24.0283470         0.00000000    
   24.1551399         0.00000000    
   24.2819328         0.00000000    
   24.4087238         0.00000000    
   24.5355167         0.00000000    
   24.6623096         0.00000000    
   24.7891026         0.00000000    
   24.9158955         0.00000000    
   25.0426884         0.00000000    
   25.1694813         0.00000000    
   25.2962742         0.00000000    
   25.4230652         0.00000000    
   25.5498581         0.00000000    
   25.6766510         0.00000000    
   25.8034439         0.00000000    
   25.9302368         0.00000000    
   26.0570297         0.00000000    
   26.1838226         0.00000000    
   26.3106136         0.00000000    
   26.4374065         0.00000000    
   26.5641994         0.00000000    
   26.6909924         0.00000000    
   26.8177853         0.00000000    
   26.9445782         0.00000000    
   27.0713711         0.00000000    
   27.1981640         0.00000000    
   27.3249550         0.00000000    
   27.4517479         0.00000000    
   27.5785408         0.00000000    
   27.7053337         0.00000000    
   27.8321266         0.00000000    
   27.9589195         0.00000000    
   28.0857124         0.00000000    
   28.2125034         0.00000000    
   28.3392963         0.00000000    
   28.4660892         0.00000000    
   28.5928822         0.00000000    
   28.7196751         0.00000000    
   28.8464680         0.00000000    
   28.9732609         1.72625221E-33
   29.1000538         2.44485560E-33
   29.2268448         1.97968438E-33
   29.3536377         2.23576858E-33
   29.4804306         2.71260033E-33
   29.6072235         3.70567321E-33
   29.7340164         3.18526974E-33
   29.8608093        -3.07246893E-33
   29.9876022        -1.81668582E-32
   30.1143932        -4.27479629E-32
   30.2411861        -6.23154182E-32
   30.3679790        -5.58760014E-32
   30.4947720        -3.56268269E-32
   30.6215649         6.69047230E-33
   30.7483578         5.15141180E-32
   30.8751507         8.30502746E-32
   31.0019417         7.11375503E-32
   31.1287346         1.26870800E-31
   31.2555275         2.36850145E-31
   31.3823204         4.52995227E-31
   31.5091133         6.16181067E-31
   31.6359062         8.07465595E-31
   31.7626991         1.18508911E-30
   31.8894920         1.87728235E-30
   32.0162849         3.01153678E-30
   32.1430779         4.55734082E-30
   32.2698708         6.49738497E-30
   32.3966637         8.48221828E-30
   32.5234528         1.12438077E-29
   32.6502457         1.35760953E-29
   32.7770386         1.95987100E-29
   32.9038315         2.62436844E-29
   33.0306244         3.17504056E-29
   33.1574173         3.26143387E-29
   33.2842102         3.10826977E-29
   33.4110031         2.86159335E-29
   33.5377960         2.84544383E-29
   33.6645889         2.98972909E-29
   33.7913818         2.30185868E-29
   33.9181747         1.76537163E-29
   34.0449677         6.66776507E-30
   34.1717606        -9.02446837E-30
   34.2985535        -2.83536129E-29
   34.4253426        -5.97268010E-29
   34.5521355        -9.17978920E-29
   34.6789284        -1.15051889E-28
   34.8057213        -1.30175784E-28
   34.9325142        -1.34388286E-28
   35.0593071        -1.27546528E-28
   35.1861000        -9.60084925E-29
   35.3128929        -4.18255470E-29
   35.4396858         3.74734990E-29
   35.5664787         1.52059837E-28
   35.6932716         2.85838987E-28
   35.8200645         4.37665702E-28
   35.9468575         5.96895234E-28
   36.0736504         7.49109230E-28
   36.2004433         8.75093937E-28
   36.3272324         9.47989808E-28
   36.4540253         9.49668256E-28
   36.5808182         8.74055668E-28
   36.7076111         7.01184582E-28
   36.8344040         4.17995746E-28
   36.9611969         1.89130579E-29
   37.0879898        -4.78061697E-28
   37.2147827        -1.06367820E-27
   37.3415756        -1.72389123E-27
   37.4683685        -2.43496864E-27
   37.5951614        -3.17149894E-27
   37.7219543        -3.90542732E-27
   37.8487473        -4.59042590E-27
   37.9755402        -5.16398749E-27
   38.1023293        -5.55753124E-27
   38.2291222        -5.69002482E-27
   38.3559151        -5.47438730E-27
   38.4827080        -4.82253320E-27
   38.6095009        -3.65569776E-27
   38.7362938        -1.91021185E-27
   38.8630867         4.47675627E-28
   38.9898796         3.41848058E-27
   39.1166725         6.94976443E-27
   39.2434654         1.09294390E-26
   39.3702583         1.51684162E-26
   39.4970512         1.94136604E-26
   39.6238441         2.33438409E-26
   39.7506371         2.65915212E-26
   39.8774300         2.87483902E-26
   40.0042191         2.93933025E-26
   40.1310120         2.81102695E-26
   40.2578049         2.45380870E-26
   40.3845978         1.83857269E-26
   40.5113907         9.47413319E-27
   40.6381836        -2.23420045E-27
   40.7649765        -1.65977829E-26
   40.8917694        -3.32664616E-26
   41.0185623        -5.16518572E-26
   41.1453552        -7.09113107E-26
   41.2721481        -8.99399423E-26
   41.3989410        -1.07383826E-25
   41.5257339        -1.21669678E-25
   41.6525269        -1.31064494E-25
   41.7793198        -1.33762312E-25
   41.9061089        -1.27994543E-25
   42.0329018        -1.12157704E-25
   42.1596947        -8.49785989E-26
   42.2864876        -4.56724949E-26
   42.4132805         5.88382075E-27
   42.5400734         6.89985264E-26
   42.6668663         1.42027195E-25
   42.7936592         2.22275242E-25
   42.9204521         3.05950408E-25
   43.0472450         3.88180530E-25
   43.1740379         4.63107303E-25
   43.3008308         5.24066381E-25
   43.4276237         5.63860223E-25
   43.5544167         5.75124466E-25
   43.6812096         5.50781106E-25
   43.8079987         4.84572454E-25
   43.9347916         3.71653302E-25
   44.0615845         2.09212642E-25
   44.1883774        -2.90364484E-27
   44.3151703        -2.61614453E-25
   44.4419632        -5.60115352E-25
   44.5687561        -8.87533895E-25
   44.6955490        -1.22878092E-24
   44.8223419        -1.56464851E-24
   44.9491348        -1.87219944E-24
   45.0759277        -2.12548335E-24
   45.2027206        -2.29659636E-24
   45.3295135        -2.35708779E-24
   45.4563065        -2.27968219E-24
   45.5830994        -2.04028500E-24
   45.7098885        -1.62017051E-24
   45.8366814        -1.00827113E-24
   45.9634743        -2.03430205E-25
   46.0902672         7.83535749E-25
   46.2170601         1.92812317E-24
   46.3438530         3.19096090E-24
   46.4706459         4.51733506E-24
   46.5974388         5.83758529E-24
   46.7242317         7.06851399E-24
   46.8510246         8.11590670E-24
   46.9778175         8.87822480E-24
   47.1046104         9.25144910E-24
   47.2314034         9.13499824E-24
   47.3581963         8.43854450E-24
   47.4849892         7.08948822E-24
   47.6117783         5.04074624E-24
   47.7385712         2.27841706E-24
   47.8653641        -1.17112052E-24
   47.9921570        -5.23524858E-24
   48.1189499        -9.79082801E-24
   48.2457428        -1.46621963E-23
   48.3725357        -1.96218674E-23
   48.4993286        -2.43945169E-23
   48.6261215        -2.86644317E-23
   48.7529144        -3.20867311E-23
   48.8797073        -3.43022312E-23
   49.0065002        -3.49557962E-23
   49.1332932        -3.37176411E-23
   49.2600861        -3.03068716E-23
   49.3868790        -2.45162981E-23
   49.5136681        -1.62372786E-23
   49.6404610        -5.48315285E-24
   49.7672539         7.59021689E-24
   49.8940468         2.26685650E-23
   50.0208397         3.92695747E-23
   50.1476326         5.67409600E-23
   50.2744255         7.42678590E-23
   50.4012184         9.08903510E-23
   50.5280113         1.05531950E-22
   50.6548042         1.17039001E-22
   50.7815971         1.24230888E-22
   50.9083900         1.25959731E-22
   51.0351830         1.21177807E-22
   51.1619759         1.09010555E-22
   51.2887688         8.88317838E-23
   51.4155579         6.03375977E-23
   51.5423508         2.36149425E-23
   51.6691437        -2.07998150E-23
   51.7959366        -7.18765818E-23
   51.9227295        -1.28066191E-22
   52.0495224        -1.87297957E-22
   52.1763153        -2.47003734E-22
   52.3031082        -3.04171159E-22
   52.4299011        -3.55427680E-22
   52.5566940        -3.97155393E-22
   52.6834869        -4.25635872E-22
   52.8102798        -4.37221499E-22
   52.9370728        -4.28529540E-22
   53.0638657        -3.96651860E-22
   53.1906586        -3.39372758E-22
   53.3174477        -2.55385855E-22
   53.4442406        -1.44499022E-22
   53.5710335        -7.81634782E-24
   53.6978264         1.52115165E-22
   53.8246193         3.31204980E-22
   53.9514122         5.23777994E-22
   54.0782051         7.22600527E-22
   54.2049980         9.18984534E-22
   54.3317909         1.10297527E-21
   54.4585838         1.26362552E-21
   54.5853767         1.38935808E-21
   54.7121696         1.46841250E-21
   54.8389626         1.48936798E-21
   54.9657555         1.44173209E-21
   55.0925484         1.31657730E-21
   55.2193375         1.10720528E-21
   55.3461304         8.09814465E-22
   55.4729233         4.24139787E-22
   55.5997162        -4.59639651E-23
   55.7265091        -5.92035742E-22
   55.8533020        -1.20064902E-21
   55.9800949        -1.85322405E-21
   56.1068878        -2.52604076E-21
   56.2336807        -3.19048914E-21
   56.3604736        -3.81358656E-21
   56.4872665        -4.35878179E-21
   56.6140594        -4.78706344E-21
   56.7408524        -5.05836373E-21
   56.8676453        -5.13326801E-21
   56.9944382        -4.97497642E-21
   57.1212273        -4.55149993E-21
   57.2480202        -3.83800697E-21
   57.3748131        -2.81925832E-21
   57.5016060        -1.49201350E-21
   57.6283989         1.32702585E-22
   57.7551918         2.02760971E-21
   57.8819847         4.14760476E-21
   58.0087776         6.42877825E-21
   58.1355705         8.78817282E-21
   58.2623634         1.11244257E-20
   58.3891563         1.33194464E-20
   58.5159492         1.52412325E-20
   58.6427422         1.67478984E-20
   58.7695351         1.76929506E-20
   58.8963280         1.79317764E-20
   59.0231171         1.73292351E-20
   59.1499100         1.57681934E-20
   59.2767029         1.31587036E-20
   59.4034958         9.44751331E-21
   59.5302887         4.62744626E-21
   59.6570816        -1.25388928E-21
   59.7838745        -8.08656452E-21
   59.9106674        -1.56927197E-20
   60.0374603        -2.38234026E-20
   60.1642532        -3.21586173E-20
   60.2910461        -4.03110736E-20
   60.4178391        -4.78341682E-20
   60.5446320        -5.42346074E-20
   60.6714249        -5.89897650E-20
   60.7982178        -6.15697672E-20
   60.9250069        -6.14639915E-20
   61.0517998        -5.82113363E-20
   61.1785927        -5.14332730E-20
   61.3053856        -4.08684834E-20
   61.4321785        -2.64074292E-20
   61.5589714        -8.12492502E-21
   61.6857643         1.36913029E-20
   61.8125572         3.85184536E-20
   61.9393501         6.55852056E-20
   62.0661430         9.38692249E-20
   62.1929359         1.22107756E-19
   62.3197289         1.48823040E-19
   62.4465218         1.72363644E-19
   62.5733147         1.90962554E-19
   62.7001076         2.02811245E-19
   62.8268967         2.06148996E-19
   62.9536896         1.99364848E-19
   63.0804825         1.81108895E-19
   63.2072754         1.50408603E-19
   63.3340683         1.06784312E-19
   63.4608612         5.03577120E-20
   63.5876541        -1.80536595E-20
   63.7144470        -9.68637415E-20
   63.8412399        -1.83674602E-19
   63.9680328        -2.75269268E-19
   64.0948257        -3.67647816E-19
   64.2216187        -4.56111112E-19
   64.3484116        -5.35395857E-19
   64.4752045        -5.99862540E-19
   64.6019974        -6.43733253E-19
   64.7287903        -6.61376084E-19
   64.8555832        -6.47627102E-19
   64.9823761        -5.98139367E-19
   65.1091690        -5.09743694E-19
   65.2359619        -3.80804253E-19
   65.3627548        -2.11548366E-19
   65.4895477        -4.34903616E-21
   65.6163330         2.36062096E-19
   65.7431259         5.02474430E-19
   65.8699188         7.85190960E-19
   65.9967117         1.07215118E-18
   66.1235046         1.34919879E-18
   66.2502975         1.60050153E-18
   66.3770905         1.80912300E-18
   66.5038834         1.95774067E-18
   66.6306763         2.02949136E-18
   66.7574692         2.00892268E-18
   66.8842621         1.88300842E-18
   67.0110550         1.64219257E-18
   67.1378479         1.28140255E-18
   67.2646408         8.00978736E-19
   67.3914337         2.07457324E-19
   67.5182266        -4.85856734E-19
   67.6450195        -1.25858642E-18
   67.7718124        -2.08330442E-18
   67.8986053        -2.92592601E-18
   68.0253983        -3.74649952E-18
   68.1521912        -4.50042460E-18
   68.2789841        -5.14007096E-18
   68.4057770        -5.61679417E-18
   68.5325699        -5.88328116E-18
   68.6593628        -5.89615499E-18
   68.7861557        -5.61874136E-18
   68.9129486        -5.02386904E-18
   69.0397415        -4.09657062E-18
   69.1665344        -2.83652226E-18
   69.2933273        -1.26006584E-18
   69.4201126         5.98348075E-19
   69.5469055         2.68545137E-18
   69.6736984         4.92931568E-18
   69.8004913         7.24048396E-18
   69.9272842         9.51414455E-18
   70.0540771         1.16333763E-17
   70.1808701         1.34734330E-17
   70.3076630         1.49069825E-17
   70.4344559         1.58101644E-17
   70.5612488         1.60692440E-17
   70.6880417         1.55876082E-17
   70.8148346         1.42928009E-17
   70.9416275         1.21432050E-17
   71.0684204         9.13403686E-18
   71.1952133         5.30221987E-18
   71.3220062         7.29765827E-19
   71.4487991        -4.45468854E-18
   71.5755920        -1.00765049E-17
   71.7023849        -1.59180602E-17
   71.8291779        -2.17242759E-17
   71.9559708        -2.72107167E-17
   72.0827637        -3.20741268E-17
   72.2095566        -3.60051901E-17
   72.3363495        -3.87030926E-17
   72.4631424        -3.98914269E-17
   72.5899353        -3.93347410E-17
   72.7167282        -3.68549627E-17
   72.8435211        -3.23469342E-17
   72.9703140        -2.57920523E-17
   73.0971069        -1.72692267E-17
   73.2238922        -6.96217573E-18
   73.3506851         4.83761651E-18
   73.4774780         1.77330169E-17
   73.6042709         3.12288706E-17
   73.7310638         4.47453459E-17
   73.8578568         5.76370385E-17
   73.9846497         6.92174678E-17
   74.1114426         7.87883578E-17
   74.2382355         8.56727372E-17
   74.3650284         8.92506970E-17
   74.4918213         8.89961901E-17
   74.6186142         8.45132152E-17
   74.7454071         7.55694804E-17
   74.8722000         6.21255918E-17
   74.9989929         4.43577390E-17
   75.1257858         2.26721785E-17
   75.2525787        -2.29025735E-18
   75.3793716        -2.96608406E-17
   75.5061646        -5.83616950E-17
   75.6329575        -8.71370123E-17
   75.7597504        -1.14596411E-16
   75.8865433        -1.39269700E-16
   76.0133362        -1.59671375E-16
   76.1401291        -1.74372677E-16
   76.2669220        -1.82078613E-16
   76.3937149        -1.81706130E-16
   76.5205078        -1.72460262E-16
   76.6473007        -1.53903676E-16
   76.7740936        -1.26015739E-16
   76.9008865        -8.92370121E-17
   77.0276718        -4.44953653E-17
   77.1544647         6.78948854E-18
   77.2812576         6.27255227E-17
   77.4080505         1.20993548E-16
   77.5348434         1.78918333E-16
   77.6616364         2.33564968E-16
   77.7884293         2.81858101E-16
   77.9152222         3.20720820E-16
   78.0420151         3.47227948E-16
   78.1688080         3.58767713E-16
   78.2956009         3.53204983E-16
   78.4223938         3.29037598E-16
   78.5491867         2.85537771E-16
   78.6759796         2.22869853E-16
   78.8027725         1.42176267E-16
   78.9295654         4.56237588E-17
   79.0563583        -6.35955182E-17
   79.1831512        -1.81313755E-16
   79.3099442        -3.02490315E-16
   79.4367371        -4.21368186E-16
   79.5635300        -5.31681840E-16
   79.6903229        -6.26911584E-16
   79.8171158        -7.00576980E-16
   79.9439087        -7.46558905E-16
   80.0707016        -7.59437353E-16
   80.1974945        -7.34830675E-16
   80.3242874        -6.69720099E-16
   80.4510803        -5.62741585E-16
   80.5778732        -4.14428922E-16
   80.7046585        -2.27390521E-16
   80.8314514        -6.40582108E-18
   80.9582443         2.41572579E-16
   81.0850372         5.07519325E-16
   81.2118301         7.80545520E-16
   81.3386230         1.04821714E-15
   81.4654160         1.29697907E-15
   81.5922089         1.51267485E-15
   81.7190018         1.68114780E-15
   81.8457947         1.78890161E-15
   81.9725876         1.82379979E-15
   82.0993805         1.77576953E-15
   82.2261734         1.63748431E-15
   82.3529663         1.40498636E-15
   82.4797592         1.07821863E-15
   82.6065521         6.61431194E-16
   82.7333450         1.63433154E-16
   82.8601379        -4.02337368E-16
   82.9869308        -1.01794366E-15
   83.1137238        -1.66129514E-15
   83.2405167        -2.30671170E-15
   83.3673096        -2.92570029E-15
   83.4941025        -3.48793175E-15
   83.6208954        -3.96238921E-15
   83.7476883        -4.31865804E-15
   83.8744812        -4.52830886E-15
   84.0012741        -4.56632328E-15
   84.1280670        -4.41250548E-15
   84.2548599        -4.05281464E-15
   84.3816528        -3.48055558E-15
   84.5084381        -2.69736414E-15
   84.6352310        -1.71392564E-15
   84.7620239        -5.50374904E-16
   84.8888168         7.63666429E-16
   85.0156097         2.18944888E-15
   85.1424026         3.67986603E-15
   85.2691956         5.18064155E-15
   85.3959885         6.63191434E-15
   85.5227814         7.97019125E-15
   85.6495743         9.13061114E-15
   85.7763672         1.00494598E-14
   85.9031601         1.06668367E-14
   86.0299530         1.09294016E-14
   86.1567459         1.07930666E-14
   86.2835388         1.02255359E-14
   86.4103317         9.20858137E-15
   86.5371246         7.73993550E-15
   86.6639175         5.83468820E-15
   86.7907104         3.52612129E-15
   86.9175034         8.65874242E-16
   87.0442963        -2.07658576E-15
   87.1710892        -5.21523903E-15
   87.2978821        -8.44952380E-15
   87.4246750        -1.16670615E-14
   87.5514679        -1.47470350E-14
   87.6782608        -1.75641345E-14
   87.8050537        -1.99929591E-14
   87.9318466        -2.19127271E-14
   88.0586395        -2.32121451E-14
   88.1854324        -2.37942448E-14
   88.3122177        -2.35810093E-14
   88.4390106        -2.25176018E-14
   88.5658035        -2.05759990E-14
   88.6925964        -1.77578628E-14
   88.8193893        -1.40965002E-14
   88.9461823        -9.65776209E-15
   89.0729752        -4.53980310E-15
   89.1997681         1.12835631E-15
   89.3265610         7.18950724E-15
   89.4533539         1.34621013E-14
   89.5801468         1.97452342E-14
   89.7069397         2.58246082E-14
   89.8337326         3.14793357E-14
   89.9605255         3.64893798E-14
   90.0873184         4.06433310E-14
   90.2141113         4.37463854E-14
   90.3409042         4.56280724E-14
   90.4676971         4.61495839E-14
   90.5944901         4.52103429E-14
   90.7212830         4.27535374E-14
   90.8480759         3.87703954E-14
   90.9748688         3.33029740E-14
   91.1016617         2.64452563E-14
   91.2284546         1.83425154E-14
   91.3552475         9.18879806E-15
   91.4820404        -7.77400751E-16
   91.6088333        -1.12792254E-14
   91.7356262        -2.20091703E-14
   91.8624191        -3.26381751E-14
   91.9892120        -4.28258909E-14
   92.1159973        -5.22317073E-14
   92.2427902        -6.05262910E-14
   92.3695831        -6.74031279E-14
   92.4963760        -7.25897004E-14
   92.6231689        -7.58579058E-14
   92.7499619        -7.70332488E-14
   92.8767548        -7.60024910E-14
   93.0035477        -7.27193642E-14
   93.1303406        -6.72081138E-14
   93.2571335        -5.95646782E-14
   93.3839264        -4.99552656E-14
   93.5107193        -3.86125322E-14
   93.6375122        -2.58291415E-14
   93.7643051        -1.19491056E-14
   93.8910980         2.64296874E-15
   94.0178909         1.75343545E-14
   94.1446838         3.22979287E-14
   94.2714767         4.65067031E-14
   94.3982697         5.97486199E-14
   94.5250626         7.16409760E-14
   94.6518555         8.18439622E-14
   94.7786484         9.00727586E-14
   94.9054413         9.61075430E-14
   95.0322342         9.98011759E-14
   95.1590271         1.01083909E-13
   95.2858200         9.99650734E-14
   95.4126129         9.65315203E-14
   95.5394058         9.09426885E-14
   95.6661987         8.34226893E-14
   95.7929916         7.42493903E-14
   95.9197769         6.37411402E-14
   96.0465698         5.22415329E-14
   96.1733627         4.01029511E-14
   96.3001556         2.76696475E-14
   96.4269485         1.52610434E-14
   96.5537415         3.15627452E-15
   96.6805344        -8.41933809E-15
   96.8073273        -1.93050362E-14
   96.9341202        -2.94119045E-14
   97.0609131        -3.87261702E-14
   97.1877060        -4.73079895E-14
   97.3144989        -5.52856406E-14
   97.4412918        -6.28450742E-14
   97.5680847        -7.02149656E-14
   97.6948776        -7.76479643E-14
   97.8216705        -8.53985529E-14
   97.9484634        -9.36987711E-14
   98.0752563        -1.02732655E-13