  -4.50000000         0.00000000    
  -4.37320757         0.00000000    
  -4.24641466         0.00000000    
  -4.11962223         0.00000000    
  -3.99282932         0.00000000    
  -3.86603665         0.00000000    
  -3.73924398         0.00000000    
  -3.61245155         0.00000000    
  -3.48565888         0.00000000    
  -3.35886621         0.00000000    
  -3.23207355         0.00000000    
  -3.10528088         0.00000000    
  -2.97848821         0.00000000    
  -2.85169554         0.00000000    
  -2.72490287         0.00000000    
  -2.59811020         0.00000000    
  -2.47131753         0.00000000    
  -2.34452486         0.00000000    
  -2.21773219         0.00000000    
  -2.09093952         0.00000000    
  -1.96414697         0.00000000    
  -1.83735430         0.00000000    
  -1.71056163         0.00000000    
  -1.58376896         0.00000000    
  -1.45697629         0.00000000    
  -1.33018374         0.00000000    
  -1.20339108         0.00000000    
  -1.07659841         0.00000000    
 -0.949805737         0.00000000    
 -0.823013067         0.00000000    
 -0.696220458         0.00000000    
 -0.569427788         0.00000000    
 -0.442635119         0.00000000    
 -0.315842479         0.00000000    
 -0.189049825         0.00000000    
  -6.22571707E-02     0.00000000    
   6.45354837E-02     0.00000000    
  0.191328138         0.00000000    
  0.318120778         0.00000000    
  0.444913447         0.00000000    
  0.571706116         0.00000000    
  0.698498726         0.00000000    
  0.825291395         0.00000000    
  0.952084064         0.00000000    
   1.07887673         0.00000000    
   1.20566940         0.00000000    
   1.33246195         0.00000000    
   1.45925462         0.00000000    
   1.58604729         0.00000000    
   1.71283996         0.00000000    
   1.83963263         0.00000000    
   1.96642530         0.00000000    
   2.09321785         0.00000000    
   2.22001052         0.00000000    
   2.34680319         0.00000000    
   2.47359586         0.00000000    
   2.60038853         0.00000000    
   2.72718120         0.00000000    
   2.85397387         0.00000000    
   2.98076653         0.00000000    
   3.10755920         0.00000000    
   3.23435187         0.00000000    
   3.36114454         0.00000000    
   3.48793697         0.00000000    
   3.61472964         0.00000000    
   3.74152231         0.00000000    
   3.86831498         0.00000000    
   3.99510765         0.00000000    
   4.12190056         0.00000000    
   4.24869299         0.00000000    
   4.37548542         0.00000000    
   4.50227833         0.00000000    
   4.62907076         0.00000000    
   4.75586367         0.00000000    
   4.88265610         0.00000000    
   5.00944901         0.00000000    
   5.13624144         0.00000000    
   5.26303434         0.00000000    
   5.38982677         0.00000000    
   5.51661968         0.00000000    
   5.64341211         0.00000000    
   5.77020502         0.00000000    
   5.89699745         0.00000000    
   6.02379036         0.00000000    
   6.15058279         0.00000000    
   6.27737522         0.00000000    
   6.40416813         0.00000000    
   6.53096056         0.00000000    
   6.65775347         0.00000000    
   6.78454590         0.00000000    
   6.91133881         0.00000000    
   7.03813124         0.00000000    
   7.16492414         0.00000000    
   7.29171658         0.00000000    
   7.41850948         0.00000000    
   7.54530191         0.00000000    
   7.67209482         0.00000000    
   7.79888725         0.00000000    
   7.92567968         0.00000000    
   8.05247211         0.00000000    
   8.17926502         0.00000000    
   8.30605793         0.00000000    
   8.43285084         0.00000000    
   8.55964279         0.00000000    
   8.68643570         0.00000000    
   8.81322861         0.00000000    
   8.94002151         0.00000000    
   9.06681347         0.00000000    
   9.19360638         0.00000000    
   9.32039928         0.00000000    
   9.44719219         0.00000000    
   9.57398415         0.00000000    
   9.70077705         0.00000000    
   9.82756996         0.00000000    
   9.95436192         0.00000000    
   10.0811548         0.00000000    
   10.2079477         0.00000000    
   10.3347406         0.00000000    
   10.4615326         0.00000000    
   10.5883255         0.00000000    
   10.7151184         0.00000000    
   10.8419113         0.00000000    
   10.9687033         0.00000000    
   11.0954962         0.00000000    
   11.2222891         0.00000000    
   11.3490820         0.00000000    
   11.4758739         0.00000000    
   11.6026669         0.00000000    
   11.7294598         0.00000000    
   11.8562517         0.00000000    
   11.9830446         0.00000000    
   12.1098375         0.00000000    
   12.2366304         0.00000000    
   12.3634224         0.00000000    
   12.4902153         0.00000000    
   12.6170082         0.00000000    
   12.7438011         0.00000000    
   12.8705931         0.00000000    
   12.9973860         0.00000000    
   13.1241789         0.00000000    
   13.2509708         0.00000000    
   13.3777637         0.00000000    
   13.5045567         0.00000000    
   13.6313496         0.00000000    
   13.7581415         0.00000000    
   13.8849344         0.00000000    
   14.0117273         0.00000000    
   14.1385202         0.00000000    
   14.2653122         0.00000000    
   14.3921051         0.00000000    
   14.5188980         0.00000000    
   14.6456909         0.00000000    
   14.7724829         0.00000000    
   14.8992758         0.00000000    
   15.0260687         0.00000000    
   15.1528606         0.00000000    
   15.2796535         0.00000000    
   15.4064465         0.00000000    
   15.5332394         0.00000000    
   15.6600313         0.00000000    
   15.7868242         0.00000000    
   15.9136171         0.00000000    
   16.0404091         0.00000000    
   16.1672020         0.00000000    
   16.2939949         0.00000000    
   16.4207878         0.00000000    
   16.5475807         0.00000000    
   16.6743736         0.00000000    
   16.8011646         0.00000000    
   16.9279575         0.00000000    
   17.0547504         0.00000000    
   17.1815434         0.00000000    
   17.3083363         0.00000000    
   17.4351292         0.00000000    
   17.5619221         0.00000000    
   17.6887150         0.00000000    
   17.8155060         0.00000000    
   17.9422989         0.00000000    
   18.0690918         0.00000000    
   18.1958847         0.00000000    
   18.3226776         0.00000000    
   18.4494705         0.00000000    
   18.5762634         0.00000000    
   18.7030544         0.00000000    
   18.8298473         0.00000000    
   18.9566402         0.00000000    
   19.0834332         0.00000000    
   19.2102261         0.00000000    
   19.3370190         0.00000000    
   19.4638119         0.00000000    
   19.5906048         0.00000000    
   19.7173958         0.00000000    
   19.8441887         0.00000000    
   19.9709816         0.00000000    
   20.0977745         0.00000000    
   20.2245674         0.00000000    
   20.3513603         0.00000000    
   20.4781532         0.00000000    
   20.6049442         0.00000000    
   20.7317371         0.00000000    
   20.8585300         0.00000000    
   20.9853230         0.00000000    
   21.1121159         0.00000000    
   21.2389088         0.00000000    
   21.3657017         0.00000000    
   21.4924946         0.00000000    
   21.6192856         0.00000000    
   21.7460785         0.00000000    
   21.8728714         0.00000000    
   21.9996643         0.00000000    
   22.1264572         0.00000000    
   22.2532501         0.00000000    
   22.3800430         0.00000000    
   22.5068340         0.00000000    
   22.6336269         0.00000000    
   22.7604198         0.00000000    
   22.8872128         0.00000000    
   23.0140057         0.00000000    
   23.1407986         0.00000000    
   23.2675915         0.00000000    
   23.3943844         0.00000000    
   23.5211754         0.00000000    
   23.6479683         0.00000000    
   23.7747612         0.00000000    
   23.9015541         0.00000000    
   24.0283470         0.00000000    
   24.1551399         0.00000000    
   24.2819328         0.00000000    
   24.4087238         0.00000000    
   24.5355167         0.00000000    
   24.6623096         0.00000000    
   24.7891026         0.00000000    
   24.9158955         0.00000000    
   25.0426884         0.00000000    
   25.1694813         0.00000000    
   25.2962742         0.00000000    
   25.4230652         0.00000000    
   25.5498581         0.00000000    
   25.6766510         0.00000000    
   25.8034439         0.00000000    
   25.9302368         0.00000000    
   26.0570297         0.00000000    
   26.1838226         0.00000000    
   26.3106136         0.00000000    
   26.4374065         0.00000000    
   26.5641994         0.00000000    
   26.6909924         0.00000000    
   26.8177853         0.00000000    
   26.9445782         0.00000000    
   27.0713711         0.00000000    
   27.1981640         0.00000000    
   27.3249550         0.00000000    
   27.4517479         0.00000000    
   27.5785408         0.00000000    
   27.7053337         0.00000000    
   27.8321266         0.00000000    
   27.9589195         0.00000000    
   28.0857124         0.00000000    
   28.2125034         0.00000000    
   28.3392963         0.00000000    
   28.4660892         0.00000000    
   28.5928822         0.00000000    
   28.7196751         0.00000000    
   28.8464680         0.00000000    
   28.9732609        -2.09406604E-33
   29.1000538        -2.96578290E-33
   29.2268448        -2.40149712E-33
   29.3536377        -2.71214557E-33
   29.4804306        -3.09482794E-33
   29.6072235         6.47686551E-34
   29.7340164         7.41308027E-33
   29.8608093         2.01873037E-32
   29.9876022         2.65472998E-32
   30.1143932         2.63242291E-32
   30.2411861         8.55268457E-33
   30.3679790        -8.91475722E-34
   30.4947720         1.33312667E-32
   30.6215649         3.14280493E-32
   30.7483578         3.73866919E-32
   30.8751507         2.31818800E-32
   31.0019417         1.69364109E-32
   31.1287346         5.97462577E-32
   31.2555275         1.94829737E-31
   31.3823204         4.19218431E-31
   31.5091133         7.80119647E-31
   31.6359062         8.62931531E-31
   31.7626991         3.77235933E-31
   31.8894920        -7.02088075E-31
   32.0162849        -2.55110035E-30
   32.1430779        -4.74570203E-30
   32.2698708        -6.60033194E-30
   32.3966637        -7.93715302E-30
   32.5234528        -8.64667614E-30
   32.6502457        -7.68274971E-30
   32.7770386        -7.78927545E-30
   32.9038315        -9.22671433E-30
   33.0306244        -9.13137478E-30
   33.1574173        -6.46459451E-30
   33.2842102         3.75142866E-30
   33.4110031         2.03018144E-29
   33.5377960         3.75667291E-29
   33.6645889         4.98704663E-29
   33.7913818         6.20091544E-29
   33.9181747         6.68569307E-29
   34.0449677         7.65670662E-29
   34.1717606         1.02256336E-28
   34.2985535         1.53572787E-28
   34.4253426         2.22632302E-28
   34.5521355         3.03654610E-28
   34.6789284         4.05379027E-28
   34.8057213         5.15214571E-28
   34.9325142         6.11971607E-28
   35.0593071         6.70194298E-28
   35.1861000         6.81136325E-28
   35.3128929         6.32952158E-28
   35.4396858         5.11367960E-28
   35.5664787         3.19842388E-28
   35.6932716         8.44820064E-29
   35.8200645        -1.77370950E-28
   35.9468575        -4.79148933E-28
   36.0736504        -8.38322734E-28
   36.2004433        -1.26052510E-27
   36.3272324        -1.74914267E-27
   36.4540253        -2.28014043E-27
   36.5808182        -2.80353096E-27
   36.7076111        -3.25872855E-27
   36.8344040        -3.58012581E-27
   36.9611969        -3.70727031E-27
   37.0879898        -3.56900202E-27
   37.2147827        -3.12321935E-27
   37.3415756        -2.31925453E-27
   37.4683685        -1.13016333E-27
   37.5951614         4.70234381E-28
   37.7219543         2.49526892E-27
   37.8487473         4.92193237E-27
   37.9755402         7.70492464E-27
   38.1023293         1.07372027E-26
   38.2291222         1.38577993E-26
   38.3559151         1.68522891E-26
   38.4827080         1.94504025E-26
   38.6095009         2.13569484E-26
   38.7362938         2.22663910E-26
   38.8630867         2.18718034E-26
   38.9898796         1.98791731E-26
   39.1166725         1.60357765E-26
   39.2434654         1.01369867E-26
   39.3702583         2.04749715E-27
   39.4970512        -8.26609903E-27
   39.6238441        -2.07055480E-26
   39.7506371        -3.49982609E-26
   39.8774300        -5.06738885E-26
   40.0042191        -6.70371779E-26
   40.1310120        -8.31571807E-26
   40.2578049        -9.79000912E-26
   40.3845978        -1.09938774E-25
   40.5113907        -1.17811162E-25
   40.6381836        -1.19991931E-25
   40.7649765        -1.14953045E-25
   40.8917694        -1.01270271E-25
   41.0185623        -7.77295650E-26
   41.1453552        -4.34530779E-26
   41.2721481         1.96421281E-27
   41.3989410         5.83123454E-26
   41.5257339         1.24626575E-25
   41.6525269         1.99069136E-25
   41.7793198         2.78846553E-25
   41.9061089         3.60166205E-25
   42.0329018         4.38255867E-25
   42.1596947         5.07453168E-25
   42.2864876         5.61365598E-25
   42.4132805         5.93105072E-25
   42.5400734         5.95603936E-25
   42.6668663         5.62010393E-25
   42.7936592         4.86149683E-25
   42.9204521         3.63061128E-25
   43.0472450         1.89571534E-25
   43.1740379        -3.51078663E-26
   43.3008308        -3.08806874E-25
   43.4276237        -6.25879333E-25
   43.5544167        -9.76791830E-25
   43.6812096        -1.34786914E-24
   43.8079987        -1.72123671E-24
   43.9347916        -2.07500454E-24
   44.0615845        -2.38373235E-24
   44.1883774        -2.61920240E-24
   44.3151703        -2.75151469E-24
   44.4419632        -2.75051008E-24
   44.5687561        -2.58750400E-24
   44.6955490        -2.23728940E-24
   44.8223419        -1.68034828E-24
   44.9491348        -9.05182390E-25
   45.0759277         8.93563886E-26
   45.2027206         1.29186564E-24
   45.3295135         2.67648396E-24
   45.4563065         4.20143768E-24
   45.5830994         5.80822428E-24
   45.7098885         7.42159945E-24
   45.8366814         8.95052943E-24
   45.9634743         1.02902322E-23
   46.0902672         1.13254125E-23
   46.2170601         1.19347279E-23
   46.3438530         1.19964728E-23
   46.4706459         1.13954011E-23
   46.5974388         1.00304871E-23
   46.7242317         7.82342626E-24
   46.8510246         4.72748169E-24
   46.9778175         7.36277311E-25
   47.1046104        -4.10795530E-24
   47.2314034        -9.70726792E-24
   47.3581963        -1.59025997E-23
   47.4849892        -2.24707376E-23
   47.6117783        -2.91242334E-23
   47.7385712        -3.55148146E-23
   47.8653641        -4.12407962E-23
   47.9921570        -4.58587627E-23
   48.1189499        -4.88997426E-23
   48.2457428        -4.98897788E-23
   48.3725357        -4.83746610E-23
   48.4993286        -4.39481636E-23
   48.6261215        -3.62830168E-23
   48.7529144        -2.51634149E-23
   48.8797073        -1.05176261E-23
   49.0065002         7.55106415E-24
   49.1332932         2.87369438E-23
   49.2600861         5.25101696E-23
   49.3868790         7.81028905E-23
   49.5136681         1.04505453E-22
   49.6404610         1.30474539E-22
   49.7672539         1.54555194E-22
   49.8940468         1.75118008E-22
   50.0208397         1.90412178E-22
   50.1476326         1.98634785E-22
   50.2744255         1.98015396E-22
   50.4012184         1.86914571E-22
   50.5280113         1.63933614E-22
   50.6548042         1.28032037E-22
   50.7815971         7.86479555E-23
   50.9083900         1.58156325E-23
   51.0351830        -5.97260602E-23
   51.1619759        -1.46441942E-22
   51.2887688        -2.41932886E-22
   51.4155579        -3.42900746E-22
   51.5423508        -4.45152770E-22
   51.6691437        -5.43653098E-22
   51.7959366        -6.32627167E-22
   51.9227295        -7.05722993E-22
   52.0495224        -7.56232003E-22
   52.1763153        -7.77368325E-22
   52.3031082        -7.62603373E-22
   52.4299011        -7.06048383E-22
   52.5566940        -6.02874464E-22
   52.6834869        -4.49754517E-22
   52.8102798        -2.45309665E-22
   52.9370728         9.46260823E-24
   53.0638657         3.10805012E-22
   53.1906586         6.51887187E-22
   53.3174477         1.02259416E-21
   53.4442406         1.40944427E-21
   53.5710335         1.79566552E-21
   53.6978264         2.16145485E-21
   53.8246193         2.48444222E-21
   53.9514122         2.74036839E-21
   54.0782051         2.90398758E-21
   54.2049980         2.95018348E-21
   54.3317909         2.85528147E-21
   54.4585838         2.59852569E-21
   54.5853767         2.16367648E-21
   54.7121696         1.54066105E-21
   54.8389626         7.27207626E-22
   54.9657555        -2.69628492E-22
   55.0925484        -1.43214539E-21
   55.2193375        -2.73098728E-21
   55.3461304        -4.12455760E-21
   55.4729233        -5.55896391E-21
   55.5997162        -6.96858792E-21
   55.7265091        -8.27736778E-21
   55.8533020        -9.40085435E-21
   55.9800949        -1.02490642E-20
   56.1068878        -1.07301384E-20
   56.2336807        -1.07547471E-20
   56.3604736        -1.02411495E-20
   56.4872665        -9.12074708E-21
   56.6140594        -7.34395101E-21
   56.7408524        -4.88608641E-21
   56.8676453        -1.75303947E-21
   56.9944382         2.01368719E-21
   57.1212273         6.33289881E-21
   57.2480202         1.10809842E-20
   57.3748131         1.60909296E-20
   57.5016060         2.11534252E-20
   57.6283989         2.60203701E-20
   57.7551918         3.04110141E-20
   57.8819847         3.40208497E-20
   58.0087776         3.65333074E-20
   58.1355705         3.76340425E-20
   58.2623634         3.70275834E-20
   58.3891563         3.44558239E-20
   58.5159492         2.97177075E-20
   58.6427422         2.26892556E-20
   58.7695351         1.33429912E-20
   58.8963280         1.76554936E-21
   59.0231171        -1.18276811E-20
   59.1499100        -2.70822115E-20
   59.2767029        -4.34996383E-20
   59.4034958        -6.04395347E-20
   59.5302887        -7.71290991E-20
   59.6570816        -9.26812449E-20
   59.7838745        -1.06121702E-19
   59.9106674        -1.16425051E-19
   60.0374603        -1.22559383E-19
   60.1642532        -1.23538429E-19
   60.2910461        -1.18479948E-19
   60.4178391        -1.06668029E-19
   60.5446320        -8.76167606E-20
   60.6714249        -6.11321886E-20
   60.7982178        -2.73689540E-20
   60.9250069         1.31221832E-20
   61.0517998         5.93598508E-20
   61.1785927         1.09914558E-19
   61.3053856         1.62911632E-19
   61.4321785         2.16057909E-19
   61.5589714         2.66694041E-19
   61.6857643         3.11874310E-19
   61.8125572         3.48473382E-19
   61.9393501         3.73319122E-19
   62.0661430         3.83348144E-19
   62.1929359         3.75779700E-19
   62.3197289         3.48301613E-19
   62.4465218         2.99260116E-19
   62.5733147         2.27844625E-19
   62.7001076         1.34257036E-19
   62.8268967         1.98538711E-20
   62.9536896        -1.12749409E-19
   63.0804825        -2.59623663E-19
   63.2072754        -4.15530691E-19
   63.3340683        -5.73995878E-19
   63.4608612        -7.27455563E-19
   63.5876541        -8.67481472E-19
   63.7144470        -9.85083084E-19
   63.8412399        -1.07108288E-18
   63.9680328        -1.11655517E-18
   64.0948257        -1.11331676E-18
   64.2216187        -1.05444962E-18
   64.3484116        -9.34834240E-19
   64.4752045        -7.51667656E-19
   64.6019974        -5.04936792E-19
   64.7287903        -1.97816909E-19
   64.8555832         1.63036006E-19
   64.9823761         5.67328906E-19
   65.1091690         1.00113887E-18
   65.2359619         1.44710492E-18
   65.3627548         1.88482202E-18
   65.4895477         2.29144415E-18
   65.6163330         2.64249340E-18
   65.7431259         2.91286462E-18
   65.8699188         3.07799758E-18
   65.9967117         3.11518390E-18
   66.1235046         3.00495526E-18
   66.2502975         2.73249851E-18
   66.3770905         2.28902568E-18
   66.5038834         1.67302531E-18
   66.6306763         8.91314821E-19
   66.7574692        -4.01843922E-20
   66.8842621        -1.09602641E-18
   67.0110550        -2.24124153E-18
   67.1378479        -3.43181375E-18
   67.2646408        -4.61567154E-18
   67.3914337        -5.73421081E-18
   67.5182266        -6.72433980E-18
   67.6450195        -7.52100903E-18
   67.7718124        -8.06017114E-18
   67.8986053        -8.28205241E-18
   68.0253983        -8.13464883E-18
   68.1521912        -7.57726558E-18
   68.2789841        -6.58394698E-18
   68.4057770        -5.14660693E-18
   68.5325699        -3.27767443E-18
   68.6593628        -1.01204648E-18
   68.7861557         1.59181324E-18
   68.9129486         4.45180499E-18
   69.0397415         7.46327265E-18
   69.1665344         1.05013201E-17
   69.2933273         1.34243969E-17
   69.4201126         1.60791305E-17
   69.5469055         1.83063110E-17
   69.6736984         1.99478807E-17
   69.8004913         2.08546774E-17
   69.9272842         2.08946865E-17
   70.0540771         1.99613918E-17
   70.1808701         1.79818907E-17
   70.3076630         1.49243119E-17
   70.4344559         1.08041054E-17
   70.5612488         5.68877047E-18
   70.6880417        -2.99391767E-19
   70.8148346        -6.98284366E-18
   70.9416275        -1.41309878E-17
   71.0684204        -2.14651251E-17
   71.1952133        -2.86662816E-17
   71.3220062        -3.53858138E-17
   71.4487991        -4.12585944E-17
   71.5755920        -4.59184204E-17
   71.7023849        -4.90151530E-17
   71.8291779        -5.02329151E-17
   71.9559708        -4.93086135E-17
   72.0827637        -4.60499189E-17
   72.2095566        -4.03517761E-17
   72.3363495        -3.22105289E-17
   72.4631424        -2.17346901E-17
   72.5899353        -9.15154414E-18
   72.7167282         5.19119072E-18
   72.8435211         2.08291920E-17
   72.9703140         3.71912513E-17
   73.0971069         5.36149654E-17
   73.2238922         6.93683125E-17
   73.3506851         8.36765452E-17
   73.4774780         9.57538057E-17
   73.6042709         1.04838221E-16
   73.7310638         1.10229334E-16
   73.8578568         1.11326176E-16
   73.9846497         1.07664353E-16
   74.1114426         9.89501573E-17
   74.2382355         8.50899851E-17
   74.3650284         6.62130883E-17
   74.4918213         4.26860004E-17
   74.6186142         1.51173725E-17
   74.7454071        -1.56481727E-17
   74.8722000        -4.85476206E-17
   74.9989929        -8.23287967E-17
   75.1257858        -1.15591000E-16
   75.2525787        -1.46835967E-16
   75.3793716        -1.74527777E-16
   75.5061646        -1.97159558E-16
   75.6329575        -2.13324387E-16
   75.7597504        -2.21787610E-16
   75.8865433        -2.21556873E-16
   76.0133362        -2.11946847E-16
   76.1401291        -1.92634734E-16
   76.2669220        -1.63703517E-16
   76.3937149        -1.25669739E-16
   76.5205078        -7.94931752E-17
   76.6473007        -2.65668294E-17
   76.7740936         3.13141860E-17
   76.9008865         9.20047320E-17
   77.0276718         1.53082041E-16
   77.1544647         2.11936445E-16
   77.2812576         2.65877475E-16
   77.4080505         3.12251496E-16
   77.5348434         3.48566234E-16
   77.6616364         3.72616199E-16
   77.7884293         3.82604015E-16
   77.9152222         3.77250528E-16
   78.0420151         3.55888146E-16
   78.1688080         3.18531875E-16
   78.2956009         2.65922235E-16
   78.4223938         1.99536888E-16
   78.5491867         1.21567439E-16
   78.6759796         3.48605409E-17
   78.8027725        -5.71765305E-17
   78.9295654        -1.50703678E-16
   79.0563583        -2.41605243E-16
   79.1831512        -3.25670986E-16
   79.3099442        -3.98793567E-16
   79.4367371        -4.57174016E-16
   79.5635300        -4.97525236E-16
   79.6903229        -5.17263486E-16
   79.8171158        -5.14677706E-16
   79.9439087        -4.89066077E-16
   80.0707016        -4.40830939E-16
   80.1974945        -3.71524506E-16
   80.3242874        -2.83838967E-16
   80.4510803        -1.81538166E-16
   80.5778732        -6.93294614E-17
   80.7046585         4.73214808E-17
   80.8314514         1.62428004E-16
   80.9582443         2.69763741E-16
   81.0850372         3.63176441E-16
   81.2118301         4.36920691E-16
   81.3386230         4.85994153E-16
   81.4654160         5.06460269E-16
   81.5922089         4.95738791E-16
   81.7190018         4.52848325E-16
   81.8457947         3.78583573E-16
   81.9725876         2.75612054E-16
   82.0993805         1.48480230E-16
   82.2261734         3.52076648E-18
   82.3529663        -1.51342924E-16
   82.4797592        -3.06893060E-16
   82.6065521        -4.53008255E-16
   82.7333450        -5.79136384E-16
   82.8601379        -6.74832261E-16
   82.9869308        -7.30339547E-16
   83.1137238        -7.37190191E-16
   83.2405167        -6.88791787E-16
   83.3673096        -5.80973440E-16
   83.4941025        -4.12460206E-16
   83.6208954        -1.85241645E-16
   83.7476883         9.51893641E-17
   83.8744812         4.19752842E-16
   84.0012741         7.75870321E-16
   84.1280670         1.14773938E-15
   84.2548599         1.51679386E-15
   84.3816528         1.86234847E-15
   84.5084381         2.16240947E-15
   84.6352310         2.39462969E-15
   84.7620239         2.53737507E-15
   84.8888168         2.57086210E-15
   85.0156097         2.47831570E-15
   85.1424026         2.24710345E-15
   85.2691956         1.86977970E-15
   85.3959885         1.34499070E-15
   85.5227814         6.78186194E-16
   85.6495743        -1.17917627E-16
   85.7763672        -1.02316223E-15
   85.9031601        -2.01009029E-15
   86.0299530        -3.04443589E-15
   86.1567459        -4.08596454E-15
   86.2835388        -5.08965623E-15
   86.4103317        -6.00720975E-15
   86.5371246        -6.78883016E-15
   86.6639175        -7.38524469E-15
   86.7907104        -7.74987120E-15
   86.9175034        -7.84107971E-15
   87.0442963        -7.62442816E-15
   87.1710892        -7.07479695E-15
   87.2978821        -6.17831761E-15
   87.4246750        -4.93398852E-15
   87.5514679        -3.35490269E-15
   87.6782608        -1.46898563E-15
   87.8050537         6.80807655E-16
   87.9318466         3.03690047E-15
   88.0586395         5.52812368E-15
   88.1854324         8.07138373E-15
   88.3122177         1.05739400E-14
   88.4390106         1.29362522E-14
   88.5658035         1.50553245E-14
   88.6925964         1.68284355E-14
   88.8193893         1.81571524E-14
   88.9461823         1.89514881E-14
   89.0729752         1.91340270E-14
   89.1997681         1.86438863E-14
   89.3265610         1.74403220E-14
   89.4533539         1.55058292E-14
   89.5801468         1.28485725E-14
   89.7069397         9.50402646E-15
   89.8337326         5.53567964E-15
   89.9605255         1.03474275E-15
   90.0873184        -3.88119560E-15
   90.2141113        -9.07061579E-15
   90.3409042        -1.43715403E-14
   90.4676971        -1.96060311E-14
   90.5944901        -2.45855345E-14
   90.7212830        -2.91170117E-14
   90.8480759        -3.30096058E-14
   90.9748688        -3.60816655E-14
   91.1016617        -3.81678908E-14
   91.2284546        -3.91263187E-14
   91.3552475        -3.88449276E-14
   91.4820404        -3.72475590E-14
   91.6088333        -3.42989085E-14
   91.7356262        -3.00083478E-14
   91.8624191        -2.44324282E-14
   91.9892120        -1.76757751E-14
   92.1159973        -9.89039037E-15
   92.2427902        -1.27317914E-15
   92.3695831         7.93824624E-15
   92.4963760         1.74714555E-14
   92.6231689         2.70266682E-14
   92.7499619         3.62856141E-14
   92.8767548         4.49215860E-14
   93.0035477         5.26103243E-14
   93.1303406         5.90414694E-14
   93.2571335         6.39301708E-14
   93.3839264         6.70284073E-14
   93.5107193         6.81357165E-14
   93.6375122         6.71087670E-14
   93.7643051         6.38695301E-14
   93.8910980         5.84115208E-14
   94.0178909         5.08038774E-14
   94.1446838         4.11930147E-14
   94.2714767         2.98015735E-14
   94.3982697         1.69246297E-14
   94.5250626         2.92311155E-15
   94.6518555        -1.17855046E-14
   94.7786484        -2.67390260E-14
   94.9054413        -4.14446242E-14
   95.0322342        -5.53948096E-14
   95.1590271        -6.80847726E-14
   95.2858200        -7.90306338E-14
   95.4126129        -8.77878499E-14
   95.5394058        -9.39692931E-14
   95.6661987        -9.72621574E-14
   95.7929916        -9.74430362E-14
   95.9197769        -9.43905802E-14
   96.0465698        -8.80950789E-14
   96.1733627        -7.86643632E-14
   96.3001556        -6.63256274E-14
   96.4269485        -5.14229501E-14
   96.5537415        -3.44101748E-14
   96.6805344        -1.58392366E-14
   96.8073273         3.65587890E-15
   96.9341202         2.33792613E-14
   97.0609131         4.25967618E-14
   97.1877060         6.05625169E-14
   97.3144989         7.65474313E-14
   97.4412918         8.98687524E-14
   97.5680847         9.99194895E-14
   97.6948776         1.06196702E-13
   97.8216705         1.08327213E-13
   97.9484634         1.06089847E-13
   98.0752563         9.94328385E-14