  -4.50000000         0.00000000    
  -4.37500000         0.00000000    
  -4.25000000         0.00000000    
  -4.12500000         0.00000000    
  -4.00000000         0.00000000    
  -3.87500000         0.00000000    
  -3.75000000         0.00000000    
  -3.62500000         0.00000000    
  -3.50000000         0.00000000    
  -3.37500000         0.00000000    
  -3.25000000         0.00000000    
  -3.12500000         0.00000000    
  -3.00000000         0.00000000    
  -2.87500000         0.00000000    
  -2.75000000         0.00000000    
  -2.62500000         0.00000000    
  -2.50000000         0.00000000    
  -2.37500000         0.00000000    
  -2.25000000         0.00000000    
  -2.12500000         0.00000000    
  -2.00000000         0.00000000    
  -1.87500000         0.00000000    
  -1.75000000         0.00000000    
  -1.62500000         0.00000000    
  -1.50000000         0.00000000    
  -1.37500000         0.00000000    
  -1.25000000         0.00000000    
  -1.12500000         0.00000000    
  -1.00000000         0.00000000    
 -0.875000000         0.00000000    
 -0.750000000         0.00000000    
 -0.625000000         0.00000000    
 -0.500000000         0.00000000    
 -0.375000000         0.00000000    
 -0.250000000         0.00000000    
 -0.125000000         0.00000000    
   0.00000000         0.00000000    
  0.125000000         0.00000000    
  0.250000000         0.00000000    
  0.375000000         0.00000000    
  0.500000000         0.00000000    
  0.625000000         0.00000000    
  0.750000000         0.00000000    
  0.875000000         0.00000000    
   1.00000000         0.00000000    
   1.12500000         0.00000000    
   1.25000000         0.00000000    
   1.37500000         0.00000000    
   1.50000000         0.00000000    
   1.62500000         0.00000000    
   1.75000000         0.00000000    
   1.87500000         0.00000000    
   2.00000000         0.00000000    
   2.12500000         0.00000000    
   2.25000000         0.00000000    
   2.37500000         0.00000000    
   2.50000000         0.00000000    
   2.62500000         0.00000000    
   2.75000000         0.00000000    
   2.87500000         0.00000000    
   3.00000000         0.00000000    
   3.12500000         0.00000000    
   3.25000000         0.00000000    
   3.37500000         0.00000000    
   3.50000000         0.00000000    
   3.62500000         0.00000000    
   3.75000000         0.00000000    
   3.87500000         0.00000000    
   4.00000000         0.00000000    
   4.12500000         0.00000000    
   4.25000000         0.00000000    
   4.37500000         0.00000000    
   4.50000000         0.00000000    
   4.62500000         0.00000000    
   4.75000000         0.00000000    
   4.87500000         0.00000000    
   5.00000000         0.00000000    
   5.12500000         0.00000000    
   5.25000000         0.00000000    
   5.37500000         0.00000000    
   5.50000000         0.00000000    
   5.62500000         0.00000000    
   5.75000000         0.00000000    
   5.87500000         0.00000000    
   6.00000000         0.00000000    
   6.12500000         0.00000000    
   6.25000000         0.00000000    
   6.37500000         0.00000000    
   6.50000000         0.00000000    
   6.62500000         0.00000000    
   6.75000000         0.00000000    
   6.87500000         0.00000000    
   7.00000000         0.00000000    
   7.12500000         0.00000000    
   7.25000000         0.00000000    
   7.37500000         0.00000000    
   7.50000000         0.00000000    
   7.62500000         0.00000000    
   7.75000000         0.00000000    
   7.87500000         0.00000000    
   8.00000000         0.00000000    
   8.12500000         0.00000000    
   8.25000000         0.00000000    
   8.37500000         0.00000000    
   8.50000000         0.00000000    
   8.62500000         0.00000000    
   8.75000000         0.00000000    
   8.87500000         0.00000000    
   9.00000000         0.00000000    
   9.12500000         0.00000000    
   9.25000000         0.00000000    
   9.37500000         0.00000000    
   9.50000000         0.00000000    
   9.62500000         0.00000000    
   9.75000000         0.00000000    
   9.87500000         0.00000000    
   10.0000000         0.00000000    
   10.1250000         0.00000000    
   10.2500000         0.00000000    
   10.3750000         0.00000000    
   10.5000000         0.00000000    
   10.6250000         0.00000000    
   10.7500000         0.00000000    
   10.8750000         0.00000000    
   11.0000000         0.00000000    
   11.1250000         0.00000000    
   11.2500000         0.00000000    
   11.3750000         0.00000000    
   11.5000000         0.00000000    
   11.6250000         0.00000000    
   11.7500000         0.00000000    
   11.8750000         0.00000000    
   12.0000000         0.00000000    
   12.1250000         0.00000000    
   12.2500000         0.00000000    
   12.3750000         0.00000000    
   12.5000000         0.00000000    
   12.6250000         0.00000000    
   12.7500000         0.00000000    
   12.8750000         0.00000000    
   13.0000000         0.00000000    
   13.1250000         0.00000000    
   13.2500000         0.00000000    
   13.3750000         0.00000000    
   13.5000000         0.00000000    
   13.6250000         0.00000000    
   13.7500000         0.00000000    
   13.8750000         0.00000000    
   14.0000000         0.00000000    
   14.1250000         0.00000000    
   14.2500000         0.00000000    
   14.3750000         0.00000000    
   14.5000000         0.00000000    
   14.6250000         0.00000000    
   14.7500000         0.00000000    
   14.8750000         0.00000000    
   15.0000000         0.00000000    
   15.1250000         0.00000000    
   15.2500000         0.00000000    
   15.3750000         0.00000000    
   15.5000000         0.00000000    
   15.6250000         0.00000000    
   15.7500000         0.00000000    
   15.8750000         0.00000000    
   16.0000000         0.00000000    
   16.1250000         0.00000000    
   16.2500000         0.00000000    
   16.3750000         0.00000000    
   16.5000000         0.00000000    
   16.6250000         0.00000000    
   16.7500000         0.00000000    
   16.8750000         0.00000000    
   17.0000000         0.00000000    
   17.1250000         0.00000000    
   17.2500000         0.00000000    
   17.3750000         0.00000000    
   17.5000000         0.00000000    
   17.6250000         0.00000000    
   17.7500000         0.00000000    
   17.8750000         0.00000000    
   18.0000000         0.00000000    
   18.1250000         0.00000000    
   18.2500000         0.00000000    
   18.3750000         0.00000000    
   18.5000000         0.00000000    
   18.6250000         0.00000000    
   18.7500000         0.00000000    
   18.8750000         0.00000000    
   19.0000000         0.00000000    
   19.1250000         0.00000000    
   19.2500000         0.00000000    
   19.3750000         0.00000000    
   19.5000000         0.00000000    
   19.6250000         0.00000000    
   19.7500000         0.00000000    
   19.8750000         0.00000000    
   20.0000000         0.00000000    
   20.1250000         0.00000000    
   20.2500000         0.00000000    
   20.3750000         0.00000000    
   20.5000000         0.00000000    
   20.6250000         0.00000000    
   20.7500000         0.00000000    
   20.8750000         0.00000000    
   21.0000000         0.00000000    
   21.1250000         0.00000000    
   21.2500000         0.00000000    
   21.3750000         0.00000000    
   21.5000000         0.00000000    
   21.6250000         0.00000000    
   21.7500000         0.00000000    
   21.8750000         0.00000000    
   22.0000000         0.00000000    
   22.1250000         0.00000000    
   22.2500000         0.00000000    
   22.3750000         0.00000000    
   22.5000000         0.00000000    
   22.6250000         0.00000000    
   22.7500000         0.00000000    
   22.8750000         0.00000000    
   23.0000000         0.00000000    
   23.1250000         0.00000000    
   23.2500000         0.00000000    
   23.3750000         0.00000000    
   23.5000000         0.00000000    
   23.6250000         0.00000000    
   23.7500000         0.00000000    
   23.8750000         0.00000000    
   24.0000000         0.00000000    
   24.1250000         0.00000000    
   24.2500000         0.00000000    
   24.3750000         0.00000000    
   24.5000000         0.00000000    
   24.6250000         0.00000000    
   24.7500000         0.00000000    
   24.8750000         0.00000000    
   25.0000000         0.00000000    
   25.1250000         0.00000000    
   25.2500000         0.00000000    
   25.3750000         0.00000000    
   25.5000000         0.00000000    
   25.6250000         0.00000000    
   25.7500000         0.00000000    
   25.8750000         0.00000000    
   26.0000000         0.00000000    
   26.1250000         0.00000000    
   26.2500000         0.00000000    
   26.3750000         0.00000000    
   26.5000000         0.00000000    
   26.6250000         0.00000000    
   26.7500000         0.00000000    
   26.8750000         0.00000000    
   27.0000000         0.00000000    
   27.1250000         0.00000000    
   27.2500000         0.00000000    
   27.3750000         0.00000000    
   27.5000000         0.00000000    
   27.6250000         0.00000000    
   27.7500000         0.00000000    
   27.8750000         0.00000000    
   28.0000000         0.00000000    
   28.1250000         0.00000000    
   28.2500000         0.00000000    
   28.3750000         0.00000000    
   28.5000000         0.00000000    
   28.6250000         0.00000000    
   28.7500000         0.00000000    
   28.8750000         0.00000000    
   29.0000000         1.77867081E-33
   29.1250000         2.59113099E-33
   29.2500000         2.28539465E-33
   29.3750000         2.30439376E-33
   29.5000000         2.99368105E-33
   29.6250000         6.00930491E-33
   29.7500000         6.45347795E-33
   29.8750000         1.06532766E-33
   30.0000000        -1.79307454E-32
   30.1250000        -3.40469743E-32
   30.2500000        -4.68486485E-32
   30.3750000        -3.69659648E-32
   30.5000000        -2.09751127E-32
   30.6250000         1.30399557E-32
   30.7500000         2.87863109E-32
   30.8750000         4.03354371E-32
   31.0000000         4.62279816E-32
   31.1250000         4.36676403E-32
   31.2500000         9.16381894E-32
   31.3750000         1.86187173E-31
   31.5000000         2.49829507E-31
   31.6250000         3.72092651E-31
   31.7500000         8.85970939E-31
   31.8750000         1.76156837E-30
   32.0000000         3.14828495E-30
   32.1250000         5.45306112E-30
   32.2500000         8.07797837E-30
   32.3750000         1.01252855E-29
   32.5000000         1.41854250E-29
   32.6250000         1.99556826E-29
   32.7500000         2.67386514E-29
   32.8750000         3.31254835E-29
   33.0000000         3.75496485E-29
   33.1250000         3.77376313E-29
   33.2500000         3.68375208E-29
   33.3750000         3.04075630E-29
   33.5000000         2.19776442E-29
   33.6250000         1.14506895E-29
   33.7500000        -4.47321266E-30
   33.8750000        -1.87153476E-29
   34.0000000        -3.29913093E-29
   34.1250000        -5.03107821E-29
   34.2500000        -6.72538408E-29
   34.3750000        -8.63650964E-29
   34.5000000        -1.08661377E-28
   34.6250000        -1.25400525E-28
   34.7500000        -1.32663748E-28
   34.8750000        -1.30411253E-28
   35.0000000        -1.18090513E-28
   35.1250000        -9.62641837E-29
   35.2500000        -5.80060428E-29
   35.3750000        -1.63798687E-30
   35.5000000         8.40302554E-29
   35.6250000         1.98044122E-28
   35.7500000         3.26863125E-28
   35.8750000         4.71776762E-28
   36.0000000         6.24468003E-28
   36.1250000         7.63995416E-28
   36.2500000         8.79274842E-28
   36.3750000         9.45265002E-28
   36.5000000         9.42336144E-28
   36.6250000         8.57440863E-28
   36.7500000         6.76998657E-28
   36.8750000         3.92219678E-28
   37.0000000        -1.03428900E-29
   37.1250000        -5.20494556E-28
   37.2500000        -1.12131898E-27
   37.3750000        -1.79462312E-27
   37.5000000        -2.51176856E-27
   37.6250000        -3.25236450E-27
   37.7500000        -3.97441991E-27
   37.8750000        -4.63428472E-27
   38.0000000        -5.17763886E-27
   38.1250000        -5.53543235E-27
   38.2500000        -5.63675129E-27
   38.3750000        -5.38875198E-27
   38.5000000        -4.70742615E-27
   38.6250000        -3.51425593E-27
   38.7500000        -1.74920565E-27
   38.8750000         6.23501234E-28
   39.0000000         3.59844949E-27
   39.1250000         7.11550765E-27
   39.2500000         1.10588276E-26
   39.3750000         1.52477830E-26
   39.5000000         1.94300077E-26
   39.6250000         2.32992626E-26
   39.7500000         2.64988609E-26
   39.8750000         2.86422853E-26
   40.0000000         2.93308407E-26
   40.1250000         2.81735817E-26
   40.2500000         2.48275065E-26
   40.3750000         1.90123166E-26
   40.5000000         1.05459024E-26
   40.6250000        -6.21845609E-28
   40.7500000        -1.43811577E-26
   40.8750000        -3.04243714E-26
   41.0000000        -4.82275014E-26
   41.1250000        -6.70331041E-26
   41.2500000        -8.58336686E-26
   41.3750000        -1.03387365E-25
   41.5000000        -1.18237677E-25
   41.6250000        -1.28762955E-25
   41.7500000        -1.33247334E-25
   41.8750000        -1.29977850E-25
   42.0000000        -1.17365530E-25
   42.1250000        -9.40839026E-26
   42.2500000        -5.92217233E-26
   42.3750000        -1.24393535E-26
   42.5000000         4.58727855E-26
   42.6250000         1.14466491E-25
   42.7500000         1.91130163E-25
   42.8750000         2.72623944E-25
   43.0000000         3.54679185E-25
   43.1250000         4.32052906E-25
   43.2500000         4.98663926E-25
   43.3750000         5.47811686E-25
   43.5000000         5.72477246E-25
   43.6250000         5.65711778E-25
   43.7500000         5.21100165E-25
   43.8750000         4.33288114E-25
   44.0000000         2.98548995E-25
   44.1250000         1.15367567E-25
   44.2500000        -1.14997037E-25
   44.3750000        -3.88008829E-25
   44.5000000        -6.95457457E-25
   44.6250000        -1.02521192E-24
   44.7500000        -1.36117742E-24
   44.8750000        -1.68349425E-24
   45.0000000        -1.96901792E-24
   45.1250000        -2.19210719E-24
   45.2500000        -2.32572721E-24
   45.3750000        -2.34286739E-24
   45.5000000        -2.21823959E-24
   45.6250000        -1.93020399E-24
   45.7500000        -1.46284858E-24
   45.8750000        -8.08116753E-25
   46.0000000         3.21347482E-26
   46.1250000         1.04428992E-24
   46.2500000         2.20149681E-24
   46.3750000         3.46271559E-24
   46.5000000         4.77245347E-24
   46.6250000         6.06132636E-24
   46.7500000         7.24756727E-24
   46.8750000         8.23957642E-24
   47.0000000         8.93953034E-24
   47.1250000         9.24805384E-24
   47.2500000         9.06985095E-24
   47.3750000         8.32013806E-24
   47.5000000         6.93164031E-24
   47.6250000         4.86184363E-24
   47.7500000         2.10009682E-24
   47.8750000        -1.32585262E-24
   48.0000000        -5.34437604E-24
   48.1250000        -9.83609600E-24
   48.2500000        -1.46320540E-23
   48.3750000        -1.95144530E-23
   48.5000000        -2.42203222E-23
   48.6250000        -2.84484510E-23
   48.7500000        -3.18696934E-23
   48.8750000        -3.41406946E-23
   49.0000000        -3.49207329E-23
   49.1250000        -3.38914114E-23
   49.2500000        -3.07783832E-23
   49.3750000        -2.53743610E-23
   49.5000000        -1.75622825E-23
   49.6250000        -7.33734437E-24
   49.7500000         5.17341687E-24
   49.8750000         1.96955644E-23
   50.0000000         3.57971573E-23
   50.1250000         5.28855790E-23
   50.2500000         7.02125775E-23
   50.3750000         8.68884470E-23
   50.5000000         1.01906169E-22
   50.6250000         1.14175752E-22
   50.7500000         1.22568335E-22
   50.8750000         1.25969588E-22
   51.0000000         1.23340662E-22
   51.1250000         1.13784893E-22
   51.2500000         9.66174938E-23
   51.3750000         7.14352488E-23
   51.5000000         3.81823761E-23
   51.6250000        -2.79111058E-24
   51.7500000        -5.06826976E-23
   51.8750000        -1.04206727E-22
   52.0000000        -1.61583225E-22
   52.1250000        -2.20549681E-22
   52.2500000        -2.78399035E-22
   52.3750000        -3.32045161E-22
   52.5000000        -3.78116582E-22
   52.6250000        -4.13078922E-22
   52.7500000        -4.33382561E-22
   52.8750000        -4.35633680E-22
   53.0000000        -4.16782732E-22
   53.1250000        -3.74324420E-22
   53.2500000        -3.06501567E-22
   53.3750000        -2.12503199E-22
   53.5000000        -9.26478195E-23
   53.6250000         5.14598581E-23
   53.7500000         2.16807603E-22
   53.8750000         3.98903180E-22
   54.0000000         5.91757710E-22
   54.1250000         7.87936941E-22
   54.2500000         9.78683407E-22
   54.3750000         1.15411880E-21
   54.5000000         1.30352628E-21
   54.6250000         1.41571265E-21
   54.7500000         1.47944716E-21
   54.8750000         1.48396575E-21
   55.0000000         1.41953513E-21
   55.1250000         1.27805261E-21
   55.2500000         1.05366876E-21
   55.3750000         7.43406159E-22
   55.5000000         3.47745917E-22
   55.6250000        -1.28844387E-22
   55.7500000        -6.77477229E-22
   55.8750000        -1.28453546E-21
   56.0000000        -1.93152449E-21
   56.1250000        -2.59511418E-21
   56.2500000        -3.24740345E-21
   56.3750000        -3.85642911E-21
   56.5000000        -4.38694592E-21
   56.6250000        -4.80147730E-21
   56.7500000        -5.06164661E-21
   56.8750000        -5.12977753E-21
   57.0000000        -4.97073348E-21
   57.1250000        -4.55396329E-21
   57.2500000        -3.85568957E-21
   57.3750000        -2.86117008E-21
   57.5000000        -1.56693928E-21
   57.6250000         1.70786729E-23
   57.7500000         1.86570385E-21
   57.8750000         3.93701904E-21
   58.0000000         6.17141118E-21
   58.1250000         8.49127960E-21
   58.2500000         1.08015563E-20
   58.3750000         1.29911429E-20
   58.5000000         1.49353954E-20
   58.6250000         1.64997151E-20
   58.7500000         1.75442698E-20
   58.8750000         1.79298377E-20
   59.0000000         1.75246953E-20
   59.1250000         1.62123910E-20
   59.2500000         1.39001643E-20
   59.3750000         1.05277555E-20
   59.5000000         6.07617636E-21
   59.6250000         5.76030676E-22
   59.7500000        -5.88515701E-21
   59.8750000        -1.31571542E-20
   60.0000000        -2.10233430E-20
   60.1250000        -2.91997632E-20
   60.2500000        -3.73374207E-20
   60.3750000        -4.50282972E-20
   60.5000000        -5.18155338E-20
   60.6250000        -5.72078629E-20
   60.7500000        -6.06985133E-20
   60.8750000        -6.17881946E-20
   61.0000000        -6.00118565E-20
   61.1250000        -5.49684458E-20
   61.2500000        -4.63525649E-20
   61.3750000        -3.39868642E-20
   61.5000000        -1.78533897E-20
   61.6250000         1.87776118E-21
   61.7500000         2.48246708E-20
   61.8750000         5.03765433E-20
   62.0000000         7.76858369E-20
   62.1250000         1.05671270E-19
   62.2500000         1.33033545E-19
   62.3750000         1.58285146E-19
   62.5000000         1.79795202E-19
   62.6250000         1.95849447E-19
   62.7500000         2.04724604E-19
   62.8750000         2.04776044E-19
   63.0000000         1.94536026E-19
   63.1250000         1.72819136E-19
   63.2500000         1.38830789E-19
   63.3750000         9.22731218E-20
   63.5000000         3.34427054E-20
   63.6250000        -3.66866137E-20
   63.7500000        -1.16402911E-19
   63.8750000        -2.03223710E-19
   64.0000000        -2.93898435E-19
   64.1250000        -3.84451499E-19
   64.2500000        -4.70270118E-19
   64.3750000        -5.46239471E-19
   64.5000000        -6.06925835E-19
   64.6250000        -6.46805453E-19
   64.7500000        -6.60534842E-19
   64.8750000        -6.43253953E-19
   65.0000000        -5.90913014E-19
   65.1250000        -5.00608207E-19
   65.2500000        -3.70910346E-19
   65.3750000        -2.02169003E-19
   65.5000000         3.22882965E-21
   65.6250000         2.40664813E-19
   65.7500000         5.03180894E-19
   65.8750000         7.81475678E-19
   66.0000000         1.06401928E-18
   66.1250000         1.33730238E-18
   66.2500000         1.58622284E-18
   66.3750000         1.79461301E-18
   66.5000000         1.94590103E-18
   66.6250000         2.02389072E-18
   66.7500000         2.01363740E-18
   66.8750000         1.90239133E-18
   67.0000000         1.68056465E-18
   67.1250000         1.34268102E-18
   67.2500000         8.88253529E-19
   67.3750000         3.22536151E-19
   67.5000000        -3.42907232E-19
   67.6250000        -1.08987415E-18
   67.7500000        -1.89348094E-18
   67.8750000        -2.72245447E-18
   68.0000000        -3.53978584E-18
   68.1250000        -4.30376572E-18
   68.2500000        -4.96940251E-18
   68.3750000        -5.49020204E-18
   68.5000000        -5.82026944E-18
   68.6250000        -5.91666783E-18
   68.7500000        -5.74195859E-18
   68.8750000        -5.26681033E-18
   69.0000000        -4.47255316E-18
   69.1250000        -3.35355212E-18
   69.2500000        -1.91924493E-18
   69.3750000        -1.95705349E-19
   69.5000000         1.77341382E-18
   69.6250000         3.92668551E-18
   69.7500000         6.18557059E-18
   69.8750000         8.45600932E-18
   70.0000000         1.06309955E-17
   70.1250000         1.25941176E-17
   70.2500000         1.42240225E-17
   70.3750000         1.53996926E-17
   70.5000000         1.60063849E-17
   70.6250000         1.59420054E-17
   70.7500000         1.51236773E-17
   70.8750000         1.34941696E-17
   71.0000000         1.10278958E-17
   71.1250000         7.73608095E-18
   71.2500000         3.67078147E-18
   71.3750000        -1.07261265E-18
   71.5000000        -6.35466989E-18
   71.6250000        -1.19932967E-17
   71.7500000        -1.77673416E-17
   71.8750000        -2.34225571E-17
   72.0000000        -2.86798672E-17
   72.1250000        -3.32458480E-17
   72.2500000        -3.68251147E-17
   72.3750000        -3.91342854E-17
   72.5000000        -3.99170067E-17
   72.6250000        -3.89593664E-17
   72.7500000        -3.61050805E-17
   72.8750000        -3.12696175E-17
   73.0000000        -2.44524515E-17
   73.1250000        -1.57466519E-17
   73.2500000        -5.34502605E-18
   73.3750000         6.45788507E-18
   73.5000000         1.92685007E-17
   73.6250000         3.26020070E-17
   73.7500000         4.58954281E-17
   73.8750000         5.85259532E-17
   74.0000000         6.98341872E-17
   74.1250000         7.91516489E-17
   74.2500000         8.58318536E-17
   74.3750000         8.92836122E-17
   74.5000000         8.90052890E-17
   74.6250000         8.46184723E-17
   74.7500000         7.58992541E-17
   74.8750000         6.28054549E-17
   75.0000000         4.54979215E-17
   75.1250000         2.43542718E-17
   75.2500000        -2.63517771E-20
   75.3750000        -2.68288223E-17
   75.5000000        -5.50385168E-17
   75.6250000        -8.34692802E-17
   75.7500000        -1.10802570E-16
   75.8750000        -1.35637186E-16
   76.0000000        -1.56548166E-16
   76.1250000        -1.72152988E-16
   76.2500000        -1.81182518E-16
   76.3750000        -1.82554050E-16
   76.5000000        -1.75442679E-16
   76.6250000        -1.59347676E-16
   76.7500000        -1.34150034E-16
   76.8750000        -1.00157358E-16
   77.0000000        -5.81328373E-17
   77.1250000        -9.30506721E-18
   77.2500000         4.46437152E-17
   77.3750000         1.01612468E-16
   77.5000000         1.59140074E-16
   77.6250000         2.14487681E-16
   77.7500000         2.64742715E-16
   77.8750000         3.06942214E-16
   78.0000000         3.38211150E-16
   78.1250000         3.55910724E-16
   78.2500000         3.57790555E-16
   78.3750000         3.42137730E-16
   78.5000000         3.07915296E-16
   78.6250000         2.54882537E-16
   78.7500000         1.83689047E-16
   78.8750000         9.59359773E-17
   79.0000000        -5.80201646E-18
   79.1250000        -1.17999458E-16
   79.2500000        -2.36250300E-16
   79.3750000        -3.55387602E-16
   79.5000000        -4.69651658E-16
   79.6250000        -5.72903598E-16
   79.7500000        -6.58878978E-16
   79.8750000        -7.21473336E-16
   80.0000000        -7.55049510E-16
   80.1250000        -7.54754319E-16
   80.2500000        -7.16831013E-16
   80.3750000        -6.38912029E-16
   80.5000000        -5.20276912E-16
   80.6250000        -3.62059442E-16
   80.7500000        -1.67389698E-16
   80.8750000         5.85419741E-17
   81.0000000         3.08510072E-16
   81.1250000         5.73374972E-16
   81.2500000         8.42304968E-16
   81.3750000         1.10309757E-15
   81.5000000         1.34259603E-15
   81.6250000         1.54719144E-15
   81.7500000         1.70339554E-15
   81.8750000         1.79846440E-15
   82.0000000         1.82105286E-15
   82.1250000         1.76186792E-15
   82.2500000         1.61429879E-15
   82.3750000         1.37498636E-15
   82.5000000         1.04430565E-15
   82.6250000         6.26730530E-16
   82.7500000         1.31053586E-16
   82.8750000        -4.29563230E-16
   83.0000000        -1.03772240E-15
   83.1250000        -1.67212255E-15
   83.2500000        -2.30809024E-15
   83.3750000        -2.91830845E-15
   83.5000000        -3.47372659E-15
   83.6250000        -3.94462989E-15
   83.7500000        -4.30183809E-15
   83.8750000        -4.51799031E-15
   84.0000000        -4.56887369E-15
   84.1250000        -4.43473840E-15
   84.2500000        -4.10154825E-15
   84.3750000        -3.56210389E-15
   84.5000000        -2.81698298E-15
   84.6250000        -1.87524158E-15
   84.7500000        -7.54831082E-16
   84.8750000         5.17316690E-16
   85.0000000         1.90556113E-15
   85.1250000         3.36620232E-15
   85.2500000         4.84851527E-15
   85.3750000         6.29614879E-15
   85.5000000         7.64887692E-15
   85.6250000         8.84464096E-15
   85.7500000         9.82184508E-15
   85.8750000         1.05218119E-14
   86.0000000         1.08913267E-14
   86.1250000         1.08851721E-14
   86.2500000         1.04685522E-14
   86.3750000         9.61930002E-15
   86.5000000         8.32977198E-15
   86.6250000         6.60831981E-15
   86.7500000         4.48026558E-15
   86.8750000         1.98830058E-15
   87.0000000        -8.07751159E-16
   87.1250000        -3.83184322E-15
   87.2500000        -6.99329078E-15
   87.3750000        -1.01890279E-14
   87.5000000        -1.33064946E-14
   87.6250000        -1.62270777E-14
   87.7500000        -1.88300303E-14
   87.8750000        -2.09967338E-14
   88.0000000        -2.26151902E-14
   88.1250000        -2.35845550E-14
   88.2500000        -2.38195846E-14
   88.3750000        -2.32548034E-14
   88.5000000        -2.18482137E-14
   88.6250000        -1.95844063E-14
   88.7500000        -1.64769050E-14
   88.8750000        -1.25696056E-14
   89.0000000        -7.93722472E-15
   89.1250000        -2.68466203E-15
   89.2500000         3.05474619E-15
   89.3750000         9.12210100E-15
   89.5000000         1.53368868E-14
   89.6250000         2.15019093E-14
   89.7500000         2.74091205E-14
   89.8750000         3.28461284E-14
   90.0000000         3.76032654E-14
   90.1250000         4.14808975E-14
   90.2500000         4.42968213E-14
   90.3750000         4.58934411E-14
   90.5000000         4.61444474E-14
   90.6250000         4.49607697E-14
   90.7500000         4.22955568E-14
   90.8750000         3.81479245E-14
   91.0000000         3.25653167E-14
   91.1250000         2.56443274E-14
   91.2500000         1.75298551E-14
   91.3750000         8.41258385E-15
   91.5000000        -1.47522053E-15
   91.6250000        -1.18655306E-14
   91.7500000        -2.24618315E-14
   91.8750000        -3.29476843E-14
   92.0000000        -4.29963241E-14
   92.1250000        -5.22809809E-14
   92.2500000        -6.04856267E-14
   92.3750000        -6.73157412E-14
   92.5000000        -7.25087511E-14
   92.6250000        -7.58437638E-14
   92.7500000        -7.71502206E-14
   92.8750000        -7.63150868E-14
   93.0000000        -7.32883467E-14
   93.1250000        -6.80864734E-14
   93.2500000        -6.07937569E-14
   93.3750000        -5.15612875E-14
   93.5000000        -4.06036289E-14
   93.6250000        -2.81931884E-14
   93.7500000        -1.46524536E-14
   93.8750000        -3.44251686E-16
   94.0000000         1.43395902E-14
   94.1250000         2.89908444E-14
   94.2500000         4.31983347E-14
   94.3750000         5.65616991E-14
   94.5000000         6.87049769E-14
   94.6250000         7.92895277E-14
   94.7500000         8.80256629E-14
   94.8750000         9.46826778E-14
   95.0000000         9.90966274E-14
   95.1250000         1.01175680E-13
   95.2500000         1.00902624E-13
   95.3750000         9.83344536E-14
   95.5000000         9.35989161E-14
   95.6250000         8.68881654E-14
   95.7500000         7.84495759E-14
   95.8750000         6.85742492E-14
   96.0000000         5.75834953E-14
   96.1250000         4.58139115E-14
   96.2500000         3.36016717E-14
   96.3750000         2.12668255E-14
   96.5000000         9.09826888E-15
   96.6250000        -2.65989987E-15