 -4.5   1.089711609E-17
 -4.37320757   1.089711526E-17
 -4.24641466   1.089711361E-17
 -4.11962223   1.08971103E-17
 -3.99282932   1.089710947E-17
 -3.86603665   1.089710864E-17
 -3.73924398   1.089710947E-17
 -3.61245155   1.089711113E-17
 -3.48565888   1.089711361E-17
 -3.35886621   1.089711526E-17
 -3.23207355   1.089711692E-17
 -3.10528088   1.08971194E-17
 -2.97848821   1.089712023E-17
 -2.85169554   1.089712188E-17
 -2.72490287   1.089712271E-17
 -2.5981102   1.089712353E-17
 -2.47131753   1.089712519E-17
 -2.34452486   1.089712684E-17
 -2.21773219   1.08971285E-17
 -2.09093952   1.089713098E-17
 -1.96414697   1.089713263E-17
 -1.8373543   1.089713346E-17
 -1.71056163   1.089713429E-17
 -1.58376896   1.089713594E-17
 -1.45697629   1.089713925E-17
 -1.33018374   1.089714587E-17
 -1.20339108   1.089715331E-17
 -1.07659841   1.089716158E-17
 -0.949805737   1.08971682E-17
 -0.823013067   1.089717317E-17
 -0.696220458   1.089717565E-17
 -0.569427788   1.08971773E-17
 -0.442635119   1.089717896E-17
 -0.315842479   1.089718061E-17
 -0.189049825   1.089718475E-17
 -6.225717068E-2   1.089718971E-17
 6.453548372E-2   1.089719467E-17
 0.191328138   1.089719963E-17
 0.318120778   1.089720377E-17
 0.444913447   1.089720708E-17
 0.571706116   1.089721039E-17
 0.698498726   1.08972137E-17
 0.825291395   1.089721701E-17
 0.952084064   1.089722197E-17
 1.07887673   1.089722528E-17
 1.2056694   1.089722776E-17
 1.33246195   1.089722693E-17
 1.45925462   1.089722528E-17
 1.58604729   1.089722031E-17
 1.71283996   1.08972137E-17
 1.83963263   1.089720625E-17
 1.9664253   1.089719881E-17
 2.09321785   1.089719384E-17
 2.22001052   1.089718971E-17
 2.34680319   1.089718723E-17
 2.47359586   1.089718557E-17
 2.60038853   1.089718309E-17
 2.7271812   1.089718061E-17
 2.85397387   1.089717813E-17
 2.98076653   1.089717565E-17
 3.1075592   1.089717565E-17
 3.23435187   1.089717896E-17
 3.36114454   1.089718475E-17
 3.48793697   1.089719136E-17
 3.61472964   1.089719963E-17
 3.74152231   1.089720708E-17
 3.86831498   1.089721287E-17
 3.99510765   1.089721783E-17
 4.12190056   1.089722197E-17
 4.24869299   1.089722693E-17
 4.37548542   1.089723189E-17
 4.50227833   1.089723769E-17
 4.62907076   1.089724513E-17
 4.75586367   1.089725175E-17
 4.8826561   1.089725836E-17
 5.00944901   1.089726415E-17
 5.13624144   1.089726829E-17
 5.26303434   1.089727077E-17
 5.38982677   1.089727243E-17
 5.51661968   1.089727491E-17
 5.64341211   1.089727739E-17
 5.77020502   1.089727987E-17
 5.89699745   1.089728318E-17
 6.02379036   1.089728732E-17
 6.15058279   1.089729228E-17
 6.27737522   1.08972989E-17
 6.40416813   1.089730634E-17
 6.53096056   1.089731627E-17
 6.65775347   1.08973295E-17
 6.7845459   1.089734356E-17
 6.91133881   1.089735845E-17
 7.03813124   1.0897375E-17
 7.16492414   1.089739237E-17
 7.29171658   1.089740974E-17
 7.41850948   1.089742628E-17
 7.54530191   1.089744365E-17
 7.67209482   1.089746102E-17
 7.79888725   1.089747922E-17
 7.92567968   1.089749659E-17
 8.05247211   1.089751479E-17
 8.17926502   1.089753133E-17
 8.30605793   1.089754788E-17
 8.43285084   1.089756359E-17
 8.55964279   1.089757848E-17
 8.6864357   1.089759503E-17
 8.81322861   1.08976124E-17
 8.94002151   1.089763142E-17
 9.06681347   1.089765128E-17
 9.19360638   1.089767278E-17
 9.32039928   1.089769429E-17
 9.44719219   1.08977158E-17
 9.57398415   1.089773565E-17
 9.70077705   1.089775467E-17
 9.82756996   1.089777287E-17
 9.95436192   1.089779024E-17
 10.0811548   1.089780927E-17
 10.2079477   1.089782829E-17
 10.3347406   1.089785063E-17
 10.4615326   1.089787379E-17
 10.5883255   1.08978986E-17
 10.7151184   1.089792507E-17
 10.8419113   1.089795237E-17
 10.9687033   1.089798297E-17
 11.0954962   1.089801523E-17
 11.2222891   1.08980508E-17
 11.349082   1.089808885E-17
 11.4758739   1.089812856E-17
 11.6026669   1.089816909E-17
 11.7294598   1.089820797E-17
 11.8562517   1.089824354E-17
 11.9830446   1.089827332E-17
 12.1098375   1.089829565E-17
 12.2366304   1.089830806E-17
 12.3634224   1.089831137E-17
 12.4902153   1.089830475E-17
 12.6170082   1.089828986E-17
 12.7438011   1.08982667E-17
 12.8705931   1.089823692E-17
 12.997386   1.089820218E-17
 13.1241789   1.089816413E-17
 13.2509708   1.089812525E-17
 13.3777637   1.089808968E-17
 13.5045567   1.08980599E-17
 13.6313496   1.08980417E-17
 13.7581415   1.089803757E-17
 13.8849344   1.089805163E-17
 14.0117273   1.089808472E-17
 14.1385202   1.089814014E-17
 14.2653122   1.089821541E-17
 14.3921051   1.089830723E-17
 14.518898   1.089841228E-17
 14.6456909   1.089852561E-17
 14.7724829   1.089864141E-17
 14.8992758   1.089875308E-17
 15.0260687   1.0898854E-17
 15.1528606   1.089893837E-17
 15.2796535   1.089899793E-17
 15.4064465   1.089902522E-17
 15.5332394   1.089901116E-17
 15.6600313   1.089895078E-17
 15.7868242   1.089883663E-17
 15.9136171   1.089866623E-17
 16.0404091   1.089843544E-17
 16.167202   1.08981451E-17
 16.2939949   1.089779603E-17
 16.4207878   1.08973874E-17
 16.5475807   1.089692087E-17
 16.6743736   1.089639975E-17
 16.8011646   1.089582569E-17
 16.9279575   1.089520448E-17
 17.0547504   1.089454025E-17
 17.1815434   1.08938388E-17
 17.3083363   1.089310675E-17
 17.4351292   1.089235236E-17
 17.5619221   1.089158142E-17
 17.688715   1.089080139E-17
 17.815506   1.08900164E-17
 17.9422989   1.088922975E-17
 18.0690918   1.088844558E-17
 18.1958847   1.088766721E-17
 18.3226776   1.08868971E-17
 18.4494705   1.088613692E-17
 18.5762634   1.088538832E-17
 18.7030544   1.088465213E-17
 18.8298473   1.088392669E-17
 18.9566402   1.088321201E-17
 19.0834332   1.088250477E-17
 19.2102261   1.088180415E-17
 19.337019   1.088110684E-17
 19.4638119   1.0880412E-17
 19.5906048   1.087971883E-17
 19.7173958   1.087902896E-17
 19.8441887   1.087834323E-17
 19.9709816   1.087766328E-17
 20.0977745   1.087698913E-17
 20.2245674   1.08763216E-17
 20.3513603   1.087566068E-17
 20.4781532   1.087500803E-17
 20.6049442   1.087436366E-17
 20.7317371   1.087372838E-17
 20.85853   1.087310386E-17
 20.985323   1.08724901E-17
 21.1121159   1.087188874E-17
 21.2389088   1.087130144E-17
 21.3657017   1.087072655E-17
 21.4924946   1.087016406E-17
 21.6192856   1.086961316E-17
 21.7460785   1.08690697E-17
 21.8728714   1.086853369E-17
 21.9996643   1.086800347E-17
 22.1264572   1.086747821E-17
 22.2532501   1.086695791E-17
 22.380043   1.08664401E-17
 22.506834   1.086592311E-17
 22.6336269   1.086540364E-17
 22.7604198   1.086487673E-17
 22.8872128   1.086434071E-17
 23.0140057   1.086378981E-17
 23.1407986   1.086322319E-17
 23.2675915   1.08626392E-17
 23.3943844   1.086203784E-17
 23.5211754   1.086141911E-17
 23.6479683   1.086078301E-17
 23.7747612   1.086012623E-17
 23.9015541   1.085944877E-17
 24.028347   1.085874897E-17
 24.1551399   1.085802436E-17
 24.2819328   1.085727328E-17
 24.4087238   1.085649904E-17
 24.5355167   1.085570329E-17
 24.6623096   1.085488852E-17
 24.7891026   1.085405638E-17
 24.9158955   1.0853211E-17
 25.0426884   1.085235073E-17
 25.1694813   1.085147888E-17
 25.2962742   1.085059545E-17
 25.4230652   1.08497021E-17
 25.5498581   1.084880378E-17
 25.676651   1.08479005E-17
 25.8034439   1.08469997E-17
 25.9302368   1.084610055E-17
 26.0570297   1.084520554E-17
 26.1838226   1.08443155E-17
 26.3106136   1.084342959E-17
 26.4374065   1.084254698E-17
 26.5641994   1.084166852E-17
 26.6909924   1.084079667E-17
 26.8177853   1.083993309E-17
 26.9445782   1.083908027E-17
 27.0713711   1.08382382E-17
 27.198164   1.083740606E-17
 27.324955   1.083658136E-17
 27.4517479   1.083576328E-17
 27.5785408   1.083494685E-17
 27.7053337   1.083413042E-17
 27.8321266   1.083331399E-17
 27.9589195   1.083249839E-17
 28.0857124   1.083168362E-17
 28.2125034   1.083087133E-17
 28.3392963   1.083006152E-17
 28.4660892   1.082925254E-17
 28.5928822   1.082844273E-17
 28.7196751   1.08276354E-17
 28.846468   1.082682807E-17
 28.9732609   1.082602736E-17
 29.1000538   1.08252374E-17
 29.2268448   1.082446233E-17
 29.3536377   1.082370877E-17
 29.4804306   1.082298003E-17
 29.6072235   1.08222761E-17
 29.7340164   1.082159533E-17
 29.8608093   1.082093937E-17
 29.9876022   1.082030575E-17
 30.1143932   1.081969281E-17
 30.2411861   1.081910138E-17
 30.367979   1.08185331E-17
 30.494772   1.081798634E-17
 30.6215649   1.081746025E-17
 30.7483578   1.081695153E-17
 30.8751507   1.081645192E-17
 31.0019417   1.081595644E-17
 31.1287346   1.08154593E-17
 31.2555275   1.081495555E-17
 31.3823204   1.081444518E-17
 31.5091133   1.081392654E-17
 31.6359062   1.081340045E-17
 31.7626991   1.081286609E-17
 31.889492   1.08123218E-17
 32.0162849   1.081176263E-17
 32.1430779   1.081118443E-17
 32.2698708   1.081058224E-17
 32.3966637   1.080995359E-17
 32.5234528   1.080930011E-17
 32.6502457   1.080862348E-17
 32.7770386   1.080792782E-17
 32.9038315   1.080721562E-17
 33.0306244   1.080648853E-17
 33.1574173   1.080574489E-17
 33.2842102   1.080498389E-17
 33.4110031   1.080420468E-17
 33.537796   1.080340976E-17
 33.6645889   1.080260161E-17
 33.7913818   1.080178683E-17
 33.9181747   1.080096958E-17
 34.0449677   1.080015398E-17
 34.1717606   1.079934417E-17
 34.2985535   1.079854098E-17
 34.4253426   1.079774357E-17
 34.5521355   1.079695362E-17
 34.6789284   1.079617359E-17
 34.8057213   1.079540679E-17
 34.9325142   1.079465736E-17
 35.0593071   1.079393027E-17
 35.1861   1.079323048E-17
 35.3128929   1.079255798E-17
 35.4396858   1.079191195E-17
 35.5664787   1.079128826E-17
 35.6932716   1.079068193E-17
 35.8200645   1.079008802E-17
 35.9468575   1.07895032E-17
 36.0736504   1.0788925E-17
 36.2004433   1.078835094E-17
 36.3272324   1.078777936E-17
 36.4540253   1.078720695E-17
 36.5808182   1.07866304E-17
 36.7076111   1.078604476E-17
 36.834404   1.078544588E-17
 36.9611969   1.078482963E-17
 37.0879898   1.078419518E-17
 37.2147827   1.078354502E-17
 37.3415756   1.078288162E-17
 37.4683685   1.078220912E-17
 37.5951614   1.078153001E-17
 37.7219543   1.078084593E-17
 37.8487473   1.078015606E-17
 37.9755402   1.077945957E-17
 38.1023293   1.077875895E-17
 38.2291222   1.077805171E-17
 38.3559151   1.077734116E-17
 38.482708   1.077662979E-17
 38.6095009   1.077591924E-17
 38.7362938   1.0775212E-17
 38.8630867   1.077450807E-17
 38.9898796   1.077380662E-17
 39.1166725   1.077310765E-17
 39.2434654   1.077240703E-17
 39.3702583   1.077170558E-17
 39.4970512   1.077100331E-17
 39.6238441   1.07703002E-17
 39.7506371   1.076959875E-17
 39.87743   1.076890144E-17
 40.0042191   1.076820909E-17
 40.131012   1.076752336E-17
 40.2578049   1.076684341E-17
 40.3845978   1.076617092E-17
 40.5113907   1.076550504E-17
 40.6381836   1.076484577E-17
 40.7649765   1.076419478E-17
 40.8917694   1.076355206E-17
 41.0185623   1.076291762E-17
 41.1453552   1.076228979E-17
 41.2721481   1.07616694E-17
 41.398941   1.07610548E-17
 41.5257339   1.076044269E-17
 41.6525269   1.07598314E-17
 41.7793198   1.075921929E-17
 41.9061089   1.075860635E-17
 42.0329018   1.075799424E-17
 42.1596947   1.075738295E-17
 42.2864876   1.07567758E-17
 42.4132805   1.075617278E-17
 42.5400734   1.075557391E-17
 42.6668663   1.075497916E-17
 42.7936592   1.075438442E-17
 42.9204521   1.075378802E-17
 43.047245   1.075318666E-17
 43.1740379   1.075257786E-17
 43.3008308   1.075196078E-17
 43.4276237   1.075133378E-17
 43.5544167   1.075069437E-17
 43.6812096   1.075004172E-17
 43.8079987   1.074937336E-17
 43.9347916   1.074868763E-17
 44.0615845   1.074798204E-17
 44.1883774   1.074725578E-17
 44.3151703   1.074651049E-17
 44.4419632   1.074574617E-17
 44.5687561   1.074496862E-17
 44.695549   1.074418032E-17
 44.8223419   1.074338623E-17
 44.9491348   1.074259131E-17
 45.0759277   1.074179804E-17
 45.2027206   1.074101056E-17
 45.3295135   1.074023053E-17
 45.4563065   1.073946208E-17
 45.5830994   1.073870769E-17
 45.7098885   1.073796985E-17
 45.8366814   1.073725268E-17
 45.9634743   1.073655785E-17
 46.0902672   1.073588701E-17
 46.2170601   1.073524015E-17
 46.343853   1.07346148E-17
 46.4706459   1.073400848E-17
 46.5974388   1.073341705E-17
 46.7242317   1.073283719E-17
 46.8510246   1.073226478E-17
 46.9778175   1.073169734E-17
 47.1046104   1.073113155E-17
 47.2314034   1.073056327E-17
 47.3581963   1.072998838E-17
 47.4849892   1.072940191E-17
 47.6117783   1.072879972E-17
 47.7385712   1.072817851E-17
 47.8653641   1.072753579E-17
 47.992157   1.072687239E-17
 48.1189499   1.072619162E-17
 48.2457428   1.072549679E-17
 48.3725357   1.072479369E-17
 48.4993286   1.072408728E-17
 48.6261215   1.072338335E-17
 48.7529144   1.072268686E-17
 48.8797073   1.072200113E-17
 49.0065002   1.072133111E-17
 49.1332932   1.072067681E-17
 49.2600861   1.072004236E-17
 49.386879   1.071942694E-17
 49.5136681   1.071882806E-17
 49.640461   1.071824242E-17
 49.7672539   1.071766422E-17
 49.8940468   1.071708685E-17
 50.0208397   1.071650286E-17
 50.1476326   1.071590398E-17
 50.2744255   1.071528277E-17
 50.4012184   1.071463343E-17
 50.5280113   1.0713951E-17
 50.6548042   1.071323301E-17
 50.7815971   1.071247697E-17
 50.90839   1.071168288E-17
 51.035183   1.071084825E-17
 51.1619759   1.070997392E-17
 51.2887688   1.070906154E-17
 51.4155579   1.07081169E-17
 51.5423508   1.070714496E-17
 51.6691437   1.070615731E-17
 51.7959366   1.070516304E-17
 51.9227295   1.070417621E-17
 52.0495224   1.070321089E-17
 52.1763153   1.070228114E-17
 52.3031082   1.070139771E-17
 52.4299011   1.070057467E-17
 52.556694   1.069981945E-17
 52.6834869   1.069914034E-17
 52.8102798   1.069854311E-17
 52.9370728   1.069802861E-17
 53.0638657   1.069759434E-17
 53.1906586   1.069723534E-17
 53.3174477   1.069693838E-17
 53.4442406   1.06966894E-17
 53.5710335   1.069646441E-17
 53.6978264   1.069623941E-17
 53.8246193   1.06959863E-17
 53.9514122   1.069567693E-17
 54.0782051   1.069528071E-17
 54.204998   1.069477117E-17
 54.3317909   1.069412266E-17
 54.4585838   1.069330954E-17
 54.5853767   1.069231361E-17
 54.7121696   1.069112165E-17
 54.8389626   1.068972785E-17
 54.9657555   1.068813966E-17
 55.0925484   1.068637694E-17
 55.2193375   1.06844736E-17
 55.3461304   1.068247678E-17
 55.4729233   1.068044771E-17
 55.5997162   1.067845999E-17
 55.7265091   1.067659553E-17
 55.853302   1.06749453E-17
 55.9800949   1.067360113E-17
 56.1068878   1.067265732E-17
 56.2336807   1.067220403E-17
 56.3604736   1.067232149E-17
 56.4872665   1.067308001E-17
 56.6140594   1.067452758E-17
 56.7408524   1.067668652E-17
 56.8676453   1.067955022E-17
 56.9944382   1.068307235E-17
 57.1212273   1.068716607E-17
 57.2480202   1.069170067E-17
 57.3748131   1.069650328E-17
 57.501606   1.070135718E-17
 57.6283989   1.070601007E-17
 57.7551918   1.071017658E-17
 57.8819847   1.07135523E-17
 58.0087776   1.07158163E-17
 58.1355705   1.071665506E-17
 58.2623634   1.071576915E-17
 58.3891563   1.071289966E-17
 58.5159492   1.07078431E-17
 58.6427422   1.070047541E-17
 58.7695351   1.069077092E-17
 58.896328   1.067881899E-17
 59.0231171   1.066484046E-17
 59.14991   1.064919434E-17
 59.2767029   1.063238438E-17
 59.4034958   1.061505246E-17
 59.5302887   1.059797449E-17
 59.6570816   1.058203638E-17
 59.7838745   1.056821088E-17
 59.9106674   1.055752288E-17
 60.0374603   1.055100552E-17
 60.1642532   1.054964481E-17
 60.2910461   1.055432665E-17
 60.4178391   1.056576573E-17
 60.544632   1.058444844E-17
 60.6714249   1.06105708E-17
 60.7982178   1.064397566E-17
 60.9250069   1.068411212E-17
 61.0517998   1.073000079E-17
 61.1785927   1.078021562E-17
 61.3053856   1.083288386E-17
 61.4321785   1.088571671E-17
 61.5589714   1.093605727E-17
 61.6857643   1.098095912E-17
 61.8125572   1.101729468E-17
 61.9393501   1.104188759E-17
 62.066143   1.105167065E-17
 62.1929359   1.10438571E-17
 62.3197289   1.101613414E-17
 62.4465218   1.096684411E-17
 62.5733147   1.089517304E-17
 62.7001076   1.080132361E-17
 62.8268967   1.068664991E-17
 62.9536896   1.055376334E-17
 63.0804825   1.040659054E-17
 63.2072754   1.025036508E-17
 63.3340683   1.009156046E-17
 63.4608612   9.937741262E-18
 63.5876541   9.797338106E-18
 63.714447   9.679344928E-18
 63.8412399   9.592945913E-18
 63.9680328   9.547067167E-18
 64.0948257   9.549894471E-18
 64.2216187   9.60834388E-18
 64.3484116   9.72753647E-18
 64.4752045   9.91027473E-18
 64.6019974   1.01565752E-17
 64.7287903   1.046326565E-17
 64.8555832   1.082369554E-17
 64.9823761   1.122757723E-17
 65.109169   1.166099092E-17
 65.2359619   1.210657657E-17
 65.3627548   1.254392764E-17
 65.4895477   1.295019409E-17
 65.616333   1.330089385E-17
 65.7431259   1.357091621E-17
 65.8699188   1.373569886E-17
 65.9967117   1.377253156E-17
 66.1235046   1.366194495E-17
 66.2502975   1.338912424E-17
 66.3770905   1.294527898E-17
 66.5038834   1.232889542E-17
 66.6306763   1.154678622E-17
 66.7574692   1.061486966E-17
 66.8842621   9.558588139E-18
 67.011055   8.412911558E-18
 67.1378479   7.221858329E-18
 67.2646408   6.037505678E-18
 67.3914337   4.918461417E-18
 67.5182266   3.927822057E-18
 67.6450195   3.130638943E-18
 67.7718124   2.590962943E-18
 67.8986053   2.368566544E-18
 68.0253983   2.515455416E-18
 68.1521912   3.072328086E-18
 68.2789841   4.06514562E-18
 68.405777   5.501998048E-18
 68.5325699   7.370463808E-18
 68.6593628   9.635647457E-18
 68.7861557   1.223908677E-17
 68.9129486   1.509867992E-17
 69.0397415   1.81097679E-17
 69.1665344   2.114744642E-17
 69.2933273   2.407016008E-17
 69.4201126   2.672452972E-17
 69.5469055   2.89513446E-17
 69.6736984   3.059254042E-17
 69.8004913   3.149895501E-17
 69.9272842   3.15385538E-17
 70.0540771   3.060482571E-17
 70.1808701   2.862485641E-17
 70.307663   2.556676638E-17
 70.4344559   2.144600734E-17
 70.5612488   1.633007392E-17
 70.6880417   1.034127636E-17
 70.8148346   3.657157808E-18
 70.9416275   -3.491673709E-18
 71.0684204   -1.082651457E-17
 71.1952133   -1.802837994E-17
 71.3220062   -2.474861858E-17
 71.4487991   -3.062209062E-17
 71.575592   -3.528259163E-17
 71.7023849   -3.83799595E-17
 71.8291779   -3.959831052E-17
 71.9559708   -3.867453506E-17
 72.0827637   -3.541629379E-17
 72.2095566   -2.971852153E-17
 72.3363495   -2.157755553E-17
 72.4631424   -1.110190202E-17
 72.5899353   1.481150535E-18
 72.7167282   1.582388075E-17
 72.8435211   3.146196349E-17
 72.970314   4.782417172E-17
 73.0971069   6.424809094E-17
 73.2238922   8.000167953E-17
 73.3506851   9.431018359E-17
 73.477478   1.063876955E-16
 73.6042709   1.154723092E-16
 73.7310638   1.208635283E-16
 73.8578568   1.219603565E-16
 73.9846497   1.182983684E-16
 74.1114426   1.095838288E-16
 74.2382355   9.572310072E-17
 74.3650284   7.684537669E-17
 74.4918213   5.331723664E-17
 74.6186142   2.574731344E-17
 74.7454071   -5.019778221E-18
 74.8722   -3.792097022E-17
 74.9989929   -7.170405214E-17
 75.1257858   -1.049682536E-16
 75.2525787   -1.362152461E-16
 75.3793716   -1.639090148E-16
 75.5061646   -1.865426218E-16
 75.6329575   -2.027090662E-16
 75.7597504   -2.11173612E-16
 75.8865433   -2.109438411E-16
 76.0133362   -2.013343714E-16
 76.1401291   -1.820223643E-16
 76.266922   -1.530907497E-16
 76.3937149   -1.150559925E-16
 76.5205078   -6.887782083E-17
 76.6473007   -1.594924989E-17
 76.7740936   4.193455643E-17
 76.9008865   1.026283648E-16
 77.0276718   1.637093135E-16
 77.1544647   2.225675419E-16
 77.2812576   2.765124233E-16
 77.4080505   3.228901771E-16
 77.5348434   3.592082235E-16
 77.6616364   3.832609681E-16
 77.7884293   3.932508218E-16
 77.9152222   3.878983941E-16
 78.0420151   3.665360114E-16
 78.168808   3.291785762E-16
 78.2956009   2.76566554E-16
 78.4223938   2.101775278E-16
 78.5491867   1.322030495E-16
 78.6759796   4.548987796E-17
 78.8027725   -4.655457852E-17
 78.9295654   -1.40090038E-16
 79.0563583   -2.310006019E-16
 79.1831512   -3.150756629E-16
 79.3099442   -3.882075611E-16
 79.4367371   -4.465968509E-16
 79.56353   -4.86956065E-16
 79.6903229   -5.067011971E-16
 79.8171158   -5.0412087E-16
 79.9439087   -4.785129465E-16
 80.0707016   -4.302794758E-16
 80.1974945   -3.609725667E-16
 80.3242874   -2.732841425E-16
 80.4510803   -1.70977915E-16
 80.5778732   -5.876126297E-17
 80.7046585   5.790004222E-17
 80.8314514   1.730192114E-16
 80.9582443   2.803696261E-16
 81.0850372   3.737985248E-16
 81.2118301   4.475600862E-16
 81.338623   4.966512041E-16
 81.465416   5.171343137E-16
 81.5922089   5.064286642E-16
 81.7190018   4.635525976E-16
 81.8457947   3.892997572E-16
 81.9725876   2.863370526E-16
 82.0993805   1.592103642E-16
 82.2261734   1.42516172E-17
 82.3529663   -1.406165087E-16
 82.4797592   -2.961764785E-16
 82.6065521   -4.423069466E-16
 82.733345   -5.684553517E-16
 82.8601379   -6.641763216E-16
 82.9869308   -7.197126721E-16
 83.1137238   -7.265951854E-16
 83.2405167   -6.782304511E-16
 83.3673096   -5.704466732E-16
 83.4941025   -4.019675319E-16
 83.6208954   -1.7478149E-16
 83.7476883   1.056199462E-16
 83.8744812   4.301581384E-16
 84.0012741   7.862562686E-16
 84.128067   1.158112679E-15
 84.2548599   1.527162817E-15
 84.3816528   1.872722084E-15
 84.5084381   2.17279727E-15
 84.635231   2.405041422E-15
 84.7620239   2.547819625E-15
 84.8888168   2.581346671E-15
 85.0156097   2.48884792E-15
 85.1424026   2.257688817E-15
 85.2691956   1.880422884E-15
 85.3959885   1.35569529E-15
 85.5227814   6.889538353E-16
 85.6495743   -1.070885491E-16
 85.7763672   -1.012275311E-15
 85.9031601   -1.999152551E-15
 86.029953   -3.033457918E-15
 86.1567459   -4.074958619E-15
 86.2835388   -5.078635486E-15
 86.4103317   -5.996189432E-15
 86.5371246   -6.777825083E-15
 86.6639175   -7.374268839E-15
 86.7907104   -7.738942781E-15
 86.9175034   -7.830213969E-15
 87.0442963   -7.61364035E-15
 87.1710892   -7.06410062E-15
 87.2978821   -6.167722498E-15
 87.424675   -4.923502249E-15
 87.5514679   -3.344527803E-15
 87.6782608   -1.458719696E-15
 87.8050537   6.909708325E-16
 87.9318466   3.046970847E-15
 88.0586395   5.538114861E-15
 88.1854324   8.081311804E-15
 88.3122177   1.05838266E-14
 88.4390106   1.294612187E-14
 88.5658035   1.506520094E-14
 88.6925964   1.683834414E-14
 88.8193893   1.816712538E-14
 88.9461823   1.896155081E-14
 89.0729752   1.914420669E-14
 89.1997681   1.86542066E-14
 89.326561   1.745080317E-14
 89.4533539   1.551648485E-14
 89.5801468   1.285941704E-14
 89.7069397   9.515061604E-15
 89.8337326   5.546900711E-15
 89.9605255   1.0461399E-15
 90.0873184   -3.869642491E-15
 90.2141113   -9.058932668E-15
 90.3409042   -1.435975803E-14
 90.4676971   -1.959417939E-14
 90.5944901   -2.457365739E-14
 90.721283   -2.910515321E-14
 90.8480759   -3.29978117E-14
 90.9748688   -3.606998665E-14
 91.1016617   -3.815636771E-14
 91.2284546   -3.911499895E-14
 91.3552475   -3.883384499E-14
 91.4820404   -3.723675082E-14
 91.6088333   -3.428839176E-14
 91.7356262   -2.999814617E-14
 91.8624191   -2.442255348E-14
 91.989212   -1.766622906E-14
 92.1159973   -9.881161102E-15
 92.2427902   -1.264238814E-15
 92.3695831   7.946941038E-15
 92.496376   1.747995805E-14
 92.6231689   2.703504196E-14
 92.7499619   3.629393539E-14
 92.8767548   4.492993095E-14
 93.0035477   5.261877427E-14
 93.1303406   5.905010909E-14
 93.2571335   6.393907485E-14
 93.3839264   6.703765689E-14
 93.5107193   6.814537948E-14
 93.6375122   6.711891107E-14
 93.7643051   6.388019589E-14
 93.891098   5.842272196E-14
 94.0178909   5.081562409E-14
 94.1446838   4.120528314E-14
 94.2714767   2.981432308E-14
 94.3982697   1.693781461E-14
 94.5250626   2.936668522E-15
 94.6518555   -1.177165733E-14
 94.7786484   -2.672498216E-14
 94.9054413   -4.143049564E-14
 95.0322342   -5.538070816E-14
 95.1590271   -6.807082702E-14
 95.28582   -7.901696604E-14
 95.4126129   -8.777460231E-14
 95.5394058   -9.39565808E-14
 95.6661987   -9.725006851E-14
 95.7929916   -9.743165205E-14
 95.9197769   -9.437996852E-14
 96.0465698   -8.808527367E-14
 96.1733627   -7.865535751E-14
 96.3001556   -6.631741461E-14
 96.4269485   -5.141548605E-14
 96.5537415   -3.440339851E-14
 96.6805344   -1.583307019E-14
 96.8073273   3.661539625E-15
 96.9341202   2.338454849E-14
 97.0609131   4.260182024E-14
 97.187706   6.056749747E-14
 97.3144989   7.655249319E-14
 97.4412918   8.98740514E-14
 97.5680847   9.992520862E-14
 97.6948776   1.062029764E-13
 97.8216705   1.083341858E-13
 97.9484634   1.060976326E-13
 98.0752563   9.944154603E-14
 98.2020493   8.849528505E-14
 98.3288422   7.35744812E-14
 98.4556351   5.517891103E-14
 98.582428   3.398275517E-14
 98.7092209   1.081715368E-14
 98.8360138   -1.335498383E-14
 98.9628067   -3.747108757E-14
 99.0895996   -6.040738114E-14
 99.2163925   -8.102244868E-14
 99.3431854   -9.820451201E-14
 99.4699783   -1.109207805E-13
 99.5967712   -1.182669143E-13
 99.7235565   -1.195146819E-13
 99.8503494   -1.141556467E-13
 99.9771423   -1.019388296E-13
 100.103935   -8.290043592E-14
 100.230728   -5.738371068E-14
 100.357521   -2.604761838E-14
 100.484314   1.013697776E-14
 100.611107   4.990443687E-14
 100.7379   9.17247574E-14
 100.864693   1.338472925E-13
 100.991486   1.743567313E-13
 101.118279   2.112399746E-13
 101.245071   2.424621105E-13
 101.371864   2.660488203E-13
 101.498657   2.801725594E-13
 101.62545   2.832389E-13
 101.752243   2.739702183E-13
 101.879036   2.514825642E-13
 102.005829   2.153523806E-13
 102.132622   1.656698053E-13
 102.259415   1.030751073E-13
 102.386208   2.877649426E-14
 102.513   -5.545366819E-14
 102.639793   -1.473047487E-13
 102.766586   -2.43976497E-13
 102.893379   -3.42250154E-13
 103.020172   -4.385804057E-13
 103.146965   -5.292062361E-13
 103.273758   -6.102769115E-13
 103.400551   -6.77989945E-13
 103.527336   -7.28735323E-13
 103.654129   -7.592419532E-13
 103.780922   -7.66720075E-13
 103.907715   -7.489939658E-13
 104.034508   -7.046199019E-13
 104.161301   -6.329834118E-13
 104.288094   -5.343712669E-13
 104.414886   -4.100147142E-13
 104.541679   -2.620999392E-13
 104.668472   -9.374485644E-14
 104.795265   9.105879299E-14
 104.922058   2.875384121E-13
 105.048851   4.902644588E-13
 105.175644   6.933038128E-13
 105.302437   8.903970768E-13
 105.42923   1.07515418E-12
 105.556023   1.241262301E-12
 105.682816   1.382696692E-12
 105.809608   1.493930413E-12
 105.936401   1.570130853E-12
 106.063194   1.607339045E-12
 106.189987   1.602621898E-12
 106.31678   1.554193623E-12
 106.443573   1.461498782E-12
 106.570366   1.325255877E-12
 106.697159   1.147456154E-12
 106.823952   9.313212094E-13
 106.950745   6.812169643E-13
 107.077538   4.025287319E-13
 107.20433   1.01502655E-13
 107.331116   -2.149407226E-13
 107.457909   -5.394145959E-13
 107.584702   -8.642856938E-13
 107.711494   -1.181897787E-12
 107.838287   -1.484790372E-12
 107.96508   -1.765901986E-12
 108.091873   -2.01875322E-12
 108.218666   -2.237598778E-12
 108.345459   -2.417546848E-12
 108.472252   -2.554637925E-12
 108.599045   -2.645885898E-12
 108.725838   -2.68927697E-12
 108.852631   -2.68373236E-12
 108.979424   -2.629036095E-12
 109.106216   -2.525738733E-12
 109.233009   -2.375036799E-12
 109.359802   -2.178649188E-12
 109.486595   -1.938685323E-12
 109.613388   -1.657527956E-12
 109.740181   -1.337732659E-12
 109.866974   -9.819543182E-13
 109.993767   -5.929092395E-13
 110.12056   -1.733765448E-13
 110.247353   2.737579857E-13
 110.374146   7.454162613E-13
 110.500938   1.238201599E-12
 110.627731   1.748240116E-12
 110.754524   2.270996542E-12
 110.881317   2.801076645E-12
 111.008102   3.332035385E-12
 111.134895   3.85619401E-12
 111.261688   4.364497479E-12
 111.388481   4.846419707E-12
 111.515274   5.289934289E-12
 111.642067   5.681568497E-12
 111.76886   6.006550292E-12
 111.895653   6.249057261E-12
 112.022446   6.392575271E-12
 112.149239   6.420361638E-12
 112.276031   6.316009781E-12
 112.402824   6.06410408E-12
 112.529617   5.650950194E-12
 112.65641   5.06535482E-12
 112.783203   4.299429736E-12
 112.909996   3.349388258E-12
 113.036789   2.216297458E-12
 113.163582   9.067542724E-13
 113.290375   -5.665637772E-13
 113.417168   -2.18449152E-12
 113.543961   -3.921162874E-12
 113.670753   -5.744015073E-12
 113.797546   -7.614036138E-12
 113.924339   -9.486269409E-12
 114.051132   -1.131058094E-11
 114.177925   -1.303270859E-11
 114.304718   -1.459553658E-11
 114.431511   -1.594063249E-11
 114.558304   -1.700995421E-11
 114.685097   -1.77477321E-11
 114.811882   -1.810244316E-11
 114.938675   -1.802881108E-11
 115.065468   -1.748980301E-11
 115.192261   -1.64585099E-11
 115.319054   -1.491985875E-11
 115.445847   -1.287207233E-11
 115.572639   -1.032783581E-11
 115.699432   -7.315060883E-12
 115.826225   -3.877244446E-12
 115.953018   -7.333138274E-14
 116.079811   4.022908309E-12
 116.206604   8.324002945E-12
 116.333397   1.273042782E-11
 116.46019   1.713273273E-11
 116.586983   2.141409966E-11
 116.713776   2.545331827E-11
 116.840569   2.912802638E-11
 116.967361   3.231822449E-11
 117.094154   3.49098736E-11
 117.220947   3.67985295E-11
 117.34774   3.789285899E-11
 117.474533   3.811795324E-11
 117.601326   3.741831844E-11
 117.728119   3.576038077E-11
 117.854912   3.313451943E-11
 117.981705   2.955641634E-11
 118.108498   2.506773261E-11
 118.235291   1.97360895E-11
 118.362083   1.365422359E-11
 118.488876   6.938421192E-12
 118.615662   -2.737902678E-13
 118.742455   -7.826637775E-12
 118.869247   -1.554971603E-11
 118.99604   -2.326209537E-11
 119.122833   -3.077688104E-11
 119.249626   -3.790599779E-11
 119.376419   -4.446516766E-11
 119.503212   -5.027884359E-11
 119.630005   -5.518497811E-11
 119.756798   -5.903950245E-11
 119.883591   -6.172037187E-11
 120.010384   -6.313102818E-11
 120.137177   -6.320320656E-11
 120.263969   -6.189900675E-11
 120.390762   -5.921205193E-11
 120.517555   -5.516797436E-11
 120.644348   -4.982384297E-11
 120.771141   -4.326691089E-11
 120.897934   -3.56124609E-11
 121.024727   -2.700104897E-11
 121.15152   -1.759504521E-11
 121.278313   -7.574688272E-12
 121.405106   2.866182552E-12
 121.531898   1.352473255E-11
 121.658691   2.419370086E-11
 121.785484   3.466602352E-11
 121.912277   4.473920887E-11
 122.03907   5.421944144E-11