  -4.50000000       0.00000000    
  -4.37500000       0.00000000    
  -4.25000000       0.00000000    
  -4.12500000       0.00000000    
  -4.00000000       0.00000000    
  -3.87500000       0.00000000    
  -3.75000000       0.00000000    
  -3.62500000       0.00000000    
  -3.50000000       0.00000000    
  -3.37500000       0.00000000    
  -3.25000000       0.00000000    
  -3.12500000       0.00000000    
  -3.00000000       0.00000000    
  -2.87500000       0.00000000    
  -2.75000000       0.00000000    
  -2.62500000       0.00000000    
  -2.50000000       0.00000000    
  -2.37500000       0.00000000    
  -2.25000000       0.00000000    
  -2.12500000       0.00000000    
  -2.00000000       0.00000000    
  -1.87500000       0.00000000    
  -1.75000000       0.00000000    
  -1.62500000       0.00000000    
  -1.50000000       0.00000000    
  -1.37500000       0.00000000    
  -1.25000000       0.00000000    
  -1.12500000       0.00000000    
  -1.00000000       0.00000000    
 -0.875000000       0.00000000    
 -0.750000000       0.00000000    
 -0.625000000       0.00000000    
 -0.500000000       0.00000000    
 -0.375000000       0.00000000    
 -0.250000000       0.00000000    
 -0.125000000       0.00000000    
   0.00000000       0.00000000    
  0.125000000       0.00000000    
  0.250000000       0.00000000    
  0.375000000       0.00000000    
  0.500000000       0.00000000    
  0.625000000       0.00000000    
  0.750000000       0.00000000    
  0.875000000       0.00000000    
   1.00000000       0.00000000    
   1.12500000       0.00000000    
   1.25000000       0.00000000    
   1.37500000       0.00000000    
   1.50000000       0.00000000    
   1.62500000       0.00000000    
   1.75000000       0.00000000    
   1.87500000       0.00000000    
   2.00000000       0.00000000    
   2.12500000       0.00000000    
   2.25000000       0.00000000    
   2.37500000       0.00000000    
   2.50000000       0.00000000    
   2.62500000       0.00000000    
   2.75000000       0.00000000    
   2.87500000       0.00000000    
   3.00000000       0.00000000    
   3.12500000       0.00000000    
   3.25000000       0.00000000    
   3.37500000       0.00000000    
   3.50000000       0.00000000    
   3.62500000       0.00000000    
   3.75000000       0.00000000    
   3.87500000       0.00000000    
   4.00000000       0.00000000    
   4.12500000       0.00000000    
   4.25000000       0.00000000    
   4.37500000       0.00000000    
   4.50000000       0.00000000    
   4.62500000       0.00000000    
   4.75000000       0.00000000    
   4.87500000       0.00000000    
   5.00000000       0.00000000    
   5.12500000       0.00000000    
   5.25000000       0.00000000    
   5.37500000       0.00000000    
   5.50000000       0.00000000    
   5.62500000       0.00000000    
   5.75000000       0.00000000    
   5.87500000       0.00000000    
   6.00000000       0.00000000    
   6.12500000       0.00000000    
   6.25000000       0.00000000    
   6.37500000       0.00000000    
   6.50000000       0.00000000    
   6.62500000       0.00000000    
   6.75000000       0.00000000    
   6.87500000       0.00000000    
   7.00000000       0.00000000    
   7.12500000       0.00000000    
   7.25000000       0.00000000    
   7.37500000       0.00000000    
   7.50000000       0.00000000    
   7.62500000       0.00000000    
   7.75000000       0.00000000    
   7.87500000       0.00000000    
   8.00000000       0.00000000    
   8.12500000       0.00000000    
   8.25000000       0.00000000    
   8.37500000       0.00000000    
   8.50000000       0.00000000    
   8.62500000       0.00000000    
   8.75000000       0.00000000    
   8.87500000       0.00000000    
   9.00000000       0.00000000    
   9.12500000       0.00000000    
   9.25000000       0.00000000    
   9.37500000       0.00000000    
   9.50000000       0.00000000    
   9.62500000       0.00000000    
   9.75000000       0.00000000    
   9.87500000       0.00000000    
   10.0000000       0.00000000    
   10.1250000       0.00000000    
   10.2500000       0.00000000    
   10.3750000       0.00000000    
   10.5000000       0.00000000    
   10.6250000       0.00000000    
   10.7500000       0.00000000    
   10.8750000       0.00000000    
   11.0000000       0.00000000    
   11.1250000       0.00000000    
   11.2500000       0.00000000    
   11.3750000       0.00000000    
   11.5000000       0.00000000    
   11.6250000       0.00000000    
   11.7500000       0.00000000    
   11.8750000       0.00000000    
   12.0000000       0.00000000    
   12.1250000       0.00000000    
   12.2500000       0.00000000    
   12.3750000       0.00000000    
   12.5000000       0.00000000    
   12.6250000       0.00000000    
   12.7500000       0.00000000    
   12.8750000       0.00000000    
   13.0000000       0.00000000    
   13.1250000       0.00000000    
   13.2500000       0.00000000    
   13.3750000       0.00000000    
   13.5000000       0.00000000    
   13.6250000       0.00000000    
   13.7500000       0.00000000    
   13.8750000       0.00000000    
   14.0000000       0.00000000    
   14.1250000       0.00000000    
   14.2500000       0.00000000    
   14.3750000       0.00000000    
   14.5000000       0.00000000    
   14.6250000       0.00000000    
   14.7500000       0.00000000    
   14.8750000       0.00000000    
   15.0000000       0.00000000    
   15.1250000       0.00000000    
   15.2500000       0.00000000    
   15.3750000       0.00000000    
   15.5000000       0.00000000    
   15.6250000       0.00000000    
   15.7500000       0.00000000    
   15.8750000       0.00000000    
   16.0000000       0.00000000    
   16.1250000       0.00000000    
   16.2500000       0.00000000    
   16.3750000       0.00000000    
   16.5000000       0.00000000    
   16.6250000       3.49764097E-41
   16.7500000       1.04930630E-40
   16.8750000       1.44487885E-40
   17.0000000      -1.17540915E-41
   17.1250000      -2.35269604E-40
   17.2500000      -2.57242525E-39
   17.3750000      -4.90850610E-39
   17.5000000      -4.77329200E-39
   17.6250000      -4.41068501E-39
   17.7500000      -8.19848724E-39
   17.8750000      -1.51621082E-38
   18.0000000      -1.48362643E-38
   18.1250000      -1.01576636E-38
   18.2500000      -9.11013699E-39
   18.3750000      -1.11386959E-38
   18.5000000      -1.90655232E-38
   18.6250000      -2.25164799E-38
   18.7500000      -1.92907931E-38
   18.8750000       2.27131606E-38
   19.0000000       7.49952629E-38
   19.1250000       1.31562095E-37
   19.2500000       1.68101367E-37
   19.3750000       1.98507044E-37
   19.5000000       2.20948200E-37
   19.6250000      -2.47960324E-37
   19.7500000      -7.11402102E-37
   19.8750000      -7.08963170E-37
   20.0000000      -7.48718164E-37
   20.1250000      -7.97862217E-37
   20.2500000      -7.60315041E-37
   20.3750000      -7.36789684E-37
   20.5000000      -6.85718745E-37
   20.6250000      -6.34656146E-37
   20.7500000       2.34424453E-37
   20.8750000       1.60410693E-36
   21.0000000       3.66916564E-36
   21.1250000       6.28771742E-36
   21.2500000       8.24458619E-36
   21.3750000       8.68138667E-36
   21.5000000       6.86405977E-36
   21.6250000       4.05939367E-36
   21.7500000       6.16402272E-37
   21.8750000      -3.30640287E-36
   22.0000000      -6.65522227E-36
   22.1250000      -1.02211063E-35
   22.2500000      -1.43639641E-35
   22.3750000      -2.02327359E-35
   22.5000000      -2.61910329E-35
   22.6250000      -3.08559404E-35
   22.7500000      -3.37016985E-35
   22.8750000      -3.49989008E-35
   23.0000000      -3.38346993E-35
   23.1250000      -3.07310039E-35
   23.2500000      -2.30160187E-35
   23.3750000      -1.15227626E-35
   23.5000000       5.10599117E-36
   23.6250000       2.48711761E-35
   23.7500000       4.80264690E-35
   23.8750000       7.64480513E-35
   24.0000000       1.09889092E-34
   24.1250000       1.49450997E-34
   24.2500000       1.93760224E-34
   24.3750000       2.39319170E-34
   24.5000000       2.79615576E-34
   24.6250000       3.09921496E-34
   24.7500000       3.25978680E-34
   24.8750000       3.22368856E-34
   25.0000000       2.92794934E-34
   25.1250000       2.26788148E-34
   25.2500000       1.15570334E-34
   25.3750000      -4.93849972E-35
   25.5000000      -2.73768984E-34
   25.6250000      -5.60697673E-34
   25.7500000      -9.09239738E-34
   25.8750000      -1.30891131E-33
   26.0000000      -1.74187637E-33
   26.1250000      -2.18085665E-33
   26.2500000      -2.58635702E-33
   26.3750000      -2.90916448E-33
   26.5000000      -3.08840606E-33
   26.6250000      -3.05399328E-33
   26.7500000      -2.72721357E-33
   26.8750000      -2.02431717E-33
   27.0000000      -8.64547351E-34
   27.1250000       8.25127790E-34
   27.2500000       3.09089848E-33
   27.3750000       5.93934904E-33
   27.5000000       9.32036834E-33
   27.6250000       1.31143939E-32
   27.7500000       1.71105604E-32
   27.8750000       2.09980525E-32
   28.0000000       2.43524461E-32
   28.1250000       2.66325936E-32
   28.2500000       2.71844912E-32
   28.3750000       2.52631574E-32
   28.5000000       2.00657224E-32
   28.6250000       1.07849968E-32
   28.7500000      -3.30896811E-33
   28.8750000      -2.27672802E-32
   29.0000000      -4.78344857E-32
   29.1250000      -7.83046217E-32
   29.2500000      -1.13367003E-31
   29.3750000      -1.51442793E-31
   29.5000000      -1.90039750E-31
   29.6250000      -2.25631321E-31
   29.7500000      -2.53588856E-31
   29.8750000      -2.68189224E-31
   30.0000000      -2.62735518E-31
   30.1250000      -2.29799295E-31
   30.2500000      -1.61640089E-31
   30.3750000      -5.08070640E-32
   30.5000000       1.09064023E-31
   30.6250000       3.22249645E-31
   30.7500000       5.89757130E-31
   30.8750000       9.08000267E-31
   31.0000000       1.26740419E-30
   31.1250000       1.65104238E-30
   31.2500000       2.03342975E-30
   31.3750000       2.37963390E-30
   31.5000000       2.64491909E-30
   31.6250000       2.77511402E-30
   31.7500000       2.70794966E-30
   31.8750000       2.37557986E-30
   32.0000000       1.70848681E-30
   32.1250000       6.40909754E-31
   32.2500000      -8.82145786E-31
   32.3750000      -2.89636128E-30
   32.5000000      -5.40824450E-30
   32.6250000      -8.38432160E-30
   32.7500000      -1.17400055E-29
   32.8750000      -1.53289338E-29
   33.0000000      -1.89338519E-29
   33.1250000      -2.22603256E-29
   33.2500000      -2.49346975E-29
   33.3750000      -2.65079370E-29
   33.5000000      -2.64669749E-29
   33.6250000      -2.42549902E-29
   33.7500000      -1.93020310E-29
   33.8750000      -1.10667388E-29
   34.0000000       9.10604598E-31
   34.1250000       1.69442760E-29
   34.2500000       3.71302923E-29
   34.3750000       6.12674727E-29
   34.5000000       8.87768362E-29
   34.6250000       1.18625007E-28
   34.7500000       1.49259029E-28
   34.8750000       1.78561367E-28
   35.0000000       2.03834575E-28
   35.1250000       2.21826131E-28
   35.2500000       2.28803751E-28
   35.3750000       2.20690748E-28
   35.5000000       1.93269550E-28
   35.6250000       1.42457944E-28
   35.7500000       6.46596854E-29
   35.8750000      -4.28158150E-29
   36.0000000      -1.81275111E-28
   36.1250000      -3.50121931E-28
   36.2500000      -5.46326140E-28
   36.3750000      -7.63914768E-28
   36.5000000      -9.93531695E-28
   36.6250000      -1.22211647E-27
   36.7500000      -1.43276043E-27
   36.8750000      -1.60480424E-27
   37.0000000      -1.71423461E-27
   37.1250000      -1.73443974E-27
   37.2500000      -1.63736921E-27
   37.3750000      -1.39512786E-27
   37.5000000      -9.82012130E-28
   37.6250000      -3.76966264E-28
   37.7500000       4.33598860E-28
   37.8750000       1.45272790E-27
   38.0000000       2.66972621E-27
   38.1250000       4.05704384E-27
   38.2500000       5.56748291E-27
   38.3750000       7.13200439E-27
   38.5000000       8.65845564E-27
   38.6250000       1.00315536E-26
   38.7500000       1.11144608E-26
   38.8750000       1.17522680E-26
   39.0000000       1.17776517E-26
   39.1250000       1.10188985E-26
   39.2500000       9.31035134E-27
   39.3750000       6.50524131E-27
   39.5000000       2.49060143E-27
   39.6250000      -2.79616389E-27
   39.7500000      -9.34974816E-27
   39.8750000      -1.70794010E-26
   40.0000000      -2.57925191E-26
   40.1250000      -3.51807866E-26
   40.2500000      -4.48103717E-26
   40.3750000      -5.41179350E-26
   40.5000000      -6.24141078E-26
   40.6250000      -6.88960854E-26
   40.7500000      -7.26708588E-26
   40.8750000      -7.27900939E-26
   41.0000000      -6.82973647E-26
   41.1250000      -5.82877120E-26
   41.2500000      -4.19785952E-26
   41.3750000      -1.87905682E-26
   41.5000000       1.15651931E-26
   41.6250000       4.89964744E-26
   41.7500000       9.29417738E-26
   41.8750000       1.42290342E-25
   42.0000000       1.95317510E-25
   42.1250000       2.49643243E-25
   42.2500000       3.02221635E-25
   42.3750000       3.49369707E-25
   42.5000000       3.86842671E-25
   42.6250000       4.09961916E-25
   42.7500000       4.13800193E-25
   42.8750000       3.93425493E-25
   43.0000000       3.44202372E-25
   43.1250000       2.62145554E-25
   43.2500000       1.44315286E-25
   43.3750000      -1.07589942E-26
   43.5000000      -2.02647162E-25
   43.6250000      -4.28603069E-25
   43.7500000      -6.83194417E-25
   43.8750000      -9.58009348E-25
   44.0000000      -1.24147695E-24
   44.1250000      -1.51883453E-24
   44.2500000      -1.77227956E-24
   44.3750000      -1.98133559E-24
   44.5000000      -2.12345953E-24
   44.6250000      -2.17490470E-24
   44.7500000      -2.11184809E-24
   44.8750000      -1.91176930E-24
   45.0000000      -1.55505665E-24
   45.1250000      -1.02679595E-24
   45.2500000      -3.18673946E-25
   45.3750000       5.69085983E-25
   45.5000000       1.62586619E-24
   45.6250000       2.82899464E-24
   45.7500000       4.14242300E-24
   45.8750000       5.51589215E-24
   46.0000000       6.88473149E-24
   46.1250000       8.17044381E-24
   46.2500000       9.28219653E-24
   46.3750000       1.01193389E-23
   46.5000000       1.05749960E-23
   46.6250000       1.05407799E-23
   46.7500000       9.91255871E-24
   46.8750000       8.59720415E-24
   47.0000000       6.52010814E-24
   47.1250000       3.63323458E-24
   47.2500000      -7.66667413E-26
   47.3750000      -4.58007948E-24
   47.5000000      -9.79749073E-24
   47.6250000      -1.55934403E-23
   47.7500000      -2.17724647E-23
   47.8750000      -2.80775223E-23
   48.0000000      -3.41914972E-23
   48.1250000      -3.97422760E-23
   48.2500000      -4.43119105E-23
   48.3750000      -4.74500876E-23
   48.5000000      -4.86920544E-23
   48.6250000      -4.75809280E-23
   48.7500000      -4.36940053E-23
   48.8750000      -3.66724143E-23
   49.0000000      -2.62532326E-23
   49.1250000      -1.23026802E-23
   49.2500000       5.15101164E-24
   49.3750000       2.58870985E-23
   49.5000000       4.94661005E-23
   49.6250000       7.52102259E-23
   49.7500000       1.02192721E-22
   49.8750000       1.29238375E-22
   50.0000000       1.54937406E-22
   50.1250000       1.77674447E-22
   50.2500000       1.95674019E-22
   50.3750000       2.07063101E-22
   50.5000000       2.09951039E-22
   50.6250000       2.02525358E-22
   50.7500000       1.83161802E-22
   50.8750000       1.50545395E-22
   51.0000000       1.03798135E-22
   51.1250000       4.26078826E-23
   51.2500000      -3.26480625E-23
   51.3750000      -1.20792262E-22
   51.5000000      -2.19757387E-22
   51.6250000      -3.26526114E-22
   51.7500000      -4.37109266E-22
   51.8750000      -5.46570243E-22
   52.0000000      -6.49103026E-22
   52.1250000      -7.38169940E-22
   52.2500000      -8.06702490E-22
   52.3750000      -8.47366364E-22
   52.5000000      -8.52889047E-22
   52.6250000      -8.16444077E-22
   52.7500000      -7.32082711E-22
   52.8750000      -5.95198456E-22
   53.0000000      -4.03007302E-22
   53.1250000      -1.55022060E-22
   53.2500000       1.46506427E-22
   53.3750000       4.96208302E-22
   53.5000000       8.85304490E-22
   53.6250000       1.30143884E-21
   53.7500000       1.72866289E-21
   53.8750000       2.14760099E-21
   54.0000000       2.53581930E-21
   54.1250000       2.86841558E-21
   54.2500000       3.11883987E-21
   54.3750000       3.25994283E-21
   54.5000000       3.26523933E-21
   54.6250000       3.11035925E-21
   54.7500000       2.77464670E-21
   54.8750000       2.24284974E-21
   55.0000000       1.50682985E-21
   55.1250000       5.67209570E-22
   55.2500000      -5.65136620E-22
   55.3750000      -1.86785420E-21
   55.5000000      -3.30624535E-21
   55.6250000      -4.83288230E-21
   55.7500000      -6.38779404E-21
   55.8750000      -7.89931878E-21
   56.0000000      -9.28568803E-21
   56.1250000      -1.04573861E-20
   56.2500000      -1.13203068E-20
   56.3750000      -1.17796594E-20
   56.5000000      -1.17445809E-20
   56.6250000      -1.11333179E-20
   56.7500000      -9.87882095E-21
   56.8750000      -7.93453373E-21
   57.0000000      -5.28011801E-21
   57.1250000      -1.92682636E-21
   57.2500000       2.07783347E-21
   57.3750000       6.64646812E-21
   57.5000000       1.16495634E-20
   57.6250000       1.69149937E-20
   57.7500000       2.22295742E-20
   57.8750000       2.73429204E-20
   58.0000000       3.19737780E-20
   58.1250000       3.58189335E-20
   58.2500000       3.85646497E-20
   58.3750000       3.99004463E-20
   58.5000000       3.95349681E-20
   58.6250000       3.72134082E-20
   58.7500000       3.27359054E-20
   58.8750000       2.59761143E-20
   59.0000000       1.68990899E-20
   59.1250000       5.57743572E-21
   59.2500000      -7.79535090E-21
   59.3750000      -2.28954094E-20
   59.5000000      -3.92640697E-20
   59.6250000      -5.63093832E-20
   59.7500000      -7.33144717E-20
   59.8750000      -8.94534246E-20
   60.0000000      -1.03814934E-19
   60.1250000      -1.15433908E-19
   60.2500000      -1.23330536E-19
   60.3750000      -1.26556049E-19
   60.5000000      -1.24243937E-19
   60.6250000      -1.15664820E-19
   60.7500000      -1.00283009E-19
   60.8750000      -7.78117687E-20
   61.0000000      -4.82648643E-20
   61.1250000      -1.20008623E-20
   61.2500000       3.02429026E-20
   61.3750000       7.73299554E-20
   61.5000000       1.27720965E-19
   61.6250000       1.79489301E-19
   61.7500000       2.30357884E-19
   61.8750000       2.77758745E-19
   62.0000000       3.18915582E-19
   62.1250000       3.50948487E-19
   62.2500000       3.70999190E-19
   62.3750000       3.76373124E-19
   62.5000000       3.64694135E-19
   62.6250000       3.34065783E-19
   62.7500000       2.83232303E-19
   62.8750000       2.11731160E-19
   63.0000000       1.20028418E-19
   63.1250000       9.62808264E-21
   63.2500000      -1.16853970E-19
   63.3750000      -2.55659866E-19
   63.5000000      -4.01911317E-19
   63.6250000      -5.49688504E-19
   63.7500000      -6.92171243E-19
   63.8750000      -8.21843126E-19
   64.0000000      -9.30758204E-19
   64.1250000      -1.01086517E-18
   64.2500000      -1.05438159E-18
   64.3750000      -1.05420571E-18
   64.5000000      -1.00435195E-18
   64.6250000      -9.00391060E-19
   64.7500000      -7.39875576E-19
   64.8750000      -5.22724639E-19
   65.0000000      -2.51547925E-19
   65.1250000       6.81182330E-20
   65.2500000       4.27684327E-19
   65.3750000       8.15511627E-19
   65.5000000       1.21706444E-18
   65.6250000       1.61522173E-18
   65.7500000       1.99075469E-18
   65.8750000       2.32296842E-18
   66.0000000       2.59049724E-18
   66.1250000       2.77223833E-18
   66.2500000       2.84838858E-18
   66.3750000       2.80156023E-18
   66.5000000       2.61791724E-18
   66.6250000       2.28829259E-18
   66.7500000       1.80922060E-18
   66.8750000       1.18383287E-18
   67.0000000       4.22546966E-19
   67.1250000      -4.56501541E-19
   67.2500000      -1.42734140E-18
   67.3750000      -2.45640858E-18
   67.5000000      -3.50317772E-18
   67.6250000      -4.52120462E-18
   67.7500000      -5.45957692E-18
   67.8750000      -6.26475742E-18
   68.0000000      -6.88277425E-18
   68.1250000      -7.26170279E-18
   68.2500000      -7.35434785E-18
   68.3750000      -7.12103246E-18
   68.5000000      -6.53236234E-18
   68.6250000      -5.57183980E-18
   68.7500000      -4.23818312E-18
   68.8750000      -2.54720426E-18
   69.0000000      -5.33110202E-19
   69.1250000       1.75090933E-18
   69.2500000       4.23291067E-18
   69.3750000       6.82332974E-18
   69.5000000       9.41707077E-18
   69.6250000       1.18965579E-17
   69.7500000       1.41357209E-17
   69.8750000       1.60048265E-17
   70.0000000       1.73760306E-17
   70.1250000       1.81294746E-17
   70.2500000       1.81596833E-17
   70.3750000       1.73820210E-17
   70.5000000       1.57389061E-17
   70.6250000       1.32054372E-17
   70.7500000       9.79416587E-18
   70.8750000       5.55863138E-18
   71.0000000       5.95417685E-19
   71.1250000      -4.95555509E-18
   71.2500000      -1.09126993E-17
   71.3750000      -1.70565089E-17
   71.5000000      -2.31354443E-17
   71.6250000      -2.88738940E-17
   71.7500000      -3.39820883E-17
   71.8750000      -3.81676454E-17
   72.0000000      -4.11484635E-17
   72.1250000      -4.26664591E-17
   72.2500000      -4.25015887E-17
   72.3750000      -4.04855676E-17
   72.5000000      -3.65146374E-17
   72.6250000      -3.05606476E-17
   72.7500000      -2.26798382E-17
   72.8750000      -1.30186416E-17
   73.0000000      -1.81601300E-18
   73.1250000       1.05982317E-17
   73.2500000       2.38092872E-17
   73.3750000       3.73276468E-17
   73.5000000       5.06036905E-17
   73.6250000       6.30463696E-17
   73.7500000       7.40454431E-17
   73.8750000       8.29966425E-17
   74.0000000       8.93288424E-17
   74.1250000       9.25321886E-17
   74.2500000       9.21860103E-17
   74.3750000       8.79851834E-17
   74.5000000       7.97636831E-17
   74.6250000       6.75138596E-17
   74.7500000       5.14004309E-17
   74.8750000       3.17678119E-17
   75.0000000       9.14014973E-18
   75.1250000      -1.57867519E-17
   75.2500000      -4.21618094E-17
   75.3750000      -6.90033405E-17
   75.5000000      -9.52315503E-17
   75.6250000      -1.19708030E-16
   75.7500000      -1.41280966E-16
   75.8750000      -1.58834573E-16
   76.0000000      -1.71340524E-16
   76.1250000      -1.77909689E-16
   76.2500000      -1.77841264E-16
   76.3750000      -1.70667239E-16
   76.5000000      -1.56189699E-16
   76.6250000      -1.34508501E-16
   76.7500000      -1.06037705E-16
   76.8750000      -7.15087978E-17
   77.0000000      -3.19597972E-17
   77.1250000       1.12902692E-17
   77.2500000       5.66815522E-17
   77.3750000       1.02467243E-16
   77.5000000       1.46779679E-16
   77.6250000       1.87706392E-16
   77.7500000       2.23373256E-16
   77.8750000       2.52031292E-16
   78.0000000       2.72143189E-16
   78.1250000       2.82465689E-16
   78.2500000       2.82123408E-16
   78.3750000       2.70669590E-16
   78.5000000       2.48130943E-16
   78.6250000       2.15032522E-16
   78.7500000       1.72399991E-16
   78.8750000       1.21738407E-16
   79.0000000       6.49862338E-17
   79.1250000       4.44523801E-18
   79.2500000      -5.73116256E-17
   79.3750000      -1.17551471E-16
   79.5000000      -1.73507844E-16
   79.6250000      -2.22516588E-16
   79.7500000      -2.62155480E-16
   79.8750000      -2.90380179E-16
   80.0000000      -3.05650066E-16
   80.1250000      -3.07036658E-16
   80.2500000      -2.94306839E-16
   80.3750000      -2.67976528E-16
   80.5000000      -2.29328056E-16
   80.6250000      -1.80388186E-16
   80.7500000      -1.23865426E-16
   80.8750000      -6.30453769E-17
   81.0000000      -1.64756035E-18
   81.1250000       5.63531615E-17
   81.2500000       1.06933324E-16
   81.3750000       1.46247716E-16
   81.5000000       1.70866252E-16
   81.6250000       1.78009162E-16
   81.7500000       1.65767564E-16
   81.8750000       1.33297601E-16
   82.0000000       8.09743248E-17
   82.1250000       1.04945397E-17
   82.2500000      -7.50819203E-17
   82.3750000      -1.71361237E-16
   82.5000000      -2.72719145E-16
   82.6250000      -3.72481124E-16
   82.7500000      -4.63178791E-16
   82.8750000      -5.36874999E-16
   83.0000000      -5.85549218E-16
   83.1250000      -6.01529712E-16
   83.2500000      -5.77954614E-16
   83.3750000      -5.09242561E-16
   83.5000000      -3.91549874E-16
   83.6250000      -2.23189979E-16
   83.7500000      -4.99194980E-18
   83.8750000       2.59427875E-16
   84.0000000       5.63501532E-16
   84.1250000       8.97672918E-16
   84.2500000       1.24950224E-15
   84.3750000       1.60392179E-15
   84.5000000       1.94364691E-15
   84.6250000       2.24973751E-15
   84.7500000       2.50230177E-15
   84.8750000       2.68131922E-15
   85.0000000       2.76756072E-15
   85.1250000       2.74357233E-15
   85.2500000       2.59468320E-15
   85.3750000       2.30999776E-15
   85.5000000       1.88331952E-15
   85.6250000       1.31396685E-15
   85.7500000       6.07424691E-16
   85.8750000      -2.24200860E-16
   86.0000000      -1.16197663E-15
   86.1250000      -2.18020733E-15
   86.2500000      -3.24680053E-15
   86.3750000      -4.32394226E-15
   86.5000000      -5.36908012E-15
   86.6250000      -6.33620455E-15
   86.7500000      -7.17739805E-15
   86.8750000      -7.84461607E-15
   87.0000000      -8.29163601E-15
   87.1250000      -8.47612402E-15
   87.2500000      -8.36172291E-15
   87.3750000      -7.92010280E-15
   87.5000000      -7.13286191E-15
   87.6250000      -5.99320237E-15
   87.7500000      -4.50729482E-15
   87.8750000      -2.69524465E-15
   88.0000000      -5.91588245E-16
   88.1250000       1.75473188E-15
   88.2500000       4.28096423E-15
   88.3750000       6.91172702E-15
   88.5000000       9.56078105E-15
   88.6250000       1.21333658E-14
   88.7500000       1.45290528E-14
   88.8750000       1.66450394E-14
   89.0000000       1.83798086E-14
   89.1250000       1.96370121E-14
   89.2500000       2.03294633E-14
   89.3750000       2.03831008E-14
   89.5000000       1.97407466E-14
   89.6250000       1.83655242E-14
   89.7500000       1.62437829E-14
   89.8750000       1.33873540E-14
   90.0000000       9.83505540E-15
   90.1250000       5.65330245E-15
   90.2500000       9.35746308E-16
   90.3750000      -4.19808502E-15
   90.5000000      -9.60519438E-15
   90.6250000      -1.51225366E-14
   90.7500000      -2.05713708E-14
   90.8750000      -2.57625020E-14
   91.0000000      -3.05022019E-14
   91.1250000      -3.45987040E-14
   91.2500000      -3.78690203E-14
   91.3750000      -4.01458923E-14
   91.5000000      -4.12846366E-14
   91.6250000      -4.11695790E-14
   91.7500000      -3.97199092E-14
   91.8750000      -3.68946105E-14
   92.0000000      -3.26963628E-14
   92.1250000      -2.71740824E-14
   92.2500000      -2.04240684E-14
   92.3750000      -1.25895168E-14
   92.5000000      -3.85840872E-15
   92.6250000       5.54027225E-15
   92.7500000       1.53419385E-14
   92.8750000       2.52533420E-14
   93.0000000       3.49608614E-14
   93.1250000       4.41399609E-14
   93.2500000       5.24654952E-14
   93.3750000       5.96226424E-14
   93.5000000       6.53179835E-14
   93.6250000       6.92905341E-14
   93.7500000       7.13221461E-14
   93.8750000       7.12470312E-14
   94.0000000       6.89600287E-14
   94.1250000       6.44231305E-14
   94.2500000       5.76701908E-14
   94.3750000       4.88092741E-14
   94.5000000       3.80227533E-14
   94.6250000       2.55647893E-14
   94.7500000       1.17562845E-14
   94.8750000      -3.02265147E-15
   95.0000000      -1.83426594E-14
   95.1250000      -3.37372240E-14
   95.2500000      -4.87165782E-14
   95.3750000      -6.27831188E-14
   95.5000000      -7.54477928E-14
   95.6250000      -8.62469886E-14
   95.7500000      -9.47593512E-14
   95.8750000      -1.00621910E-13
   96.0000000      -1.03545055E-13
   96.1250000      -1.03325599E-13
   96.2500000      -9.98575883E-14
   96.3750000      -9.31401562E-14
   96.5000000      -8.32822174E-14
   96.6250000      -7.05035328E-14
   96.7500000      -5.51319515E-14
   96.8750000      -3.75967906E-14
   97.0000000      -1.84183079E-14
   97.1250000       1.80647267E-15
   97.2500000       2.24213501E-14
   97.3750000       4.27314908E-14
   97.5000000       6.20263050E-14
   97.6250000       7.96040276E-14
   97.7500000       9.47972102E-14
   97.8750000       1.06998212E-13
   98.0000000       1.15683884E-13
   98.1250000       1.20438436E-13
   98.2500000       1.20973517E-13
   98.3750000       1.17144833E-13
   98.5000000       1.08964317E-13
   98.6250000       9.66071773E-14
   98.7500000       8.04134184E-14
   98.8750000       6.08833120E-14
   99.0000000       3.86667999E-14
   99.1250000       1.45466525E-14
   99.2500000      -1.05841730E-14
   99.3750000      -3.57505468E-14
   99.5000000      -5.99279266E-14
   99.6250000      -8.20787394E-14
   99.7500000      -1.01191408E-13
   99.8750000      -1.16320826E-13
   100.000000      -1.26628566E-13
   100.125000      -1.31421688E-13
   100.250000      -1.30188300E-13
   100.375000      -1.22628511E-13
   100.500000      -1.08679308E-13
   100.625000      -8.85320531E-14
   100.750000      -6.26415220E-14
   100.875000      -3.17255174E-14
   101.000000       3.24543342E-15
   101.125000       4.10685585E-14
   101.250000       8.03394081E-14
   101.375000       1.19492158E-13
   101.500000       1.56848357E-13
   101.625000       1.90673269E-13
   101.750000       2.19238175E-13
   101.875000       2.40886358E-13
   102.000000       2.54100994E-13
   102.125000       2.57572284E-13
   102.250000       2.50261427E-13
   102.375000       2.31458976E-13
   102.500000       2.00834737E-13