 -4.5   1.550963338E-18
 -4.37320757   1.550967164E-18
 -4.24641466   1.550975126E-18
 -4.11962223   1.550985776E-18
 -3.99282932   1.550997873E-18
 -3.86603665   1.551010074E-18
 -3.73924398   1.551021448E-18
 -3.61245155   1.551031477E-18
 -3.48565888   1.551038405E-18
 -3.35886621   1.551042437E-18
 -3.23207355   1.551044195E-18
 -3.10528088   1.551043885E-18
 -2.97848821   1.551041714E-18
 -2.85169554   1.551039232E-18
 -2.72490287   1.551036957E-18
 -2.5981102   1.55103551E-18
 -2.47131753   1.551035406E-18
 -2.34452486   1.551037268E-18
 -2.21773219   1.55104037E-18
 -2.09093952   1.551043988E-18
 -1.96414697   1.551048021E-18
 -1.8373543   1.551050606E-18
 -1.71056163   1.551050709E-18
 -1.58376896   1.551046987E-18
 -1.45697629   1.551038405E-18
 -1.33018374   1.551024757E-18
 -1.20339108   1.551006248E-18
 -1.07659841   1.550984018E-18
 -0.949805737   1.550959099E-18
 -0.823013067   1.550933456E-18
 -0.696220458   1.550908848E-18
 -0.569427788   1.550886617E-18
 -0.442635119   1.550868109E-18
 -0.315842479   1.550853427E-18
 -0.189049825   1.550842777E-18
 -6.225717068E-2   1.550834505E-18
 6.453548372E-2   1.550827267E-18
 0.191328138   1.550819409E-18
 0.318120778   1.550809586E-18
 0.444913447   1.550796041E-18
 0.571706116   1.550777636E-18
 0.698498726   1.550754992E-18
 0.825291395   1.550728212E-18
 0.952084064   1.550699158E-18
 1.07887673   1.550668965E-18
 1.2056694   1.550639601E-18
 1.33246195   1.550613855E-18
 1.45925462   1.550592244E-18
 1.58604729   1.550575287E-18
 1.71283996   1.550562776E-18
 1.83963263   1.550553781E-18
 1.9664253   1.550546956E-18
 2.09321785   1.550539305E-18
 2.22001052   1.550528552E-18
 2.34680319   1.550513559E-18
 2.47359586   1.550493707E-18
 2.60038853   1.550468064E-18
 2.7271812   1.550437251E-18
 2.85397387   1.550403337E-18
 2.98076653   1.550366838E-18
 3.1075592   1.550330649E-18
 3.23435187   1.550296941E-18
 3.36114454   1.550266749E-18
 3.48793697   1.550241623E-18
 3.61472964   1.550221357E-18
 3.74152231   1.550205227E-18
 3.86831498   1.550192303E-18
 3.99510765   1.550181342E-18
 4.12190056   1.550170279E-18
 4.24869299   1.550157147E-18
 4.37548542   1.550140914E-18
 4.50227833   1.550120028E-18
 4.62907076   1.550095005E-18
 4.75586367   1.550065847E-18
 4.8826561   1.550033484E-18
 5.00944901   1.549998949E-18
 5.13624144   1.549963794E-18
 5.26303434   1.549930086E-18
 5.38982677   1.549899067E-18
 5.51661968   1.549870943E-18
 5.64341211   1.549846955E-18
 5.77020502   1.549826482E-18
 5.89699745   1.549809525E-18
 6.02379036   1.549795256E-18
 6.15058279   1.549782021E-18
 6.27737522   1.549768166E-18
 6.40416813   1.549752966E-18
 6.53096056   1.549734458E-18
 6.65775347   1.549712124E-18
 6.7845459   1.549684827E-18
 6.91133881   1.549651947E-18
 7.03813124   1.549615241E-18
 7.16492414   1.549575433E-18
 7.29171658   1.549533453E-18
 7.41850948   1.549491164E-18
 7.54530191   1.549450632E-18
 7.67209482   1.549413305E-18
 7.79888725   1.549380425E-18
 7.92567968   1.549353541E-18
 8.05247211   1.549331828E-18
 8.17926502   1.549315181E-18
 8.30605793   1.549301946E-18
 8.43285084   1.549291193E-18
 8.55964279   1.54928075E-18
 8.6864357   1.549269272E-18
 8.81322861   1.549254797E-18
 8.94002151   1.549237012E-18
 9.06681347   1.549214885E-18
 9.19360638   1.549188519E-18
 9.32039928   1.549159154E-18
 9.44719219   1.549127514E-18
 9.57398415   1.549095254E-18
 9.70077705   1.549063925E-18
 9.82756996   1.549034663E-18
 9.95436192   1.549007987E-18
 10.0811548   1.548983482E-18
 10.2079477   1.548960941E-18
 10.3347406   1.54893871E-18
 10.4615326   1.548915343E-18
 10.5883255   1.548889183E-18
 10.7151184   1.548858474E-18
 10.8419113   1.548822698E-18
 10.9687033   1.548782063E-18
 11.0954962   1.548737499E-18
 11.2222891   1.548690556E-18
 11.349082   1.5486432E-18
 11.4758739   1.548598222E-18
 11.6026669   1.548558207E-18
 11.7294598   1.54852574E-18
 11.8562517   1.548502476E-18
 11.9830446   1.548489862E-18
 12.1098375   1.548488931E-18
 12.2366304   1.548498133E-18
 12.3634224   1.548516331E-18
 12.4902153   1.548540837E-18
 12.6170082   1.548568857E-18
 12.7438011   1.548595741E-18
 12.8705931   1.548617868E-18
 12.997386   1.548631309E-18
 13.1241789   1.548632757E-18
 13.2509708   1.548619729E-18
 13.3777637   1.548591191E-18
 13.5045567   1.54854704E-18
 13.6313496   1.548488311E-18
 13.7581415   1.548416759E-18
 13.8849344   1.548336109E-18
 14.0117273   1.548249876E-18
 14.1385202   1.548161574E-18
 14.2653122   1.548075651E-18
 14.3921051   1.547995931E-18
 14.518898   1.547925931E-18
 14.6456909   1.547868132E-18
 14.7724829   1.547824498E-18
 14.8992758   1.547797408E-18
 15.0260687   1.547787999E-18
 15.1528606   1.547797718E-18
 15.2796535   1.547827807E-18
 15.4064465   1.54788054E-18
 15.5332394   1.547958398E-18
 15.6600313   1.548064484E-18
 15.7868242   1.548202726E-18
 15.9136171   1.548376641E-18
 16.0404091   1.548590881E-18
 16.167202   1.548849478E-18
 16.2939949   1.549155122E-18
 16.4207878   1.549511223E-18
 16.5475807   1.54992016E-18
 16.6743736   1.550381107E-18
 16.8011646   1.550894476E-18
 16.9279575   1.551457889E-18
 17.0547504   1.552068658E-18
 17.1815434   1.552722958E-18
 17.3083363   1.553416756E-18
 17.4351292   1.554146536E-18
 17.5619221   1.554907336E-18
 17.688715   1.555696673E-18
 17.815506   1.556511859E-18
 17.9422989   1.557351447E-18
 18.0690918   1.558214921E-18
 18.1958847   1.559103313E-18
 18.3226776   1.560018278E-18
 18.4494705   1.560961367E-18
 18.5762634   1.561935372E-18
 18.7030544   1.562942051E-18
 18.8298473   1.563982954E-18
 18.9566402   1.565057979E-18
 19.0834332   1.566166711E-18
 19.2102261   1.567306153E-18
 19.337019   1.568472581E-18
 19.4638119   1.569660826E-18
 19.5906048   1.570865924E-18
 19.7173958   1.572082087E-18
 19.8441887   1.573304866E-18
 19.9709816   1.574530438E-18
 20.0977745   1.57575663E-18
 20.2245674   1.576983855E-18
 20.3513603   1.578212736E-18
 20.4781532   1.579447406E-18
 20.6049442   1.580691382E-18
 20.7317371   1.581949111E-18
 20.85853   1.583224933E-18
 20.985323   1.584522366E-18
 21.1121159   1.585842856E-18
 21.2389088   1.587186715E-18
 21.3657017   1.58855177E-18
 21.4924946   1.589936056E-18
 21.6192856   1.591336059E-18
 21.7460785   1.592747436E-18
 21.8728714   1.594166672E-18
 21.9996643   1.595591904E-18
 22.1264572   1.597022409E-18
 22.2532501   1.598459429E-18
 22.380043   1.599906478E-18
 22.506834   1.601367796E-18
 22.6336269   1.60285E-18
 22.7604198   1.604358054E-18
 22.8872128   1.60589723E-18
 23.0140057   1.607470114E-18
 23.1407986   1.609077429E-18
 23.2675915   1.610716074E-18
 23.3943844   1.612381912E-18
 23.5211754   1.614067603E-18
 23.6479683   1.615763013E-18
 23.7747612   1.617458113E-18
 23.9015541   1.619141529E-18
 24.028347   1.620802921E-18
 24.1551399   1.622434742E-18
 24.2819328   1.624030166E-18
 24.4087238   1.625585059E-18
 24.5355167   1.627097559E-18
 24.6623096   1.62856963E-18
 24.7891026   1.630002204E-18
 24.9158955   1.631399415E-18
 25.0426884   1.6327654E-18
 25.1694813   1.634103882E-18
 25.2962742   1.635419306E-18
 25.4230652   1.636713017E-18
 25.5498581   1.637985944E-18
 25.676651   1.639238296E-18
 25.8034439   1.640469244E-18
 25.9302368   1.641677444E-18
 26.0570297   1.64286145E-18
 26.1838226   1.644019296E-18
 26.3106136   1.64515212E-18
 26.4374065   1.646260439E-18
 26.5641994   1.64734663E-18
 26.6909924   1.648415244E-18
 26.8177853   1.649470623E-18
 26.9445782   1.650517524E-18
 27.0713711   1.651561839E-18
 27.198164   1.652608636E-18
 27.324955   1.653662154E-18
 27.4517479   1.654724357E-18
 27.5785408   1.655797934E-18
 27.7053337   1.656881541E-18
 27.8321266   1.657973626E-18
 27.9589195   1.659071812E-18
 28.0857124   1.660171859E-18
 28.2125034   1.661269734E-18
 28.3392963   1.662361716E-18
 28.4660892   1.663444392E-18
 28.5928822   1.664515281E-18
 28.7196751   1.665572831E-18
 28.846468   1.666617147E-18
 28.9732609   1.667648641E-18
 29.1000538   1.668669485E-18
 29.2268448   1.669681954E-18
 29.3536377   1.670687909E-18
 29.4804306   1.671689005E-18
 29.6072235   1.672686688E-18
 29.7340164   1.673681683E-18
 29.8608093   1.674672955E-18
 29.9876022   1.675659368E-18
 30.1143932   1.676638957E-18
 30.2411861   1.677608206E-18
 30.367979   1.67856422E-18
 30.494772   1.679503483E-18
 30.6215649   1.680421964E-18
 30.7483578   1.681317594E-18
 30.8751507   1.682188511E-18
 31.0019417   1.683034407E-18
 31.1287346   1.683856108E-18
 31.2555275   1.684656612E-18
 31.3823204   1.685439435E-18
 31.5091133   1.68620923E-18
 31.6359062   1.68697096E-18
 31.7626991   1.687730311E-18
 31.889492   1.688491938E-18
 32.0162849   1.689260699E-18
 32.1430779   1.690039489E-18
 32.2698708   1.690830998E-18
 32.3966637   1.691635638E-18
 32.5234528   1.692453616E-18
 32.6502457   1.693281727E-18
 32.7770386   1.694118007E-18
 32.9038315   1.694959663E-18
 33.0306244   1.695804732E-18
 33.1574173   1.696651868E-18
 33.2842102   1.697500452E-18
 33.4110031   1.69835069E-18
 33.537796   1.699204237E-18
 33.6645889   1.700063264E-18
 33.7913818   1.700929115E-18
 33.9181747   1.701803962E-18
 34.0449677   1.702686667E-18
 34.1717606   1.703575783E-18
 34.2985535   1.704468208E-18
 34.4253426   1.705358564E-18
 34.5521355   1.70624189E-18
 34.6789284   1.70711167E-18
 34.8057213   1.707962322E-18
 34.9325142   1.708787952E-18
 35.0593071   1.709586491E-18
 35.1861   1.71035701E-18
 35.3128929   1.711101266E-18
 35.4396858   1.711823808E-18
 35.5664787   1.712530737E-18
 35.6932716   1.713230429E-18
 35.8200645   1.713931051E-18
 35.9468575   1.714640254E-18
 36.0736504   1.715363934E-18
 36.2004433   1.716105708E-18
 36.3272324   1.716866094E-18
 36.4540253   1.71764261E-18
 36.5808182   1.718429982E-18
 36.7076111   1.719221801E-18
 36.834404   1.720010208E-18
 36.9611969   1.720787654E-18
 37.0879898   1.721547213E-18
 37.2147827   1.722284954E-18
 37.3415756   1.722999535E-18
 37.4683685   1.723692919E-18
 37.5951614   1.724369449E-18
 37.7219543   1.725035433E-18
 37.8487473   1.725699246E-18
 37.9755402   1.726370399E-18
 38.1023293   1.727056752E-18
 38.2291222   1.727764716E-18
 38.3559151   1.728498735E-18
 38.482708   1.729259534E-18
 38.6095009   1.73004577E-18
 38.7362938   1.730852994E-18
 38.8630867   1.731674695E-18
 38.9898796   1.732503944E-18
 39.1166725   1.733331848E-18
 39.2434654   1.734152721E-18
 39.3702583   1.73496005E-18
 39.4970512   1.7357498E-18
 39.6238441   1.736521353E-18
 39.7506371   1.737274294E-18
 39.87743   1.738010692E-18
 40.0042191   1.738734888E-18
 40.131012   1.739449779E-18
 40.2578049   1.740160741E-18
 40.3845978   1.740871703E-18
 40.5113907   1.741584939E-18
 40.6381836   1.742302105E-18
 40.7649765   1.743023406E-18
 40.8917694   1.743747603E-18
 41.0185623   1.744472006E-18
 41.1453552   1.745192687E-18
 41.2721481   1.745906131E-18
 41.398941   1.746607166E-18
 41.5257339   1.747293313E-18
 41.6525269   1.747961675E-18
 41.7793198   1.748611425E-18
 41.9061089   1.749241736E-18
 42.0329018   1.749854057E-18
 42.1596947   1.750451695E-18
 42.2864876   1.751036925E-18
 42.4132805   1.75161347E-18
 42.5400734   1.752185259E-18
 42.6668663   1.752756427E-18
 42.7936592   1.753330283E-18
 42.9204521   1.753909517E-18
 43.047245   1.754495574E-18
 43.1740379   1.755089697E-18
 43.3008308   1.755690437E-18
 43.4276237   1.756298001E-18
 43.5544167   1.756909701E-18
 43.6812096   1.757523262E-18
 43.8079987   1.75813641E-18
 43.9347916   1.758746042E-18
 44.0615845   1.759349263E-18
 44.1883774   1.75994442E-18
 44.3151703   1.760529857E-18
 44.4419632   1.76110454E-18
 44.5687561   1.761668264E-18
 44.695549   1.762222475E-18
 44.8223419   1.762769448E-18
 44.9491348   1.763312286E-18
 45.0759277   1.763854916E-18
 45.2027206   1.764402923E-18
 45.3295135   1.76496065E-18
 45.4563065   1.765533059E-18
 45.5830994   1.766123872E-18
 45.7098885   1.766735986E-18
 45.8366814   1.767371261E-18
 45.9634743   1.768028042E-18
 46.0902672   1.768705296E-18
 46.2170601   1.769399301E-18
 46.343853   1.770105093E-18
 46.4706459   1.77081895E-18
 46.5974388   1.771536322E-18
 46.7242317   1.772253901E-18
 46.8510246   1.772968585E-18
 46.9778175   1.77367872E-18
 47.1046104   1.774384718E-18
 47.2314034   1.775086581E-18
 47.3581963   1.775785962E-18
 47.4849892   1.776484103E-18
 47.6117783   1.77718183E-18
 47.7385712   1.777878936E-18
 47.8653641   1.778574595E-18
 47.992157   1.779267152E-18
 48.1189499   1.779954332E-18
 48.2457428   1.780633448E-18
 48.3725357   1.781300569E-18
 48.4993286   1.781955075E-18
 48.6261215   1.78259614E-18
 48.7529144   1.783224798E-18
 48.8797073   1.783842495E-18
 49.0065002   1.784453781E-18
 49.1332932   1.78506424E-18
 49.2600861   1.785678009E-18
 49.386879   1.786301703E-18
 49.5136681   1.786940079E-18
 49.640461   1.787597895E-18
 49.7672539   1.788277837E-18
 49.8940468   1.788980941E-18
 50.0208397   1.789707619E-18
 50.1476326   1.790456631E-18
 50.2744255   1.791225909E-18
 50.4012184   1.792011317E-18
 50.5280113   1.792809753E-18
 50.6548042   1.793617081E-18
 50.7815971   1.794429786E-18
 50.90839   1.795244559E-18
 51.035183   1.796059125E-18
 51.1619759   1.796870796E-18
 51.2887688   1.797677504E-18
 51.4155579   1.798478628E-18
 51.5423508   1.799273135E-18
 51.6691437   1.800061232E-18
 51.7959366   1.800842504E-18
 51.9227295   1.801617365E-18
 52.0495224   1.802385609E-18
 52.1763153   1.803147029E-18
 52.3031082   1.803901211E-18
 52.4299011   1.804648775E-18
 52.556694   1.805388895E-18
 52.6834869   1.806121984E-18
 52.8102798   1.806849283E-18
 52.9370728   1.807572239E-18
 53.0638657   1.80829292E-18
 53.1906586   1.809015669E-18
 53.3174477   1.809744828E-18
 53.4442406   1.810485775E-18
 53.5710335   1.811244093E-18
 53.6978264   1.812023711E-18
 53.8246193   1.812829178E-18
 53.9514122   1.813660701E-18
 54.0782051   1.814516627E-18
 54.204998   1.81539137E-18
 54.3317909   1.816276867E-18
 54.4585838   1.817159882E-18
 54.5853767   1.818026354E-18
 54.7121696   1.818860772E-18
 54.8389626   1.819647421E-18
 54.9657555   1.820371204E-18
 55.0925484   1.821019714E-18
 55.2193375   1.821584678E-18
 55.3461304   1.822060307E-18
 55.4729233   1.822447221E-18
 55.5997162   1.822751623E-18
 55.7265091   1.82298282E-18
 55.853302   1.823156942E-18
 55.9800949   1.82329322E-18
 56.1068878   1.823416263E-18
 56.2336807   1.823552954E-18
 56.3604736   1.823733487E-18
 56.4872665   1.823990119E-18
 56.6140594   1.82435656E-18
 56.7408524   1.824866724E-18
 56.8676453   1.825554938E-18
 56.9944382   1.826454497E-18
 57.1212273   1.827595593E-18
 57.2480202   1.82900242E-18
 57.3748131   1.830692557E-18
 57.501606   1.832673861E-18
 57.6283989   1.83494137E-18
 57.7551918   1.837476265E-18
 57.8819847   1.840241944E-18
 58.0087776   1.843183398E-18
 58.1355705   1.846225148E-18
 58.2623634   1.849271654E-18
 58.3891563   1.852209179E-18
 58.5159492   1.854906822E-18
 58.6427422   1.857220653E-18
 58.7695351   1.858999712E-18
 58.896328   1.860093038E-18
 59.0231171   1.860356701E-18
 59.14991   1.859664351E-18
 59.2767029   1.857917759E-18
 59.4034958   1.855056128E-18
 59.5302887   1.851067256E-18
 59.6570816   1.845996846E-18
 59.7838745   1.839955119E-18
 59.9106674   1.83312302E-18
 60.0374603   1.825755116E-18
 60.1642532   1.818177935E-18
 60.2910461   1.810785008E-18
 60.4178391   1.804029838E-18
 60.544632   1.798411213E-18
 60.6714249   1.794453981E-18
 60.7982178   1.792688571E-18
 60.9250069   1.793624112E-18
 61.0517998   1.797716588E-18
 61.1785927   1.805338644E-18
 61.3053856   1.816745672E-18
 61.4321785   1.832040034E-18
 61.5589714   1.851143357E-18
 61.6857643   1.873763852E-18
 61.8125572   1.899378533E-18
 61.9393501   1.927219365E-18
 62.066143   1.956267466E-18
 62.1929359   1.985266971E-18
 62.3197289   2.012747565E-18
 62.4465218   2.037065228E-18
 62.5733147   2.056458477E-18
 62.7001076   2.06912406E-18
 62.8268967   2.073302356E-18
 62.9536896   2.067380984E-18
 63.0804825   2.050005848E-18
 63.2072754   2.020198188E-18
 63.3340683   1.97746976E-18
 63.4608612   1.921933681E-18
 63.5876541   1.854397899E-18
 63.714447   1.776441503E-18
 63.8412399   1.690457216E-18
 63.9680328   1.599659254E-18
 64.0948257   1.508048278E-18
 64.2216187   1.420325257E-18
 64.3484116   1.341758815E-18
 64.4752045   1.277994357E-18
 64.6019974   1.234815839E-18
 64.7287903   1.217861428E-18
 64.8555832   1.232298211E-18
 64.9823761   1.282476538E-18
 65.109169   1.371567095E-18
 65.2359619   1.501204702E-18
 65.3627548   1.671161263E-18
 65.4895477   1.879061737E-18
 65.616333   2.120173305E-18
 65.7431259   2.387283573E-18
 65.8699188   2.670696537E-18
 65.9967117   2.958353972E-18
 66.1235046   3.236103023E-18
 66.2502975   3.488116005E-18
 66.3770905   3.697462597E-18
 66.5038834   3.846824532E-18
 66.6306763   3.91934387E-18
 66.7574692   3.899571358E-18
 66.8842621   3.774481797E-18
 67.011055   3.534519183E-18
 67.1378479   3.174608142E-18
 67.2646408   2.695083269E-18
 67.3914337   2.102473707E-18
 67.5182266   1.410077006E-18
 67.6450195   6.382594883E-19
 67.7718124   -1.855633138E-19
 67.8986053   -1.027315824E-18
 68.0253983   -1.847057291E-18
 68.1521912   -2.600194486E-18
 68.2789841   -3.239104862E-18
 68.405777   -3.715146891E-18
 68.5325699   -3.981006876E-18
 68.6593628   -3.993304983E-18
 68.7861557   -3.715360303E-18
 68.9129486   -3.119991888E-18
 69.0397415   -2.192220736E-18
 69.1665344   -9.317096688E-19
 69.2933273   6.452111142E-19
 69.4201126   2.50410443E-18
 69.5469055   4.591712668E-18
 69.6736984   6.836114231E-18
 69.8004913   9.14785905E-18
 69.9272842   1.142214003E-17
 70.0540771   1.354203602E-17
 70.1808701   1.538279826E-17
 70.307663   1.681709967E-17
 70.4344559   1.772107573E-17
 70.5612488   1.798098911E-17
 70.6880417   1.750023339E-17
 70.8148346   1.620634094E-17
 70.9416275   1.405769794E-17
 71.0684204   1.104951419E-17
 71.1952133   7.21870429E-18
 71.3220062   2.647269541E-18
 71.4487991   -2.53617112E-18
 71.575592   -8.15699842E-18
 71.7023849   -1.399760327E-17
 71.8291779   -1.980293382E-17
 71.9559708   -2.528857396E-17
 72.0827637   -3.015128258E-17
 72.2095566   -3.40817603E-17
 72.3363495   -3.67792062E-17
 72.4631424   -3.796721954E-17
 72.5899353   -3.74103417E-17
 72.7167282   -3.493049393E-17
 72.8435211   -3.042249855E-17
 72.970314   -2.386773078E-17
 73.0971069   -1.534506559E-17
 73.2238922   -5.038177613E-18
 73.3506851   6.761490959E-18
 73.477478   1.965686531E-17
 73.6042709   3.315283316E-17
 73.7310638   4.666960957E-17
 73.8578568   5.956183484E-17
 73.9846497   7.114303839E-17
 74.1114426   8.071497392E-17
 74.2382355   8.76006768E-17
 74.3650284   9.11802248E-17
 74.4918213   9.092755752E-17
 74.6186142   8.644664073E-17
 74.7454071   7.750514257E-17
 74.8722   6.40636032E-17
 74.9989929   4.629815584E-17
 75.1257858   2.461498921E-17
 75.2525787   -3.451589984E-19
 75.3793716   -2.771363756E-17
 75.5061646   -5.641265898E-17
 75.6329575   -8.518651379E-17
 75.7597504   -1.126448867E-16
 75.8865433   -1.373176595E-16
 76.0133362   -1.577193612E-16
 76.1401291   -1.724213121E-16
 76.266922   -1.80128531E-16
 76.3937149   -1.797579541E-16
 76.5205078   -1.705145747E-16
 76.6473007   -1.519609798E-16
 76.7740936   -1.240764169E-16
 76.9008865   -8.730131021E-17
 77.0276718   -4.256335928E-17
 77.1544647   8.717927791E-18
 77.2812576   6.465074923E-17
 77.4080505   1.229161141E-16
 77.5348434   1.808390593E-16
 77.6616364   2.354847943E-16
 77.7884293   2.837781925E-16
 77.9152222   3.226425258E-16
 78.0420151   3.491526719E-16
 78.168808   3.606969368E-16
 78.2956009   3.551401625E-16
 78.4223938   3.309801623E-16
 78.5491867   2.874889645E-16
 78.6759796   2.248307345E-16
 78.8027725   1.441475773E-16
 78.9295654   4.760594824E-17
 79.0563583   -6.160238353E-17
 79.1831512   -1.793100854E-16
 79.3099442   -3.004770236E-16
 79.4367371   -4.193466098E-16
 79.56353   -5.296538312E-16
 79.6903229   -6.248793927E-16
 79.8171158   -6.985432012E-16
 79.9439087   -7.445264493E-16
 80.0707016   -7.574094499E-16
 80.1974945   -7.328105543E-16
 80.3242874   -6.677109372E-16
 80.4510803   -5.60746399E-16
 80.5778732   -4.124504911E-16
 80.7046585   -2.254310956E-16
 80.8314514   -4.467000715E-18
 80.9582443   2.434898116E-16
 81.0850372   5.09414826E-16
 81.2118301   7.824200035E-16
 81.338623   1.050072356E-15
 81.465416   1.298817875E-15
 81.5922089   1.514501262E-15
 81.7190018   1.682966057E-15
 81.8457947   1.790717436E-15
 81.9725876   1.825619005E-15
 82.0993805   1.777598801E-15
 82.2261734   1.639330308E-15
 82.3529663   1.406855974E-15
 82.4797592   1.080117991E-15
 82.6065521   6.633661876E-16
 82.733345   1.654082498E-16
 82.8601379   -4.003185176E-16
 82.9869308   -1.015878695E-15
 83.1137238   -1.65918349E-15
 83.2405167   -2.304554303E-15
 83.3673096   -2.923499701E-15
 83.4941025   -3.485692197E-15
 83.6208954   -3.960117045E-15
 83.7476883   -4.316361315E-15
 83.8744812   -4.52599731E-15
 84.0012741   -4.56400749E-15
 84.128067   -4.410196895E-15
 84.2548599   -4.050526377E-15
 84.3816528   -3.478300776E-15
 84.5084381   -2.6951555E-15
 84.635231   -1.711775765E-15
 84.7620239   -5.482948559E-16
 84.8888168   7.6566728E-16
 85.0156097   2.191363173E-15
 85.1424026   3.681689692E-15
 85.2691956   5.182373306E-15
 85.3959885   6.633557161E-15
 85.5227814   7.97175148E-15
 85.6495743   9.132099374E-15
 85.7763672   1.005088787E-14
 85.9031601   1.066822412E-14
 86.029953   1.093076791E-14
 86.1567459   1.079443287E-14
 86.2835388   1.022692757E-14
 86.4103317   9.210023864E-15
 86.5371246   7.741451692E-15
 86.6639175   5.836302646E-15
 86.7907104   3.52785305E-15
 86.9175034   8.677415793E-16
 87.0442963   -2.0745694E-15
 87.1710892   -5.213064697E-15
 87.2978821   -8.447187685E-15
 87.424675   -1.166456441E-14
 87.5514679   -1.474438213E-14
 87.6782608   -1.756133928E-14
 87.8050537   -1.999003515E-14
 87.9318466   -2.19096998E-14
 88.0586395   -2.320903818E-14
 88.1854324   -2.379109042E-14
 88.3122177   -2.357783971E-14
 88.4390106   -2.251445761E-14
 88.5658035   -2.057291749E-14
 88.6925964   -1.775488969E-14
 88.8193893   -1.409367618E-14
 88.9461823   -9.655128666E-15
 89.0729752   -4.537395833E-15
 89.1997681   1.130508299E-15
 89.326561   7.191382567E-15
 89.4533539   1.346368695E-14
 89.5801468   1.974652673E-14
 89.7069397   2.582561613E-14
 89.8337326   3.148008113E-14
 89.9605255   3.648989138E-14
 90.0873184   4.064365286E-14
 90.2141113   4.374656833E-14
 90.3409042   4.56281707E-14
 90.4676971   4.614966178E-14
 90.5944901   4.521046826E-14
 90.721283   4.275377795E-14
 90.8480759   3.877082235E-14
 90.9748688   3.330365158E-14
 91.1016617   2.644624733E-14
 91.2284546   1.834387405E-14
 91.3552475   9.190570905E-15
 91.4820404   -7.751787718E-16
 91.6088333   -1.127653353E-14
 91.7356262   -2.200600576E-14
 91.8624191   -3.263454977E-14
 91.989212   -4.282183196E-14
 92.1159973   -5.222726209E-14
 92.2427902   -6.052152052E-14
 92.3695831   -6.73980999E-14
 92.496376   -7.258450297E-14
 92.6231689   -7.585262035E-14
 92.7499619   -7.702799038E-14
 92.8767548   -7.599736134E-14
 93.0035477   -7.271448526E-14
 93.1303406   -6.720359404E-14
 93.2571335   -5.956061246E-14
 93.3839264   -4.995176229E-14
 93.5107193   -3.860966587E-14
 93.6375122   -2.582699171E-14
 93.7643051   -1.194772244E-14
 93.891098   2.643559123E-15
 94.0178909   1.753414444E-14
 94.1446838   3.229694615E-14
 94.2714767   4.650501921E-14
 94.3982697   5.974630919E-14
 94.5250626   7.163813677E-14
 94.6518555   8.184073672E-14
 94.7786484   9.006928233E-14
 94.9054413   9.610399905E-14
 95.0322342   9.979772678E-14
 95.1590271   1.010807513E-13
 95.28582   9.996241031E-14
 95.4126129   9.652952808E-14
 95.5394058   9.094156363E-14
 95.6661987   8.342259446E-14
 95.7929916   7.425047448E-14
 95.9197769   6.374351866E-14
 96.0465698   5.224528357E-14
 96.1733627   4.010812475E-14
 96.3001556   2.767622726E-14
 96.4269485   1.52689615E-14
 96.5537415   3.165421416E-15
 96.6805344   -8.409116943E-15
 96.8073273   -1.929394856E-14
 96.9341202   -2.940019173E-14
 97.0609131   -3.87141118E-14
 97.187706   -4.729589048E-14
 97.3144989   -5.527382954E-14
 97.4412918   -6.283388659E-14
 97.5680847   -7.020476729E-14
 97.6948776   -7.76390806E-14
 97.8216705   -8.539134298E-14
 97.9484634   -9.369353302E-14
 98.0752563   -1.027296602E-13
 98.2020493   -1.126103808E-13
 98.3288422   -1.233491391E-13
 98.4556351   -1.348413568E-13
 98.582428   -1.468480285E-13
 98.7092209   -1.589851026E-13
 98.8360138   -1.707199513E-13
 98.9628067   -1.813757071E-13
 99.0895996   -1.901444497E-13
 99.2163925   -1.961093099E-13
 99.3431854   -1.982755052E-13
 99.4699783   -1.956099264E-13
 99.5967712   -1.870882057E-13
 99.7235565   -1.717478427E-13
 99.8503494   -1.487455856E-13
 99.9771423   -1.174168727E-13
 100.103935   -7.733467051E-14
 100.230728   -2.836508867E-14
 100.357521   2.928329779E-14
 100.484314   9.501928866E-14
 100.611107   1.678407576E-13
 100.7379   2.463210029E-13
 100.864693   3.286116225E-13
 100.991486   4.124638456E-13
 101.118279   4.952688108E-13
 101.245071   5.74117739E-13
 101.371864   6.458805387E-13
 101.498657   7.073022181E-13
 101.62545   7.551141787E-13
 101.752243   7.861571095E-13
 101.879036   7.975122841E-13
 102.005829   7.866354053E-13
 102.132622   7.514887692E-13
 102.259415   6.906655694E-13
 102.386208   6.035011358E-13
 102.513   4.901648748E-13
 102.639793   3.517280597E-13
 102.766586   1.902029695E-13
 102.893379   8.548789287E-15
 103.020172   -1.893575628E-13
 103.146965   -3.987879905E-13
 103.273758   -6.142666128E-13
 103.400551   -8.297088602E-13
 103.527336   -1.038593148E-12
 103.654129   -1.23416056E-12
 103.780922   -1.409636297E-12
 103.907715   -1.558465705E-12
 104.034508   -1.674556219E-12
 104.161301   -1.752515776E-12
 104.288094   -1.787878764E-12
 104.414886   -1.777308877E-12
 104.541679   -1.718769116E-12
 104.668472   -1.611652543E-12
 104.795265   -1.456863384E-12
 104.922058   -1.256844455E-12
 105.048851   -1.015547997E-12
 105.175644   -7.383456368E-13
 105.302437   -4.318810121E-13
 105.42923   -1.038677743E-13
 105.556023   2.371616358E-13
 105.682816   5.821468524E-13
 105.809608   9.218200205E-13
 105.936401   1.24704305E-12
 106.063194   1.549146987E-12
 106.189987   1.820259655E-12
 106.31678   2.053606417E-12
 106.443573   2.243767455E-12
 106.570366   2.386881491E-12
 106.697159   2.480781639E-12
 106.823952   2.525055469E-12
 106.950745   2.52102267E-12
 107.077538   2.471629021E-12
 107.20433   2.381257084E-12
 107.331116   2.255460575E-12
 107.457909   2.100629132E-12
 107.584702   1.923603854E-12
 107.711494   1.731250668E-12
 107.838287   1.530022962E-12
 107.96508   1.325527036E-12
 108.091873   1.122118674E-12
 108.218666   9.225535917E-13
 108.345459   7.277142213E-13
 108.472252   5.364353709E-13
 108.599045   3.45444566E-13
 108.725838   1.494318314E-13
 108.852631   -5.874308337E-14
 108.979424   -2.877054335E-13
 109.106216   -5.470842421E-13
 109.233009   -8.469103782E-13
 109.359802   -1.196909434E-12
 109.486595   -1.605717946E-12
 109.613388   -2.080054228E-12
 109.740181   -2.623879846E-12
 109.866974   -3.237593353E-12
 109.993767   -3.91730268E-12
 110.12056   -4.654216249E-12
 110.247353   -5.434198664E-12
 110.374146   -6.237530024E-12
 110.500938   -7.038906784E-12
 110.627731   -7.807702401E-12
 110.754524   -8.508514206E-12
 110.881317   -9.102006475E-12
 111.008102   -9.546028031E-12
 111.134895   -9.797009558E-12
 111.261688   -9.811591643E-12
 111.388481   -9.548453174E-12
 111.515274   -8.970269839E-12
 111.642067   -8.045755034E-12
 111.76886   -6.751685148E-12
 111.895653   -5.074850262E-12
 112.022446   -3.013821831E-12
 112.149239   -5.804689954E-13
 112.276031   2.198873462E-12
 112.402824   5.282657992E-12
 112.529617   8.613867432E-12
 112.65641   1.212029869E-11
 112.783203   1.571543243E-11
 112.909996   1.929990716E-11
 113.036789   2.276358615E-11
 113.163582   2.598820291E-11
 113.290375   2.885053828E-11
 113.417168   3.122605299E-11
 113.543961   3.299286538E-11
 113.670753   3.4036024E-11
 113.797546   3.425184442E-11
 113.924339   3.355227207E-11
 114.051132   3.186905601E-11
 114.177925   2.915756872E-11
 114.304718   2.540018543E-11
 114.431511   2.060900235E-11
 114.558304   1.482779871E-11
 114.685097   8.133123515E-12
 114.811882   6.343992172E-13
 114.938675   -7.52699205E-12
 115.065468   -1.617971035E-11
 115.192261   -2.512550584E-11
 115.319054   -3.414331318E-11
 115.445847   -4.299428175E-11
 115.572639   -5.142764686E-11
 115.699432   -5.918731477E-11
 115.826225   -6.601896113E-11
 115.953018   -7.167743482E-11
 116.079811   -7.593432827E-11
 116.206604   -7.858538126E-11
 116.333397   -7.945754471E-11
 116.46019   -7.841543387E-11
 116.586983   -7.5367039E-11
 116.713776   -7.026836057E-11
 116.840569   -6.312687179E-11
 116.967361   -5.400370429E-11
 117.094154   -4.301430045E-11
 117.220947   -3.032765358E-11
 117.34774   -1.616397988E-11
 117.474533   -7.908920372E-13
 117.601326   1.548179987E-11
 117.728119   3.230864187E-11
 117.854912   4.931617614E-11
 117.981705   6.611154679E-11
 118.108498   8.229180531E-11
 118.235291   9.745366319E-11
 118.362083   1.112034353E-10
 118.488876   1.231668795E-10
 118.615662   1.32998737E-10
 118.742455   1.403915179E-10
 118.869247   1.450836257E-10
 118.99604   1.468661859E-10
 119.122833   1.455888327E-10
 119.249626   1.411639139E-10
 119.376419   1.335693917E-10
 119.503212   1.228500496E-10
 119.630005   1.091173193E-10
 119.756798   9.254744887E-11
 119.883591   7.337840752E-11
 120.010384   5.190542787E-11
 120.137177   2.84754182E-11
 120.263969   3.480442497E-12
 120.390762   -2.264961309E-11
 120.517555   -4.945486382E-11
 120.644348   -7.645368366E-11
 120.771141   -1.031510988E-10
 120.897934   -1.29047148E-10
 121.024727   -1.536450828E-10
 121.15152   -1.764592916E-10
 121.278313   -1.970227037E-10
 121.405106   -2.148938388E-10
 121.531898   -2.296632051E-10
 121.658691   -2.409592526E-10
 121.785484   -2.484537021E-10