  -4.50000000       0.00000000    
  -4.37500000       0.00000000    
  -4.25000000       0.00000000    
  -4.12500000       0.00000000    
  -4.00000000       0.00000000    
  -3.87500000       0.00000000    
  -3.75000000       0.00000000    
  -3.62500000       0.00000000    
  -3.50000000       0.00000000    
  -3.37500000       0.00000000    
  -3.25000000       0.00000000    
  -3.12500000       0.00000000    
  -3.00000000       0.00000000    
  -2.87500000       0.00000000    
  -2.75000000       0.00000000    
  -2.62500000       0.00000000    
  -2.50000000       0.00000000    
  -2.37500000       0.00000000    
  -2.25000000       0.00000000    
  -2.12500000       0.00000000    
  -2.00000000       0.00000000    
  -1.87500000       0.00000000    
  -1.75000000       0.00000000    
  -1.62500000       0.00000000    
  -1.50000000       0.00000000    
  -1.37500000       0.00000000    
  -1.25000000       0.00000000    
  -1.12500000       0.00000000    
  -1.00000000       0.00000000    
 -0.875000000       0.00000000    
 -0.750000000       0.00000000    
 -0.625000000       0.00000000    
 -0.500000000       0.00000000    
 -0.375000000       0.00000000    
 -0.250000000       0.00000000    
 -0.125000000       0.00000000    
   0.00000000       0.00000000    
  0.125000000       0.00000000    
  0.250000000       0.00000000    
  0.375000000       0.00000000    
  0.500000000       0.00000000    
  0.625000000       0.00000000    
  0.750000000       0.00000000    
  0.875000000       0.00000000    
   1.00000000       0.00000000    
   1.12500000       0.00000000    
   1.25000000       0.00000000    
   1.37500000       0.00000000    
   1.50000000       0.00000000    
   1.62500000       0.00000000    
   1.75000000       0.00000000    
   1.87500000       0.00000000    
   2.00000000       0.00000000    
   2.12500000       0.00000000    
   2.25000000       0.00000000    
   2.37500000       0.00000000    
   2.50000000       0.00000000    
   2.62500000       0.00000000    
   2.75000000       0.00000000    
   2.87500000       0.00000000    
   3.00000000       0.00000000    
   3.12500000       0.00000000    
   3.25000000       0.00000000    
   3.37500000       0.00000000    
   3.50000000       0.00000000    
   3.62500000       0.00000000    
   3.75000000       0.00000000    
   3.87500000       0.00000000    
   4.00000000       0.00000000    
   4.12500000       0.00000000    
   4.25000000       0.00000000    
   4.37500000       0.00000000    
   4.50000000       0.00000000    
   4.62500000       0.00000000    
   4.75000000       0.00000000    
   4.87500000       0.00000000    
   5.00000000       0.00000000    
   5.12500000       0.00000000    
   5.25000000       0.00000000    
   5.37500000       0.00000000    
   5.50000000       0.00000000    
   5.62500000       0.00000000    
   5.75000000       0.00000000    
   5.87500000       0.00000000    
   6.00000000       0.00000000    
   6.12500000       0.00000000    
   6.25000000       0.00000000    
   6.37500000       0.00000000    
   6.50000000       0.00000000    
   6.62500000       0.00000000    
   6.75000000       0.00000000    
   6.87500000       0.00000000    
   7.00000000       0.00000000    
   7.12500000       0.00000000    
   7.25000000       0.00000000    
   7.37500000       0.00000000    
   7.50000000       0.00000000    
   7.62500000       0.00000000    
   7.75000000       0.00000000    
   7.87500000       0.00000000    
   8.00000000       0.00000000    
   8.12500000       0.00000000    
   8.25000000       0.00000000    
   8.37500000       0.00000000    
   8.50000000       0.00000000    
   8.62500000       0.00000000    
   8.75000000       0.00000000    
   8.87500000       0.00000000    
   9.00000000       0.00000000    
   9.12500000       0.00000000    
   9.25000000       0.00000000    
   9.37500000       0.00000000    
   9.50000000       0.00000000    
   9.62500000       0.00000000    
   9.75000000       0.00000000    
   9.87500000       0.00000000    
   10.0000000       0.00000000    
   10.1250000       0.00000000    
   10.2500000       0.00000000    
   10.3750000       0.00000000    
   10.5000000       0.00000000    
   10.6250000       0.00000000    
   10.7500000       0.00000000    
   10.8750000       0.00000000    
   11.0000000       0.00000000    
   11.1250000       0.00000000    
   11.2500000       0.00000000    
   11.3750000       0.00000000    
   11.5000000       0.00000000    
   11.6250000       0.00000000    
   11.7500000       0.00000000    
   11.8750000       0.00000000    
   12.0000000       0.00000000    
   12.1250000       0.00000000    
   12.2500000       0.00000000    
   12.3750000       0.00000000    
   12.5000000       0.00000000    
   12.6250000       0.00000000    
   12.7500000       0.00000000    
   12.8750000       0.00000000    
   13.0000000       0.00000000    
   13.1250000       0.00000000    
   13.2500000       0.00000000    
   13.3750000       0.00000000    
   13.5000000       0.00000000    
   13.6250000       0.00000000    
   13.7500000       0.00000000    
   13.8750000       0.00000000    
   14.0000000       0.00000000    
   14.1250000       0.00000000    
   14.2500000       0.00000000    
   14.3750000       0.00000000    
   14.5000000       0.00000000    
   14.6250000       0.00000000    
   14.7500000       0.00000000    
   14.8750000       0.00000000    
   15.0000000       0.00000000    
   15.1250000       0.00000000    
   15.2500000       0.00000000    
   15.3750000       0.00000000    
   15.5000000       0.00000000    
   15.6250000       0.00000000    
   15.7500000       0.00000000    
   15.8750000       0.00000000    
   16.0000000       0.00000000    
   16.1250000       0.00000000    
   16.2500000       0.00000000    
   16.3750000       0.00000000    
   16.5000000       0.00000000    
   16.6250000      -2.14763003E-41
   16.7500000      -6.44303021E-41
   16.8750000      -8.87190084E-41
   17.0000000      -7.65711520E-41
   17.1250000      -2.31158195E-41
   17.2500000      -3.50896066E-39
   17.3750000      -6.97843973E-39
   17.5000000      -6.83845702E-39
   17.6250000      -6.76528121E-39
   17.7500000      -3.17613265E-39
   17.8750000       6.64760157E-39
   18.0000000       1.24952131E-38
   18.1250000       1.29269433E-38
   18.2500000       7.48380541E-39
   18.3750000       9.50813238E-40
   18.5000000      -1.00929657E-38
   18.6250000      -2.26844255E-38
   18.7500000      -3.11193020E-38
   18.8750000      -3.86910389E-38
   19.0000000      -4.82726526E-38
   19.1250000      -4.99737056E-38
   19.2500000      -3.40156234E-38
   19.3750000      -1.20335202E-38
   19.5000000       2.21532325E-38
   19.6250000       3.60664495E-37
   19.7500000       6.99557161E-37
   19.8750000       7.46065069E-37
   20.0000000       8.03418713E-37
   20.1250000       8.68216189E-37
   20.2500000       1.08476187E-36
   20.3750000       1.31152182E-36
   20.5000000       1.50389360E-36
   20.6250000       1.65552423E-36
   20.7500000       2.24739360E-36
   20.8750000       2.50746867E-36
   21.0000000       2.29811119E-36
   21.1250000       1.70193649E-36
   21.2500000       1.30504069E-37
   21.3750000      -1.94704077E-36
   21.5000000      -4.22337815E-36
   21.6250000      -7.31623193E-36
   21.7500000      -1.01267647E-35
   21.8750000      -1.18347263E-35
   22.0000000      -1.20438379E-35
   22.1250000      -1.16314858E-35
   22.2500000      -1.14997650E-35
   22.3750000      -1.31164492E-35
   22.5000000      -1.57696111E-35
   22.6250000      -1.91332885E-35
   22.7500000      -2.32359346E-35
   22.8750000      -2.81556697E-35
   23.0000000      -3.29512131E-35
   23.1250000      -3.40534371E-35
   23.2500000      -3.05199258E-35
   23.3750000      -1.96799494E-35
   23.5000000      -1.31055890E-36
   23.6250000       2.60051694E-35
   23.7500000       6.25880832E-35
   23.8750000       1.07942271E-34
   24.0000000       1.60231853E-34
   24.1250000       2.16665167E-34
   24.2500000       2.75228755E-34
   24.3750000       3.31654734E-34
   24.5000000       3.81145503E-34
   24.6250000       4.16786950E-34
   24.7500000       4.29058790E-34
   24.8750000       4.08402599E-34
   25.0000000       3.39909413E-34
   25.1250000       2.11044284E-34
   25.2500000       7.12260754E-36
   25.3750000      -2.85994492E-34
   25.5000000      -6.78712668E-34
   25.6250000      -1.17652126E-33
   25.7500000      -1.77908811E-33
   25.8750000      -2.47586698E-33
   26.0000000      -3.23857289E-33
   26.1250000      -4.02464691E-33
   26.2500000      -4.77323550E-33
   26.3750000      -5.39974791E-33
   26.5000000      -5.79742757E-33
   26.6250000      -5.83550073E-33
   26.7500000      -5.36536801E-33
   26.8750000      -4.22643704E-33
   27.0000000      -2.25369267E-33
   27.1250000       7.10784654E-34
   27.2500000       4.79903797E-33
   27.3750000       1.00964290E-32
   27.5000000       1.66153335E-32
   27.6250000       2.42701865E-32
   27.7500000       3.28404645E-32
   27.8750000       4.19492233E-32
   28.0000000       5.10282627E-32
   28.1250000       5.93029436E-32
   28.2500000       6.57751508E-32
   28.3750000       6.92329909E-32
   28.5000000       6.82711309E-32
   28.6250000       6.13419796E-32
   28.7500000       4.68291911E-32
   28.8750000       2.31591033E-32
   29.0000000      -1.10557036E-32
   29.1250000      -5.68364273E-32
   29.2500000      -1.14628073E-31
   29.3750000      -1.84069344E-31
   29.5000000      -2.63743411E-31
   29.6250000      -3.50934740E-31
   29.7500000      -4.41410589E-31
   29.8750000      -5.29248558E-31
   30.0000000      -6.06737992E-31
   30.1250000      -6.64398529E-31
   30.2500000      -6.91137452E-31
   30.3750000      -6.74586962E-31
   30.5000000      -6.01643117E-31
   30.6250000      -4.59238277E-31
   30.7500000      -2.35347605E-31
   30.8750000       7.97712213E-32
   31.0000000       4.92128374E-31
   31.1250000       1.00239481E-30
   31.2500000       1.60420824E-30
   31.3750000       2.28249631E-30
   31.5000000       3.01195714E-30
   31.6250000       3.75584852E-30
   31.7500000       4.46526745E-30
   31.8750000       5.07912339E-30
   32.0000000       5.52498971E-30
   32.1250000       5.72104675E-30
   32.2500000       5.57924150E-30
   32.3750000       5.00980533E-30
   32.5000000       3.92715435E-30
   32.6250000       2.25711767E-30
   32.7500000      -5.46552622E-32
   32.8750000      -3.03341640E-30
   33.0000000      -6.66559689E-30
   33.1250000      -1.08892372E-29
   33.2500000      -1.55852796E-29
   33.3750000      -2.05705869E-29
   33.5000000      -2.55936228E-29
   33.6250000      -3.03337818E-29
   33.7500000      -3.44053482E-29
   33.8750000      -3.73669500E-29
   34.0000000      -3.87372341E-29
   34.1250000      -3.80171228E-29
   34.2500000      -3.47188685E-29
   34.3750000      -2.84012014E-29
   34.5000000      -1.87098617E-29
   34.6250000      -5.42178432E-30
   34.7500000       1.15093160E-29
   34.8750000       3.19087231E-29
   35.0000000       5.53413682E-29
   35.1250000       8.10812173E-29
   35.2500000       1.08093336E-28
   35.3750000       1.35033015E-28
   35.5000000       1.60265454E-28
   35.6250000       1.81909235E-28
   35.7500000       1.97905696E-28
   35.8750000       2.06114949E-28
   36.0000000       2.04437030E-28
   36.1250000       1.90955063E-28
   36.2500000       1.64094973E-28
   36.3750000       1.22792984E-28
   36.5000000       6.66611539E-29
   36.6250000      -3.86248861E-30
   36.7500000      -8.73928509E-29
   36.8750000      -1.81520811E-28
   37.0000000      -2.82795753E-28
   37.1250000      -3.86779744E-28
   37.2500000      -4.88185156E-28
   37.3750000      -5.81101261E-28
   37.5000000      -6.59309135E-28
   37.6250000      -7.16678832E-28
   37.7500000      -7.47632667E-28
   37.8750000      -7.47649953E-28
   38.0000000      -7.13778574E-28
   38.1250000      -6.45111613E-28
   38.2500000      -5.43179844E-28
   38.3750000      -4.12202308E-28
   38.5000000      -2.59142131E-28
   38.6250000      -9.35143771E-29
   38.7500000       7.31001877E-29
   38.8750000       2.27864692E-28
   39.0000000       3.57825891E-28
   39.1250000       4.51369945E-28
   39.2500000       4.99943343E-28
   39.3750000       4.99945028E-28
   39.5000000       4.54672771E-28
   39.6250000       3.76144831E-28
   39.7500000       2.86599994E-28
   39.8750000       2.19433115E-28
   40.0000000       2.19320424E-28
   40.1250000       3.41282418E-28
   40.2500000       6.48415257E-28
   40.3750000       1.20813412E-27
   40.5000000       2.08676705E-27
   40.6250000       3.34246683E-27
   40.7500000       5.01655331E-27
   40.8750000       7.12350796E-27
   41.0000000       9.64005745E-27
   41.1250000       1.24939836E-26
   41.2500000       1.55534374E-26
   41.3750000       1.86178045E-26
   41.5000000       2.14112658E-26
   41.6250000       2.35803991E-26
   41.7500000       2.46971534E-26
   41.8750000       2.42685878E-26
   42.0000000       2.17545497E-26
   42.1250000       1.65943131E-26
   42.2500000       8.24276831E-27
   42.3750000      -3.78368659E-27
   42.5000000      -1.98521731E-26
   42.6250000      -4.01506627E-26
   42.7500000      -6.46199170E-26
   42.8750000      -9.28831022E-26
   43.0000000      -1.24177566E-25
   43.1250000      -1.57294218E-25
   43.2500000      -1.90530062E-25
   43.3750000      -2.21661508E-25
   43.5000000      -2.47945367E-25
   43.6250000      -2.66154767E-25
   43.7500000      -2.72657397E-25
   43.8750000      -2.63541640E-25
   44.0000000      -2.34795303E-25
   44.1250000      -1.82538987E-25
   44.2500000      -1.03313181E-25
   44.3750000       5.58534783E-27
   44.5000000       1.45726743E-25
   44.6250000       3.17143580E-25
   44.7500000       5.17919035E-25
   44.8750000       7.43789189E-25
   45.0000000       9.87788847E-25
   45.1250000       1.23997525E-24
   45.2500000       1.48726165E-24
   45.3750000       1.71340490E-24
   45.5000000       1.89917809E-24
   45.6250000       2.02277051E-24
   45.7500000       2.06044177E-24
   45.8750000       1.98745340E-24
   46.0000000       1.77929234E-24
   46.1250000       1.41317963E-24
   46.2500000       8.69846253E-25
   46.3750000       1.35535659E-25
   46.5000000      -7.95831231E-25
   46.6250000      -1.92042172E-24
   46.7500000      -3.22229031E-24
   46.8750000      -4.67135936E-24
   47.0000000      -6.22173018E-24
   47.1250000      -7.81051340E-24
   47.2500000      -9.35734736E-24
   47.3750000      -1.07648125E-23
   47.5000000      -1.19199092E-23
   47.6250000      -1.26967778E-23
   47.7500000      -1.29607669E-23
   47.8750000      -1.25739553E-23
   48.0000000      -1.14021308E-23
   48.1250000      -9.32316602E-24
   48.2500000      -6.23664241E-24
   48.3750000      -2.07445530E-24
   48.5000000       3.18795633E-24
   48.6250000       9.52026844E-24
   48.7500000       1.68263984E-23
   48.8750000       2.49348283E-23
   49.0000000       3.35909280E-23
   49.1250000       4.24521363E-23
   49.2500000       5.10869131E-23
   49.3750000       5.89783399E-23
   49.5000000       6.55332124E-23
   49.6250000       7.00973281E-23
   49.7500000       7.19774424E-23
   49.8750000       7.04702195E-23
   50.0000000       6.48980657E-23
   50.1250000       5.46513937E-23
   50.2500000       3.92363479E-23
   50.3750000       1.83266919E-23
   50.5000000      -8.18219942E-24
   50.6250000      -4.01196733E-23
   50.7500000      -7.69894733E-23
   50.8750000      -1.17926123E-22
   51.0000000      -1.61661896E-22
   51.1250000      -2.06508374E-22
   51.2500000      -2.50356633E-22
   51.3750000      -2.90700166E-22
   51.5000000      -3.24683612E-22
   51.6250000      -3.49180785E-22
   51.7500000      -3.60903208E-22
   51.8750000      -3.56539911E-22
   52.0000000      -3.32927852E-22
   52.1250000      -2.87249398E-22
   52.2500000      -2.17252520E-22
   52.3750000      -1.21486018E-22
   52.5000000       4.58972439E-25
   52.6250000       1.47714003E-22
   52.7500000       3.17917634E-22
   52.8750000       5.07034856E-22
   53.0000000       7.09228514E-22
   53.1250000       9.16799957E-22
   53.2500000       1.12021591E-21
   53.3750000       1.30823693E-21
   53.5000000       1.46816208E-21
   53.6250000       1.58619799E-21
   53.7500000       1.64795936E-21
   53.8750000       1.63909827E-21
   54.0000000       1.54605661E-21
   54.1250000       1.35692305E-21
   54.2500000       1.06237153E-21
   54.3750000       6.56647464E-22
   54.5000000       1.38558319E-22
   54.6250000      -4.87583036E-22
   54.7500000      -1.21112075E-21
   54.8750000      -2.01438714E-21
   55.0000000      -2.87227239E-21
   55.1250000      -3.75209812E-21
   55.2500000      -4.61385957E-21
   55.3750000      -5.41089575E-21
   55.5000000      -6.09102562E-21
   55.6250000      -6.59818549E-21
   55.7500000      -6.87457125E-21
   55.8750000      -6.86326698E-21
   56.0000000      -6.51131254E-21
   56.1250000      -5.77313220E-21
   56.2500000      -4.61420935E-21
   56.3750000      -3.01486189E-21
   56.5000000      -9.73943880E-22
   56.6250000       1.48774148E-21
   56.7500000       4.32453417E-21
   56.8750000       7.46376699E-21
   57.0000000       1.08046114E-20
   57.1250000       1.42181571E-20
   57.2500000       1.75489420E-20
   57.3750000       2.06181117E-20
   57.5000000       2.32283108E-20
   57.6250000       2.51703936E-20
   57.7500000       2.62318715E-20
   57.8750000       2.62070221E-20
   58.0000000       2.49083857E-20
   58.1250000       2.21792923E-20
   58.2500000       1.79069933E-20
   58.3750000       1.20357752E-20
   58.5000000       4.57944191E-21
   58.6250000      -4.36764854E-21
   58.7500000      -1.46217389E-20
   58.8750000      -2.59038685E-20
   59.0000000      -3.78379069E-20
   59.1250000      -4.99531399E-20
   59.2500000      -6.16920477E-20
   59.3750000      -7.24237081E-20
   59.5000000      -8.14630861E-20
   59.6250000      -8.80961634E-20
   59.7500000      -9.16105760E-20
   59.8750000      -9.13311117E-20
   60.0000000      -8.66590146E-20
   60.1250000      -7.71137704E-20
   60.2500000      -6.23755833E-20
   60.3750000      -4.23265735E-20
   60.5000000      -1.70883963E-20
   60.6250000       1.29461957E-20
   60.7500000       4.70903421E-20
   60.8750000       8.43510967E-20
   61.0000000       1.23430818E-19
   61.1250000       1.62743882E-19
   61.2500000       2.00450122E-19
   61.3750000       2.34506143E-19
   61.5000000       2.62734224E-19
   61.6250000       2.82908436E-19
   61.7500000       2.92855877E-19
   61.8750000       2.90570429E-19
   62.0000000       2.74335303E-19
   62.1250000       2.42849242E-19
   62.2500000       1.95350954E-19
   62.3750000       1.31735130E-19
   62.5000000       5.26530962E-20
   62.6250000      -4.04089652E-20
   62.7500000      -1.45081612E-19
   62.8750000      -2.58099997E-19
   63.0000000      -3.75333875E-19
   63.1250000      -4.91864185E-19
   63.2500000      -6.02109059E-19
   63.3750000      -6.99999939E-19
   63.5000000      -7.79205946E-19
   63.6250000      -8.33402458E-19
   63.7500000      -8.56576544E-19
   63.8750000      -8.43359180E-19
   64.0000000      -7.89371738E-19
   64.1250000      -6.91571847E-19
   64.2500000      -5.48580547E-19
   64.3750000      -3.60973554E-19
   64.5000000      -1.31516199E-19
   64.6250000       1.34676093E-19
   64.7500000       4.30070355E-19
   64.8750000       7.44756511E-19
   65.0000000       1.06660876E-18
   65.1250000       1.38157505E-18
   65.2500000       1.67409765E-18
   65.3750000       1.92766170E-18
   65.5000000       2.12545961E-18
   65.6250000       2.25115715E-18
   65.7500000       2.28973251E-18
   65.8750000       2.22836005E-18
   66.0000000       2.05729972E-18
   66.1250000       1.77074988E-18
   66.2500000       1.36761669E-18
   66.3750000       8.52153402E-19
   66.5000000       2.34419186E-19
   66.6250000      -4.69481453E-19
   66.7500000      -1.23742456E-18
   66.8750000      -2.04158412E-18
   67.0000000      -2.84906273E-18
   67.1250000      -3.62284263E-18
   67.2500000      -4.32305144E-18
   67.3750000      -4.90851581E-18
   67.5000000      -5.33856288E-18
   67.6250000      -5.57501576E-18
   67.7500000      -5.58430128E-18
   67.8750000      -5.33958817E-18
   68.0000000      -4.82285092E-18
   68.1250000      -4.02675162E-18
   68.2500000      -2.95622791E-18
   68.3750000      -1.62967516E-18
   68.5000000      -7.96169870E-20
   68.6250000       1.64722307E-18
   68.7500000       3.49052848E-18
   68.8750000       5.37771499E-18
   69.0000000       7.22599837E-18
   69.1250000       8.94518326E-18
   69.2500000       1.04411270E-17
   69.3750000       1.16197750E-17
   69.5000000       1.23916453E-17
   69.6250000       1.26765991E-17
   69.7500000       1.24086762E-17
   69.8750000       1.15407974E-17
   70.0000000       1.00490698E-17
   70.1250000       7.93644973E-18
   70.2500000       5.23551726E-18
   70.3750000       2.01012954E-18
   70.5000000      -1.64425546E-18
   70.6250000      -5.60172873E-18
   70.7500000      -9.70867758E-18
   70.8750000      -1.37881487E-17
   71.0000000      -1.76458139E-17
   71.1250000      -2.10773925E-17
   71.2500000      -2.38773559E-17
   71.3750000      -2.58485984E-17
   71.5000000      -2.68127336E-17
   71.6250000      -2.66205862E-17
   71.7500000      -2.51623611E-17
   71.8750000      -2.23770008E-17
   72.0000000      -1.82601775E-17
   72.1250000      -1.28703910E-17
   72.2500000      -6.33267929E-18
   72.3750000       1.16047515E-18
   72.5000000       9.35139346E-18
   72.6250000       1.79227903E-17
   72.7500000       2.65068224E-17
   72.8750000       3.46974705E-17
   73.0000000       4.20660252E-17
   73.1250000       4.81792539E-17
   73.2500000       5.26196157E-17
   73.3750000       5.50067795E-17
   73.5000000       5.50195644E-17
   73.6250000       5.24172211E-17
   73.7500000       4.70590859E-17
   73.8750000       3.89213393E-17
   74.0000000       2.81099464E-17
   74.1250000       1.48686410E-17
   74.2500000      -4.18819613E-19
   74.3750000      -1.72328936E-17
   74.5000000      -3.49293392E-17
   74.6250000      -5.27573611E-17
   74.7500000      -6.98845923E-17
   74.8750000      -8.54284410E-17
   75.0000000      -9.84928720E-17
   75.1250000      -1.08209485E-16
   75.2500000      -1.13781221E-16
   75.3750000      -1.14527060E-16
   75.5000000      -1.09925487E-16
   75.6250000      -9.96547497E-17
   75.7500000      -8.36274967E-17
   75.8750000      -6.20177936E-17
   76.0000000      -3.52783995E-17
   76.1250000      -4.14665269E-18
   76.2500000       3.03624320E-17
   76.3750000       6.69767679E-17
   76.5000000       1.04201722E-16
   76.6250000       1.40368328E-16
   76.7500000       1.73694151E-16
   76.8750000       2.02355192E-16
   77.0000000       2.24566328E-16
   77.1250000       2.38667627E-16
   77.2500000       2.43212726E-16
   77.3750000       2.37055511E-16
   77.5000000       2.19430966E-16
   77.6250000       1.90025740E-16
   77.7500000       1.49034534E-16
   77.8750000       9.71979836E-17
   78.0000000       3.58191738E-17
   78.1250000      -3.32442862E-17
   78.2500000      -1.07614272E-16
   78.3750000      -1.84452846E-16
   78.5000000      -2.60549479E-16
   78.6250000      -3.32432744E-16
   78.7500000      -3.96503746E-16
   78.8750000      -4.49187131E-16
   79.0000000      -4.87093655E-16
   79.1250000      -5.07189035E-16
   79.2500000      -5.06960654E-16
   79.3750000      -4.84575320E-16
   79.5000000      -4.39019532E-16
   79.6250000      -3.70214967E-16
   79.7500000      -2.79101591E-16
   79.8750000      -1.67681792E-16
   80.0000000      -3.90210245E-17
   80.1250000       1.02799598E-16
   80.2500000       2.52779328E-16
   80.3750000       4.05143085E-16
   80.5000000       5.53532696E-16
   80.6250000       6.91239607E-16
   80.7500000       8.11471751E-16
   80.8750000       9.07644825E-16
   81.0000000       9.73687772E-16
   81.1250000       1.00434920E-15
   81.2500000       9.95491247E-16
   81.3750000       9.44356609E-16
   81.5000000       8.49795651E-16
   81.6250000       7.12439306E-16
   81.7500000       5.34806386E-16
   81.8750000       3.21336322E-16
   82.0000000       7.83390266E-17
   82.1250000      -1.86141141E-16
   82.2500000      -4.62547699E-16
   82.3750000      -7.40117378E-16
   82.5000000      -1.00726035E-15
   82.6250000      -1.25200522E-15
   82.7500000      -1.46249185E-15
   82.8750000      -1.62749546E-15
   83.0000000      -1.73695933E-15
   83.1250000      -1.78251413E-15
   83.2500000      -1.75795907E-15
   83.3750000      -1.65968324E-15
   83.5000000      -1.48699937E-15
   83.6250000      -1.24237425E-15
   83.7500000      -9.31535072E-16
   83.8750000      -5.63439911E-16
   84.0000000      -1.50103264E-16
   84.1250000       2.93725112E-16
   84.2500000       7.51024357E-16
   84.3750000       1.20309892E-15
   84.5000000       1.63028929E-15
   84.6250000       2.01277411E-15
   84.7500000       2.33143341E-15
   84.8750000       2.56874176E-15
   85.0000000       2.70964718E-15
   85.1250000       2.74240533E-15
   85.2500000       2.65931817E-15
   85.3750000       2.45734719E-15
   85.5000000       2.13855893E-15
   85.6250000       1.71037244E-15
   85.7500000       1.18558725E-15
   85.8750000       5.82171092E-16
   86.0000000      -7.71977292E-17
   86.1250000      -7.65831551E-16
   86.2500000      -1.45396255E-15
   86.3750000      -2.10987543E-15
   86.5000000      -2.70120819E-15
   86.6250000      -3.19637751E-15
   86.7500000      -3.56606673E-15
   86.8750000      -3.78472278E-15
   87.0000000      -3.83199738E-15
   87.1250000      -3.69405256E-15
   87.2500000      -3.36467978E-15
   87.3750000      -2.84615373E-15
   87.5000000      -2.14977618E-15
   87.6250000      -1.29605231E-15
   87.7500000      -3.14474931E-16
   87.8750000       7.57115371E-16
   88.0000000       1.87358669E-15
   88.1250000       2.98398336E-15
   88.2500000       4.03336507E-15
   88.3750000       4.96497129E-15
   88.5000000       5.72263845E-15
   88.6250000       6.25338633E-15
   88.7500000       6.51007331E-15
   88.8750000       6.45401582E-15
   89.0000000       6.05745151E-15
   89.1250000       5.30572925E-15
   89.2500000       4.19911163E-15
   89.3750000       2.75408612E-15
   89.5000000       1.00408048E-15
   89.6250000      -1.00048355E-15
   89.7500000      -3.19286253E-15
   89.8750000      -5.49142048E-15
   90.0000000      -7.80180364E-15
   90.1250000      -1.00198458E-14
   90.2500000      -1.20351337E-14
   90.3750000      -1.37351390E-14
   90.5000000      -1.50097965E-14
   90.6250000      -1.57563680E-14
   90.7500000      -1.58844360E-14
   90.8750000      -1.53207982E-14
   91.0000000      -1.40140983E-14
   91.1250000      -1.19389641E-14
   91.2500000      -9.09942847E-15
   91.3750000      -5.53149022E-15
   91.5000000      -1.30456955E-15
   91.6250000       3.47820951E-15
   91.7500000       8.68107805E-15
   91.8750000       1.41380599E-14
   92.0000000       1.96568005E-14
   92.1250000       2.50237639E-14
   92.2500000       3.00106924E-14
   92.3750000       3.43821854E-14
   92.5000000       3.79041958E-14
   92.6250000       4.03531714E-14
   92.7500000       4.15255734E-14
   92.8750000       4.12474179E-14
   93.0000000       3.93834643E-14
   93.1250000       3.58457194E-14
   93.2500000       3.06008474E-14
   93.3750000       2.36761193E-14
   93.5000000       1.51636008E-14
   93.6250000       5.22226136E-15
   93.7500000      -5.92224091E-15
   93.8750000      -1.79802411E-14
   94.0000000      -3.06033038E-14
   94.1250000      -4.33920478E-14
   94.2500000      -5.59064175E-14
   94.3750000      -6.76782306E-14
   94.5000000      -7.82257221E-14
   94.6250000      -8.70696812E-14
   94.7500000      -9.37506976E-14
   94.8750000      -9.78470302E-14
   95.0000000      -9.89924492E-14
   95.1250000      -9.68934067E-14
   95.2500000      -9.13449207E-14
   95.3750000      -8.22444529E-14
   95.5000000      -6.96032180E-14
   95.6250000      -5.35542646E-14
   95.7500000      -3.43568998E-14
   95.8750000      -1.23970277E-14
   96.0000000       1.18169304E-14
   96.1250000       3.76625916E-14
   96.2500000       6.44167133E-14
   96.3750000       9.12726315E-14
   96.5000000       1.17361741E-13
   96.6250000       1.41778462E-13
   96.7500000       1.63608127E-13
   96.8750000       1.81956961E-13
   97.0000000       1.95983190E-13
   97.1250000       2.04928427E-13
   97.2500000       2.08148088E-13
   97.3750000       2.05139860E-13
   97.5000000       1.95569079E-13
   97.6250000       1.79290041E-13
   97.7500000       1.56362160E-13
   97.8750000       1.27060268E-13
   98.0000000       9.18783753E-14
   98.1250000       5.15263017E-14
   98.2500000       6.91902039E-15
   98.3750000      -4.08412656E-14
   98.5000000      -9.04902035E-14
   98.6250000      -1.40632989E-13
   98.7500000      -1.89781798E-13
   98.8750000      -2.36398276E-13
   99.0000000      -2.78939469E-13
   99.1250000      -3.15906372E-13
   99.2500000      -3.45892992E-13
   99.3750000      -3.67634688E-13
   99.5000000      -3.80054224E-13
   99.6250000      -3.82303482E-13
   99.7500000      -3.73799732E-13
   99.8750000      -3.54254847E-13
   100.000000      -3.23696148E-13
   100.125000      -2.82478278E-13
   100.250000      -2.31284664E-13
   100.375000      -1.71119195E-13
   100.500000      -1.03287137E-13
   100.625000      -2.93661681E-14
   100.750000       4.88320220E-14
   100.875000       1.29308551E-13
   101.000000       2.09931153E-13
   101.125000       2.88493513E-13
   101.250000       3.62778248E-13
   101.375000       4.30621684E-13
   101.500000       4.89977958E-13
   101.625000       5.38981132E-13
   101.750000       5.76002028E-13
   101.875000       5.99699652E-13
   102.000000       6.09063418E-13
   102.125000       6.03446600E-13
   102.250000       5.82588502E-13
   102.375000       5.46625733E-13
   102.500000       4.96091015E-13