  -4.50000000         0.00000000    
  -4.37500000         0.00000000    
  -4.25000000         0.00000000    
  -4.12500000         0.00000000    
  -4.00000000         0.00000000    
  -3.87500000         0.00000000    
  -3.75000000         0.00000000    
  -3.62500000         0.00000000    
  -3.50000000         0.00000000    
  -3.37500000         0.00000000    
  -3.25000000         0.00000000    
  -3.12500000         0.00000000    
  -3.00000000         0.00000000    
  -2.87500000         0.00000000    
  -2.75000000         0.00000000    
  -2.62500000         0.00000000    
  -2.50000000         0.00000000    
  -2.37500000         0.00000000    
  -2.25000000         0.00000000    
  -2.12500000         0.00000000    
  -2.00000000         0.00000000    
  -1.87500000         0.00000000    
  -1.75000000         0.00000000    
  -1.62500000         0.00000000    
  -1.50000000         0.00000000    
  -1.37500000         0.00000000    
  -1.25000000         0.00000000    
  -1.12500000         0.00000000    
  -1.00000000         0.00000000    
 -0.875000000         0.00000000    
 -0.750000000         0.00000000    
 -0.625000000         0.00000000    
 -0.500000000         0.00000000    
 -0.375000000         0.00000000    
 -0.250000000         0.00000000    
 -0.125000000         0.00000000    
   0.00000000         0.00000000    
  0.125000000         0.00000000    
  0.250000000         0.00000000    
  0.375000000         0.00000000    
  0.500000000         0.00000000    
  0.625000000         0.00000000    
  0.750000000         0.00000000    
  0.875000000         0.00000000    
   1.00000000         0.00000000    
   1.12500000         0.00000000    
   1.25000000         0.00000000    
   1.37500000         0.00000000    
   1.50000000         0.00000000    
   1.62500000         0.00000000    
   1.75000000         0.00000000    
   1.87500000         0.00000000    
   2.00000000         0.00000000    
   2.12500000         0.00000000    
   2.25000000         0.00000000    
   2.37500000         0.00000000    
   2.50000000         0.00000000    
   2.62500000         0.00000000    
   2.75000000         0.00000000    
   2.87500000         0.00000000    
   3.00000000         0.00000000    
   3.12500000         0.00000000    
   3.25000000         0.00000000    
   3.37500000         0.00000000    
   3.50000000         0.00000000    
   3.62500000         0.00000000    
   3.75000000         0.00000000    
   3.87500000         0.00000000    
   4.00000000         0.00000000    
   4.12500000         0.00000000    
   4.25000000         0.00000000    
   4.37500000         0.00000000    
   4.50000000         0.00000000    
   4.62500000         0.00000000    
   4.75000000         0.00000000    
   4.87500000         0.00000000    
   5.00000000         0.00000000    
   5.12500000         0.00000000    
   5.25000000         0.00000000    
   5.37500000         0.00000000    
   5.50000000         0.00000000    
   5.62500000         0.00000000    
   5.75000000         0.00000000    
   5.87500000         0.00000000    
   6.00000000         0.00000000    
   6.12500000         0.00000000    
   6.25000000         0.00000000    
   6.37500000         0.00000000    
   6.50000000         0.00000000    
   6.62500000         0.00000000    
   6.75000000         0.00000000    
   6.87500000         0.00000000    
   7.00000000         0.00000000    
   7.12500000         0.00000000    
   7.25000000         0.00000000    
   7.37500000         0.00000000    
   7.50000000         0.00000000    
   7.62500000         0.00000000    
   7.75000000         0.00000000    
   7.87500000         0.00000000    
   8.00000000         0.00000000    
   8.12500000         0.00000000    
   8.25000000         0.00000000    
   8.37500000         0.00000000    
   8.50000000         0.00000000    
   8.62500000         0.00000000    
   8.75000000         0.00000000    
   8.87500000         0.00000000    
   9.00000000         0.00000000    
   9.12500000         0.00000000    
   9.25000000         0.00000000    
   9.37500000         0.00000000    
   9.50000000         0.00000000    
   9.62500000         0.00000000    
   9.75000000         0.00000000    
   9.87500000         0.00000000    
   10.0000000         0.00000000    
   10.1250000         0.00000000    
   10.2500000         0.00000000    
   10.3750000         0.00000000    
   10.5000000         0.00000000    
   10.6250000         0.00000000    
   10.7500000         0.00000000    
   10.8750000         0.00000000    
   11.0000000         0.00000000    
   11.1250000         0.00000000    
   11.2500000         0.00000000    
   11.3750000         0.00000000    
   11.5000000         0.00000000    
   11.6250000         0.00000000    
   11.7500000         0.00000000    
   11.8750000         0.00000000    
   12.0000000         0.00000000    
   12.1250000         0.00000000    
   12.2500000         0.00000000    
   12.3750000         0.00000000    
   12.5000000         0.00000000    
   12.6250000         0.00000000    
   12.7500000         0.00000000    
   12.8750000         0.00000000    
   13.0000000         0.00000000    
   13.1250000         0.00000000    
   13.2500000         0.00000000    
   13.3750000         0.00000000    
   13.5000000         0.00000000    
   13.6250000         0.00000000    
   13.7500000         0.00000000    
   13.8750000         0.00000000    
   14.0000000         0.00000000    
   14.1250000         0.00000000    
   14.2500000         0.00000000    
   14.3750000         0.00000000    
   14.5000000         0.00000000    
   14.6250000         0.00000000    
   14.7500000         0.00000000    
   14.8750000         0.00000000    
   15.0000000         0.00000000    
   15.1250000         0.00000000    
   15.2500000         0.00000000    
   15.3750000         0.00000000    
   15.5000000         0.00000000    
   15.6250000         0.00000000    
   15.7500000         0.00000000    
   15.8750000         0.00000000    
   16.0000000         0.00000000    
   16.1250000         0.00000000    
   16.2500000         0.00000000    
   16.3750000         0.00000000    
   16.5000000         0.00000000    
   16.6250000         0.00000000    
   16.7500000         0.00000000    
   16.8750000         0.00000000    
   17.0000000         0.00000000    
   17.1250000         0.00000000    
   17.2500000         0.00000000    
   17.3750000         0.00000000    
   17.5000000         0.00000000    
   17.6250000         0.00000000    
   17.7500000         0.00000000    
   17.8750000         0.00000000    
   18.0000000         0.00000000    
   18.1250000         0.00000000    
   18.2500000         0.00000000    
   18.3750000         0.00000000    
   18.5000000         0.00000000    
   18.6250000         0.00000000    
   18.7500000         0.00000000    
   18.8750000         0.00000000    
   19.0000000         0.00000000    
   19.1250000         0.00000000    
   19.2500000         0.00000000    
   19.3750000         0.00000000    
   19.5000000         0.00000000    
   19.6250000         0.00000000    
   19.7500000         0.00000000    
   19.8750000         0.00000000    
   20.0000000         0.00000000    
   20.1250000         0.00000000    
   20.2500000         0.00000000    
   20.3750000         0.00000000    
   20.5000000         0.00000000    
   20.6250000         0.00000000    
   20.7500000         0.00000000    
   20.8750000         0.00000000    
   21.0000000         0.00000000    
   21.1250000         0.00000000    
   21.2500000         0.00000000    
   21.3750000         0.00000000    
   21.5000000         0.00000000    
   21.6250000         0.00000000    
   21.7500000         0.00000000    
   21.8750000         0.00000000    
   22.0000000         0.00000000    
   22.1250000         0.00000000    
   22.2500000         0.00000000    
   22.3750000         0.00000000    
   22.5000000         0.00000000    
   22.6250000         0.00000000    
   22.7500000         0.00000000    
   22.8750000         0.00000000    
   23.0000000         0.00000000    
   23.1250000         0.00000000    
   23.2500000         0.00000000    
   23.3750000         0.00000000    
   23.5000000         0.00000000    
   23.6250000         0.00000000    
   23.7500000         0.00000000    
   23.8750000         0.00000000    
   24.0000000         0.00000000    
   24.1250000         0.00000000    
   24.2500000         0.00000000    
   24.3750000         0.00000000    
   24.5000000         0.00000000    
   24.6250000         0.00000000    
   24.7500000         0.00000000    
   24.8750000         0.00000000    
   25.0000000         0.00000000    
   25.1250000         0.00000000    
   25.2500000         0.00000000    
   25.3750000         0.00000000    
   25.5000000         0.00000000    
   25.6250000         0.00000000    
   25.7500000         0.00000000    
   25.8750000         0.00000000    
   26.0000000         0.00000000    
   26.1250000         0.00000000    
   26.2500000         0.00000000    
   26.3750000         0.00000000    
   26.5000000         0.00000000    
   26.6250000         0.00000000    
   26.7500000         0.00000000    
   26.8750000         0.00000000    
   27.0000000         0.00000000    
   27.1250000         0.00000000    
   27.2500000         0.00000000    
   27.3750000         0.00000000    
   27.5000000         0.00000000    
   27.6250000         0.00000000    
   27.7500000         0.00000000    
   27.8750000         0.00000000    
   28.0000000         0.00000000    
   28.1250000         0.00000000    
   28.2500000         0.00000000    
   28.3750000         0.00000000    
   28.5000000         0.00000000    
   28.6250000         0.00000000    
   28.7500000         0.00000000    
   28.8750000         0.00000000    
   29.0000000        -2.15765349E-33
   29.1250000        -3.14322524E-33
   29.2500000        -2.77234539E-33
   29.3750000        -2.79539261E-33
   29.5000000         1.05940474E-35
   29.6250000         3.87534957E-33
   29.7500000         1.07203241E-32
   29.8750000         3.51209265E-32
   30.0000000         6.00486125E-32
   30.1250000         6.35572574E-32
   30.2500000         3.15444703E-32
   30.3750000        -2.94249276E-32
   30.5000000        -8.93898508E-32
   30.6250000        -9.94392872E-32
   30.7500000        -4.27530381E-32
   30.8750000         1.61427230E-32
   31.0000000         1.71332695E-32
   31.1250000         3.34221035E-33
   31.2500000         5.49293640E-32
   31.3750000         2.49812063E-31
   31.5000000         6.63221530E-31
   31.6250000         8.97608333E-31
   31.7500000         3.49487001E-31
   31.8750000        -8.60690381E-31
   32.0000000        -2.89832501E-30
   32.1250000        -5.01959974E-30
   32.2500000        -6.63560881E-30
   32.3750000        -7.03050645E-30
   32.5000000        -1.01987063E-29
   32.6250000        -1.47914354E-29
   32.7500000        -1.97028562E-29
   32.8750000        -2.44114073E-29
   33.0000000        -2.46061986E-29
   33.1250000        -2.21659039E-29
   33.2500000        -1.27933342E-29
   33.3750000         8.16862798E-30
   33.5000000         3.30091964E-29
   33.6250000         5.46308205E-29
   33.7500000         7.56832931E-29
   33.8750000         9.35714749E-29
   34.0000000         1.11886948E-28
   34.1250000         1.33683275E-28
   34.2500000         1.70845105E-28
   34.3750000         2.20455086E-28
   34.5000000         2.85901315E-28
   34.6250000         3.64662389E-28
   34.7500000         4.54665115E-28
   34.8750000         5.41498893E-28
   35.0000000         6.06534947E-28
   35.1250000         6.32386416E-28
   35.2500000         6.02788098E-28
   35.3750000         5.09700826E-28
   35.5000000         3.59116047E-28
   35.6250000         1.64240284E-28
   35.7500000        -5.76033248E-29
   35.8750000        -3.14747942E-28
   36.0000000        -6.26436881E-28
   36.1250000        -9.98170394E-28
   36.2500000        -1.44367169E-27
   36.3750000        -1.94915493E-27
   36.5000000        -2.48153762E-27
   36.6250000        -2.97515732E-27
   36.7500000        -3.37314920E-27
   36.8750000        -3.61790793E-27
   37.0000000        -3.65563883E-27
   37.1250000        -3.43662939E-27
   37.2500000        -2.91957036E-27
   37.3750000        -2.05855564E-27
   37.5000000        -8.23530918E-28
   37.6250000         8.12833052E-28
   37.7500000         2.86070142E-27
   37.8750000         5.30820189E-27
   38.0000000         8.09749079E-27
   38.1250000         1.11110419E-26
   38.2500000         1.41742065E-26
   38.3750000         1.70763411E-26
   38.5000000         1.95543273E-26
   38.6250000         2.13266235E-26
   38.7500000         2.21074217E-26
   38.8750000         2.16087583E-26
   39.0000000         1.95566353E-26
   39.1250000         1.57114114E-26
   39.2500000         9.86951428E-27
   39.3750000         1.89923039E-27
   39.5000000        -8.23959900E-27
   39.6250000        -2.04521634E-26
   39.7500000        -3.44752800E-26
   39.8750000        -4.98516304E-26
   40.0000000        -6.59205452E-26
   40.1250000        -8.18023182E-26
   40.2500000        -9.64262895E-26
   40.3750000        -1.08553066E-25
   40.5000000        -1.16802271E-25
   40.6250000        -1.19721759E-25
   40.7500000        -1.15850054E-25
   40.8750000        -1.03798047E-25
   41.0000000        -8.23547242E-26
   41.1250000        -5.06113281E-26
   41.2500000        -8.08314492E-27
   41.3750000         4.51504847E-26
   41.5000000         1.08320352E-25
   41.6250000         1.79854518E-25
   41.7500000         2.57298546E-25
   41.8750000         3.37268630E-25
   42.0000000         4.15453990E-25
   42.1250000         4.86681030E-25
   42.2500000         5.45034304E-25
   42.3750000         5.84050871E-25
   42.5000000         5.96988289E-25
   42.6250000         5.77168356E-25
   42.7500000         5.18396098E-25
   42.8750000         4.15438953E-25
   43.0000000         2.64550248E-25
   43.1250000         6.40153784E-26
   43.2500000        -1.85305041E-25
   43.3750000        -4.79470743E-25
   43.5000000        -8.11037560E-25
   43.6250000        -1.16874900E-24
   43.7500000        -1.53739149E-24
   43.8750000        -1.89785103E-24
   44.0000000        -2.22741207E-24
   44.1250000        -2.50032955E-24
   44.2500000        -2.68869553E-24
   44.3750000        -2.76360675E-24
   44.5000000        -2.69662772E-24
   44.6250000        -2.46152311E-24
   44.7500000        -2.03621211E-24
   44.8750000        -1.40487696E-24
   45.0000000        -5.60137687E-25
   45.1250000         4.94815172E-25
   45.2500000         1.74425981E-24
   45.3750000         3.15830344E-24
   45.5000000         4.69171355E-24
   45.6250000         6.28338440E-24
   45.7500000         7.85659471E-24
   45.8750000         9.32018886E-24
   46.0000000         1.05707929E-23
   46.1250000         1.14961481E-23
   46.2500000         1.19795605E-23
   46.3750000         1.19054572E-23
   46.5000000         1.11659498E-23
   46.6250000         9.66822009E-24
   46.7500000         7.34250589E-24
   46.8750000         4.15034987E-24
   47.0000000         9.27228279E-26
   47.1250000        -4.78244952E-24
   47.2500000        -1.03738585E-23
   47.3750000        -1.65220590E-23
   47.5000000        -2.30069406E-23
   47.6250000        -2.95479685E-23
   47.7500000        -3.58076871E-23
   47.8750000        -4.13989091E-23
   48.0000000        -4.58958612E-23
   48.1250000        -4.88494069E-23
   48.2500000        -4.98063204E-23
   48.3750000        -4.83323149E-23
   48.5000000        -4.40383651E-23
   48.6250000        -3.66094695E-23
   48.7500000        -2.58348460E-23
   48.8750000        -1.16382724E-23
   49.0000000         5.89296451E-24
   49.1250000         2.64823572E-23
   49.2500000         4.96434932E-23
   49.3750000         7.46664041E-23
   49.5000000         1.00612948E-22
   49.6250000         1.26322935E-22
   49.7500000         1.50432809E-22
   49.8750000         1.71407976E-22
   50.0000000         1.87589785E-22
   50.1250000         1.97257168E-22
   50.2500000         1.98702715E-22
   50.3750000         1.90321806E-22
   50.5000000         1.70712580E-22
   50.6250000         1.38783857E-22
   50.7500000         9.38668431E-23
   50.8750000         3.58257110E-23
   51.0000000        -3.48385998E-23
   51.1250000        -1.16897890E-22
   51.2500000        -2.08326338E-22
   51.3750000        -3.06257311E-22
   51.5000000        -4.06974452E-22
   51.6250000        -5.05943780E-22
   51.7500000        -5.97892296E-22
   51.8750000        -6.76937673E-22
   52.0000000        -7.36771801E-22
   52.1250000        -7.70898555E-22
   52.2500000        -7.72923895E-22
   52.3750000        -7.36893778E-22
   52.5000000        -6.57669878E-22
   52.6250000        -5.31333034E-22
   52.7500000        -3.55598857E-22
   52.8750000        -1.30226799E-22
   53.0000000         1.42599685E-22
   53.1250000         4.57944585E-22
   53.2500000         8.07869348E-22
   53.3750000         1.18128732E-21
   53.5000000         1.56394913E-21
   53.6250000         1.93858319E-21
   53.7500000         2.28521286E-21
   53.8750000         2.58166482E-21
   54.0000000         2.80428021E-21
   54.1250000         2.92882461E-21
   54.2500000         2.93159554E-21
   54.3750000         2.79069635E-21
   54.5000000         2.48745125E-21
   54.6250000         2.00791187E-21
   54.7500000         1.34439427E-21
   54.8750000         4.96978786E-22
   55.0000000        -5.25114892E-22
   55.1250000        -1.70236557E-21
   55.2500000        -3.00409885E-21
   55.3750000        -4.38804452E-21
   55.5000000        -5.80039887E-21
   55.6250000        -7.17648248E-21
   55.7500000        -8.44205347E-21
   55.8750000        -9.51534455E-21
   56.0000000        -1.03098313E-20
   56.1250000        -1.07377285E-20
   56.2500000        -1.07141659E-20
   56.3750000        -1.01619486E-20
   56.5000000        -9.01675174E-21
   56.6250000        -7.23258778E-21
   56.7500000        -4.78727993E-21
   56.8750000        -1.68769654E-21
   57.0000000         2.02558458E-21
   57.1250000         6.27451432E-21
   57.2500000         1.09410525E-20
   57.3750000         1.58662450E-20
   57.5000000         2.08512118E-20
   57.6250000         2.56603333E-20
   57.7500000         3.00268210E-20
   57.8750000         3.36608419E-20
   58.0000000         3.62601762E-20
   58.1250000         3.75232875E-20
   58.2500000         3.71645819E-20
   58.3750000         3.49314140E-20
   58.5000000         3.06222683E-20
   58.6250000         2.41054001E-20
   58.7500000         1.53370078E-20
   58.8750000         4.37801010E-21
   59.0000000        -8.59176427E-21
   59.1250000        -2.32630330E-20
   59.2500000        -3.91913586E-20
   59.3750000        -5.57973584E-20
   59.5000000        -7.23737993E-20
   59.6250000        -8.81003187E-20
   59.7500000        -1.02066236E-19
   59.8750000        -1.13301681E-19
   60.0000000        -1.20816643E-19
   60.1250000        -1.23647410E-19
   60.2500000        -1.20909016E-19
   60.3750000        -1.11852138E-19
   60.5000000        -9.59221063E-20
   60.6250000        -7.28174719E-20
   60.7500000        -4.25449814E-20
   60.8750000        -5.46761457E-21
   61.0000000         3.76578142E-20
   61.1250000         8.56571051E-20
   61.2500000         1.36932513E-19
   61.3750000         1.89476951E-19
   61.5000000         2.40911106E-19
   61.6250000         2.88544922E-19
   61.7500000         3.29464177E-19
   61.8750000         3.60641648E-19
   62.0000000         3.79070741E-19
   62.1250000         3.81918310E-19
   62.2500000         3.66692190E-19
   62.3750000         3.31416194E-19
   62.5000000         2.74806021E-19
   62.6250000         1.96436332E-19
   62.7500000         9.68899140E-20
   62.8750000        -2.21219067E-20
   63.0000000        -1.57677246E-19
   63.1250000        -3.05610278E-19
   63.2500000        -4.60535184E-19
   63.3750000        -6.15934607E-19
   63.5000000        -7.64317316E-19
   63.6250000        -8.97447434E-19
   63.7500000        -1.00664365E-18
   63.8750000        -1.08314379E-18
   64.0000000        -1.11852603E-18
   64.1250000        -1.10517244E-18
   64.2500000        -1.03675902E-18
   64.3750000        -9.08750754E-19
   64.5000000        -7.18877545E-19
   64.6250000        -4.67565082E-19
   64.7500000        -1.58292242E-19
   64.8750000         2.02152964E-19
   65.0000000         6.03545303E-19
   65.1250000         1.03224613E-18
   65.2500000         1.47139942E-18
   65.3750000         1.90131248E-18
   65.5000000         2.30002925E-18
   65.6250000         2.64409234E-18
   65.7500000         2.90948269E-18
   65.8750000         3.07271273E-18
   66.0000000         3.11204144E-18
   66.1250000         3.00876525E-18
   66.2500000         2.74853423E-18
   66.3750000         2.32262741E-18
   66.5000000         1.72912367E-18
   66.6250000         9.73894846E-19
   66.7500000         7.13489419E-20
   66.8750000        -9.55145764E-19
   67.0000000        -2.07321654E-18
   67.1250000        -3.24187323E-18
   67.2500000        -4.41236419E-18
   67.3750000        -5.52951752E-18
   67.5000000        -6.53356465E-18
   67.6250000        -7.36241534E-18
   67.7500000        -7.95433834E-18
   67.8750000        -8.25095373E-18
   68.0000000        -8.20044856E-18
   68.1250000        -7.76086741E-18
   68.2500000        -6.90335078E-18
   68.3750000        -5.61513030E-18
   68.5000000        -3.90213727E-18
   68.6250000        -1.79102160E-18
   68.7500000         6.69561967E-19
   68.8750000         3.40857122E-18
   69.0000000         6.33320538E-18
   69.1250000         9.33065356E-18
   69.2500000         1.22709994E-17
   69.3750000         1.50112767E-17
   69.5000000         1.74006375E-17
   69.6250000         1.92864786E-17
   69.7500000         2.05213964E-17
   69.8750000         2.09706779E-17
   70.0000000         2.05200729E-17
   70.1250000         1.90834935E-17
   70.2500000         1.66102764E-17
   70.3750000         1.30915940E-17
   70.5000000         8.56564467E-18
   70.6250000         3.12121446E-18
   70.7500000        -3.10072644E-18
   70.8750000        -9.90767904E-18
   71.0000000        -1.70587588E-17
   71.1250000        -2.42704271E-17
   71.2500000        -3.12248340E-17
   71.3750000        -3.75806582E-17
   71.5000000        -4.29862140E-17
   71.6250000        -4.70944131E-17
   71.7500000        -4.95791380E-17
   71.8750000        -5.01523410E-17
   72.0000000        -4.85812240E-17
   72.1250000        -4.47046189E-17
   72.2500000        -3.84478015E-17
   72.3750000        -2.98348430E-17
   72.5000000        -1.89976867E-17
   72.6250000        -6.18119605E-18
   72.7500000         8.25645779E-18
   72.8750000         2.38485485E-17
   73.0000000         4.00299830E-17
   73.1250000         5.61529772E-17
   73.2500000         7.15080302E-17
   73.3750000         8.53497331E-17
   73.5000000         9.69267478E-17
   73.6250000         1.05514808E-16
   73.7500000         1.10451707E-16
   73.8750000         1.11172770E-16
   74.0000000         1.07245019E-16
   74.1250000         9.83988513E-17
   74.2500000         8.45548787E-17
   74.3750000         6.58448076E-17
   74.5000000         4.26246600E-17
   74.6250000         1.54789200E-17
   74.7500000        -1.47851421E-17
   74.8750000        -4.71537451E-17
   75.0000000        -8.04336134E-17
   75.1250000        -1.13289360E-16
   75.2500000        -1.44290501E-16
   75.3750000        -1.71966680E-16
   75.5000000        -1.94869353E-16
   75.6250000        -2.11637548E-16
   75.7500000        -2.21065064E-16
   75.8750000        -2.22166207E-16
   76.0000000        -2.14236814E-16
   76.1250000        -1.96907420E-16
   76.2500000        -1.70185674E-16
   76.3750000        -1.34484797E-16
   76.5000000        -9.06361451E-17
   76.6250000        -3.98838136E-17
   76.7500000         1.61399365E-17
   76.8750000         7.54585521E-17
   77.0000000         1.35813991E-16
   77.1250000         1.94746784E-16
   77.2500000         2.49691204E-16
   77.3750000         2.98082064E-16
   77.5000000         3.37469043E-16
   77.6250000         3.65633842E-16
   77.7500000         3.80705020E-16
   77.8750000         3.81264697E-16
   78.0000000         3.66441991E-16
   78.1250000         3.35987424E-16
   78.2500000         2.90323772E-16
   78.3750000         2.30569145E-16
   78.5000000         1.58529244E-16
   78.6250000         7.66573486E-17
   78.7500000        -1.20190691E-17
   78.8750000        -1.04003073E-16
   79.0000000        -1.95462091E-16
   79.1250000        -2.82386147E-16
   79.2500000        -3.60764991E-16
   79.3750000        -4.26776333E-16
   79.5000000        -4.76977487E-16
   79.6250000        -5.08491084E-16
   79.7500000        -5.19175504E-16
   79.8750000        -5.07770629E-16
   80.0000000        -4.74010331E-16
   80.1250000        -4.18693415E-16
   80.2500000        -3.43707229E-16
   80.3750000        -2.51998919E-16
   80.5000000        -1.47492471E-16
   80.6250000        -3.49511801E-17
   80.7500000         8.02109496E-17
   80.8750000         1.92163559E-16
   81.0000000         2.94931896E-16
   81.1250000         3.82695150E-16
   81.2500000         4.50098538E-16
   81.3750000         4.92564694E-16
   81.5000000         5.06588277E-16
   81.6250000         4.89998501E-16
   81.7500000         4.42172851E-16
   81.8750000         3.64189121E-16
   82.0000000         2.58900200E-16
   82.1250000         1.30925883E-16
   82.2500000        -1.34483396E-17
   82.3750000        -1.66465797E-16
   82.5000000        -3.19186155E-16
   82.6250000        -4.61857579E-16
   82.7500000        -5.84363901E-16
   82.8750000        -6.76728609E-16
   83.0000000        -7.29659009E-16
   83.1250000        -7.35103896E-16
   83.2500000        -6.86799883E-16
   83.3750000        -5.80778781E-16
   83.5000000        -4.15807389E-16
   83.6250000        -1.93732092E-16
   83.7500000         8.02963544E-17
   83.8750000         3.97739408E-16
   84.0000000         7.46745834E-16
   84.1250000         1.11239683E-15
   84.2500000         1.47712022E-15
   84.3750000         1.82127733E-15
   84.5000000         2.12390081E-15
   84.6250000         2.36357090E-15
   84.7500000         2.51939510E-15
   84.8750000         2.57206192E-15
   85.0000000         2.50491995E-15
   85.1250000         2.30504050E-15
   85.2500000         1.96420990E-15
   85.3750000         1.47980563E-15
   85.5000000         8.55499200E-16
   85.6250000         1.01746967E-16
   85.7500000        -7.63977290E-16
   85.8750000        -1.71723659E-15
   86.0000000        -2.72699780E-15
   86.1250000        -3.75631880E-15
   86.2500000        -4.76335585E-15
   86.3750000        -5.70267176E-15
   86.5000000        -6.52682085E-15
   86.6250000        -7.18815791E-15
   86.7500000        -7.64081994E-15
   86.8750000        -7.84280427E-15
   87.0000000        -7.75807556E-15
   87.1250000        -7.35860466E-15
   87.2500000        -6.62625235E-15
   87.3750000        -5.55441770E-15
   87.5000000        -4.14934759E-15
   87.6250000        -2.43104766E-15
   87.7500000        -4.33709245E-16
   87.8750000         1.79438996E-15
   88.0000000         4.19155228E-15
   88.1250000         6.68390607E-15
   88.2500000         9.18723529E-15
   88.3750000         1.16093506E-14
   88.5000000         1.38529528E-14
   88.6250000         1.58189180E-14
   88.7500000         1.74098966E-14
   88.8750000         1.85341329E-14
   89.0000000         1.91093360E-14
   89.1250000         1.90664931E-14
   89.2500000         1.83534642E-14
   89.3750000         1.69381958E-14
   89.5000000         1.48114214E-14
   89.6250000         1.19887188E-14
   89.7500000         8.51177310E-15
   89.8750000         4.44878772E-15
   90.0000000        -1.06055467E-16
   90.1250000        -5.03410527E-15
   90.2500000        -1.01947649E-14
   90.3750000        -1.54289525E-14
   90.5000000        -2.05634629E-14
   90.6250000        -2.54161367E-14
   90.7500000        -2.98016582E-14
   90.8750000        -3.35378460E-14
   91.0000000        -3.64522492E-14
   91.1250000        -3.83887936E-14
   91.2500000        -3.92142712E-14
   91.3750000        -3.88244294E-14
   91.5000000        -3.71494149E-14
   91.6250000        -3.41583519E-14
   91.7500000        -2.98628310E-14
   91.8750000        -2.43191392E-14
   92.0000000        -1.76290579E-14
   92.1250000        -9.93913881E-15
   92.2500000        -1.43838498E-15
   92.3750000         7.64566158E-15
   92.5000000         1.70523961E-14
   92.6250000         2.64950788E-14
   92.7500000         3.56690385E-14
   92.8750000         4.42609884E-14
   93.0000000         5.19591457E-14
   93.1250000         5.84638742E-14
   93.2500000         6.34984957E-14
   93.3750000         6.68199355E-14
   93.5000000         6.82287682E-14
   93.6250000         6.75783756E-14
   93.7500000         6.47827535E-14
   93.8750000         5.98226574E-14
   94.0000000         5.27498408E-14
   94.1250000         4.36890107E-14
   94.2500000         3.28374006E-14
   94.3750000         2.04618732E-14
   94.5000000         6.89333327E-15
   94.6250000        -7.48124486E-15
   94.7500000        -2.22292531E-14
   94.8750000        -3.68850322E-14
   95.0000000        -5.09642580E-14
   95.1250000        -6.39797799E-14
   95.2500000        -7.54584315E-14
   95.3750000        -8.49581703E-14
   95.5000000        -9.20851530E-14
   95.6250000        -9.65099311E-14
   95.7500000        -9.79822573E-14
   95.8750000        -9.63438720E-14
   96.0000000        -9.15386473E-14
   96.1250000        -8.36196279E-14
   96.2500000        -7.27524662E-14
   96.3750000        -5.92149485E-14
   96.5000000        -4.33924035E-14
   96.6250000        -2.57688954E-14