 -4.5   7.850519938E-19
 -4.37296724   7.85062075E-19
 -4.24593449   7.850812036E-19
 -4.11890221   7.851078802E-19
 -3.99186945   7.851392613E-19
 -3.86483669   7.851725036E-19
 -3.73780417   7.852045569E-19
 -3.61077142   7.852327327E-19
 -3.4837389   7.852552217E-19
 -3.35670614   7.852708347E-19
 -3.22967362   7.852803473E-19
 -3.10264087   7.85285207E-19
 -2.97560835   7.852866546E-19
 -2.84857559   7.852876885E-19
 -2.72154307   7.852911524E-19
 -2.59451032   7.852984419E-19
 -2.46747756   7.853120387E-19
 -2.34044504   7.853331835E-19
 -2.21341228   7.853610491E-19
 -2.08637977   7.853954288E-19
 -1.95934713   7.854340995E-19
 -1.83231449   7.854749415E-19
 -1.70528185   7.855156285E-19
 -1.57824922   7.855533686E-19
 -1.45121646   7.855860939E-19
 -1.32418382   7.856124603E-19
 -1.19715118   7.85631227E-19
 -1.07011855   7.856435313E-19
 -0.943085909   7.856492182E-19
 -0.816053271   7.856509759E-19
 -0.689020634   7.856495801E-19
 -0.561987996   7.856484427E-19
 -0.434955359   7.856492699E-19
 -0.307922721   7.856548533E-19
 -0.180890068   7.856659686E-19
 -5.385742337E-2   7.856843733E-19
 7.317522168E-2   7.857086718E-19
 0.200207874   7.857387605E-19
 0.327240527   7.857731402E-19
 0.454273164   7.858095878E-19
 0.581305802   7.858455702E-19
 0.708338439   7.858783472E-19
 0.835371077   7.859069366E-19
 0.962403715   7.859282365E-19
 1.08943641   7.859427122E-19
 1.21646905   7.859485541E-19
 1.34350169   7.859484508E-19
 1.47053432   7.859436945E-19
 1.59756696   7.859370253E-19
 1.7245996   7.859309766E-19
 1.85163224   7.859286501E-19
 1.97866488   7.859319588E-19
 2.10569763   7.859426605E-19
 2.23273015   7.859620475E-19
 2.35976291   7.859891377E-19
 2.48679543   7.860219664E-19
 2.61382818   7.860586726E-19
 2.7408607   7.860962576E-19
 2.86789346   7.861326535E-19
 2.99492598   7.861642932E-19
 3.12195873   7.861905045E-19
 3.24899125   7.862093228E-19
 3.37602401   7.862214204E-19
 3.50305653   7.862269521E-19
 3.63008928   7.862285031E-19
 3.75712204   7.862278827E-19
 3.88415456   7.86227314E-19
 4.01118708   7.862297956E-19
 4.13821983   7.862377055E-19
 4.26525259   7.862522328E-19
 4.39228535   7.862736878E-19
 4.51931763   7.863019671E-19
 4.64635038   7.863356747E-19
 4.77338314   7.863720189E-19
 4.9004159   7.864084149E-19
 5.02744818   7.864430014E-19
 5.15448093   7.864720044E-19
 5.28151369   7.864950103E-19
 5.40854645   7.865106234E-19
 5.53557873   7.865189469E-19
 5.66261148   7.865211699E-19
 5.78964424   7.865190503E-19
 5.916677   7.86515845E-19
 6.04370975   7.86514811E-19
 6.17074203   7.865181714E-19
 6.29777479   7.8652939E-19
 6.42480755   7.865498111E-19
 6.55184031   7.865789175E-19
 6.67887259   7.86616761E-19
 6.80590534   7.866608601E-19
 6.9329381   7.867084746E-19
 7.05997086   7.867561409E-19
 7.18700314   7.868009121E-19
 7.31403589   7.868404099E-19
 7.44106865   7.868722564E-19
 7.56810141   7.868952624E-19
 7.69513416   7.869090142E-19
 7.82216644   7.869151664E-19
 7.9491992   7.869157868E-19
 8.07623196   7.869130984E-19
 8.20326424   7.869100482E-19
 8.33029747   7.869098414E-19
 8.45732975   7.869134603E-19
 8.58436203   7.869230763E-19
 8.71139526   7.86939775E-19
 8.83842754   7.869634014E-19
 8.96546078   7.869921976E-19
 9.09249306   7.870251814E-19
 9.21952534   7.870598196E-19
 9.34655857   7.870941993E-19
 9.47359085   7.871256839E-19
 9.60062313   7.871536012E-19
 9.72765636   7.871764521E-19
 9.85468864   7.871939263E-19
 9.98172188   7.872069027E-19
 10.1087542   7.872159499E-19
 10.2357864   7.87222464E-19
 10.3628197   7.872282026E-19
 10.489852   7.872356472E-19
 10.6168852   7.872462454E-19
 10.7439175   7.872613415E-19
 10.8709497   7.87280987E-19
 10.997983   7.873062677E-19
 11.1250153   7.873357877E-19
 11.2520475   7.873681512E-19
 11.3790808   7.874018071E-19
 11.5061131   7.874343773E-19
 11.6331463   7.874636905E-19
 11.7601786   7.874877305E-19
 11.8872108   7.875053081E-19
 12.0142441   7.875160097E-19
 12.1412764   7.875204558E-19
 12.2683096   7.875192667E-19
 12.3953419   7.875153376E-19
 12.5223742   7.875098059E-19
 12.6494074   7.8750567E-19
 12.7764397   7.87505153E-19
 12.9034719   7.875098576E-19
 13.0305052   7.87520249E-19
 13.1575375   7.875374647E-19
 13.2845707   7.87560419E-19
 13.411603   7.875892152E-19
 13.5386353   7.876216303E-19
 13.6656685   7.876553379E-19
 13.7927008   7.876892007E-19
 13.919734   7.87720892E-19
 14.0467663   7.877492229E-19
 14.1737986   7.87773418E-19
 14.3008318   7.877930118E-19
 14.4278641   7.878084698E-19
 14.5548964   7.878195333E-19
 14.6819296   7.878270296E-19
 14.8089619   7.878302866E-19
 14.9359951   7.878311655E-19
 15.0630274   7.878301832E-19
 15.1900597   7.878282187E-19
 15.3170929   7.878262541E-19
 15.4441252   7.878242379E-19
 15.5711575   7.878233073E-19
 15.6981907   7.878226352E-19
 15.825223   7.878219631E-19
 15.9522562   7.878198952E-19
 16.0792885   7.878143634E-19
 16.2063217   7.878038686E-19
 16.333353   7.877865495E-19
 16.4603863   7.877608035E-19
 16.5874195   7.877250796E-19
 16.7144508   7.87679016E-19
 16.8414841   7.876217854E-19
 16.9685173   7.87554577E-19
 17.0955505   7.874792002E-19
 17.2225819   7.873978263E-19
 17.3496151   7.873122648E-19
 17.4766483   7.872261863E-19
 17.6036797   7.87141969E-19
 17.7307129   7.870602849E-19
 17.8577461   7.86982168E-19
 17.9847775   7.869069463E-19
 18.1118107   7.86833017E-19
 18.2388439   7.867569164E-19
 18.3658752   7.866762663E-19
 18.4929085   7.865874478E-19
 18.6199417   7.864876174E-19
 18.7469749   7.863738801E-19
 18.8740063   7.862453569E-19
 19.0010395   7.861030818E-19
 19.1280727   7.859466413E-19
 19.2551041   7.857799127E-19
 19.3821373   7.856061531E-19
 19.5091705   7.854283609E-19
 19.6362019   7.852509824E-19
 19.7632351   7.850776364E-19
 19.8902683   7.849110112E-19
 20.0172997   7.847538469E-19
 20.1443329   7.846060917E-19
 20.2713661   7.844682627E-19
 20.3983994   7.843384471E-19
 20.5254307   7.842151455E-19
 20.6524639   7.840955662E-19
 20.7794971   7.839776412E-19
 20.9065285   7.838599231E-19
 21.0335617   7.837412227E-19
 21.1605949   7.8362154E-19
 21.2876263   7.835010301E-19
 21.4146595   7.833811923E-19
 21.5416927   7.832630606E-19
 21.6687241   7.831473587E-19
 21.7957573   7.830351206E-19
 21.9227905   7.829274321E-19
 22.0498238   7.828224835E-19
 22.1768551   7.827194995E-19
 22.3038883   7.826153265E-19
 22.4309216   7.825067073E-19
 22.5579529   7.823899715E-19
 22.6849861   7.822600007E-19
 22.8120193   7.821126075E-19
 22.9390507   7.819437592E-19
 23.0660839   7.817490616E-19
 23.1931171   7.815274289E-19
 23.3201485   7.812772584E-19
 23.4471817   7.809990156E-19
 23.5742149   7.80694458E-19
 23.7012463   7.803659639E-19
 23.8282795   7.800154978E-19
 23.9553127   7.796459032E-19
 24.082346   7.792592479E-19
 24.2093773   7.788574966E-19
 24.3364105   7.784400289E-19
 24.4634438   7.780065346E-19
 24.5904751   7.775561864E-19
 24.7175083   7.770853656E-19
 24.8445415   7.765911252E-19
 24.9715729   7.760690708E-19
 25.0986061   7.755164625E-19
 25.2256393   7.749295778E-19
 25.3526707   7.74307538E-19
 25.4797039   7.736502396E-19
 25.6067371   7.729592336E-19
 25.7337704   7.722368981E-19
 25.8608017   7.714865936E-19
 25.9878349   7.707126627E-19
 26.1148682   7.699188279E-19
 26.2418995   7.691071052E-19
 26.3689327   7.682794076E-19
 26.495966   7.674368207E-19
 26.6229973   7.665789827E-19
 26.7500305   7.657028434E-19
 26.8770638   7.648048354E-19
 27.0040951   7.638811849E-19
 27.1311283   7.629282211E-19
 27.2581615   7.619423769E-19
 27.3851948   7.609220496E-19
 27.5122261   7.598653781E-19
 27.6392593   7.58774482E-19
 27.7662926   7.57651119E-19
 27.8933239   7.564993734E-19
 28.0203571   7.55324415E-19
 28.1473904   7.541321893E-19
 28.2744217   7.529280211E-19
 28.4014549   7.517182694E-19
 28.5284882   7.505058812E-19
 28.6555195   7.492945785E-19
 28.7825527   7.480852405E-19
 28.909586   7.468786425E-19
 29.0366192   7.456738539E-19
 29.1636505   7.444689102E-19
 29.2906837   7.432617435E-19
 29.417717   7.420494587E-19
 29.5447483   7.408294706E-19
 29.6717815   7.396007972E-19
 29.7988148   7.383629215E-19
 29.9258461   7.371154297E-19
 30.0528793   7.358598729E-19
 30.1799126   7.345984742E-19
 30.3069439   7.333327845E-19
 30.4339771   7.320663192E-19
 30.5610104   7.308005261E-19
 30.6880436   7.295375764E-19
 30.8150749   7.282777286E-19
 30.9421082   7.270205692E-19
 31.0691414   7.257648056E-19
 31.1961727   7.245086802E-19
 31.3232059   7.232483671E-19
 31.4502392   7.219808162E-19
 31.5772705   7.20701995E-19
 31.7043037   7.194093185E-19
 31.831337   7.181007188E-19
 31.9583683   7.167741279E-19
 32.0854034   7.154289254E-19
 32.2124329   7.140666623E-19
 32.3394661   7.126891481E-19
 32.4664993   7.112979854E-19
 32.5935326   7.098978271E-19
 32.7205658   7.084910514E-19
 32.847599   7.070810186E-19
 32.9746284   7.056702621E-19
 33.1016617   7.04259609E-19
 33.2286949   7.028498864E-19
 33.3557281   7.014413012E-19
 33.4827614   7.000331296E-19
 33.6097946   6.986236656E-19
 33.7368279   6.972136328E-19
 33.8638573   6.958035484E-19
 33.9908905   6.943939809E-19
 34.1179237   6.929883425E-19
 34.244957   6.915897869E-19
 34.3719902   6.902033288E-19
 34.4990234   6.888349136E-19
 34.6260529   6.874896594E-19
 34.7530861   6.861735634E-19
 34.8801193   6.848913817E-19
 35.0071526   6.836458028E-19
 35.1341858   6.824385844E-19
 35.261219   6.812688993E-19
 35.3882523   6.801334388E-19
 35.5152817   6.790283255E-19
 35.6423149   6.77948493E-19
 35.7693481   6.768876338E-19
 35.8963814   6.758404232E-19
 36.0234146   6.748018462E-19
 36.1504478   6.737686976E-19
 36.2774773   6.727385993E-19
 36.4045105   6.717112926E-19
 36.5315437   6.706880185E-19
 36.658577   6.696718788E-19
 36.7856102   6.686660789E-19
 36.9126434   6.676741343E-19
 37.0396767   6.666995087E-19
 37.1667061   6.657459246E-19
 37.2937393   6.64814726E-19
 37.4207726   6.639073089E-19
 37.5478058   6.630237249E-19
 37.674839   6.621633536E-19
 37.8018723   6.613247993E-19
 37.9289017   6.605057871E-19
 38.0559349   6.597050762E-19
 38.1829681   6.589202886E-19
 38.3100014   6.581501835E-19
 38.4370346   6.573941404E-19
 38.5640678   6.566519526E-19
 38.6911011   6.559238786E-19
 38.8181305   6.552103836E-19
 38.9451637   6.545121398E-19
 39.072197   6.538300259E-19
 39.1992302   6.531647142E-19
 39.3262634   6.525169801E-19
 39.4532967   6.518861515E-19
 39.5803261   6.512723835E-19
 39.7073593   6.506741768E-19
 39.8343925   6.500887914E-19
 39.9614258   6.495140043E-19
 40.088459   6.489476441E-19
 40.2154922   6.483856782E-19
 40.3425255   6.478252117E-19
 40.4695549   6.472638145E-19
 40.5965881   6.466987468E-19
 40.7236214   6.461278888E-19
 40.8506546   6.455506201E-19
 40.9776878   6.449661136E-19
 41.1047211   6.443757651E-19
 41.2317505   6.437809706E-19
 41.3587837   6.431829707E-19
 41.485817   6.425846089E-19
 41.6128502   6.419890389E-19
 41.7398834   6.413978115E-19
 41.8669167   6.408140805E-19
 41.9939499   6.402398621E-19
 42.1209793   6.396768106E-19
 42.2480125   6.391258566E-19
 42.3750458   6.385872586E-19
 42.502079   6.380597759E-19
 42.6291122   6.375435635E-19
 42.7561455   6.37038518E-19
 42.8831749   6.365440191E-19
 43.0102081   6.360599116E-19
 43.1372414   6.355865058E-19
 43.2642746   6.351248874E-19
 43.3913078   6.346766589E-19
 43.5183411   6.34242389E-19
 43.6453743   6.338238356E-19
 43.7724037   6.334204817E-19
 43.899437   6.330328442E-19
 44.0264702   6.326596306E-19
 44.1535034   6.322987731E-19
 44.2805367   6.31947273E-19
 44.4075699   6.31601253E-19
 44.5345993   6.312561119E-19
 44.6616325   6.309064213E-19
 44.7886658   6.305479419E-19
 44.915699   6.301768997E-19
 45.0427322   6.297896758E-19
 45.1697655   6.293843573E-19
 45.2967987   6.289598585E-19
 45.4238281   6.285161278E-19
 45.5508614   6.280536822E-19
 45.6778946   6.275730386E-19
 45.8049278   6.270758513E-19
 45.9319611   6.26563051E-19
 46.0589943   6.260358268E-19
 46.1860237   6.254952126E-19
 46.3130569   6.249415702E-19
 46.4400902   6.243760889E-19
 46.5671234   6.237996474E-19
 46.6941566   6.232119356E-19
 46.8211899   6.226146078E-19
 46.9482231   6.220081293E-19
 47.0752525   6.213935858E-19
 47.2022858   6.207726316E-19
 47.329319   6.201452151E-19
 47.4563522   6.195136627E-19
 47.5833855   6.188788016E-19
 47.7104187   6.182426997E-19
 47.8374481   6.176075801E-19
 47.9644814   6.169769066E-19
 48.0915146   6.163535743E-19
 48.2185478   6.157407369E-19
 48.3455811   6.151434608E-19
 48.4726143   6.145653649E-19
 48.5996475   6.140088275E-19
 48.7266769   6.134757096E-19
 48.8537102   6.129671486E-19
 48.9807434   6.124809732E-19
 49.1077766   6.120130991E-19
 49.2348099   6.115587185E-19
 49.3618431   6.111105417E-19
 49.4888725   6.10662003E-19
 49.6159058   6.102052442E-19
 49.742939   6.097342683E-19
 49.8699722   6.092458181E-19
 49.9970055   6.087380843E-19
 50.1240387   6.082115321E-19
 50.2510719   6.076681779E-19
 50.3781013   6.07112054E-19
 50.5051346   6.065464176E-19
 50.6321678   6.059757663E-19
 50.759201   6.054025819E-19
 50.8862343   6.048288804E-19
 51.0132675   6.042545069E-19
 51.1402969   6.036787375E-19
 51.2673302   6.030991941E-19
 51.3943634   6.025140155E-19
 51.5213966   6.0192041E-19
 51.6484299   6.013181191E-19
 51.7754631   6.007070394E-19
 51.9024925   6.000895491E-19
 52.0295258   5.994681814E-19
 52.156559   5.988483129E-19
 52.2835922   5.982361992E-19
 52.4106255   5.976389231E-19
 52.5376587   5.97060879E-19
 52.6646919   5.965064612E-19
 52.7917213   5.959790819E-19
 52.9187546   5.954783791E-19
 53.0457878   5.950018714E-19
 53.172821   5.945454228E-19
 53.2998543   5.941016921E-19
 53.4268875   5.936620973E-19
 53.5539169   5.93217953E-19
 53.6809502   5.927596432E-19
 53.8079834   5.922767248E-19
 53.9350166   5.917612879E-19
 54.0620499   5.912048538E-19
 54.1890831   5.90601012E-19
 54.3161163   5.899451095E-19
 54.4431458   5.892354402E-19
 54.570179   5.884730899E-19
 54.6972122   5.876627114E-19
 54.8242455   5.868118527E-19
 54.9512787   5.859307503E-19
 55.0783119   5.850341899E-19
 55.2053413   5.841393356E-19
 55.3323746   5.832664532E-19
 55.4594078   5.824400481E-19
 55.586441   5.816868484E-19
 55.7134743   5.810353403E-19
 55.8405075   5.805161811E-19
 55.9675407   5.80159873E-19
 56.0945702   5.799941784E-19
 56.2216034   5.800447398E-19
 56.3486366   5.803288764E-19
 56.4756699   5.808566176E-19
 56.6027031   5.816253786E-19
 56.7297363   5.8261753E-19
 56.8567657   5.838006568E-19
 56.983799   5.851229567E-19
 57.1108322   5.865141194E-19
 57.2378654   5.878849645E-19
 57.3648987   5.891296645E-19
 57.4919319   5.901273477E-19
 57.6189651   5.907471645E-19
 57.7459946   5.908540776E-19
 57.8730278   5.903164102E-19
 58.000061   5.890129803E-19
 58.1270943   5.868421482E-19
 58.2541275   5.837318974E-19
 58.3811607   5.796482618E-19
 58.5081902   5.746048899E-19
 58.6352234   5.686698173E-19
 58.7622566   5.619708434E-19
 58.8892899   5.547005979E-19
 59.0163231   5.471179884E-19
 59.1433563   5.395431336E-19
 59.2703896   5.323539001E-19
 59.397419   5.259725119E-19
 59.5244522   5.208531428E-19
 59.6514854   5.174615471E-19
 59.7785187   5.162511751E-19
 59.9055519   5.176375298E-19
 60.0325851   5.2196994E-19
 60.1596146   5.295002821E-19
 60.2866478   5.403557868E-19
 60.413681   5.54511277E-19
 60.5407143   5.717622837E-19
 60.6677475   5.917102095E-19
 60.7947807   6.137503335E-19
 60.921814   6.370683999E-19
 61.0488434   6.606512158E-19
 61.1758766   6.833062452E-19
 61.3029099   7.036958337E-19
 61.4299431   7.20382755E-19
 61.5569763   7.318890958E-19
 61.6840096   7.367664112E-19
 61.811039   7.336757025E-19
 61.9380722   7.21472979E-19
 62.0651054   6.993004544E-19
 62.1921387   6.666731423E-19
 62.3191719   6.23564056E-19
 62.4462051   5.704762764E-19
 62.5732384   5.084980629E-19
 62.7002678   4.393369749E-19
 62.827301   3.653263855E-19
 62.9543343   2.894019069E-19
 63.0813675   2.150414847E-19
 63.2084007   1.461674025E-19
 63.335434   8.701286054E-20
 63.4624634   4.195273951E-20
 63.5894966   1.530168942E-20
 63.7165298   1.108432118E-20
 63.8435631   3.279146866E-20
 63.9705963   8.312446543E-20
 64.0976257   1.637460891E-19
 64.2246628   2.750493151E-19
 64.3516922   4.159567925E-19
 64.4787292   5.837674662E-19
 64.6057587   7.740658979E-19
 64.7327881   9.807050241E-19
 64.8598251   1.195873416E-18
 64.9868546   1.410256504E-18
 65.1138916   1.613297084E-18
 65.240921   1.79355008E-18
 65.3679581   1.939133454E-18
 65.4949875   2.038256988E-18
 65.6220169   2.079820746E-18
 65.749054   2.054056345E-18
 65.8760834   1.953184978E-18
 66.0031204   1.77206489E-18
 66.1301498   1.508790879E-18
 66.2571869   1.165207246E-18
 66.3842163   7.473034514E-19
 66.5112457   2.654527017E-19
 66.6382828   -2.655376945E-19
 66.7653122   -8.265899022E-19
 66.8923492   -1.394752968E-18
 67.0193787   -1.943841145E-18
 67.1464081   -2.445314015E-18
 67.2734451   -2.86938015E-18
 67.4004745   -3.186303028E-18
 67.5275116   -3.367860074E-18
 67.654541   -3.388909132E-18
 67.7815781   -3.228990097E-18
 67.9086075   -2.873888078E-18
 68.0356369   -2.317078273E-18
 68.162674   -1.560958989E-18
 68.2897034   -6.177956603E-19
 68.4167404   4.897137735E-19
 68.5437698   1.728320271E-18
 68.6708069   3.054610705E-18
 68.7978363   4.415939682E-18
 68.9248657   5.751926534E-18
 69.0519028   6.996500416E-18
 69.1789322   8.080461052E-18
 69.3059692   8.934486984E-18
 69.4329987   9.492485654E-18
 69.5600357   9.695173029E-18
 69.6870651   9.493704919E-18
 69.8140945   8.853214834E-18
 69.9411316   7.756051569E-18
 70.068161   6.204532469E-18
 70.1951981   4.223022966E-18
 70.3222275   1.85915791E-18
 70.4492569   -8.159482236E-19
 70.5762939   -3.708607615E-18
 70.7033234   -6.704679368E-18
 70.8303604   -9.672925179E-18
 70.9573898   -1.246955831E-17
 71.0844269   -1.494388961E-17
 71.2114563   -1.69449272E-17
 71.3384857   -1.83286829E-17
 71.4655228   -1.896591141E-17
 71.5925522   -1.874993952E-17
 71.7195892   -1.760421496E-17
 71.8466187   -1.548916873E-17
 71.9736557   -1.240797802E-17
 72.1006851   -8.410836161E-18
 72.2277145   -3.597349341E-18
 72.3547516   1.883224937E-18
 72.481781   7.834163889E-18
 72.6088181   1.401601631E-17
 72.7358475   2.015391317E-17
 72.8628845   2.594737038E-17
 72.9899139   3.108234715E-17
 73.1169434   3.524518983E-17
 73.2439804   3.81379827E-17
 73.3710098   3.949467471E-17
 73.4980469   3.90972773E-17
 73.6250763   3.679137237E-17
 73.7521057   3.250000899E-17
 73.8791428   2.623526893E-17
 74.0061722   1.81066213E-17
 74.1332092   8.325314785E-18
 74.2602386   -2.795692006E-18
 74.3872757   -1.484682493E-17
 74.5143051   -2.733218653E-17
 74.6413345   -3.968510824E-17
 74.7683716   -5.128863574E-17
 74.895401   -6.150056091E-17
 75.022438   -6.96821117E-17
 75.1494675   -7.5229304E-17
 75.2765045   -7.760572773E-17
 75.4035339   -7.637526017E-17
 75.5305634   -7.123313491E-17
 75.6576004   -6.203368874E-17
 75.7846298   -4.881317203E-17
 75.9116669   -3.180599783E-17
 76.0386963   -1.145301868E-17
 76.1657333   1.159931385E-17
 76.2927628   3.650976039E-17
 76.4197922   6.226340672E-17
 76.5468292   8.770321411E-17
 76.6738586   1.115713651E-16
 76.8008957   1.32559346E-16
 76.9279251   1.493652605E-16
 77.0549545   1.607562125E-16
 77.1819916   1.656334812E-16
 77.309021   1.630974248E-16
 77.436058   1.525090233E-16
 77.5630875   1.335451865E-16
 77.6901245   1.062440639E-16
 77.8171539   7.103786072E-17
 77.9441833   2.877017881E-17
 78.0712204   -1.930423159E-17
 78.1982498   -7.153890057E-17
 78.3252869   -1.259350587E-16
 78.4523163   -1.802009391E-16
 78.5793533   -2.318301119E-16
 78.7063828   -2.781965631E-16
 78.8334122   -3.166641408E-16
 78.9604492   -3.447058548E-16
 79.0874786   -3.600290249E-16
 79.2145157   -3.607005897E-16
 79.3415451   -3.452670935E-16
 79.4685822   -3.128631864E-16
 79.5956116   -2.633028122E-16
 79.722641   -1.97147514E-16
 79.849678   -1.157468537E-16
 79.9767075   -2.124657244E-17
 80.1037445   8.343825764E-17
 80.2307739   1.946868436E-16
 80.3578033   3.082731413E-16
 80.4848404   4.195016433E-16
 80.6118698   5.233748818E-16
 80.7389069   6.147882128E-16
 80.8659363   6.887446181E-16
 80.9929733   7.40581764E-16
 81.1200027   7.662026048E-16
 81.2470322   7.622979417E-16
 81.3740692   7.265523043E-16
 81.5010986   6.578212981E-16
 81.6281357   5.562713651E-16
 81.7551651   4.234720044E-16
 81.8822021   2.624335975E-16
 82.0092316   7.7585121E-17
 82.136261   -1.253120792E-16
 82.263298   -3.393142518E-16
 82.3903275   -5.565083755E-16
 82.5173645   -7.682810648E-16
 82.6443939   -9.656379945E-16
 82.771431   -1.139561175E-15
 82.8984604   -1.281391019E-15
 83.0254898   -1.383218885E-15
 83.1525269   -1.438273803E-15
 83.2795563   -1.441282676E-15
 83.4065933   -1.388790879E-15
 83.5336227   -1.279423256E-15
 83.6606522   -1.114071095E-15
 83.7876892   -8.95991134E-16
 83.9147186   -6.308095233E-16
 84.0417557   -3.264193928E-16
 84.1687851   7.224564864E-18
 84.2958221   3.584156918E-16
 84.4228516   7.140990142E-16
 84.549881   1.060359889E-15
 84.676918   1.382978116E-15
 84.8039474   1.668026514E-15
 84.9309845   1.902492751E-15
 85.0580139   2.074893813E-15
 85.185051   2.175858447E-15
 85.3120804   2.198645115E-15
 85.4391098   2.139573249E-15
 85.5661469   1.998335164E-15
 85.6931763   1.778175843E-15
 85.8202133   1.485917924E-15
 85.9472427   1.131822682E-15
 86.0742722   7.292834032E-16
 86.2013092   2.943564429E-16
 86.3283386   -1.548605456E-16
 86.4553757   -5.989834779E-16
 86.5824051   -1.018200836E-15
 86.7094421   -1.393205721E-15
 86.8364716   -1.706159937E-15
 86.963501   -1.941646637E-15
 87.090538   -2.087564791E-15
 87.2175674   -2.135919996E-15
 87.3446045   -2.083463458E-15
 87.4716339   -1.93214081E-15
 87.598671   -1.689312346E-15
 87.7257004   -1.367719241E-15
 87.8527298   -9.85173433E-16
 87.9797668   -5.639724299E-16
 88.1067963   -1.300360481E-16
 88.2338333   2.882079896E-16
 88.3608627   6.611581315E-16
 88.4878998   9.595489923E-16
 88.6149292   1.156074612E-15
 88.7419586   1.227059785E-15
 88.8689957   1.15410219E-15
 88.9960251   9.25598853E-16
 89.1230621   5.380792679E-16
 89.2500916   -2.73903365E-18
 89.377121   -6.812562646E-16
 89.504158   -1.471710746E-15
 89.6311874   -2.338382046E-15
 89.7582245   -3.236306639E-15
 89.8852539   -4.112524953E-15
 90.012291   -4.90784781E-15
 90.1393204   -5.559122549E-15
 90.2663498   -6.001947562E-15
 90.3933868   -6.173730079E-15
 90.5204163   -6.017007808E-15
 90.6474533   -5.482909913E-15
 90.7744827   -4.534593001E-15
 90.9015198   -3.150513848E-15
 91.0285492   -1.327371885E-15
 91.1555786   9.174511372E-16
 91.2826157   3.544106554E-15
 91.4096451   6.489296862E-15
 91.5366821   9.66622988E-15
 91.6637115   1.296559855E-14
 91.7907486   1.625766409E-14
 91.917778   1.939544682E-14
 92.0448074   2.221902946E-14
 92.1718445   2.456088413E-14
 92.2988739   2.625211755E-14
 92.4259109   2.712945903E-14
 92.5529404   2.704278214E-14
 92.6799698   2.586288897E-14
 92.8070068   2.348929936E-14
 92.9340363   1.985767779E-14
 93.0610733   1.494658076E-14
 93.1881027   8.783213279E-15
 93.3151398   1.447798371E-15
 93.4421692   -6.923687121E-15
 93.5691986   -1.613872881E-14
 93.6962357   -2.594964377E-14
 93.8232651   -3.60572676E-14
 93.9503021   -4.611701713E-14
 94.0773315   -5.574734806E-14
 94.2043686   -6.45405089E-14
 94.331398   -7.20753413E-14
 94.4584274   -7.793190328E-14
 94.5854645   -8.170742728E-14
 94.7124939   -8.303325746E-14
 94.8395309   -8.159202074E-14
 94.9665604   -7.713462844E-14
 95.0935974   -6.949618019E-14
 95.2206268   -5.861036347E-14
 95.3476563   -4.452137647E-14
 95.4746933   -2.739293879E-14
 95.6017227   -7.513688768E-15
 95.7287598   1.470158325E-14
 95.8557892   3.871517229E-14
 95.9828186   6.387451061E-14
 96.1098557   8.942513749E-14
 96.2368851   1.145284632E-13
 96.3639221   1.382841595E-13
 96.4909515   1.597567158E-13
 96.6179886   1.780053833E-13
 96.745018   1.9211702E-13
 96.8720474   2.012404729E-13
 96.9990845   2.046216929E-13
 97.1261139   2.016381853E-13
 97.2531509   1.918315902E-13
 97.3801804   1.749369557E-13
 97.5072174   1.509075525E-13
 97.6342468   1.199337938E-13
 97.7612762   8.245547935E-14
 97.8883133   3.916595645E-14
 98.0153427   -8.992143273E-15
 98.1423798   -6.08402353E-14
 98.2694092   -1.149863218E-13
 98.3964462   -1.698565198E-13
 98.5234756   -2.237353098E-13
 98.6505051   -2.748134023E-13
 98.7775421   -3.212421377E-13
 98.9045715   -3.611930904E-13
 99.0316086   -3.929209659E-13
 99.158638   -4.148276232E-13
 99.2856674   -4.255256358E-13
 99.4127045   -4.238982483E-13
 99.5397339   -4.091543456E-13
 99.6667709   -3.808753443E-13
 99.7938004   -3.390525165E-13
 99.9208374   -2.841125501E-13
 100.047867   -2.16929583E-13
 100.174896   -1.388232113E-13
 100.301933   -5.15408537E-14
 100.428963   4.277528242E-14
 100.556   1.41636228E-13
 100.683029   2.422688786E-13
 100.810066   3.416913291E-13
 100.937096   4.367992513E-13
 101.064125   5.244609001E-13
 101.191162   6.016175513E-13
 101.318192   6.653863116E-13
 101.445229   7.131625477E-13
 101.572258   7.427165979E-13
 101.699295   7.522832184E-13
 101.826324   7.406389412E-13
 101.953354   7.071645244E-13
 102.080391   6.518896208E-13
 102.20742   5.755180946E-13
 102.334457   4.794307312E-13
 102.461487   3.656662646E-13
 102.588516   2.368789843E-13
 102.715553   9.627482188E-14
 102.842583   -5.247372158E-14
 102.96962   -2.053307746E-13
 103.096649   -3.580155107E-13
 103.223686   -5.061323539E-13
 103.350716   -6.453087305E-13
 103.477745   -7.7133509E-13
 103.604782   -8.80303263E-13
 103.731812   -9.687375685E-13
 103.858849   -1.033713479E-12
 103.985878   -1.072960839E-12
 104.112915   -1.084945285E-12
 104.239944   -1.068926523E-12
 104.366974   -1.02498988E-12
 104.494011   -9.540497732E-13
 104.62104   -8.578241741E-13
 104.748077   -7.387816487E-13
 104.875107   -6.000609081E-13
 105.002144   -4.453669421E-13
 105.129173   -2.788470409E-13
 105.256203   -1.049506077E-13
 105.38324   7.172079364E-14
 105.510269   2.465688244E-13
 105.637306   4.151519081E-13
 105.764336   5.73331584E-13
 105.891365   7.17405356E-13
 106.018402   8.442210689E-13
 106.145432   9.512674936E-13
 106.272469   1.036738403E-12
 106.399498   1.099565426E-12
 106.526535   1.139420698E-12
 106.653564   1.156687918E-12
 106.780594   1.152402609E-12
 106.907631   1.128165486E-12
 107.03466   1.086032631E-12
 107.161697   1.028386686E-12
 107.288727   9.577966675E-13
 107.415764   8.768713295E-13
 107.542793   7.881159375E-13
 107.669823   6.937972332E-13
 107.79686   5.95825147E-13
 107.923889   4.956569009E-13
 108.050926   3.942310887E-13
 108.177956   2.919330901E-13
 108.304985   1.885976184E-13
 108.432022   8.354790113E-14
 108.559052   -2.43281974E-14
 108.686089   -1.364676465E-13
 108.813118   -2.544918486E-13
 108.940155   -3.800418097E-13
 109.067184   -5.145972624E-13
 109.194214   -6.592871865E-13
 109.321251   -8.147029058E-13
 109.44828   -9.807232066E-13
 109.575317   -1.156361682E-12
 109.702347   -1.339646818E-12
 109.829384   -1.527542524E-12
 109.956413   -1.715918857E-12
 110.083443   -1.899575766E-12
 110.21048   -2.072325167E-12
 110.337509   -2.227133408E-12
 110.464546   -2.35632E-12
 110.591576   -2.451809589E-12
 110.718613   -2.505430325E-12
 110.845642   -2.509248451E-12
 110.972672   -2.455926955E-12
 111.099709   -2.339093979E-12
 111.226738   -2.153706683E-12
 111.353775   -1.896395584E-12
 111.480804   -1.565768131E-12
 111.607834   -1.16266274E-12
 111.734871   -6.903342373E-13
 111.8619   -1.545596062E-13
 111.988937   4.363430732E-13
 112.115967   1.071594094E-12
 112.243004   1.738126244E-12
 112.370033   2.420856918E-12
 112.497063   3.103051453E-12
 112.6241   3.766766413E-12
 112.751129   4.393362844E-12
 112.878166   4.96406952E-12
 113.005196   5.460575568E-12
 113.132233   5.86563827E-12
 113.259262   6.163666799E-12
 113.386292   6.341280365E-12
 113.513329   6.387795674E-12
 113.640358   6.29563849E-12
 113.767395   6.060652848E-12
 113.894424   5.682299249E-12
 114.021461   5.163723182E-12
 114.148491   4.511700909E-12
 114.27552   3.736445181E-12
 114.402557   2.851300793E-12
 114.529587   1.872323043E-12
 114.656624   8.177630665E-13
 114.783653   -2.925191827E-13
 114.910683   -1.437684282E-12
 115.03772   -2.596558819E-12
 115.164749   -3.748271658E-12
 115.291786   -4.872839111E-12
 115.418816   -5.951686626E-12
 115.545853   -6.968063279E-12
 115.672882   -7.907338846E-12
 115.799911   -8.757165999E-12
 115.926949   -9.507502424E-12
 116.053978   -1.015046987E-11
 116.181015   -1.06800957E-11
 116.308044   -1.109191385E-11
 116.435081   -1.138246788E-11
 116.562111   -1.154875154E-11
 116.68914   -1.158760761E-11
 116.816177   -1.149513644E-11
 116.943207   -1.126616335E-11
 117.070244   -1.089379628E-11
 117.197273   -1.036913784E-11
 117.32431   -9.681160387E-12
 117.45134   -8.816828344E-12
 117.578369   -7.761436459E-12
 117.705406   -6.499229106E-12
 117.832436   -5.014261142E-12
 117.959473   -3.291525472E-12
 118.086502   -1.318295191E-12
 118.213531   9.143482412E-13
 118.340569   3.409855948E-12
 118.467598   6.164490359E-12
 118.594635   9.165616183E-12
 118.721664   1.239010197E-11
 118.848701   1.5802918E-11
 118.975731   1.935601332E-11
 119.10276   2.29875962E-11
 119.229797   2.662186097E-11
 119.356827   3.01692768E-11
 119.483864   3.352748287E-11
 119.610893   3.658280623E-11
 119.73793   3.921248742E-11
 119.86496   4.128751854E-11
 119.991989   4.267615081E-11
 120.119026   4.324793995E-11
 120.246056   4.287828773E-11
 120.373093   4.145331647E-11
 120.500122   3.88749935E-11
 120.627159   3.506630056E-11
 120.754189   2.997625065E-11
 120.881218   2.358462904E-11
 121.008255   1.590618609E-11
 121.135284   6.994146148E-12
 121.262321   -3.057207048E-12
 121.389351   -1.411098495E-11
 121.51638   -2.598737718E-11
 121.643417   -3.846465854E-11
 121.770447   -5.128159702E-11
 121.897484   -6.414131726E-11
 122.024513   -7.671660529E-11