 -4.5   1.550963338E-18
 -4.37296724   1.550967164E-18
 -4.24593449   1.550975126E-18
 -4.11890221   1.550985776E-18
 -3.99186945   1.550998183E-18
 -3.86483669   1.551010281E-18
 -3.73780417   1.551021551E-18
 -3.61077142   1.551031167E-18
 -3.4837389   1.551038198E-18
 -3.35670614   1.551042127E-18
 -3.22967362   1.551043678E-18
 -3.10264087   1.551042954E-18
 -2.97560835   1.55104068E-18
 -2.84857559   1.551037991E-18
 -2.72154307   1.551036027E-18
 -2.59451032   1.551035303E-18
 -2.46747756   1.551036027E-18
 -2.34044504   1.551038508E-18
 -2.21341228   1.551042231E-18
 -2.08637977   1.551046367E-18
 -1.95934713   1.551050192E-18
 -1.83231449   1.551051847E-18
 -1.70528185   1.551051226E-18
 -1.57824922   1.551046884E-18
 -1.45121646   1.551037061E-18
 -1.32418382   1.551022895E-18
 -1.19715118   1.551004077E-18
 -1.07011855   1.550981743E-18
 -0.943085909   1.550956928E-18
 -0.816053271   1.550931285E-18
 -0.689020634   1.5509074E-18
 -0.561987996   1.550886721E-18
 -0.434955359   1.550869143E-18
 -0.307922721   1.550854978E-18
 -0.180890068   1.550843811E-18
 -5.385742337E-2   1.550835332E-18
 7.317522168E-2   1.550827577E-18
 0.200207874   1.550818685E-18
 0.327240527   1.550807932E-18
 0.454273164   1.550793456E-18
 0.581305802   1.550774328E-18
 0.708338439   1.550750753E-18
 0.835371077   1.550723766E-18
 0.962403715   1.550694401E-18
 1.08943641   1.550664726E-18
 1.21646905   1.550636499E-18
 1.34350169   1.550611166E-18
 1.47053432   1.55058997E-18
 1.59756696   1.550573633E-18
 1.7245996   1.550561742E-18
 1.85163224   1.55055285E-18
 1.97866488   1.550545302E-18
 2.10569763   1.550537547E-18
 2.23273015   1.550526897E-18
 2.35976291   1.550512215E-18
 2.48679543   1.550491949E-18
 2.61382818   1.550466099E-18
 2.7408607   1.550435597E-18
 2.86789346   1.550401786E-18
 2.99492598   1.550366217E-18
 3.12195873   1.550330235E-18
 3.24899125   1.550295804E-18
 3.37602401   1.550265301E-18
 3.50305653   1.550239349E-18
 3.63008928   1.550218566E-18
 3.75712204   1.550202436E-18
 3.88415456   1.550189304E-18
 4.01118708   1.550178447E-18
 4.13821983   1.55016697E-18
 4.26525259   1.550153322E-18
 4.39228535   1.550136778E-18
 4.51931763   1.550115892E-18
 4.64635038   1.550089732E-18
 4.77338314   1.550059954E-18
 4.9004159   1.550026556E-18
 5.02744818   1.549991091E-18
 5.15448093   1.549955729E-18
 5.28151369   1.549921815E-18
 5.40854645   1.549890795E-18
 5.53557873   1.549863395E-18
 5.66261148   1.549840958E-18
 5.78964424   1.54982307E-18
 5.916677   1.549808387E-18
 6.04370975   1.549795876E-18
 6.17074203   1.549784296E-18
 6.29777479   1.549771474E-18
 6.42480755   1.549756585E-18
 6.55184031   1.549737353E-18
 6.67887259   1.549713675E-18
 6.80590534   1.549684517E-18
 6.9329381   1.549649569E-18
 7.05997086   1.549610278E-18
 7.18700314   1.549568195E-18
 7.31403589   1.549525181E-18
 7.44106865   1.549482788E-18
 7.56810141   1.549442463E-18
 7.69513416   1.549406378E-18
 7.82216644   1.549374635E-18
 7.9491992   1.549348992E-18
 8.07623196   1.549328312E-18
 8.20326424   1.549311976E-18
 8.33029747   1.549298948E-18
 8.45732975   1.549287677E-18
 8.58436203   1.549275786E-18
 8.71139526   1.549262448E-18
 8.83842754   1.549245905E-18
 8.96546078   1.549226466E-18
 9.09249306   1.549203305E-18
 9.21952534   1.549176938E-18
 9.34655857   1.549147987E-18
 9.47359085   1.549118002E-18
 9.60062313   1.549088016E-18
 9.72765636   1.549058652E-18
 9.85468864   1.549031458E-18
 9.98172188   1.549006436E-18
 10.1087542   1.548983068E-18
 10.2357864   1.548960734E-18
 10.3628197   1.548938297E-18
 10.489852   1.548913068E-18
 10.6168852   1.54888484E-18
 10.7439175   1.54885165E-18
 10.8709497   1.54881422E-18
 10.997983   1.548772344E-18
 11.1250153   1.548726745E-18
 11.2520475   1.548680216E-18
 11.3790808   1.548634722E-18
 11.5061131   1.548591708E-18
 11.6331463   1.548554175E-18
 11.7601786   1.5485245E-18
 11.8872108   1.54850351E-18
 12.0142441   1.548493067E-18
 12.1412764   1.548493377E-18
 12.2683096   1.5485032E-18
 12.3953419   1.548520571E-18
 12.5223742   1.548543732E-18
 12.6494074   1.548569581E-18
 12.7764397   1.548594293E-18
 12.9034719   1.548614145E-18
 13.0305052   1.548625002E-18
 13.1575375   1.548624485E-18
 13.2845707   1.548609699E-18
 13.411603   1.548580231E-18
 13.5386353   1.548534943E-18
 13.6656685   1.548475179E-18
 13.7927008   1.548402801E-18
 13.919734   1.548320083E-18
 14.0467663   1.548231471E-18
 14.1737986   1.548140068E-18
 14.3008318   1.548051663E-18
 14.4278641   1.547969979E-18
 14.5548964   1.547898841E-18
 14.6819296   1.547842179E-18
 14.8089619   1.547802268E-18
 14.9359951   1.547780864E-18
 15.0630274   1.547779417E-18
 15.1900597   1.547798959E-18
 15.3170929   1.547840318E-18
 15.4441252   1.547905148E-18
 15.5711575   1.547995518E-18
 15.6981907   1.548113288E-18
 15.825223   1.548263214E-18
 15.9522562   1.548448296E-18
 16.0792885   1.548673185E-18
 16.2063217   1.548943156E-18
 16.333353   1.549261001E-18
 16.4603863   1.54963044E-18
 16.5874195   1.550053543E-18
 16.7144508   1.550530516E-18
 16.8414841   1.551060842E-18
 16.9685173   1.551642557E-18
 17.0955505   1.552271421E-18
 17.2225819   1.552943712E-18
 17.3496151   1.55365395E-18
 17.4766483   1.554397275E-18
 17.6036797   1.555170069E-18
 17.7307129   1.555969229E-18
 17.8577461   1.556792377E-18
 17.9847775   1.557639306E-18
 18.1118107   1.558510224E-18
 18.2388439   1.559406681E-18
 18.3658752   1.560331779E-18
 18.4929085   1.561287173E-18
 18.6199417   1.562275343E-18
 18.7469749   1.563298566E-18
 18.8740063   1.56435653E-18
 19.0010395   1.565448201E-18
 19.1280727   1.566572443E-18
 19.2551041   1.567725326E-18
 19.3821373   1.568902094E-18
 19.5091705   1.570098094E-18
 19.6362019   1.571307535E-18
 19.7632351   1.572525766E-18
 19.8902683   1.573749166E-18
 20.0172997   1.574975047E-18
 20.1443329   1.576202377E-18
 20.2713661   1.57743167E-18
 20.3983994   1.57866572E-18
 20.5254307   1.579907836E-18
 20.6524639   1.581161738E-18
 20.7794971   1.582431874E-18
 20.9065285   1.583721035E-18
 21.0335617   1.585032426E-18
 21.1605949   1.586366358E-18
 21.2876263   1.587722521E-18
 21.4146595   1.589098846E-18
 21.5416927   1.590491508E-18
 21.6687241   1.591897302E-18
 21.7957573   1.593312814E-18
 21.9227905   1.594734531E-18
 22.0498238   1.596161418E-18
 22.1768551   1.597593784E-18
 22.3038883   1.599035146E-18
 22.4309216   1.600488916E-18
 22.5579529   1.601960781E-18
 22.6849861   1.603456117E-18
 22.8120193   1.604980714E-18
 22.9390507   1.606537675E-18
 23.0660839   1.608128963E-18
 23.1931171   1.60975396E-18
 23.3201485   1.611408424E-18
 23.4471817   1.61308543E-18
 23.5742149   1.614777221E-18
 23.7012463   1.616473872E-18
 23.8282795   1.618164629E-18
 23.9553127   1.619839256E-18
 24.082346   1.621489378E-18
 24.2093773   1.623107343E-18
 24.3364105   1.624688912E-18
 24.4634438   1.626231087E-18
 24.5904751   1.627732627E-18
 24.7175083   1.629195496E-18
 24.8445415   1.630621762E-18
 24.9715729   1.63201401E-18
 25.0986061   1.633375033E-18
 25.2256393   1.634708655E-18
 25.3526707   1.636017047E-18
 25.4797039   1.637301245E-18
 25.6067371   1.638562696E-18
 25.7337704   1.639801089E-18
 25.8608017   1.641016424E-18
 25.9878349   1.642208701E-18
 26.1148682   1.643377507E-18
 26.2418995   1.644522842E-18
 26.3689327   1.64564574E-18
 26.495966   1.646748165E-18
 26.6229973   1.647832185E-18
 26.7500305   1.648901419E-18
 26.8770638   1.649959797E-18
 27.0040951   1.651012798E-18
 27.1311283   1.652064351E-18
 27.2581615   1.653118696E-18
 27.3851948   1.654179452E-18
 27.5122261   1.655249203E-18
 27.6392593   1.656327744E-18
 27.7662926   1.657415073E-18
 27.8933239   1.658509743E-18
 28.0203571   1.659608652E-18
 28.1473904   1.660708699E-18
 28.2744217   1.661805334E-18
 28.4014549   1.662895764E-18
 28.5284882   1.663976373E-18
 28.6555195   1.665044883E-18
 28.7825527   1.666100055E-18
 28.909586   1.667141889E-18
 29.0366192   1.668171419E-18
 29.1636505   1.669190816E-18
 29.2906837   1.670201424E-18
 29.417717   1.671206034E-18
 29.5447483   1.672205786E-18
 29.6717815   1.673202745E-18
 29.7988148   1.674196809E-18
 29.9258461   1.675186428E-18
 30.0528793   1.676170256E-18
 30.1799126   1.677146018E-18
 30.3069439   1.678108753E-18
 30.4339771   1.679056599E-18
 30.5610104   1.67998573E-18
 30.6880436   1.680892836E-18
 30.8150749   1.681775852E-18
 30.9421082   1.682634569E-18
 31.0691414   1.68346878E-18
 31.1961727   1.684280348E-18
 31.3232059   1.68507258E-18
 31.4502392   1.685849096E-18
 31.5772705   1.686614858E-18
 31.7043037   1.687374727E-18
 31.831337   1.688134182E-18
 31.9583683   1.688898394E-18
 32.0854034   1.689671808E-18
 32.2124329   1.69045825E-18
 32.3394661   1.691258754E-18
 32.4664993   1.692073527E-18
 32.5935326   1.692901948E-18
 32.7205658   1.693741226E-18
 32.847599   1.694588259E-18
 32.9746284   1.695440669E-18
 33.1016617   1.69629525E-18
 33.2286949   1.697150037E-18
 33.3557281   1.698004205E-18
 33.4827614   1.698858476E-18
 33.6097946   1.699714711E-18
 33.7368279   1.700574772E-18
 33.8638573   1.70144114E-18
 33.9908905   1.702314126E-18
 34.1179237   1.70319559E-18
 34.244957   1.704082638E-18
 34.3719902   1.704972581E-18
 34.4990234   1.705860042E-18
 34.6260529   1.706738922E-18
 34.7530861   1.707601878E-18
 34.8801193   1.708443431E-18
 35.0071526   1.709259238E-18
 35.1341858   1.710045473E-18
 35.261219   1.710803274E-18
 35.3882523   1.711535639E-18
 35.5152817   1.712248358E-18
 35.6423149   1.712949187E-18
 35.7693481   1.713647121E-18
 35.8963814   1.714350741E-18
 36.0234146   1.715066666E-18
 36.1504478   1.715800789E-18
 36.2774773   1.716554144E-18
 36.4045105   1.717326007E-18
 36.5315437   1.718111725E-18
 36.658577   1.718905405E-18
 36.7856102   1.719699084E-18
 36.9126434   1.720485009E-18
 37.0396767   1.721256148E-18
 37.1667061   1.722006711E-18
 37.2937393   1.722734941E-18
 37.4207726   1.723440215E-18
 37.5478058   1.724126052E-18
 37.674839   1.724798549E-18
 37.8018723   1.725465257E-18
 37.9289017   1.726135066E-18
 38.0559349   1.726815733E-18
 38.1829681   1.727514804E-18
 38.3100014   1.72823776E-18
 38.4370346   1.728987495E-18
 38.5640678   1.72976277E-18
 38.6911011   1.730560896E-18
 38.8181305   1.731377427E-18
 38.9451637   1.732204814E-18
 39.072197   1.733036028E-18
 39.1992302   1.733863415E-18
 39.3262634   1.734680256E-18
 39.4532967   1.73548138E-18
 39.5803261   1.736264307E-18
 39.7073593   1.737027588E-18
 39.8343925   1.73777205E-18
 39.9614258   1.738500589E-18
 40.088459   1.739217962E-18
 40.2154922   1.739928717E-18
 40.3425255   1.74063699E-18
 40.4695549   1.741346504E-18
 40.5965881   1.742059948E-18
 40.7236214   1.742778561E-18
 40.8506546   1.743500896E-18
 40.9776878   1.744225713E-18
 41.1047211   1.744949703E-18
 41.2317505   1.74566873E-18
 41.3587837   1.746378037E-18
 41.485817   1.74707411E-18
 41.6128502   1.747753432E-18
 41.7398834   1.748414142E-18
 41.8669167   1.749054794E-18
 41.9939499   1.7496758E-18
 42.1209793   1.750279228E-18
 42.2480125   1.750867146E-18
 42.3750458   1.751443898E-18
 42.502079   1.752014446E-18
 42.6291122   1.752583133E-18
 42.7561455   1.75315368E-18
 42.8831749   1.753730225E-18
 43.0102081   1.754314422E-18
 43.1372414   1.754907717E-18
 43.2642746   1.755509698E-18
 43.3913078   1.75612057E-18
 43.5183411   1.756737647E-18
 43.6453743   1.757358033E-18
 43.7724037   1.757978625E-18
 43.899437   1.758596115E-18
 44.0264702   1.759207609E-18
 44.1535034   1.759809382E-18
 44.2805367   1.760399576E-18
 44.4075699   1.760976534E-18
 44.5345993   1.761540258E-18
 44.6616325   1.762092814E-18
 44.7886658   1.762636479E-18
 44.915699   1.763174974E-18
 45.0427322   1.763713055E-18
 45.1697655   1.764256512E-18
 45.2967987   1.76481031E-18
 45.4238281   1.765378583E-18
 45.5508614   1.765965467E-18
 45.6778946   1.766574065E-18
 45.8049278   1.767204997E-18
 45.9319611   1.767858263E-18
 46.0589943   1.768532209E-18
 46.1860237   1.769224352E-18
 46.3130569   1.769930558E-18
 46.4400902   1.770645862E-18
 46.5671234   1.771365923E-18
 46.6941566   1.772085156E-18
 46.8211899   1.772801495E-18
 46.9482231   1.773512663E-18
 47.0752525   1.774218248E-18
 47.2022858   1.774919077E-18
 47.329319   1.775616597E-18
 47.4563522   1.77631329E-18
 47.5833855   1.777009569E-18
 47.7104187   1.777706676E-18
 47.8374481   1.778404196E-18
 47.9644814   1.779100061E-18
 48.0915146   1.779792205E-18
 48.2185478   1.780478351E-18
 48.3455811   1.781154571E-18
 48.4726143   1.781818797E-18
 48.5996475   1.782468961E-18
 48.7266769   1.783104236E-18
 48.8537102   1.783726483E-18
 48.9807434   1.784338803E-18
 49.1077766   1.784947401E-18
 49.2348099   1.785557654E-18
 49.3618431   1.786175764E-18
 49.4888725   1.786808764E-18
 49.6159058   1.787461823E-18
 49.742939   1.788138044E-18
 49.8699722   1.788840734E-18
 49.9970055   1.789568653E-18
 50.1240387   1.790319939E-18
 50.2510719   1.791091492E-18
 50.3781013   1.791879588E-18
 50.5051346   1.792680092E-18
 50.6321678   1.793487627E-18
 50.759201   1.794299919E-18
 50.8862343   1.795112624E-18
 51.0132675   1.795924088E-18
 51.1402969   1.79673245E-18
 51.2673302   1.79753709E-18
 51.3943634   1.798336974E-18
 51.5213966   1.799132101E-18
 51.6484299   1.799922265E-18
 51.7754631   1.80070726E-18
 51.9024925   1.801487084E-18
 52.0295258   1.802260912E-18
 52.156559   1.803028535E-18
 52.2835922   1.803789128E-18
 52.4106255   1.804541449E-18
 52.5376587   1.805285705E-18
 52.6646919   1.806022102E-18
 52.7917213   1.806751262E-18
 52.9187546   1.807475045E-18
 53.0457878   1.808195933E-18
 53.172821   1.808919095E-18
 53.2998543   1.809648048E-18
 53.4268875   1.810388168E-18
 53.5539169   1.811144832E-18
 53.6809502   1.811922795E-18
 53.8079834   1.81272516E-18
 53.9350166   1.813553168E-18
 54.0620499   1.814404957E-18
 54.1890831   1.815277012E-18
 54.3161163   1.816160234E-18
 54.4431458   1.817043663E-18
 54.570179   1.817913857E-18
 54.6972122   1.8187551E-18
 54.8242455   1.819550848E-18
 54.9512787   1.820286005E-18
 55.0783119   1.820947129E-18
 55.2053413   1.821524294E-18
 55.3323746   1.82201171E-18
 55.4594078   1.82240917E-18
 55.586441   1.822721017E-18
 55.7134743   1.822957798E-18
 55.8405075   1.823134401E-18
 55.9675407   1.823271506E-18
 56.0945702   1.823392481E-18
 56.2216034   1.823525244E-18
 56.3486366   1.823699986E-18
 56.4756699   1.823949381E-18
 56.6027031   1.82430693E-18
 56.7297363   1.824807167E-18
 56.8567657   1.825484628E-18
 56.983799   1.826370952E-18
 57.1108322   1.827497158E-18
 57.2378654   1.828887235E-18
 57.3648987   1.830559174E-18
 57.4919319   1.832522694E-18
 57.6189651   1.834774073E-18
 57.7459946   1.837295733E-18
 57.8730278   1.840052312E-18
 58.000061   1.842990458E-18
 58.1270943   1.846035723E-18
 58.2541275   1.849094224E-18
 58.3811607   1.852051394E-18
 58.5081902   1.854775714E-18
 58.6352234   1.857123252E-18
 58.7622566   1.858941809E-18
 58.8892899   1.860078355E-18
 59.0163231   1.860388548E-18
 59.1433563   1.859744588E-18
 59.2703896   1.858045352E-18
 59.397419   1.855227975E-18
 59.5244522   1.851277981E-18
 59.6514854   1.846237762E-18
 59.7785187   1.840215887E-18
 59.9055519   1.833391854E-18
 60.0325851   1.826018366E-18
 60.1596146   1.818421539E-18
 60.2866478   1.810995732E-18
 60.413681   1.804195274E-18
 60.5407143   1.798520608E-18
 60.6677475   1.794500303E-18
 60.7947807   1.792667064E-18
 60.921814   1.793534156E-18
 61.0488434   1.797561078E-18
 61.1758766   1.805125852E-18
 61.3029099   1.816486971E-18
 61.4299431   1.831752589E-18
 61.5569763   1.850845158E-18
 61.6840096   1.873476613E-18
 61.811039   1.899123141E-18
 61.9380722   1.927015258E-18
 62.0651054   1.956129741E-18
 62.1921387   1.985204932E-18
 62.3191719   2.012762248E-18
 62.4462051   2.037147325E-18
 62.5732384   2.056587931E-18
 62.7002678   2.069268196E-18
 62.827301   2.073417334E-18
 62.9543343   2.067413037E-18
 63.0813675   2.049895006E-18
 63.2084007   2.019881584E-18
 63.335434   1.976887631E-18
 63.4624634   1.921035156E-18
 63.5894966   1.853148856E-18
 63.7165298   1.774830776E-18
 63.8435631   1.688503829E-18
 63.9705963   1.597418319E-18
 64.0976257   1.50561585E-18
 64.2246628   1.417842681E-18
 64.3516922   1.33941169E-18
 64.4787292   1.27600995E-18
 64.6057587   1.233457608E-18
 64.7327881   1.217418576E-18
 64.8598251   1.233071418E-18
 64.9868546   1.284759453E-18
 65.1138916   1.375621935E-18
 65.240921   1.507239088E-18
 65.3679581   1.679297205E-18
 65.4949875   1.889309057E-18
 65.6220169   2.13240255E-18
 65.749054   2.401203368E-18
 65.8760834   2.68583539E-18
 66.0031204   2.974049724E-18
 66.1301498   3.251506367E-18
 66.2571869   3.502202063E-18
 66.3842163   3.709059255E-18
 66.5112457   3.85465421E-18
 66.6382828   3.922082665E-18
 66.7653122   3.895918528E-18
 66.8923492   3.763247443E-18
 67.0193787   3.51471896E-18
 67.1464081   3.145564176E-18
 67.2734451   2.65652776E-18
 67.4004745   2.054647365E-18
 67.5275116   1.353813835E-18
 67.654541   5.750569441E-19
 67.7815781   -2.535028112E-19
 67.9086075   -1.097079203E-18
 68.0356369   -1.915054019E-18
 68.162674   -2.662235513E-18
 68.2897034   -3.290533369E-18
 68.4167404   -3.751020473E-18
 68.5437698   -3.996329156E-18
 68.6708069   -3.983300647E-18
 68.7978363   -3.675790878E-18
 68.9248657   -3.047491782E-18
 69.0519028   -2.084644657E-18
 69.1789322   -7.88471455E-19
 69.3059692   8.228326411E-19
 69.4329987   2.712708834E-18
 69.5600357   4.825600054E-18
 69.6870651   7.087208215E-18
 69.8140945   9.405744187E-18
 69.9411316   1.167424069E-17
 70.068161   1.377394604E-17
 70.1951981   1.557876728E-17
 70.3222275   1.696066679E-17
 70.4492569   1.779584955E-17
 70.5762939   1.797155429E-17
 70.7033234   1.73931317E-17
 70.8303604   1.599112839E-17
 70.9573898   1.37279763E-17
 71.0844269   1.060392109E-17
 71.2114563   6.661775164E-18
 71.3384857   1.990114663E-18
 71.4655228   -3.275439391E-18
 71.5925522   -8.953158932E-18
 71.7195892   -1.481858829E-17
 71.8466187   -2.061048378E-17
 71.9736557   -2.603933963E-17
 72.1006851   -3.07983595E-17
 72.2277145   -3.457662937E-17
 72.3547516   -3.707405307E-17
 72.481781   -3.801755513E-17
 72.6088181   -3.717781792E-17
 72.7358475   -3.43857988E-17
 72.8628845   -2.954818188E-17
 72.9899139   -2.266080644E-17
 73.1169434   -1.381919861E-17
 73.2439804   -3.225322172E-18
 73.3710098   8.810214678E-18
 73.4980469   2.187117983E-17
 73.6250763   3.544431536E-17
 73.7521057   4.893380805E-17
 73.8791428   6.168149508E-17
 74.0061722   7.299248851E-17
 74.1332092   8.216547814E-17
 74.2602386   8.852670219E-17
 74.3872757   9.146637635E-17
 74.5143051   9.047589705E-17
 74.6413345   8.518404548E-17
 74.7683716   7.539031305E-17
 74.895401   6.10933829E-17
 75.022438   4.251260348E-17
 75.1494675   2.010087766E-17
 75.2765045   -5.452811407E-18
 75.4035339   -3.323241455E-17
 75.5305634   -6.211611563E-17
 75.6576004   -9.081027654E-17
 75.7846298   -1.178956043E-16
 75.9116669   -1.418844244E-16
 76.0386963   -1.612876595E-16
 76.1657333   -1.746887663E-16
 76.2927628   -1.808220392E-16
 76.4197922   -1.786515438E-16
 76.5468292   -1.674468728E-16
 76.6738586   -1.468515579E-16
 76.8008957   -1.169400717E-16
 76.9279251   -7.825898865E-17
 77.0549545   -3.184902777E-17
 77.1819916   2.075547366E-17
 77.309021   7.755178893E-17
 77.436058   1.361201799E-16
 77.5630875   1.937014664E-16
 77.6901245   2.472998187E-16
 77.8171539   2.938079626E-16
 77.9441833   3.301512347E-16
 78.0712204   3.534447731E-16
 78.1982498   3.611580933E-16
 78.3252869   3.512789363E-16
 78.4523163   3.224682488E-16
 78.5793533   2.741983293E-16
 78.7063828   2.068646098E-16
 78.8334122   1.218635963E-16
 78.9604492   2.162909219E-17
 79.0874786   -9.037900442E-17
 79.2145157   -2.097379044E-16
 79.3415451   -3.311793474E-16
 79.4685822   -4.487607554E-16
 79.5956116   -5.560878237E-16
 79.722641   -6.465818591E-16
 79.849678   -7.137848708E-16
 79.9767075   -7.516901776E-16
 80.1037445   -7.550852974E-16
 80.2307739   -7.19892296E-16
 80.3578033   -6.434886007E-16
 80.4848404   -5.249902266E-16
 80.6118698   -3.654810054E-16
 80.7389069   -1.681708213E-16
 80.8659363   6.153196068E-17
 80.9929733   3.160454362E-16
 81.1200027   5.857456235E-16
 81.2470322   8.592081988E-16
 81.3740692   1.123560511E-15
 81.5010986   1.364937902E-15
 81.6281357   1.569033773E-15
 81.7551651   1.721725332E-15
 81.8822021   1.809755349E-15
 82.0092316   1.821443133E-15
 82.136261   1.747391277E-15
 82.263298   1.581162226E-15
 82.3903275   1.319882737E-15
 82.5173645   9.647473394E-16
 82.6443939   5.213848309E-16
 82.771431   6.098883436E-20
 82.8984604   -5.843104321E-16
 83.0254898   -1.212363763E-15
 83.1525269   -1.860697816E-15
 83.2795563   -2.502511409E-15
 83.4065933   -3.10845231E-15
 83.5336227   -3.647661837E-15
 83.6606522   -4.088981249E-15
 83.7876892   -4.402291537E-15
 83.9147186   -4.559927333E-15
 84.0417557   -4.538121316E-15
 84.1687851   -4.318407323E-15
 84.2958221   -3.888931549E-15
 84.4228516   -3.245589908E-15
 84.549881   -2.392945156E-15
 84.676918   -1.344850516E-15
 84.8039474   -1.24738479E-16
 84.9309845   1.234471852E-15
 85.0580139   2.690874807E-15
 85.185051   4.194497837E-15
 85.3120804   5.688638545E-15
 85.4391098   7.111596299E-15
 85.5661469   8.398756883E-15
 85.6931763   9.484973299E-15
 85.8202133   1.030717378E-14
 85.9472427   1.08070867E-14
 86.0742722   1.09340112E-14
 86.2013092   1.064749468E-14
 86.3283386   9.919817992E-15
 86.4553757   8.738162985E-15
 86.5824051   7.106362482E-15
 86.7094421   5.046116198E-15
 86.8364716   2.597596998E-15
 86.963501   -1.806297098E-16
 87.090538   -3.212413322E-15
 87.2175674   -6.40557909E-15
 87.3446045   -9.654226576E-15
 87.4716339   -1.284173184E-14
 87.598671   -1.584438825E-14
 87.7257004   -1.853556947E-14
 87.8527298   -2.079031866E-14
 87.9797668   -2.249017487E-14
 88.1067963   -2.352810871E-14
 88.2338333   -2.38133369E-14
 88.3608627   -2.327587416E-14
 88.4878998   -2.187057874E-14
 88.6149292   -1.958056249E-14
 88.7419586   -1.641973538E-14
 88.8689957   -1.243438268E-14
 88.9960251   -7.703635059E-15
 89.1230621   -2.3387558E-15
 89.2500916   3.518817326E-15
 89.377121   9.700640593E-15
 89.504158   1.601562443E-14
 89.6311874   2.225548406E-14
 89.7582245   2.820111833E-14
 89.8852539   3.362976266E-14
 90.012291   3.832268772E-14
 90.1393204   4.207314971E-14
 90.2663498   4.469437786E-14
 90.3933868   4.602726552E-14
 90.5204163   4.594747163E-14
 90.6474533   4.437163121E-14
 90.7744827   4.126248835E-14
 90.9015198   3.663255544E-14
 91.0285492   3.054626119E-14
 91.1555786   2.312030301E-14
 91.2826157   1.452221217E-14
 91.4096451   4.967024496E-15
 91.5366821   -5.287870412E-15
 91.6637115   -1.594960499E-14
 91.7907486   -2.669824472E-14
 91.917778   -3.719652692E-14
 92.0448074   -4.71006189E-14
 92.1718445   -5.60715008E-14
 92.2988739   -6.378669701E-14
 92.4259109   -6.995178227E-14
 92.5529404   -7.431141341E-14
 92.6799698   -7.665932776E-14
 92.8070068   -7.684696927E-14
 92.9340363   -7.479037328E-14
 93.0610733   -7.047495047E-14
 93.1881027   -6.395803483E-14
 93.3151398   -5.536885308E-14
 93.4421692   -4.490600058E-14
 93.5691986   -3.283231502E-14
 93.6962357   -1.946733959E-14
 93.8232651   -5.177549029E-15
 93.9503021   9.635375011E-15
 94.0773315   2.454775851E-14
 94.2043686   3.912827026E-14
 94.331398   5.295277969E-14
 94.4584274   6.561917486E-14
 94.5854645   7.676158835E-14
 94.7124939   8.606343313E-14
 94.8395309   9.326865452E-14
 94.9665604   9.819079008E-14
 95.0935974   1.007192783E-13
 95.2206268   1.008227857E-13
 95.3476563   9.85492883E-14
 95.4746933   9.402285265E-14
 95.6017227   8.743713761E-14
 95.7287598   7.90458668E-14
 95.8557892   6.915052976E-14
 95.9828186   5.808596198E-14
 96.1098557   4.62042412E-14
 96.2368851   3.385772294E-14
 96.3639221   2.138195762E-14
 96.4909515   9.079410536E-15
 96.6179886   -2.795312911E-15
 96.745018   -1.404779071E-14
 96.8720474   -2.455289322E-14
 96.9990845   -3.426014491E-14
 97.1261139   -4.319476702E-14
 97.2531509   -5.14540667E-14
 97.3801804   -5.91990988E-14
 97.5072174   -6.664172659E-14
 97.6342468   -7.402742021E-14
 97.7612762   -8.161442984E-14
 97.8883133   -8.965017043E-14
 98.0153427   -9.834581066E-14
 98.1423798   -1.078504758E-13
 98.2694092   -1.18226216E-13
 98.3964462   -1.294253875E-13
 98.5234756   -1.412718412E-13
 98.6505051   -1.534473097E-13
 98.7775421   -1.654843932E-13
 98.9045715   -1.767672651E-13
 99.0316086   -1.865406701E-13
 99.158638   -1.939283152E-13
 99.2856674   -1.979600159E-13
 99.4127045   -1.976079754E-13
 99.5397339   -1.918309668E-13
 99.6667709   -1.796255202E-13
 99.7938004   -1.600821797E-13
 99.9208374   -1.324449448E-13
 100.047867   -9.617128057E-14
 100.174896   -5.099014337E-14
 100.301933   3.045139561E-15
 100.428963   6.551181852E-14
 100.556   1.355836016E-13
 100.683029   2.120102054E-13
 100.810066   2.931127834E-13
 100.937096   3.767973075E-13
 101.064125   4.605870264E-13
 101.191162   5.416746153E-13
 101.318192   6.169939234E-13
 101.445229   6.833100166E-13
 101.572258   7.373254026E-13
 101.699295   7.758000514E-13
 101.826324   7.956804703E-13
 101.953354   7.942350662E-13
 102.080391   7.691883697E-13
 102.20742   7.188511396E-13
 102.334457   6.422382157E-13
 102.461487   5.391702709E-13
 102.588516   4.103526601E-13
 102.715553   2.574272447E-13
 102.842583   8.299203067E-14
 102.96962   -1.094137801E-13
 103.096649   -3.153620214E-13
 103.223686   -5.296253345E-13
 103.350716   -7.463037892E-13
 103.477745   -9.58985712E-13
 103.604782   -1.160939183E-12
 103.731812   -1.345327712E-12
 103.858849   -1.505443882E-12
 103.985878   -1.634952698E-12
 104.112915   -1.728134888E-12
 104.239944   -1.78012043E-12
 104.366974   -1.787103777E-12
 104.494011   -1.746529245E-12
 104.62104   -1.657238582E-12
 104.748077   -1.519571795E-12
 104.875107   -1.335416586E-12
 105.002144   -1.108199144E-12
 105.129173   -8.428161597E-13
 105.256203   -5.455071616E-13
 105.38324   -2.236695529E-13
 105.510269   1.143781792E-13
 105.637306   4.59676405E-13
 105.764336   8.029393665E-13
 105.891365   1.134890684E-12
 106.018402   1.446607482E-12
 106.145432   1.729856709E-12
 106.272469   1.977409989E-12
 106.399498   2.183320582E-12
 106.526535   2.343149546E-12
 106.653564   2.454126312E-12
 106.780594   2.515237151E-12
 106.907631   2.527231029E-12
 107.03466   2.49254133E-12
 107.161697   2.415121922E-12
 107.288727   2.300204081E-12
 107.415764   2.153979902E-12
 107.542793   1.983228252E-12
 107.669823   1.794895829E-12
 107.79686   1.595657634E-12
 107.923889   1.391472549E-12
 108.050926   1.187164841E-12
 108.177956   9.860505424E-13
 108.304985   7.896342543E-13
 108.432022   5.973997881E-13
 108.559052   4.067113671E-13
 108.686089   2.128422899E-13
 108.813118   9.140482459E-15
 108.940155   -2.126654701E-13
 109.067184   -4.620216427E-13
 109.194214   -7.489761849E-13
 109.321251   -1.083495056E-12
 109.44828   -1.474690378E-12
 109.575317   -1.929993491E-12
 109.702347   -2.454304772E-12
 109.829384   -3.049167472E-12
 109.956413   -3.712002494E-12
 110.083443   -4.435455041E-12
 110.21048   -5.206892643E-12
 110.337509   -6.008099834E-12
 110.464546   -6.815202482E-12
 110.591576   -7.598859042E-12
 110.718613   -8.324725458E-12
 110.845642   -8.95422278E-12
 110.972672   -9.44559448E-12
 111.099709   -9.755233947E-12
 111.226738   -9.839275228E-12
 111.353775   -9.655384998E-12
 111.480804   -9.164713259E-12
 111.607834   -8.333935972E-12
 111.734871   -7.137316779E-12
 111.8619   -5.558704972E-12
 111.988937   -3.593375814E-12
 112.115967   -1.249639715E-12
 112.243004   1.44988058E-12
 112.370033   4.467376555E-12
 112.497063   7.749459928E-12
 112.6241   1.122730988E-11
 112.751129   1.481739557E-11
 112.878166   1.842281015E-11
 113.005196   2.193520886E-11
 113.132233   2.523734867E-11
 113.259262   2.820615616E-11
 113.386292   3.071629756E-11
 113.513329   3.264414086E-11
 113.640358   3.387196426E-11
 113.767395   3.429237797E-11
 113.894424   3.381271999E-11
 114.021461   3.235931315E-11
 114.148491   2.988145148E-11
 114.27552   2.635490784E-11
 114.402557   2.178484303E-11
 114.529587   1.620798114E-11
 114.656624   9.693908003E-12
 114.783653   2.345407939E-12
 114.910683   -5.702231222E-12
 115.03772   -1.428299579E-11
 115.164749   -2.320299508E-11
 115.291786   -3.224437384E-11
 115.418816   -4.117019572E-11
 115.545853   -4.973020259E-11
 115.672882   -5.766733271E-11
 115.799911   -6.472478109E-11
 115.926949   -7.065344837E-11
 116.053978   -7.521956669E-11
 116.181015   -7.821220754E-11
 116.308044   -7.945049479E-11
 116.435081   -7.879033537E-11
 116.562111   -7.6130241E-11
 116.68914   -7.141632424E-11
 116.816177   -6.464597607E-11
 116.943207   -5.587036389E-11
 117.070244   -4.519536828E-11
 117.197273   -3.278110075E-11
 117.32431   -1.883982033E-11
 117.45134   -3.632372614E-12
 117.578369   1.253683182E-11
 117.705406   2.932619425E-11
 117.832436   4.636446782E-11
 117.959473   6.325927282E-11
 118.086502   7.96064048E-11
 118.213531   9.499961234E-11
 118.340569   1.090406099E-10
 118.467598   1.213490836E-10
 118.594635   1.315723225E-10
 118.721664   1.393943433E-10
 118.848701   1.445440712E-10
 118.975731   1.468025979E-10
 119.10276   1.460090798E-10
 119.229797   1.420653178E-10
 119.356827   1.349388795E-10
 119.483864   1.246645703E-10
 119.610893   1.113444337E-10
 119.73793   9.514622423E-11
 119.86496   7.630041737E-11
 119.991989   5.509589313E-11
 120.119026   3.187446834E-11
 120.246056   7.024436588E-12
 120.373093   -1.902672984E-11
 120.500122   -4.582023302E-11
 120.627159   -7.287422055E-11
 120.754189   -9.969225445E-11
 120.881218   -1.257717541E-10
 121.008255   -1.506122865E-10
 121.135284   -1.737236605E-10
 121.262321   -1.946334066E-10
 121.389351   -2.128939802E-10
 121.51638   -2.280892836E-10
 121.643417   -2.398407306E-10
 121.770447   -2.47812687E-10
 121.897484   -2.517173969E-10
 122.024513   -2.513195485E-10