  -4.50000000       0.00000000    
  -4.37500000       0.00000000    
  -4.25000000       0.00000000    
  -4.12500000       0.00000000    
  -4.00000000      -9.01279327E-23
  -3.87500000      -1.39194757E-21
  -3.75000000      -8.79372801E-21
  -3.62500000      -3.40017502E-20
  -3.50000000      -9.29741380E-20
  -3.37500000      -1.91646878E-19
  -3.25000000      -3.06147041E-19
  -3.12500000      -3.86187803E-19
  -3.00000000      -4.21096841E-19
  -2.87500000      -5.76361460E-19
  -2.75000000      -1.33032408E-18
  -2.62500000      -3.46896657E-18
  -2.50000000      -7.82505580E-18
  -2.37500000      -1.48274606E-17
  -2.25000000      -2.41722904E-17
  -2.12500000      -3.50162295E-17
  -2.00000000      -4.68129335E-17
  -1.87500000      -6.03001829E-17
  -1.75000000      -7.75907458E-17
  -1.62500000      -1.00380485E-16
  -1.50000000      -1.26229164E-16
  -1.37500000      -1.44282044E-16
  -1.25000000      -1.32661493E-16
  -1.12500000      -5.91720607E-17
  -1.00000000       1.14951807E-16
 -0.875000000       4.30182358E-16
 -0.750000000       9.23989490E-16
 -0.625000000       1.62364569E-15
 -0.500000000       2.52905806E-15
 -0.375000000       3.57740850E-15
 -0.250000000       4.59073477E-15
 -0.125000000       5.22860309E-15
   0.00000000       4.99478431E-15
  0.125000000       3.36480853E-15
  0.250000000       9.32961660E-17
  0.375000000      -4.28582832E-15
  0.500000000      -7.83273559E-15
  0.625000000      -6.60637926E-15
  0.750000000       5.67592500E-15
  0.875000000       3.74977623E-14
   1.00000000       9.87759611E-14
   1.12500000       1.99475595E-13
   1.25000000       3.47811352E-13
   1.37500000       5.48408161E-13
   1.50000000       8.00888056E-13
   1.62500000       1.09933113E-12
   1.75000000       1.43292886E-12
   1.87500000       1.78793655E-12
   2.00000000       2.15080514E-12
   2.12500000       2.51216018E-12
   2.25000000       2.87116533E-12
   2.37500000       3.23973877E-12
   2.50000000       3.64613027E-12
   2.62500000       4.13742825E-12
   2.75000000       4.78069277E-12
   2.87500000       5.66254769E-12
   3.00000000       6.88722950E-12
   3.12500000       8.57324194E-12
   3.25000000       1.08489858E-11
   3.37500000       1.38479081E-11
   3.50000000       1.77040362E-11
   3.62500000       2.25489905E-11
   3.75000000       2.85119307E-11
   3.87500000       3.57240626E-11
   4.00000000       4.43294082E-11
   4.12500000       5.45032526E-11
   4.25000000       6.64790306E-11
   4.37500000       8.05831929E-11
   4.50000000       9.72759651E-11
   4.62500000       1.17193921E-10
   4.75000000       1.41187992E-10
   4.87500000       1.70349013E-10
   5.00000000       2.06010306E-10
   5.12500000       2.49717635E-10
   5.25000000       3.03155667E-10
   5.37500000       3.68023195E-10
   5.50000000       4.45851800E-10
   5.62500000       5.37766609E-10
   5.75000000       6.44194698E-10
   5.87500000       7.64529662E-10
   6.00000000       8.96770269E-10
   6.12500000       1.03715359E-09
   6.25000000       1.17980936E-09
   6.37500000       1.31646738E-09
   6.50000000       1.43625223E-09
   6.62500000       1.52560287E-09
   6.75000000       1.56835867E-09
   6.87500000       1.54604907E-09
   7.00000000       1.43842438E-09
   7.12500000       1.22425869E-09
   7.25000000       8.82437512E-10
   7.37500000       3.93332672E-10
   7.50000000      -2.59566285E-10
   7.62500000      -1.08781728E-09
   7.75000000      -2.09607820E-09
   7.87500000      -3.28016792E-09
   8.00000000      -4.62528638E-09
   8.12500000      -6.10456707E-09
   8.25000000      -7.67814878E-09
   8.37500000      -9.29294153E-09
   8.50000000      -1.08832499E-08
   8.62500000      -1.23723627E-08
   8.75000000      -1.36751632E-08
   8.87500000      -1.47017412E-08
   9.00000000      -1.53618576E-08
   9.12500000      -1.55700643E-08
   9.25000000      -1.52511372E-08
   9.37500000      -1.43454244E-08
   9.50000000      -1.28136115E-08
   9.62500000      -1.06404121E-08
   9.75000000      -7.83668952E-09
   9.87500000      -4.43955539E-09
   10.0000000      -5.10142040E-10
   10.1250000       3.87112653E-09
   10.2500000       8.61171845E-09
   10.3750000       1.36163569E-08
   10.5000000       1.87980227E-08
   10.6250000       2.40898217E-08
   10.7500000       2.94567215E-08
   10.8750000       3.49059519E-08
   11.0000000       4.04948075E-08
   11.1250000       4.63345984E-08
   11.2500000       5.25894848E-08
   11.3750000       5.94694072E-08
   11.5000000       6.72164830E-08
   11.6250000       7.60849730E-08
   11.7500000       8.63154810E-08
   11.8750000       9.81049411E-08
   12.0000000       1.11574764E-07
   12.1250000       1.26740559E-07
   12.2500000       1.43487583E-07
   12.3750000       1.61557054E-07
   12.5000000       1.80549009E-07
   12.6250000       1.99947763E-07
   12.7500000       2.19176201E-07
   12.8750000       2.37684461E-07
   13.0000000       2.55078049E-07
   13.1250000       2.71288997E-07
   13.2500000       2.86791305E-07
   13.3750000       3.02860713E-07
   13.5000000       3.21874552E-07
   13.6250000       3.47645852E-07
   13.7500000       3.85781505E-07
   13.8750000       4.44052148E-07
   14.0000000       5.32757269E-07
   14.1250000       6.65068683E-07
   14.2500000       8.57330576E-07
   14.3750000       1.12929627E-06
   14.5000000       1.50428082E-06
   14.6250000       2.00920886E-06
   14.7500000       2.67454084E-06
   14.8750000       3.53405972E-06
   15.0000000       4.62451453E-06
   15.1250000       5.98511042E-06
   15.2500000       7.65684581E-06
   15.3750000       9.68170662E-06
   15.5000000       1.21017283E-05
   15.6250000       1.49579555E-05
   15.7500000       1.82893000E-05
   15.8750000       2.21313549E-05
   16.0000000       2.65151975E-05
   16.1250000       3.14661847E-05
   16.2500000       3.70028320E-05
   16.3750000       4.31357694E-05
   16.5000000       4.98668305E-05
   16.6250000       5.71883320E-05
   16.7500000       6.50825023E-05
   16.8750000       7.35211579E-05
   17.0000000       8.24656017E-05
   17.1250000       9.18667574E-05
   17.2500000       1.01665559E-04
   17.3750000       1.11793503E-04
   17.5000000       1.22173529E-04
   17.6250000       1.32721005E-04
   17.7500000       1.43344907E-04
   17.8750000       1.53949164E-04
   18.0000000       1.64434081E-04
   18.1250000       1.74697852E-04
   18.2500000       1.84638178E-04
   18.3750000       1.94153748E-04
   18.5000000       2.03145915E-04
   18.6250000       2.11520164E-04
   18.7500000       2.19187597E-04
   18.8750000       2.26066331E-04
   19.0000000       2.32082777E-04
   19.1250000       2.37172833E-04
   19.2500000       2.41282876E-04
   19.3750000       2.44370691E-04
   19.5000000       2.46406213E-04
   19.6250000       2.47372140E-04
   19.7500000       2.47264252E-04
   19.8750000       2.46091717E-04
   20.0000000       2.43877017E-04
   20.1250000       2.40655718E-04
   20.2500000       2.36476146E-04
   20.3750000       2.31398706E-04
   20.5000000       2.25494994E-04
   20.6250000       2.18846821E-04
   20.7500000       2.11544917E-04
   20.8750000       2.03687465E-04
   21.0000000       1.95378569E-04
   21.1250000       1.86726335E-04
   21.2500000       1.77841241E-04
   21.3750000       1.68834027E-04
   21.5000000       1.59813993E-04
   21.6250000       1.50886990E-04
   21.7500000       1.42153644E-04
   21.8750000       1.33707901E-04
   22.0000000       1.25635372E-04
   22.1250000       1.18012147E-04
   22.2500000       1.10903929E-04
   22.3750000       1.04365143E-04
   22.5000000       9.84386934E-05
   22.6250000       9.31559189E-05
   22.7500000       8.85366971E-05
   22.8750000       8.45901013E-05
   23.0000000       8.13150982E-05
   23.1250000       7.87016179E-05
   23.2500000       7.67318197E-05
   23.3750000       7.53812419E-05
   23.5000000       7.46202713E-05
   23.6250000       7.44155914E-05
   23.7500000       7.47314552E-05
   23.8750000       7.55310393E-05
   24.0000000       7.67774400E-05
   24.1250000       7.84346921E-05
   24.2500000       8.04683732E-05
   24.3750000       8.28460470E-05
   24.5000000       8.55375329E-05
   24.6250000       8.85147529E-05
   24.7500000       9.17514117E-05
   24.8750000       9.52226328E-05
   25.0000000       9.89043401E-05
   25.1250000       1.02772436E-04
   25.2500000       1.06802217E-04
   25.3750000       1.10967543E-04
   25.5000000       1.15240269E-04
   25.6250000       1.19589589E-04
   25.7500000       1.23981925E-04
   25.8750000       1.28380634E-04
   26.0000000       1.32746194E-04
   26.1250000       1.37036623E-04
   26.2500000       1.41208235E-04
   26.3750000       1.45216283E-04
   26.5000000       1.49016341E-04
   26.6250000       1.52565364E-04
   26.7500000       1.55823203E-04
   26.8750000       1.58753959E-04
   27.0000000       1.61327262E-04
   27.1250000       1.63519566E-04
   27.2500000       1.65315432E-04
   27.3750000       1.66708298E-04
   27.5000000       1.67701204E-04
   27.6250000       1.68307117E-04
   27.7500000       1.68548897E-04
   27.8750000       1.68459053E-04
   28.0000000       1.68078986E-04
   28.1250000       1.67458275E-04
   28.2500000       1.66653175E-04
   28.3750000       1.65725389E-04
   28.5000000       1.64740428E-04
   28.6250000       1.63765872E-04
   28.7500000       1.62869866E-04
   28.8750000       1.62119220E-04
   29.0000000       1.61578078E-04
   29.1250000       1.61306205E-04
   29.2500000       1.61358141E-04
   29.3750000       1.61781965E-04
   29.5000000       1.62618497E-04
   29.6250000       1.63901306E-04
   29.7500000       1.65655947E-04
   29.8750000       1.67900493E-04
   30.0000000       1.70645624E-04
   30.1250000       1.73895183E-04
   30.2500000       1.77646769E-04
   30.3750000       1.81892581E-04
   30.5000000       1.86620106E-04
   30.6250000       1.91813189E-04
   30.7500000       1.97452682E-04
   30.8750000       2.03517324E-04
   31.0000000       2.09984384E-04
   31.1250000       2.16830114E-04
   31.2500000       2.24030329E-04
   31.3750000       2.31560494E-04
   31.5000000       2.39396031E-04
   31.6250000       2.47512100E-04
   31.7500000       2.55883468E-04
   31.8750000       2.64484232E-04
   32.0000000       2.73287500E-04
   32.1250000       2.82264780E-04
   32.2500000       2.91385746E-04
   32.3750000       3.00617452E-04
   32.5000000       3.09924100E-04
   32.6250000       3.19266750E-04
   32.7500000       3.28602677E-04
   32.8750000       3.37885926E-04
   33.0000000       3.47066700E-04
   33.1250000       3.56091856E-04
   33.2500000       3.64905281E-04
   33.3750000       3.73448420E-04
   33.5000000       3.81661026E-04
   33.6250000       3.89482273E-04
   33.7500000       3.96851625E-04
   33.8750000       4.03709972E-04
   34.0000000       4.10000794E-04
   34.1250000       4.15671413E-04
   34.2500000       4.20673954E-04
   34.3750000       4.24966449E-04
   34.5000000       4.28513944E-04
   34.6250000       4.31289256E-04
   34.7500000       4.33273293E-04
   34.8750000       4.34455986E-04
   35.0000000       4.34835645E-04
   35.1250000       4.34419286E-04
   35.2500000       4.33221780E-04
   35.3750000       4.31265624E-04
   35.5000000       4.28579748E-04
   35.6250000       4.25198639E-04
   35.7500000       4.21161007E-04
   35.8750000       4.16508818E-04
   36.0000000       4.11285961E-04
   36.1250000       4.05537023E-04
   36.2500000       3.99305980E-04
   36.3750000       3.92634916E-04
   36.5000000       3.85563093E-04
   36.6250000       3.78125958E-04
   36.7500000       3.70354857E-04
   36.8750000       3.62276362E-04
   37.0000000       3.53911950E-04
   37.1250000       3.45278619E-04
   37.2500000       3.36388795E-04
   37.3750000       3.27250804E-04
   37.5000000       3.17869708E-04
   37.6250000       3.08247836E-04
   37.7500000       2.98385945E-04
   37.8750000       2.88283860E-04
   38.0000000       2.77942076E-04
   38.1250000       2.67362309E-04
   38.2500000       2.56549247E-04
   38.3750000       2.45511212E-04
   38.5000000       2.34261403E-04
   38.6250000       2.22818577E-04
   38.7500000       2.11207749E-04
   38.8750000       1.99460439E-04
   39.0000000       1.87614933E-04
   39.1250000       1.75716123E-04
   39.2500000       1.63815377E-04
   39.3750000       1.51969900E-04
   39.5000000       1.40242162E-04
   39.6250000       1.28698928E-04
   39.7500000       1.17410054E-04
   39.8750000       1.06447216E-04
   40.0000000       9.58823875E-05
   40.1250000       8.57863197E-05
   40.2500000       7.62269046E-05
   40.3750000       6.72676833E-05
   40.5000000       5.89664851E-05
   40.6250000       5.13741106E-05
   40.7500000       4.45332807E-05
   40.8750000       3.84778141E-05
   41.0000000       3.32320014E-05
   41.1250000       2.88101182E-05
   41.2500000       2.52162954E-05
   41.3750000       2.24446303E-05
   41.5000000       2.04795906E-05
   41.6250000       1.92965490E-05
   41.7500000       1.88627127E-05
   41.8750000       1.91381314E-05
   42.0000000       2.00768918E-05
   42.1250000       2.16283443E-05
   42.2500000       2.37383447E-05
   42.3750000       2.63504935E-05
   42.5000000       2.94072706E-05
   42.6250000       3.28509777E-05
   42.7500000       3.66247586E-05
   42.8750000       4.06732106E-05
   43.0000000       4.49430809E-05
   43.1250000       4.93836742E-05
   43.2500000       5.39470675E-05
   43.3750000       5.85882517E-05
   43.5000000       6.32650772E-05
   43.6250000       6.79380464E-05
   43.7500000       7.25701029E-05
   43.8750000       7.71263003E-05
   44.0000000       8.15735184E-05
   44.1250000       8.58802741E-05
   44.2500000       9.00165251E-05
   44.3750000       9.39536694E-05
   44.5000000       9.76646188E-05
   44.6250000       1.01124067E-04
   44.7500000       1.04308820E-04
   44.8750000       1.07198255E-04
   45.0000000       1.09774926E-04
   45.1250000       1.12025256E-04
   45.2500000       1.13940187E-04
   45.3750000       1.15515948E-04
   45.5000000       1.16754723E-04
   45.6250000       1.17665259E-04
   45.7500000       1.18263284E-04
   45.8750000       1.18571828E-04
   46.0000000       1.18621203E-04
   46.1250000       1.18448799E-04
   46.2500000       1.18098564E-04
   46.3750000       1.17620199E-04
   46.5000000       1.17068033E-04
   46.6250000       1.16499708E-04
   46.7500000       1.15974552E-04
   46.8750000       1.15551884E-04
   47.0000000       1.15289135E-04
   47.1250000       1.15239927E-04
   47.2500000       1.15452269E-04
   47.3750000       1.15966701E-04
   47.5000000       1.16814786E-04
   47.6250000       1.18017670E-04
   47.7500000       1.19585100E-04
   47.8750000       1.21514706E-04
   48.0000000       1.23791775E-04
   48.1250000       1.26389365E-04
   48.2500000       1.29268970E-04
   48.3750000       1.32381581E-04
   48.5000000       1.35669005E-04
   48.6250000       1.39065640E-04
   48.7500000       1.42500532E-04
   48.8750000       1.45899452E-04
   49.0000000       1.49187326E-04
   49.1250000       1.52290464E-04
   49.2500000       1.55138972E-04
   49.3750000       1.57668808E-04
   49.5000000       1.59823787E-04
   49.6250000       1.61557240E-04
   49.7500000       1.62833298E-04
   49.8750000       1.63627905E-04
   50.0000000       1.63929159E-04
   50.1250000       1.63737554E-04
   50.2500000       1.63065459E-04
   50.3750000       1.61936550E-04
   50.5000000       1.60384618E-04
   50.6250000       1.58452181E-04
   50.7500000       1.56189024E-04
   50.8750000       1.53650253E-04
   51.0000000       1.50894572E-04
   51.1250000       1.47982180E-04
   51.2500000       1.44973092E-04
   51.3750000       1.41925164E-04
   51.5000000       1.38892559E-04
   51.6250000       1.35924376E-04
   51.7500000       1.33063397E-04
   51.8750000       1.30345419E-04
   52.0000000       1.27798616E-04
   52.1250000       1.25443403E-04
   52.2500000       1.23292499E-04
   52.3750000       1.21351208E-04
   52.5000000       1.19618097E-04
   52.6250000       1.18085729E-04
   52.7500000       1.16741598E-04
   52.8750000       1.15569223E-04
   53.0000000       1.14549293E-04
   53.1250000       1.13660826E-04
   53.2500000       1.12882299E-04
   53.3750000       1.12192683E-04
   53.5000000       1.11572430E-04
   53.6250000       1.11004243E-04
   53.7500000       1.10473658E-04
   53.8750000       1.09969551E-04
   54.0000000       1.09484332E-04
   54.1250000       1.09013999E-04
   54.2500000       1.08558088E-04
   54.3750000       1.08119370E-04
   54.5000000       1.07703410E-04
   54.6250000       1.07318083E-04
   54.7500000       1.06972933E-04
   54.8750000       1.06678490E-04
   55.0000000       1.06445557E-04
   55.1250000       1.06284548E-04
   55.2500000       1.06204774E-04
   55.3750000       1.06213891E-04
   55.5000000       1.06317362E-04
   55.6250000       1.06518055E-04
   55.7500000       1.06816005E-04
   55.8750000       1.07208238E-04
   56.0000000       1.07688720E-04
   56.1250000       1.08248503E-04
   56.2500000       1.08875938E-04
   56.3750000       1.09557033E-04
   56.5000000       1.10275942E-04
   56.6250000       1.11015506E-04
   56.7500000       1.11757807E-04
   56.8750000       1.12484893E-04
   57.0000000       1.13179289E-04
   57.1250000       1.13824695E-04
   57.2500000       1.14406517E-04
   57.3750000       1.14912356E-04
   57.5000000       1.15332456E-04
   57.6250000       1.15659932E-04
   57.7500000       1.15890994E-04
   57.8750000       1.16024952E-04
   58.0000000       1.16064119E-04
   58.1250000       1.16013463E-04
   58.2500000       1.15880262E-04
   58.3750000       1.15673538E-04
   58.5000000       1.15403476E-04
   58.6250000       1.15080707E-04
   58.7500000       1.14715607E-04
   58.8750000       1.14317590E-04
   59.0000000       1.13894428E-04
   59.1250000       1.13451584E-04
   59.2500000       1.12991671E-04
   59.3750000       1.12514055E-04
   59.5000000       1.12014583E-04
   59.6250000       1.11485453E-04
   59.7500000       1.10915404E-04
   59.8750000       1.10290035E-04
   60.0000000       1.09592409E-04
   60.1250000       1.08803797E-04
   60.2500000       1.07904627E-04
   60.3750000       1.06875530E-04
   60.5000000       1.05698491E-04
   60.6250000       1.04358012E-04
   60.7500000       1.02842263E-04
   60.8750000       1.01144178E-04
   61.0000000       9.92624555E-05
   61.1250000       9.72024282E-05
   61.2500000       9.49766400E-05
   61.3750000       9.26052162E-05
   61.5000000       9.01159292E-05
   61.6250000       8.75439000E-05
   61.7500000       8.49310163E-05
   61.8750000       8.23249939E-05
   62.0000000       7.97781977E-05
   62.1250000       7.73462234E-05
   62.2500000       7.50862600E-05
   62.3750000       7.30554239E-05
   62.5000000       7.13089466E-05
   62.6250000       6.98985168E-05
   62.7500000       6.88705040E-05
   62.8750000       6.82645041E-05
   63.0000000       6.81119782E-05
   63.1250000       6.84351471E-05
   63.2500000       6.92463291E-05
   63.3750000       7.05474740E-05
   63.5000000       7.23302001E-05
   63.6250000       7.45760844E-05
   63.7500000       7.72574203E-05
   63.8750000       8.03381190E-05
   64.0000000       8.37749321E-05
   64.1250000       8.75188271E-05
   64.2500000       9.15164128E-05
   64.3750000       9.57114898E-05
   64.5000000       1.00046527E-04
   64.6250000       1.04464052E-04
   64.7500000       1.08908025E-04
   64.8750000       1.13324953E-04
   65.0000000       1.17664786E-04
   65.1250000       1.21881647E-04
   65.2500000       1.25934137E-04
   65.3750000       1.29785563E-04
   65.5000000       1.33403810E-04
   65.6250000       1.36761024E-04
   65.7500000       1.39833224E-04
   65.8750000       1.42599776E-04
   66.0000000       1.45042897E-04
   66.1250000       1.47147119E-04
   66.2500000       1.48898835E-04
   66.3750000       1.50286025E-04
   66.5000000       1.51298009E-04
   66.6250000       1.51925400E-04
   66.7500000       1.52160224E-04
   66.8750000       1.51996210E-04
   67.0000000       1.51429180E-04
   67.1250000       1.50457767E-04
   67.2500000       1.49083950E-04
   67.3750000       1.47313986E-04
   67.5000000       1.45159065E-04
   67.6250000       1.42636025E-04
   67.7500000       1.39767886E-04
   67.8750000       1.36584262E-04
   68.0000000       1.33121488E-04
   68.1250000       1.29422580E-04
   68.2500000       1.25536884E-04
   68.3750000       1.21519450E-04
   68.5000000       1.17430187E-04
   68.6250000       1.13332724E-04
   68.7500000       1.09293062E-04
   68.8750000       1.05378036E-04
   69.0000000       1.01653604E-04
   69.1250000       9.81831108E-05
   69.2500000       9.50254471E-05
   69.3750000       9.22333638E-05
   69.5000000       8.98518992E-05
   69.6250000       8.79169020E-05
   69.7500000       8.64539325E-05
   69.8750000       8.54774189E-05
   70.0000000       8.49900971E-05
   70.1250000       8.49828211E-05
   70.2500000       8.54347527E-05
   70.3750000       8.63138848E-05
   70.5000000       8.75779442E-05
   70.6250000       8.91755553E-05
   70.7500000       9.10477247E-05
   70.8750000       9.31295654E-05
   71.0000000       9.53521885E-05
   71.1250000       9.76446827E-05
   71.2500000       9.99362092E-05
   71.3750000       1.02158003E-04
   71.5000000       1.04245337E-04
   71.6250000       1.06139269E-04
   71.7500000       1.07788233E-04
   71.8750000       1.09149340E-04
   72.0000000       1.10189365E-04
   72.1250000       1.10885434E-04
   72.2500000       1.11225359E-04
   72.3750000       1.11207686E-04
   72.5000000       1.10841269E-04
   72.6250000       1.10144705E-04
   72.7500000       1.09145396E-04
   72.8750000       1.07878339E-04
   73.0000000       1.06384781E-04
   73.1250000       1.04710685E-04
   73.2500000       1.02905178E-04
   73.3750000       1.01018850E-04
   73.5000000       9.91022171E-05
   73.6250000       9.72041817E-05
   73.7500000       9.53706913E-05
   73.8750000       9.36435608E-05
   74.0000000       9.20595194E-05
   74.1250000       9.06495334E-05
   74.2500000       8.94382829E-05
   74.3750000       8.84440160E-05
   74.5000000       8.76784907E-05
   74.6250000       8.71473312E-05
   74.7500000       8.68503630E-05
   74.8750000       8.67822673E-05
   75.0000000       8.69333526E-05
   75.1250000       8.72903474E-05
   75.2500000       8.78373030E-05
   75.3750000       8.85564295E-05
   75.5000000       8.94289624E-05
   75.6250000       9.04358749E-05
   75.7500000       9.15585260E-05
   75.8750000       9.27791625E-05
   76.0000000       9.40812897E-05
   76.1250000       9.54499483E-05
   76.2500000       9.68717650E-05
   76.3750000       9.83349528E-05
   76.5000000       9.98291580E-05
   76.6250000       1.01345264E-04
   76.7500000       1.02875085E-04
   76.8750000       1.04411018E-04
   77.0000000       1.05945735E-04
   77.1250000       1.07471882E-04
   77.2500000       1.08981803E-04
   77.3750000       1.10467372E-04
   77.5000000       1.11919908E-04
   77.6250000       1.13330178E-04
   77.7500000       1.14688512E-04
   77.8750000       1.15984985E-04
   78.0000000       1.17209718E-04
   78.1250000       1.18353193E-04
   78.2500000       1.19406672E-04
   78.3750000       1.20362602E-04
   78.5000000       1.21215009E-04
   78.6250000       1.21959878E-04
   78.7500000       1.22595506E-04
   78.8750000       1.23122736E-04
   79.0000000       1.23545018E-04
   79.1250000       1.23868551E-04
   79.2500000       1.24102080E-04
   79.3750000       1.24256694E-04
   79.5000000       1.24345504E-04
   79.6250000       1.24383179E-04
   79.7500000       1.24385391E-04
   79.8750000       1.24368249E-04
   80.0000000       1.24347484E-04
   80.1250000       1.24337879E-04
   80.2500000       1.24352446E-04
   80.3750000       1.24401748E-04
   80.5000000       1.24493279E-04
   80.6250000       1.24630940E-04
   80.7500000       1.24814585E-04
   80.8750000       1.25039835E-04
   81.0000000       1.25297956E-04
   81.1250000       1.25575913E-04
   81.2500000       1.25856619E-04
   81.3750000       1.26119310E-04
   81.5000000       1.26340165E-04
   81.6250000       1.26492989E-04
   81.7500000       1.26550061E-04
   81.8750000       1.26483152E-04
   82.0000000       1.26264509E-04
   82.1250000       1.25867999E-04
   82.2500000       1.25270162E-04
   82.3750000       1.24451268E-04
   82.5000000       1.23396196E-04
   82.6250000       1.22095269E-04
   82.7500000       1.20544901E-04
   82.8750000       1.18747994E-04
   83.0000000       1.16714204E-04
   83.1250000       1.14459966E-04
   83.2500000       1.12008325E-04
   83.3750000       1.09388457E-04
   83.5000000       1.06635060E-04
   83.6250000       1.03787490E-04
   83.7500000       1.00888741E-04
   83.8750000       9.79842589E-05
   84.0000000       9.51207039E-05
   84.1250000       9.23446350E-05
   84.2500000       8.97013306E-05
   84.3750000       8.72335077E-05
   84.5000000       8.49803109E-05
   84.6250000       8.29763085E-05
   84.7500000       8.12507060E-05
   84.8750000       7.98266701E-05
   85.0000000       7.87209065E-05
   85.1250000       7.79433904E-05
   85.2500000       7.74973087E-05
   85.3750000       7.73792272E-05
   85.5000000       7.75794542E-05
   85.6250000       7.80825139E-05
   85.7500000       7.88678008E-05
   85.8750000       7.99103000E-05
   86.0000000       8.11813225E-05
   86.1250000       8.26493560E-05
   86.2500000       8.42808367E-05
   86.3750000       8.60409782E-05
   86.5000000       8.78945211E-05
   86.6250000       8.98065409E-05
   86.7500000       9.17431898E-05
   86.8750000       9.36723591E-05
   87.0000000       9.55642681E-05
   87.1250000       9.73919523E-05
   87.2500000       9.91316847E-05
   87.3750000       1.00763289E-04
   87.5000000       1.02270329E-04
   87.6250000       1.03640326E-04
   87.7500000       1.04864841E-04
   87.8750000       1.05939471E-04
   88.0000000       1.06863874E-04
   88.1250000       1.07641572E-04
   88.2500000       1.08279753E-04
   88.3750000       1.08788947E-04
   88.5000000       1.09182583E-04
   88.6250000       1.09476452E-04
   88.7500000       1.09688182E-04
   88.8750000       1.09836590E-04
   89.0000000       1.09941029E-04
   89.1250000       1.10020774E-04
   89.2500000       1.10094385E-04
   89.3750000       1.10179055E-04
   89.5000000       1.10290035E-04
   89.6250000       1.10439978E-04
   89.7500000       1.10638473E-04
   89.8750000       1.10891568E-04
   90.0000000       1.11201502E-04
   90.1250000       1.11566529E-04
   90.2500000       1.11980924E-04
   90.3750000       1.12435147E-04
   90.5000000       1.12916132E-04
   90.6250000       1.13407717E-04
   90.7500000       1.13891139E-04
   90.8750000       1.14345683E-04
   91.0000000       1.14749339E-04
   91.1250000       1.15079565E-04
   91.2500000       1.15314047E-04
   91.3750000       1.15431656E-04
   91.5000000       1.15413284E-04
   91.6250000       1.15242627E-04
   91.7500000       1.14907147E-04
   91.8750000       1.14398616E-04
   92.0000000       1.13713773E-04
   92.1250000       1.12854628E-04
   92.2500000       1.11828798E-04
   92.3750000       1.10649453E-04
   92.5000000       1.09335255E-04
   92.6250000       1.07910055E-04
   92.7500000       1.06402425E-04
   92.8750000       1.04845043E-04
   93.0000000       1.03273902E-04
   93.1250000       1.01727310E-04
   93.2500000       1.00244863E-04
   93.3750000       9.88661559E-05
   93.5000000       9.76295851E-05
   93.6250000       9.65711079E-05
   93.7500000       9.57230513E-05
   93.8750000       9.51130496E-05
   94.0000000       9.47631779E-05
   94.1250000       9.46891523E-05
   94.2500000       9.48998204E-05
   94.3750000       9.53967174E-05
   94.5000000       9.61740225E-05
   94.6250000       9.72185589E-05
   94.7500000       9.85101578E-05
   94.8750000       1.00022189E-04
   95.0000000       1.01722384E-04
   95.1250000       1.03573759E-04
   95.2500000       1.05535859E-04
   95.3750000       1.07565924E-04
   95.5000000       1.09620181E-04
   95.6250000       1.11655150E-04
   95.7500000       1.13628892E-04
   95.8750000       1.15502087E-04
   96.0000000       1.17239084E-04
   96.1250000       1.18808828E-04
   96.2500000       1.20185490E-04
   96.3750000       1.21349032E-04
   96.5000000       1.22285550E-04
   96.6250000       1.22987360E-04
   96.7500000       1.23452919E-04
   96.8750000       1.23686492E-04
   97.0000000       1.23697682E-04
   97.1250000       1.23500751E-04
   97.2500000       1.23113874E-04
   97.3750000       1.22558253E-04
   97.5000000       1.21857243E-04
   97.6250000       1.21035351E-04
   97.7500000       1.20117409E-04
   97.8750000       1.19127595E-04
   98.0000000       1.18088683E-04
   98.1250000       1.17021358E-04
   98.2500000       1.15943563E-04
   98.3750000       1.14870061E-04
   98.5000000       1.13812144E-04
   98.6250000       1.12777489E-04
   98.7500000       1.11770205E-04
   98.8750000       1.10790999E-04
   99.0000000       1.09837456E-04
   99.1250000       1.08904525E-04
   99.2500000       1.07985012E-04
   99.3750000       1.07070227E-04
   99.5000000       1.06150612E-04
   99.6250000       1.05216459E-04
   99.7500000       1.04258608E-04
   99.8750000       1.03269100E-04
   100.000000       1.02241800E-04
   100.125000       1.01172911E-04
   100.250000       1.00061363E-04
   100.375000       9.89091495E-05
   100.500000       9.77214804E-05
   100.625000       9.65068539E-05
   100.750000       9.52769988E-05
   100.875000       9.40467071E-05
   101.000000       9.28334994E-05
   101.125000       9.16572972E-05
   101.250000       9.05399429E-05
   101.375000       8.95045887E-05
   101.500000       8.85752379E-05
   101.625000       8.77760322E-05
   101.750000       8.71307129E-05
   101.875000       8.66620176E-05
   102.000000       8.63911555E-05
   102.125000       8.63372479E-05
   102.250000       8.65169131E-05
   102.375000       8.69437572E-05
   102.500000       8.76280683E-05