  -4.50000000         0.00000000    
  -4.37500000         0.00000000    
  -4.25000000         0.00000000    
  -4.12500000         0.00000000    
  -4.00000000         1.23654696E-23
  -3.87500000        -4.02079122E-22
  -3.75000000        -4.35048615E-21
  -3.62500000        -2.14065360E-20
  -3.50000000        -6.59755315E-20
  -3.37500000        -1.34688927E-19
  -3.25000000        -1.52909286E-19
  -3.12500000         8.39573329E-20
  -3.00000000         8.95965023E-19
  -2.87500000         2.53926664E-18
  -2.75000000         4.85839322E-18
  -2.62500000         6.94086425E-18
  -2.50000000         7.06217690E-18
  -2.37500000         3.07935271E-18
  -2.25000000        -6.97758776E-18
  -2.12500000        -2.47576597E-17
  -2.00000000        -5.23745882E-17
  -1.87500000        -9.36133733E-17
  -1.75000000        -1.53617961E-16
  -1.62500000        -2.34525715E-16
  -1.50000000        -3.26149322E-16
  -1.37500000        -3.94956084E-16
  -1.25000000        -3.79455646E-16
  -1.12500000        -2.02098223E-16
  -1.00000000         1.96568686E-16
 -0.875000000         8.07141560E-16
 -0.750000000         1.50429949E-15
 -0.625000000         2.03397323E-15
 -0.500000000         2.06298538E-15
 -0.375000000         1.30050495E-15
 -0.250000000        -3.31394282E-16
 -0.125000000        -2.53488564E-15
   0.00000000        -4.55887151E-15
  0.125000000        -5.27829428E-15
  0.250000000        -3.46308150E-15
  0.375000000         1.79554574E-15
  0.500000000         1.06065991E-14
  0.625000000         2.19083700E-14
  0.750000000         3.33745245E-14
  0.875000000         4.17162236E-14
   1.00000000         4.33917937E-14
   1.12500000         3.55973626E-14
   1.25000000         1.72870141E-14
   1.37500000        -1.00917835E-14
   1.50000000        -4.24280836E-14
   1.62500000        -7.34884023E-14
   1.75000000        -9.61114055E-14
   1.87500000        -1.03790484E-13
   2.00000000        -9.22402617E-14
   2.12500000        -6.05299095E-14
   2.25000000        -1.14965351E-14
   2.37500000         4.86153205E-14
   2.50000000         1.11090085E-13
   2.62500000         1.65887811E-13
   2.75000000         2.02631016E-13
   2.87500000         2.11240151E-13
   3.00000000         1.82324628E-13
   3.12500000         1.07728368E-13
   3.25000000        -1.82405767E-14
   3.37500000        -1.96506927E-13
   3.50000000        -4.19896783E-13
   3.62500000        -6.69444914E-13
   3.75000000        -9.11609763E-13
   3.87500000        -1.09798737E-12
   4.00000000        -1.16894970E-12
   4.12500000        -1.06188973E-12
   4.25000000        -7.23540965E-13
   4.37500000        -1.24448303E-13
   4.50000000         7.27494833E-13
   4.62500000         1.77802619E-12
   4.75000000         2.92515361E-12
   4.87500000         4.02718137E-12
   5.00000000         4.91972131E-12
   5.12500000         5.43898043E-12
   5.25000000         5.44676066E-12
   5.37500000         4.85183161E-12
   5.50000000         3.62289539E-12
   5.62500000         1.79035009E-12
   5.75000000        -5.63134825E-13
   5.87500000        -3.32020912E-12
   6.00000000        -6.34937155E-12
   6.12500000        -9.52255289E-12
   6.25000000        -1.27250927E-11
   6.37500000        -1.58565539E-11
   6.50000000        -1.88248479E-11
   6.62500000        -2.15401308E-11
   6.75000000        -2.39172744E-11
   6.87500000        -2.58953744E-11
   7.00000000        -2.74790451E-11
   7.12500000        -2.87996467E-11
   7.25000000        -3.01858330E-11
   7.37500000        -3.22246153E-11
   7.50000000        -3.57880739E-11
   7.62500000        -4.19999729E-11
   7.75000000        -5.21215224E-11
   7.87500000        -6.73468087E-11
   8.00000000        -8.85147927E-11
   8.12500000        -1.15762365E-10
   8.25000000        -1.48158694E-10
   8.37500000        -1.83370319E-10
   8.50000000        -2.17406648E-10
   8.62500000        -2.44485626E-10
   8.75000000        -2.57041083E-10
   8.87500000        -2.45872323E-10
   9.00000000        -2.00418071E-10
   9.12500000        -1.09128893E-10
   9.25000000         4.00788291E-11
   9.37500000         2.59279764E-10
   9.50000000         5.59859659E-10
   9.62500000         9.51603907E-10
   9.75000000         1.44142731E-09
   9.87500000         2.03160044E-09
   10.0000000         2.71735834E-09
   10.1250000         3.48385765E-09
   10.2500000         4.30256186E-09
   10.3750000         5.12732701E-09
   10.5000000         5.89061333E-09
   10.6250000         6.50046195E-09
   10.7500000         6.83897916E-09
   10.8750000         6.76312917E-09
   11.0000000         6.10857409E-09
   11.1250000         4.69710182E-09
   11.2500000         2.34790165E-09
   11.3750000        -1.10752052E-09
   11.5000000        -5.80744475E-09
   11.6250000        -1.18402550E-08
   11.7500000        -1.92246734E-08
   11.8750000        -2.78920620E-08
   12.0000000        -3.76733098E-08
   12.1250000        -4.82930176E-08
   12.2500000        -5.93738960E-08
   12.3750000        -7.04541776E-08
   12.5000000        -8.10207510E-08
   12.6250000        -9.05604836E-08
   12.7500000        -9.86317517E-08
   12.8750000        -1.04957735E-07
   13.0000000        -1.09542285E-07
   13.1250000        -1.12808387E-07
   13.2500000        -1.15758120E-07
   13.3750000        -1.20151853E-07
   13.5000000        -1.28703036E-07
   13.6250000        -1.45283494E-07
   13.7500000        -1.75132712E-07
   13.8750000        -2.25062934E-07
   14.0000000        -3.03651348E-07
   14.1250000        -4.21409027E-07
   14.2500000        -5.90916272E-07
   14.3750000        -8.26914118E-07
   14.5000000        -1.14634258E-06
   14.6250000        -1.56831663E-06
   14.7500000        -2.11403380E-06
   14.8750000        -2.80660902E-06
   15.0000000        -3.67083339E-06
   15.1250000        -4.73286082E-06
   15.2500000        -6.01982265E-06
   15.3750000        -7.55937936E-06
   15.5000000        -9.37921777E-06
   15.6250000        -1.15065059E-05
   15.7500000        -1.39673175E-05
   15.8750000        -1.67860399E-05
   16.0000000        -1.99847800E-05
   16.1250000        -2.35827865E-05
   16.2500000        -2.75958919E-05
   16.3750000        -3.20359941E-05
   16.5000000        -3.69105910E-05
   16.6250000        -4.22223638E-05
   16.7500000        -4.79688133E-05
   16.8750000        -5.41419795E-05
   17.0000000        -6.07282236E-05
   17.1250000        -6.77080898E-05
   17.2500000        -7.50562394E-05
   17.3750000        -8.27414624E-05
   17.5000000        -9.07268186E-05
   17.6250000        -9.89698165E-05
   17.7500000        -1.07422762E-04
   17.8750000        -1.16033174E-04
   18.0000000        -1.24744314E-04
   18.1250000        -1.33495894E-04
   18.2500000        -1.42224832E-04
   18.3750000        -1.50866137E-04
   18.5000000        -1.59353920E-04
   18.6250000        -1.67622464E-04
   18.7500000        -1.75607376E-04
   18.8750000        -1.83246710E-04
   19.0000000        -1.90482184E-04
   19.1250000        -1.97260248E-04
   19.2500000        -2.03533200E-04
   19.3750000        -2.09260150E-04
   19.5000000        -2.14407715E-04
   19.6250000        -2.18950809E-04
   19.7500000        -2.22873001E-04
   19.8750000        -2.26166710E-04
   20.0000000        -2.28833305E-04
   20.1250000        -2.30882812E-04
   20.2500000        -2.32333492E-04
   20.3750000        -2.33211234E-04
   20.5000000        -2.33548737E-04
   20.6250000        -2.33384533E-04
   20.7500000        -2.32762060E-04
   20.8750000        -2.31728452E-04
   21.0000000        -2.30333622E-04
   21.1250000        -2.28629113E-04
   21.2500000        -2.26667267E-04
   21.3750000        -2.24500298E-04
   21.5000000        -2.22179850E-04
   21.6250000        -2.19756301E-04
   21.7500000        -2.17278619E-04
   21.8750000        -2.14794083E-04
   22.0000000        -2.12348328E-04
   22.1250000        -2.09985476E-04
   22.2500000        -2.07748177E-04
   22.3750000        -2.05677876E-04
   22.5000000        -2.03814910E-04
   22.6250000        -2.02198644E-04
   22.7500000        -2.00867304E-04
   22.8750000        -1.99857983E-04
   23.0000000        -1.99206042E-04
   23.1250000        -1.98944734E-04
   23.2500000        -1.99104412E-04
   23.3750000        -1.99711649E-04
   23.5000000        -2.00788141E-04
   23.6250000        -2.02349765E-04
   23.7500000        -2.04405253E-04
   23.8750000        -2.06955287E-04
   24.0000000        -2.09991427E-04
   24.1250000        -2.13495339E-04
   24.2500000        -2.17438312E-04
   24.3750000        -2.21780982E-04
   24.5000000        -2.26473581E-04
   24.6250000        -2.31456404E-04
   24.7500000        -2.36660897E-04
   24.8750000        -2.42010967E-04
   25.0000000        -2.47424789E-04
   25.1250000        -2.52817001E-04
   25.2500000        -2.58100947E-04
   25.3750000        -2.63191410E-04
   25.5000000        -2.68007279E-04
   25.6250000        -2.72474193E-04
   25.7500000        -2.76527251E-04
   25.8750000        -2.80113367E-04
   26.0000000        -2.83193454E-04
   26.1250000        -2.85744114E-04
   26.2500000        -2.87758914E-04
   26.3750000        -2.89249263E-04
   26.5000000        -2.90244439E-04
   26.6250000        -2.90791446E-04
   26.7500000        -2.90953962E-04
   26.8750000        -2.90810916E-04
   27.0000000        -2.90454685E-04
   27.1250000        -2.89988471E-04
   27.2500000        -2.89523829E-04
   27.3750000        -2.89177609E-04
   27.5000000        -2.89068907E-04
   27.6250000        -2.89315911E-04
   27.7500000        -2.90032913E-04
   27.8750000        -2.91327306E-04
   28.0000000        -2.93297140E-04
   28.1250000        -2.96028826E-04
   28.2500000        -2.99595034E-04
   28.3750000        -3.04053567E-04
   28.5000000        -3.09446070E-04
   28.6250000        -3.15797777E-04
   28.7500000        -3.23117216E-04
   28.8750000        -3.31396703E-04
   29.0000000        -3.40612838E-04
   29.1250000        -3.50727816E-04
   29.2500000        -3.61690618E-04
   29.3750000        -3.73438408E-04
   29.5000000        -3.85898660E-04
   29.6250000        -3.98990524E-04
   29.7500000        -4.12626978E-04
   29.8750000        -4.26716637E-04
   30.0000000        -4.41165641E-04
   30.1250000        -4.55879577E-04
   30.2500000        -4.70764964E-04
   30.3750000        -4.85730910E-04
   30.5000000        -5.00690483E-04
   30.6250000        -5.15561958E-04
   30.7500000        -5.30270045E-04
   30.8750000        -5.44746348E-04
   31.0000000        -5.58930449E-04
   31.1250000        -5.72770019E-04
   31.2500000        -5.86221227E-04
   31.3750000        -5.99248684E-04
   31.5000000        -6.11825264E-04
   31.6250000        -6.23931701E-04
   31.7500000        -6.35555829E-04
   31.8750000        -6.46692119E-04
   32.0000000        -6.57340279E-04
   32.1250000        -6.67504151E-04
   32.2500000        -6.77190430E-04
   32.3750000        -6.86406973E-04
   32.5000000        -6.95161463E-04
   32.6250000        -7.03459489E-04
   32.7500000        -7.11302797E-04
   32.8750000        -7.18687836E-04
   33.0000000        -7.25603953E-04
   33.1250000        -7.32032117E-04
   33.2500000        -7.37943454E-04
   33.3750000        -7.43298559E-04
   33.5000000        -7.48046616E-04
   33.6250000        -7.52125226E-04
   33.7500000        -7.55460700E-04
   33.8750000        -7.57968344E-04
   34.0000000        -7.59553979E-04
   34.1250000        -7.60115276E-04
   34.2500000        -7.59543967E-04
   34.3750000        -7.57728179E-04
   34.5000000        -7.54555396E-04
   34.6250000        -7.49915547E-04
   34.7500000        -7.43704382E-04
   34.8750000        -7.35826965E-04
   35.0000000        -7.26201280E-04
   35.1250000        -7.14761438E-04
   35.2500000        -7.01460929E-04
   35.3750000        -6.86275249E-04
   35.5000000        -6.69204455E-04
   35.6250000        -6.50275033E-04
   35.7500000        -6.29541057E-04
   35.8750000        -6.07085065E-04
   36.0000000        -5.83017652E-04
   36.1250000        -5.57477353E-04
   36.2500000        -5.30628895E-04
   36.3750000        -5.02661220E-04
   36.5000000        -4.73785127E-04
   36.6250000        -4.44229867E-04
   36.7500000        -4.14239679E-04
   36.8750000        -3.84069659E-04
   37.0000000        -3.53981479E-04
   37.1250000        -3.24238761E-04
   37.2500000        -2.95102480E-04
   37.3750000        -2.66826246E-04
   37.5000000        -2.39651723E-04
   37.6250000        -2.13804436E-04
   37.7500000        -1.89489612E-04
   37.8750000        -1.66888713E-04
   38.0000000        -1.46156221E-04
   38.1250000        -1.27417225E-04
   38.2500000        -1.10765519E-04
   38.3750000        -9.62623235E-05
   38.5000000        -8.39357235E-05
   38.6250000        -7.37807641E-05
   38.7500000        -6.57602359E-05
   38.8750000        -5.98059814E-05
   39.0000000        -5.58208558E-05
   39.1250000        -5.36810912E-05
   39.2500000        -5.32392296E-05
   39.3750000        -5.43272836E-05
   39.5000000        -5.67602838E-05
   39.6250000        -6.03399312E-05
   39.7500000        -6.48584610E-05
   39.8750000        -7.01025710E-05
   40.0000000        -7.58572714E-05
   40.1250000        -8.19097550E-05
   40.2500000        -8.80531225E-05
   40.3750000        -9.40898681E-05
   40.5000000        -9.98351607E-05
   40.6250000        -1.05119892E-04
   40.7500000        -1.09793225E-04
   40.8750000        -1.13724920E-04
   41.0000000        -1.16807067E-04
   41.1250000        -1.18955431E-04
   41.2500000        -1.20110279E-04
   41.3750000        -1.20236669E-04
   41.5000000        -1.19324221E-04
   41.6250000        -1.17386291E-04
   41.7500000        -1.14458788E-04
   41.8750000        -1.10598419E-04
   42.0000000        -1.05880536E-04
   42.1250000        -1.00396617E-04
   42.2500000        -9.42516781E-05
   42.3750000        -8.75612750E-05
   42.5000000        -8.04485753E-05
   42.6250000        -7.30414613E-05
   42.7500000        -6.54696851E-05
   42.8750000        -5.78622530E-05
   43.0000000        -5.03451301E-05
   43.1250000        -4.30391774E-05
   43.2500000        -3.60584781E-05
   43.3750000        -2.95090467E-05
   43.5000000        -2.34878953E-05
   43.6250000        -1.80823845E-05
   43.7500000        -1.33699450E-05
   43.8750000        -9.41798316E-06
   44.0000000        -6.28398720E-06
   44.1250000        -4.01574880E-06
   44.2500000        -2.65158428E-06
   44.3750000        -2.22056269E-06
   44.5000000        -2.74267154E-06
   44.6250000        -4.22884887E-06
   44.7500000        -6.68090570E-06
   44.8750000        -1.00913076E-05
   45.0000000        -1.44428559E-05
   45.1250000        -1.97082663E-05
   45.2500000        -2.58497112E-05
   45.3750000        -3.28183960E-05
   45.5000000        -4.05541832E-05
   45.6250000        -4.89853664E-05
   45.7500000        -5.80286651E-05
   45.8750000        -6.75894844E-05
   46.0000000        -7.75624649E-05
   46.1250000        -8.78324572E-05
   46.2500000        -9.82757701E-05
   46.3750000        -1.08761895E-04
   46.5000000        -1.19155549E-04
   46.6250000        -1.29318927E-04
   46.7500000        -1.39114418E-04
   46.8750000        -1.48407227E-04
   47.0000000        -1.57068294E-04
   47.1250000        -1.64977115E-04
   47.2500000        -1.72024505E-04
   47.3750000        -1.78115020E-04
   47.5000000        -1.83169279E-04
   47.6250000        -1.87125814E-04
   47.7500000        -1.89942439E-04
   47.8750000        -1.91597326E-04
   48.0000000        -1.92089385E-04
   48.1250000        -1.91438186E-04
   48.2500000        -1.89683517E-04
   48.3750000        -1.86884281E-04
   48.5000000        -1.83117096E-04
   48.6250000        -1.78474496E-04
   48.7500000        -1.73062857E-04
   48.8750000        -1.66999976E-04
   49.0000000        -1.60412586E-04
   49.1250000        -1.53433808E-04
   49.2500000        -1.46200386E-04
   49.3750000        -1.38850271E-04
   49.5000000        -1.31519992E-04
   49.6250000        -1.24342492E-04
   49.7500000        -1.17444957E-04
   49.8750000        -1.10946981E-04
   50.0000000        -1.04958992E-04
   50.1250000        -9.95809605E-05
   50.2500000        -9.49013265E-05
   50.3750000        -9.09961891E-05
   50.5000000        -8.79287763E-05
   50.6250000        -8.57490086E-05
   50.7500000        -8.44933456E-05
   50.8750000        -8.41846777E-05
   51.0000000        -8.48323689E-05
   51.1250000        -8.64323447E-05
   51.2500000        -8.89672738E-05
   51.3750000        -9.24068008E-05
   51.5000000        -9.67077649E-05
   51.6250000        -1.01814592E-04
   51.7500000        -1.07659675E-04
   51.8750000        -1.14163922E-04
   52.0000000        -1.21237448E-04
   52.1250000        -1.28780463E-04
   52.2500000        -1.36684335E-04
   52.3750000        -1.44833000E-04
   52.5000000        -1.53104527E-04
   52.6250000        -1.61373027E-04
   52.7500000        -1.69510691E-04
   52.8750000        -1.77390277E-04
   53.0000000        -1.84887496E-04
   53.1250000        -1.91883722E-04
   53.2500000        -1.98268594E-04
   53.3750000        -2.03942662E-04
   53.5000000        -2.08819722E-04
   53.6250000        -2.12829094E-04
   53.7500000        -2.15917360E-04
   53.8750000        -2.18049769E-04
   54.0000000        -2.19211011E-04
   54.1250000        -2.19405614E-04
   54.2500000        -2.18657515E-04
   54.3750000        -2.17009219E-04
   54.5000000        -2.14520274E-04
   54.6250000        -2.11265316E-04
   54.7500000        -2.07331526E-04
   54.8750000        -2.02815980E-04
   55.0000000        -1.97822432E-04
   55.1250000        -1.92458203E-04
   55.2500000        -1.86831123E-04
   55.3750000        -1.81046387E-04
   55.5000000        -1.75203866E-04
   55.6250000        -1.69395673E-04
   55.7500000        -1.63704171E-04
   55.8750000        -1.58200579E-04
   56.0000000        -1.52944005E-04
   56.1250000        -1.47981074E-04
   56.2500000        -1.43346202E-04
   56.3750000        -1.39062278E-04
   56.5000000        -1.35141745E-04
   56.6250000        -1.31588284E-04
   56.7500000        -1.28398577E-04
   56.8750000        -1.25564300E-04
   57.0000000        -1.23074235E-04
   57.1250000        -1.20916317E-04
   57.2500000        -1.19079428E-04
   57.3750000        -1.17555064E-04
   57.5000000        -1.16338502E-04
   57.6250000        -1.15429641E-04
   57.7500000        -1.14833361E-04
   57.8750000        -1.14559378E-04
   58.0000000        -1.14621624E-04
   58.1250000        -1.15037190E-04
   58.2500000        -1.15824900E-04
   58.3750000        -1.17003576E-04
   58.5000000        -1.18590106E-04
   58.6250000        -1.20597433E-04
   58.7500000        -1.23032558E-04
   58.8750000        -1.25894643E-04
   59.0000000        -1.29173495E-04
   59.1250000        -1.32848218E-04
   59.2500000        -1.36886520E-04
   59.3750000        -1.41244294E-04
   59.5000000        -1.45865954E-04
   59.6250000        -1.50685068E-04
   59.7500000        -1.55625734E-04
   59.8750000        -1.60604424E-04
   60.0000000        -1.65532139E-04
   60.1250000        -1.70317086E-04
   60.2500000        -1.74867600E-04
   60.3750000        -1.79095063E-04
   60.5000000        -1.82917021E-04
   60.6250000        -1.86260106E-04
   60.7500000        -1.89062761E-04
   60.8750000        -1.91277606E-04
   61.0000000        -1.92873267E-04
   61.1250000        -1.93835847E-04
   61.2500000        -1.94169625E-04
   61.3750000        -1.93897053E-04
   61.5000000        -1.93058353E-04
   61.6250000        -1.91710278E-04
   61.7500000        -1.89924234E-04
   61.8750000        -1.87784055E-04
   62.0000000        -1.85383149E-04
   62.1250000        -1.82821372E-04
   62.2500000        -1.80201707E-04
   62.3750000        -1.77626760E-04
   62.5000000        -1.75195426E-04
   62.6250000        -1.72999600E-04
   62.7500000        -1.71121254E-04
   62.8750000        -1.69629842E-04
   63.0000000        -1.68580329E-04
   63.1250000        -1.68011669E-04
   63.2500000        -1.67945967E-04
   63.3750000        -1.68388317E-04
   63.5000000        -1.69327148E-04
   63.6250000        -1.70735424E-04
   63.7500000        -1.72572181E-04
   63.8750000        -1.74784655E-04
   64.0000000        -1.77310794E-04
   64.1250000        -1.80081974E-04
   64.2500000        -1.83025841E-04
   64.3750000        -1.86069185E-04
   64.5000000        -1.89140701E-04
   64.6250000        -1.92173451E-04
   64.7500000        -1.95106986E-04
   64.8750000        -1.97889021E-04
   65.0000000        -2.00476643E-04
   65.1250000        -2.02836920E-04
   65.2500000        -2.04947035E-04
   65.3750000        -2.06793819E-04
   65.5000000        -2.08372832E-04
   65.6250000        -2.09686987E-04
   65.7500000        -2.10744780E-04
   65.8750000        -2.11558392E-04
   66.0000000        -2.12141545E-04
   66.1250000        -2.12507439E-04
   66.2500000        -2.12666680E-04
   66.3750000        -2.12625499E-04
   66.5000000        -2.12384257E-04
   66.6250000        -2.11936480E-04
   66.7500000        -2.11268154E-04
   66.8750000        -2.10357786E-04
   67.0000000        -2.09176840E-04
   67.1250000        -2.07690857E-04
   67.2500000        -2.05860939E-04
   67.3750000        -2.03645774E-04
   67.5000000        -2.01003844E-04
   67.6250000        -1.97896064E-04
   67.7500000        -1.94288383E-04
   67.8750000        -1.90154416E-04
   68.0000000        -1.85477838E-04
   68.1250000        -1.80254749E-04
   68.2500000        -1.74495333E-04
   68.3750000        -1.68225321E-04
   68.5000000        -1.61486852E-04
   68.6250000        -1.54338632E-04
   68.7500000        -1.46855658E-04
   68.8750000        -1.39128257E-04
   69.0000000        -1.31260531E-04
   69.1250000        -1.23368285E-04
   69.2500000        -1.15576455E-04
   69.3750000        -1.08016233E-04
   69.5000000        -1.00821817E-04
   69.6250000        -9.41270191E-05
   69.7500000        -8.80618318E-05
   69.8750000        -8.27490148E-05
   70.0000000        -7.83009309E-05
   70.1250000        -7.48165985E-05
   70.2500000        -7.23790872E-05
   70.3750000        -7.10534587E-05
   70.5000000        -7.08851076E-05
   70.6250000        -7.18987358E-05
   70.7500000        -7.40978649E-05
   70.8750000        -7.74648797E-05
   71.0000000        -8.19616762E-05
   71.1250000        -8.75307815E-05
   71.2500000        -9.40969621E-05
   71.3750000        -1.01569196E-04
   71.5000000        -1.09843015E-04
   71.6250000        -1.18803058E-04
   71.7500000        -1.28325744E-04
   71.8750000        -1.38282063E-04
   72.0000000        -1.48540305E-04
   72.1250000        -1.58968745E-04
   72.2500000        -1.69438019E-04
   72.3750000        -1.79823357E-04
   72.5000000        -1.90006540E-04
   72.6250000        -1.99877381E-04
   72.7500000        -2.09334918E-04
   72.8750000        -2.18288318E-04
   73.0000000        -2.26657285E-04
   73.1250000        -2.34372215E-04
   73.2500000        -2.41374073E-04
   73.3750000        -2.47613905E-04
   73.5000000        -2.53052393E-04
   73.6250000        -2.57658918E-04
   73.7500000        -2.61410954E-04
   73.8750000        -2.64293165E-04
   74.0000000        -2.66296644E-04
   74.1250000        -2.67418160E-04
   74.2500000        -2.67659692E-04
   74.3750000        -2.67027906E-04
   74.5000000        -2.65534065E-04
   74.6250000        -2.63193884E-04
   74.7500000        -2.60027853E-04
   74.8750000        -2.56061496E-04
   75.0000000        -2.51325750E-04
   75.1250000        -2.45857838E-04
   75.2500000        -2.39701723E-04
   75.3750000        -2.32908758E-04
   75.5000000        -2.25538257E-04
   75.6250000        -2.17657900E-04
   75.7500000        -2.09343896E-04
   75.8750000        -2.00680908E-04
   76.0000000        -1.91761588E-04
   76.1250000        -1.82685922E-04
   76.2500000        -1.73560067E-04
   76.3750000        -1.64494966E-04
   76.5000000        -1.55604488E-04
   76.6250000        -1.47003448E-04
   76.7500000        -1.38805248E-04
   76.8750000        -1.31119567E-04
   77.0000000        -1.24049737E-04
   77.1250000        -1.17690353E-04
   77.2500000        -1.12124886E-04
   77.3750000        -1.07423533E-04
   77.5000000        -1.03641345E-04
   77.6250000        -1.00816789E-04
   77.7500000        -9.89706459E-05
   77.8750000        -9.81054909E-05
   78.0000000        -9.82056154E-05
   78.1250000        -9.92375208E-05
   78.2500000        -1.01150945E-04
   78.3750000        -1.03880324E-04
   78.5000000        -1.07346765E-04
   78.6250000        -1.11460286E-04
   78.7500000        -1.16122515E-04
   78.8750000        -1.21229445E-04
   79.0000000        -1.26674393E-04
   79.1250000        -1.32351008E-04
   79.2500000        -1.38156029E-04
   79.3750000        -1.43992074E-04
   79.5000000        -1.49769970E-04
   79.6250000        -1.55410846E-04
   79.7500000        -1.60847660E-04
   79.8750000        -1.66026381E-04
   80.0000000        -1.70906482E-04
   80.1250000        -1.75461086E-04
   80.2500000        -1.79676266E-04
   80.3750000        -1.83550219E-04
   80.5000000        -1.87091617E-04
   80.6250000        -1.90317805E-04
   80.7500000        -1.93252650E-04
   80.8750000        -1.95924018E-04
   81.0000000        -1.98361449E-04
   81.1250000        -2.00593597E-04
   81.2500000        -2.02645955E-04
   81.3750000        -2.04538796E-04
   81.5000000        -2.06285418E-04
   81.6250000        -2.07890786E-04
   81.7500000        -2.09350823E-04
   81.8750000        -2.10652128E-04
   82.0000000        -2.11772189E-04
   82.1250000        -2.12680214E-04
   82.2500000        -2.13338513E-04
   82.3750000        -2.13704276E-04
   82.5000000        -2.13731648E-04
   82.6250000        -2.13374296E-04
   82.7500000        -2.12587853E-04
   82.8750000        -2.11332721E-04
   83.0000000        -2.09576538E-04
   83.1250000        -2.07296689E-04
   83.2500000        -2.04482290E-04
   83.3750000        -2.01135830E-04
   83.5000000        -1.97274407E-04
   83.6250000        -1.92930282E-04
   83.7500000        -1.88150938E-04
   83.8750000        -1.82998469E-04
   84.0000000        -1.77548296E-04
   84.1250000        -1.71887572E-04
   84.2500000        -1.66112892E-04
   84.3750000        -1.60327691E-04
   84.5000000        -1.54639420E-04
   84.6250000        -1.49156403E-04
   84.7500000        -1.43984784E-04
   84.8750000        -1.39225478E-04
   85.0000000        -1.34971313E-04
   85.1250000        -1.31304521E-04
   85.2500000        -1.28294589E-04
   85.3750000        -1.25996565E-04
   85.5000000        -1.24449944E-04
   85.6250000        -1.23678023E-04
   85.7500000        -1.23687772E-04
   85.8750000        -1.24470273E-04
   86.0000000        -1.26001614E-04
   86.1250000        -1.28244123E-04
   86.2500000        -1.31147943E-04
   86.3750000        -1.34652888E-04
   86.5000000        -1.38690419E-04
   86.6250000        -1.43185709E-04
   86.7500000        -1.48059786E-04
   86.8750000        -1.53231405E-04
   87.0000000        -1.58619121E-04
   87.1250000        -1.64142824E-04
   87.2500000        -1.69725376E-04
   87.3750000        -1.75293797E-04
   87.5000000        -1.80780306E-04
   87.6250000        -1.86123085E-04
   87.7500000        -1.91266692E-04
   87.8750000        -1.96162335E-04
   88.0000000        -2.00767827E-04
   88.1250000        -2.05047429E-04
   88.2500000        -2.08971353E-04
   88.3750000        -2.12515268E-04
   88.5000000        -2.15659675E-04
   88.6250000        -2.18389177E-04
   88.7500000        -2.20691771E-04
   88.8750000        -2.22558214E-04
   89.0000000        -2.23981420E-04
   89.1250000        -2.24955977E-04
   89.2500000        -2.25477910E-04
   89.3750000        -2.25544267E-04
   89.5000000        -2.25153286E-04
   89.6250000        -2.24304531E-04
   89.7500000        -2.22999108E-04
   89.8750000        -2.21240232E-04
   90.0000000        -2.19033682E-04
   90.1250000        -2.16388522E-04
   90.2500000        -2.13317850E-04
   90.3750000        -2.09839476E-04
   90.5000000        -2.05976554E-04
   90.6250000        -2.01758245E-04
   90.7500000        -1.97220128E-04
   90.8750000        -1.92404448E-04
   91.0000000        -1.87360172E-04
   91.1250000        -1.82142743E-04
   91.2500000        -1.76813628E-04
   91.3750000        -1.71439548E-04
   91.5000000        -1.66091486E-04
   91.6250000        -1.60843440E-04
   91.7500000        -1.55770962E-04
   91.8750000        -1.50949520E-04
   92.0000000        -1.46452847E-04
   92.1250000        -1.42351215E-04
   92.2500000        -1.38709642E-04
   92.3750000        -1.35586306E-04
   92.5000000        -1.33031077E-04
   92.6250000        -1.31084191E-04
   92.7500000        -1.29775319E-04
   92.8750000        -1.29122709E-04
   93.0000000        -1.29132866E-04
   93.1250000        -1.29800363E-04
   93.2500000        -1.31108070E-04
   93.3750000        -1.33027672E-04
   93.5000000        -1.35520488E-04
   93.6250000        -1.38538511E-04
   93.7500000        -1.42025630E-04
   93.8750000        -1.45919053E-04
   94.0000000        -1.50150736E-04
   94.1250000        -1.54648907E-04
   94.2500000        -1.59339499E-04
   94.3750000        -1.64147612E-04
   94.5000000        -1.68998697E-04
   94.6250000        -1.73819761E-04
   94.7500000        -1.78540271E-04
   94.8750000        -1.83093056E-04
   95.0000000        -1.87414931E-04
   95.1250000        -1.91447310E-04
   95.2500000        -1.95136570E-04
   95.3750000        -1.98434442E-04
   95.5000000        -2.01298331E-04
   95.6250000        -2.03691525E-04
   95.7500000        -2.05583434E-04
   95.8750000        -2.06949844E-04
   96.0000000        -2.07773061E-04
   96.1250000        -2.08042140E-04
   96.2500000        -2.07753052E-04
   96.3750000        -2.06908822E-04
   96.5000000        -2.05519609E-04
   96.6250000        -2.03602802E-04