  -4.50000000       0.00000000    
  -4.37500000       0.00000000    
  -4.25000000       0.00000000    
  -4.12500000       0.00000000    
  -4.00000000       2.21407255E-22
  -3.87500000       8.96929952E-22
  -3.75000000      -9.57389161E-22
  -3.62500000      -1.94795913E-20
  -3.50000000      -8.46598225E-20
  -3.37500000      -2.20550314E-19
  -3.25000000      -3.74794786E-19
  -3.12500000      -3.22064271E-19
  -3.00000000       3.57234595E-19
  -2.87500000       2.08927645E-18
  -2.75000000       4.90611451E-18
  -2.62500000       8.15017004E-18
  -2.50000000       1.09422462E-17
  -2.37500000       1.40733068E-17
  -2.25000000       2.33479255E-17
  -2.12500000       5.32423966E-17
  -2.00000000       1.28692283E-16
  -1.87500000       2.82805269E-16
  -1.75000000       5.49833491E-16
  -1.62500000       9.55377990E-16
  -1.50000000       1.50807165E-15
  -1.37500000       2.19722168E-15
  -1.25000000       2.99837995E-15
  -1.12500000       3.88465403E-15
  -1.00000000       4.83835511E-15
 -0.875000000       5.85788166E-15
 -0.750000000       6.95931841E-15
 -0.625000000       8.17898063E-15
 -0.500000000       9.58762183E-15
 -0.375000000       1.13247712E-14
 -0.250000000       1.36507228E-14
 -0.125000000       1.69964090E-14
   0.00000000       2.19744030E-14
  0.125000000       2.93063710E-14
  0.250000000       3.96311131E-14
  0.375000000       5.31862931E-14
  0.500000000       6.94027829E-14
  0.625000000       8.65034227E-14
  0.750000000       1.01241925E-13
  0.875000000       1.08933966E-13
   1.00000000       1.03906067E-13
   1.12500000       8.04071165E-14
   1.25000000       3.38994308E-14
   1.37500000      -3.75113047E-14
   1.50000000      -1.31893682E-13
   1.62500000      -2.43029663E-13
   1.75000000      -3.61126141E-13
   1.87500000      -4.74984310E-13
   2.00000000      -5.75609384E-13
   2.12500000      -6.60851148E-13
   2.25000000      -7.40275300E-13
   2.37500000      -8.39198665E-13
   2.50000000      -1.00079244E-12
   2.62500000      -1.28541676E-12
   2.75000000      -1.76690195E-12
   2.87500000      -2.52622901E-12
   3.00000000      -3.64381919E-12
   3.12500000      -5.19223423E-12
   3.25000000      -7.23133445E-12
   3.37500000      -9.80775097E-12
   3.50000000      -1.29599144E-11
   3.62500000      -1.67289359E-11
   3.75000000      -2.11745829E-11
   3.87500000      -2.63946347E-11
   4.00000000      -3.25452269E-11
   4.12500000      -3.98596087E-11
   4.25000000      -4.86629799E-11
   4.37500000      -5.93816940E-11
   4.50000000      -7.25458721E-11
   4.62500000      -8.87853055E-11
   4.75000000      -1.08818891E-10
   4.87500000      -1.33437886E-10
   5.00000000      -1.63483199E-10
   5.12500000      -1.99815733E-10
   5.25000000      -2.43278925E-10
   5.37500000      -2.94651165E-10
   5.50000000      -3.54586971E-10
   5.62500000      -4.23545005E-10
   5.75000000      -5.01703179E-10
   5.87500000      -5.88862403E-10
   6.00000000      -6.84341972E-10
   6.12500000      -7.86871068E-10
   6.25000000      -8.94483265E-10
   6.37500000      -1.00441866E-09
   6.50000000      -1.11304133E-09
   6.62500000      -1.21577648E-09
   6.75000000      -1.30707090E-09
   6.87500000      -1.38037848E-09
   7.00000000      -1.42817136E-09
   7.12500000      -1.44197632E-09
   7.25000000      -1.41243517E-09
   7.37500000      -1.32939026E-09
   7.50000000      -1.18200039E-09
   7.62500000      -9.58892410E-10
   7.75000000      -6.48361920E-10
   7.87500000      -2.38638498E-10
   8.00000000       2.81766943E-10
   8.12500000       9.23612908E-10
   8.25000000       1.69635994E-09
   8.37500000       2.60747335E-09
   8.50000000       3.66158770E-09
   8.62500000       4.85953366E-09
   8.75000000       6.19723606E-09
   8.87500000       7.66449482E-09
   9.00000000       9.24366628E-09
   9.12500000       1.09082698E-08
   9.25000000       1.26215411E-08
   9.37500000       1.43349590E-08
   9.50000000       1.59868048E-08
   9.62500000       1.75007866E-08
   9.75000000       1.87848226E-08
   9.87500000       1.97301109E-08
   10.0000000       2.02106349E-08
   10.1250000       2.00833181E-08
   10.2500000       1.91891267E-08
   10.3750000       1.73554415E-08
   10.5000000       1.44000829E-08
   10.6250000       1.01373967E-08
   10.7500000       4.38678693E-09
   10.8750000      -3.01599057E-09
   11.0000000      -1.22045805E-08
   11.1250000      -2.32648745E-08
   11.2500000      -3.62152797E-08
   11.3750000      -5.09851397E-08
   11.5000000      -6.73924063E-08
   11.6250000      -8.51222737E-08
   11.7500000      -1.03708793E-07
   11.8750000      -1.22522124E-07
   12.0000000      -1.40764186E-07
   12.1250000      -1.57476009E-07
   12.2500000      -1.71559932E-07
   12.3750000      -1.81819516E-07
   12.5000000      -1.87020404E-07
   12.6250000      -1.85973775E-07
   12.7500000      -1.77644495E-07
   12.8750000      -1.61283992E-07
   13.0000000      -1.36587772E-07
   13.1250000      -1.03875742E-07
   13.2500000      -6.42923226E-08
   13.3750000      -2.00219468E-08
   13.5000000       2.54860293E-08
   13.6250000       6.72903440E-08
   13.7500000       9.87377433E-08
   13.8750000       1.11259858E-07
   14.0000000       9.41981995E-08
   14.1250000       3.46691280E-08
   14.2500000      -8.25194704E-08
   14.3750000      -2.74887896E-07
   14.5000000      -5.62231492E-07
   14.6250000      -9.66485459E-07
   14.7500000      -1.51150300E-06
   14.8750000      -2.22274434E-06
   15.0000000      -3.12687962E-06
   15.1250000      -4.25131066E-06
   15.2500000      -5.62362402E-06
   15.3750000      -7.27098359E-06
   15.5000000      -9.21949322E-06
   15.6250000      -1.14935347E-05
   15.7500000      -1.41151140E-05
   15.8750000      -1.71032370E-05
   16.0000000      -2.04733315E-05
   16.1250000      -2.42367423E-05
   16.2500000      -2.84003181E-05
   16.3750000      -3.29660979E-05
   16.5000000      -3.79311132E-05
   16.6250000      -4.32873348E-05
   16.7500000      -4.90216880E-05
   16.8750000      -5.51162484E-05
   17.0000000      -6.15485114E-05
   17.1250000      -6.82917816E-05
   17.2500000      -7.53156128E-05
   17.3750000      -8.25863681E-05
   17.5000000      -9.00677624E-05
   17.6250000      -9.77214513E-05
   17.7500000      -1.05507628E-04
   17.8750000      -1.13385584E-04
   18.0000000      -1.21314275E-04
   18.1250000      -1.29252730E-04
   18.2500000      -1.37160474E-04
   18.3750000      -1.44997917E-04
   18.5000000      -1.52726570E-04
   18.6250000      -1.60309210E-04
   18.7500000      -1.67710066E-04
   18.8750000      -1.74894842E-04
   19.0000000      -1.81830736E-04
   19.1250000      -1.88486461E-04
   19.2500000      -1.94832202E-04
   19.3750000      -2.00839582E-04
   19.5000000      -2.06481709E-04
   19.6250000      -2.11733190E-04
   19.7500000      -2.16570144E-04
   19.8750000      -2.20970527E-04
   20.0000000      -2.24914125E-04
   20.1250000      -2.28382996E-04
   20.2500000      -2.31361701E-04
   20.3750000      -2.33837767E-04
   20.5000000      -2.35802203E-04
   20.6250000      -2.37249871E-04
   20.7500000      -2.38180161E-04
   20.8750000      -2.38597364E-04
   21.0000000      -2.38511318E-04
   21.1250000      -2.37937857E-04
   21.2500000      -2.36899126E-04
   21.3750000      -2.35423999E-04
   21.5000000      -2.33548257E-04
   21.6250000      -2.31314654E-04
   21.7500000      -2.28772828E-04
   21.8750000      -2.25979064E-04
   22.0000000      -2.22995805E-04
   22.1250000      -2.19891037E-04
   22.2500000      -2.16737506E-04
   22.3750000      -2.13611507E-04
   22.5000000      -2.10591825E-04
   22.6250000      -2.07758174E-04
   22.7500000      -2.05189732E-04
   22.8750000      -2.02963405E-04
   23.0000000      -2.01152114E-04
   23.1250000      -1.99822913E-04
   23.2500000      -1.99035334E-04
   23.3750000      -1.98839596E-04
   23.5000000      -1.99275120E-04
   23.6250000      -2.00369133E-04
   23.7500000      -2.02135561E-04
   23.8750000      -2.04574200E-04
   24.0000000      -2.07670324E-04
   24.1250000      -2.11394421E-04
   24.2500000      -2.15702617E-04
   24.3750000      -2.20537302E-04
   24.5000000      -2.25828189E-04
   24.6250000      -2.31493803E-04
   24.7500000      -2.37443353E-04
   24.8750000      -2.43578776E-04
   25.0000000      -2.49797042E-04
   25.1250000      -2.55992898E-04
   25.2500000      -2.62061512E-04
   25.3750000      -2.67901050E-04
   25.5000000      -2.73415673E-04
   25.6250000      -2.78517866E-04
   25.7500000      -2.83131027E-04
   25.8750000      -2.87191739E-04
   26.0000000      -2.90651427E-04
   26.1250000      -2.93478137E-04
   26.2500000      -2.95657490E-04
   26.3750000      -2.97193561E-04
   26.5000000      -2.98108964E-04
   26.6250000      -2.98444822E-04
   26.7500000      -2.98259925E-04
   26.8750000      -2.97629653E-04
   27.0000000      -2.96644663E-04
   27.1250000      -2.95408769E-04
   27.2500000      -2.94036756E-04
   27.3750000      -2.92652054E-04
   27.5000000      -2.91383796E-04
   27.6250000      -2.90364289E-04
   27.7500000      -2.89725955E-04
   27.8750000      -2.89598625E-04
   28.0000000      -2.90106516E-04
   28.1250000      -2.91365897E-04
   28.2500000      -2.93482415E-04
   28.3750000      -2.96549144E-04
   28.5000000      -3.00644489E-04
   28.6250000      -3.05830821E-04
   28.7500000      -3.12153366E-04
   28.8750000      -3.19639163E-04
   29.0000000      -3.28296825E-04
   29.1250000      -3.38116399E-04
   29.2500000      -3.49069829E-04
   29.3750000      -3.61111481E-04
   29.5000000      -3.74179217E-04
   29.6250000      -3.88195709E-04
   29.7500000      -4.03069978E-04
   29.8750000      -4.18699317E-04
   30.0000000      -4.34971036E-04
   30.1250000      -4.51764819E-04
   30.2500000      -4.68954706E-04
   30.3750000      -4.86411474E-04
   30.5000000      -5.04004885E-04
   30.6250000      -5.21605660E-04
   30.7500000      -5.39087749E-04
   30.8750000      -5.56330022E-04
   31.0000000      -5.73218102E-04
   31.1250000      -5.89645933E-04
   31.2500000      -6.05516776E-04
   31.3750000      -6.20744366E-04
   31.5000000      -6.35253615E-04
   31.6250000      -6.48980669E-04
   31.7500000      -6.61873375E-04
   31.8750000      -6.73890871E-04
   32.0000000      -6.85003237E-04
   32.1250000      -6.95190625E-04
   32.2500000      -7.04442558E-04
   32.3750000      -7.12756475E-04
   32.5000000      -7.20136974E-04
   32.6250000      -7.26594008E-04
   32.7500000      -7.32141663E-04
   32.8750000      -7.36796705E-04
   33.0000000      -7.40577001E-04
   33.1250000      -7.43500423E-04
   33.2500000      -7.45583035E-04
   33.3750000      -7.46838516E-04
   33.5000000      -7.47276586E-04
   33.6250000      -7.46902486E-04
   33.7500000      -7.45716272E-04
   33.8750000      -7.43712357E-04
   34.0000000      -7.40879332E-04
   34.1250000      -7.37200258E-04
   34.2500000      -7.32652610E-04
   34.3750000      -7.27209379E-04
   34.5000000      -7.20839540E-04
   34.6250000      -7.13509391E-04
   34.7500000      -7.05183309E-04
   34.8750000      -6.95825787E-04
   35.0000000      -6.85402367E-04
   35.1250000      -6.73881674E-04
   35.2500000      -6.61236583E-04
   35.3750000      -6.47446373E-04
   35.5000000      -6.32497831E-04
   35.6250000      -6.16387057E-04
   35.7500000      -5.99120744E-04
   35.8750000      -5.80717577E-04
   36.0000000      -5.61208988E-04
   36.1250000      -5.40640380E-04
   36.2500000      -5.19071531E-04
   36.3750000      -4.96576948E-04
   36.5000000      -4.73245891E-04
   36.6250000      -4.49182233E-04
   36.7500000      -4.24503873E-04
   36.8750000      -3.99341894E-04
   37.0000000      -3.73839255E-04
   37.1250000      -3.48149595E-04
   37.2500000      -3.22435284E-04
   37.3750000      -2.96865386E-04
   37.5000000      -2.71613622E-04
   37.6250000      -2.46855780E-04
   37.7500000      -2.22767208E-04
   37.8750000      -1.99520058E-04
   38.0000000      -1.77280614E-04
   38.1250000      -1.56206443E-04
   38.2500000      -1.36443879E-04
   38.3750000      -1.18125259E-04
   38.5000000      -1.01366662E-04
   38.6250000      -8.62656962E-05
   38.7500000      -7.28996238E-05
   38.8750000      -6.13237935E-05
   39.0000000      -5.15704814E-05
   39.1250000      -4.36480695E-05
   39.2500000      -3.75407726E-05
   39.3750000      -3.32086565E-05
   39.5000000      -3.05882531E-05
   39.6250000      -2.95935242E-05
   39.7500000      -3.01173004E-05
   39.8750000      -3.20331274E-05
   40.0000000      -3.51974813E-05
   40.1250000      -3.94523595E-05
   40.2500000      -4.46281119E-05
   40.3750000      -5.05465250E-05
   40.5000000      -5.70240773E-05
   40.6250000      -6.38752899E-05
   40.7500000      -7.09160886E-05
   40.8750000      -7.79671100E-05
   41.0000000      -8.48568889E-05
   41.1250000      -9.14247939E-05
   41.2500000      -9.75237417E-05
   41.3750000      -1.03022627E-04
   41.5000000      -1.07808235E-04
   41.6250000      -1.11786918E-04
   41.7500000      -1.14885726E-04
   41.8750000      -1.17053198E-04
   42.0000000      -1.18259595E-04
   42.1250000      -1.18496857E-04
   42.2500000      -1.17778036E-04
   42.3750000      -1.16136398E-04
   42.5000000      -1.13624141E-04
   42.6250000      -1.10310895E-04
   42.7500000      -1.06281783E-04
   42.8750000      -1.01635407E-04
   43.0000000      -9.64815190E-05
   43.1250000      -9.09386217E-05
   43.2500000      -8.51313744E-05
   43.3750000      -7.91880593E-05
   43.5000000      -7.32379267E-05
   43.6250000      -6.74085968E-05
   43.7500000      -6.18236154E-05
   43.8750000      -5.66000381E-05
   44.0000000      -5.18463203E-05
   44.1250000      -4.76603127E-05
   44.2500000      -4.41275843E-05
   44.3750000      -4.13199887E-05
   44.5000000      -3.92945476E-05
   44.6250000      -3.80926795E-05
   44.7500000      -3.77397118E-05
   44.8750000      -3.82447688E-05
   45.0000000      -3.96009418E-05
   45.1250000      -4.17857700E-05
   45.2500000      -4.47620369E-05
   45.3750000      -4.84788179E-05
   45.5000000      -5.28727542E-05
   45.6250000      -5.78695399E-05
   45.7500000      -6.33855816E-05
   45.8750000      -6.93297479E-05
   46.0000000      -7.56053269E-05
   46.1250000      -8.21119102E-05
   46.2500000      -8.87474162E-05
   46.3750000      -9.54100615E-05
   46.5000000      -1.02000289E-04
   46.6250000      -1.08422653E-04
   46.7500000      -1.14587558E-04
   46.8750000      -1.20412871E-04
   47.0000000      -1.25825347E-04
   47.1250000      -1.30761866E-04
   47.2500000      -1.35170354E-04
   47.3750000      -1.39010575E-04
   47.5000000      -1.42254430E-04
   47.6250000      -1.44886246E-04
   47.7500000      -1.46902486E-04
   47.8750000      -1.48311403E-04
   48.0000000      -1.49132276E-04
   48.1250000      -1.49394444E-04
   48.2500000      -1.49136293E-04
   48.3750000      -1.48403793E-04
   48.5000000      -1.47249171E-04
   48.6250000      -1.45729398E-04
   48.7500000      -1.43904632E-04
   48.8750000      -1.41836834E-04
   49.0000000      -1.39588199E-04
   49.1250000      -1.37219904E-04
   49.2500000      -1.34790884E-04
   49.3750000      -1.32356741E-04
   49.5000000      -1.29968743E-04
   49.6250000      -1.27673222E-04
   49.7500000      -1.25510749E-04
   49.8750000      -1.23515842E-04
   50.0000000      -1.21716643E-04
   50.1250000      -1.20134806E-04
   50.2500000      -1.18785574E-04
   50.3750000      -1.17678021E-04
   50.5000000      -1.16815419E-04
   50.6250000      -1.16195770E-04
   50.7500000      -1.15812480E-04
   50.8750000      -1.15655115E-04
   51.0000000      -1.15710267E-04
   51.1250000      -1.15962459E-04
   51.2500000      -1.16395109E-04
   51.3750000      -1.16991519E-04
   51.5000000      -1.17735763E-04
   51.6250000      -1.18613556E-04
   51.7500000      -1.19613018E-04
   51.8750000      -1.20725294E-04
   52.0000000      -1.21944999E-04
   52.1250000      -1.23270511E-04
   52.2500000      -1.24704093E-04
   52.3750000      -1.26251689E-04
   52.5000000      -1.27922642E-04
   52.6250000      -1.29729146E-04
   52.7500000      -1.31685651E-04
   52.8750000      -1.33807916E-04
   53.0000000      -1.36112154E-04
   53.1250000      -1.38613992E-04
   53.2500000      -1.41327429E-04
   53.3750000      -1.44263846E-04
   53.5000000      -1.47431041E-04
   53.6250000      -1.50832304E-04
   53.7500000      -1.54465728E-04
   53.8750000      -1.58323601E-04
   54.0000000      -1.62391952E-04
   54.1250000      -1.66650352E-04
   54.2500000      -1.71071733E-04
   54.3750000      -1.75622583E-04
   54.5000000      -1.80263130E-04
   54.6250000      -1.84947829E-04
   54.7500000      -1.89625833E-04
   54.8750000      -1.94241729E-04
   55.0000000      -1.98736365E-04
   55.1250000      -2.03047719E-04
   55.2500000      -2.07112011E-04
   55.3750000      -2.10864760E-04
   55.5000000      -2.14241940E-04
   55.6250000      -2.17181325E-04
   55.7500000      -2.19623587E-04
   55.8750000      -2.21513677E-04
   56.0000000      -2.22802046E-04
   56.1250000      -2.23445822E-04
   56.2500000      -2.23409937E-04
   56.3750000      -2.22668212E-04
   56.5000000      -2.21204187E-04
   56.6250000      -2.19011956E-04
   56.7500000      -2.16096698E-04
   56.8750000      -2.12475003E-04
   57.0000000      -2.08175145E-04
   57.1250000      -2.03236908E-04
   57.2500000      -1.97711270E-04
   57.3750000      -1.91659783E-04
   57.5000000      -1.85153811E-04
   57.6250000      -1.78273389E-04
   57.7500000      -1.71105901E-04
   57.8750000      -1.63744568E-04
   58.0000000      -1.56286711E-04
   58.1250000      -1.48831969E-04
   58.2500000      -1.41480297E-04
   58.3750000      -1.34330039E-04
   58.5000000      -1.27475971E-04
   58.6250000      -1.21007412E-04
   58.7500000      -1.15006471E-04
   58.8750000      -1.09546527E-04
   59.0000000      -1.04690916E-04
   59.1250000      -1.00491867E-04
   59.2500000      -9.69897883E-05
   59.3750000      -9.42128536E-05
   59.5000000      -9.21768951E-05
   59.6250000      -9.08856746E-05
   59.7500000      -9.03314576E-05
   59.8750000      -9.04958360E-05
   60.0000000      -9.13508411E-05
   60.1250000      -9.28602385E-05
   60.2500000      -9.49809619E-05
   60.3750000      -9.76646843E-05
   60.5000000      -1.00859324E-04
   60.6250000      -1.04510618E-04
   60.7500000      -1.08563545E-04
   60.8750000      -1.12963629E-04
   61.0000000      -1.17658099E-04
   61.1250000      -1.22596801E-04
   61.2500000      -1.27732899E-04
   61.3750000      -1.33023364E-04
   61.5000000      -1.38429255E-04
   61.6250000      -1.43915750E-04
   61.7500000      -1.49451967E-04
   61.8750000      -1.55010814E-04
   62.0000000      -1.60568394E-04
   62.1250000      -1.66103651E-04
   62.2500000      -1.71597741E-04
   62.3750000      -1.77033507E-04
   62.5000000      -1.82394855E-04
   62.6250000      -1.87666315E-04
   62.7500000      -1.92832478E-04
   62.8750000      -1.97877671E-04
   63.0000000      -2.02785537E-04
   63.1250000      -2.07538935E-04
   63.2500000      -2.12119689E-04
   63.3750000      -2.16508604E-04
   63.5000000      -2.20685528E-04
   63.6250000      -2.24629417E-04
   63.7500000      -2.28318560E-04
   63.8750000      -2.31730854E-04
   64.0000000      -2.34844032E-04
   64.1250000      -2.37636035E-04
   64.2500000      -2.40085254E-04
   64.3750000      -2.42170907E-04
   64.5000000      -2.43873306E-04
   64.6250000      -2.45174306E-04
   64.7500000      -2.46057316E-04
   64.8750000      -2.46507901E-04
   65.0000000      -2.46513751E-04
   65.1250000      -2.46064999E-04
   65.2500000      -2.45154486E-04
   65.3750000      -2.43777875E-04
   65.5000000      -2.41933900E-04
   65.6250000      -2.39624453E-04
   65.7500000      -2.36854758E-04
   65.8750000      -2.33633575E-04
   66.0000000      -2.29973244E-04
   66.1250000      -2.25889904E-04
   66.2500000      -2.21403418E-04
   66.3750000      -2.16537548E-04
   66.5000000      -2.11319930E-04
   66.6250000      -2.05782053E-04
   66.7500000      -1.99959191E-04
   66.8750000      -1.93890271E-04
   67.0000000      -1.87617712E-04
   67.1250000      -1.81187206E-04
   67.2500000      -1.74647386E-04
   67.3750000      -1.68049533E-04
   67.5000000      -1.61447140E-04
   67.6250000      -1.54895330E-04
   67.7500000      -1.48450446E-04
   67.8750000      -1.42169316E-04
   68.0000000      -1.36108574E-04
   68.1250000      -1.30323999E-04
   68.2500000      -1.24869694E-04
   68.3750000      -1.19797274E-04
   68.5000000      -1.15155162E-04
   68.6250000      -1.10987668E-04
   68.7500000      -1.07334330E-04
   68.8750000      -1.04229133E-04
   69.0000000      -1.01699901E-04
   69.1250000      -9.97677053E-05
   69.2500000      -9.84464277E-05
   69.3750000      -9.77424279E-05
   69.5000000      -9.76543379E-05
   69.6250000      -9.81730700E-05
   69.7500000      -9.92819041E-05
   69.8750000      -1.00956822E-04
   70.0000000      -1.03166931E-04
   70.1250000      -1.05875035E-04
   70.2500000      -1.09038432E-04
   70.3750000      -1.12609669E-04
   70.5000000      -1.16537514E-04
   70.6250000      -1.20767945E-04
   70.7500000      -1.25245177E-04
   70.8750000      -1.29912689E-04
   71.0000000      -1.34714210E-04
   71.1250000      -1.39594777E-04
   71.2500000      -1.44501493E-04
   71.3750000      -1.49384490E-04
   71.5000000      -1.54197536E-04
   71.6250000      -1.58898605E-04
   71.7500000      -1.63450401E-04
   71.8750000      -1.67820632E-04
   72.0000000      -1.71982290E-04
   72.1250000      -1.75913578E-04
   72.2500000      -1.79598064E-04
   72.3750000      -1.83024342E-04
   72.5000000      -1.86185935E-04
   72.6250000      -1.89080834E-04
   72.7500000      -1.91711151E-04
   72.8750000      -1.94082604E-04
   73.0000000      -1.96203968E-04
   73.1250000      -1.98086476E-04
   73.2500000      -1.99743226E-04
   73.3750000      -2.01188523E-04
   73.5000000      -2.02437324E-04
   73.6250000      -2.03504562E-04
   73.7500000      -2.04404627E-04
   73.8750000      -2.05150820E-04
   74.0000000      -2.05754943E-04
   74.1250000      -2.06226818E-04
   74.2500000      -2.06574085E-04
   74.3750000      -2.06801938E-04
   74.5000000      -2.06913057E-04
   74.6250000      -2.06907527E-04
   74.7500000      -2.06782977E-04
   74.8750000      -2.06534736E-04
   75.0000000      -2.06156095E-04
   75.1250000      -2.05638673E-04
   75.2500000      -2.04972748E-04
   75.3750000      -2.04147844E-04
   75.5000000      -2.03153191E-04
   75.6250000      -2.01978284E-04
   75.7500000      -2.00613547E-04
   75.8750000      -1.99050904E-04
   76.0000000      -1.97284491E-04
   76.1250000      -1.95311164E-04
   76.2500000      -1.93131258E-04
   76.3750000      -1.90748979E-04
   76.5000000      -1.88172999E-04
   76.6250000      -1.85416837E-04
   76.7500000      -1.82499090E-04
   76.8750000      -1.79443639E-04
   77.0000000      -1.76279646E-04
   77.1250000      -1.73041335E-04
   77.2500000      -1.69767634E-04
   77.3750000      -1.66501603E-04
   77.5000000      -1.63289704E-04
   77.6250000      -1.60180833E-04
   77.7500000      -1.57225077E-04
   77.8750000      -1.54472582E-04
   78.0000000      -1.51971966E-04
   78.1250000      -1.49768908E-04
   78.2500000      -1.47904662E-04
   78.3750000      -1.46414561E-04
   78.5000000      -1.45326718E-04
   78.6250000      -1.44660793E-04
   78.7500000      -1.44427104E-04
   78.8750000      -1.44626014E-04
   79.0000000      -1.45247512E-04
   79.1250000      -1.46271414E-04
   79.2500000      -1.47667655E-04
   79.3750000      -1.49397150E-04
   79.5000000      -1.51412969E-04
   79.6250000      -1.53661706E-04
   79.7500000      -1.56085240E-04
   79.8750000      -1.58622628E-04
   80.0000000      -1.61212054E-04
   80.1250000      -1.63792836E-04
   80.2500000      -1.66307407E-04
   80.3750000      -1.68703118E-04
   80.5000000      -1.70933752E-04
   80.6250000      -1.72960819E-04
   80.7500000      -1.74754605E-04
   80.8750000      -1.76294547E-04
   81.0000000      -1.77569586E-04
   81.1250000      -1.78577815E-04
   81.2500000      -1.79325885E-04
   81.3750000      -1.79828086E-04
   81.5000000      -1.80105082E-04
   81.6250000      -1.80182469E-04
   81.7500000      -1.80089119E-04
   81.8750000      -1.79855560E-04
   82.0000000      -1.79512295E-04
   82.1250000      -1.79088238E-04
   82.2500000      -1.78609305E-04
   82.3750000      -1.78097267E-04
   82.5000000      -1.77568872E-04
   82.6250000      -1.77035225E-04
   82.7500000      -1.76501635E-04
   82.8750000      -1.75967725E-04
   83.0000000      -1.75427922E-04
   83.1250000      -1.74872228E-04
   83.2500000      -1.74287270E-04
   83.3750000      -1.73657652E-04
   83.5000000      -1.72967339E-04
   83.6250000      -1.72201151E-04
   83.7500000      -1.71346299E-04
   83.8750000      -1.70393832E-04
   84.0000000      -1.69339881E-04
   84.1250000      -1.68186772E-04
   84.2500000      -1.66943719E-04
   84.3750000      -1.65627367E-04
   84.5000000      -1.64261888E-04
   84.6250000      -1.62878598E-04
   84.7500000      -1.61515403E-04
   84.8750000      -1.60215714E-04
   85.0000000      -1.59027055E-04
   85.1250000      -1.57999515E-04
   85.2500000      -1.57183822E-04
   85.3750000      -1.56629321E-04
   85.5000000      -1.56382011E-04
   85.6250000      -1.56482391E-04
   85.7500000      -1.56963637E-04
   85.8750000      -1.57849834E-04
   86.0000000      -1.59154515E-04
   86.1250000      -1.60879645E-04
   86.2500000      -1.63014905E-04
   86.3750000      -1.65537451E-04
   86.5000000      -1.68412167E-04
   86.6250000      -1.71592372E-04
   86.7500000      -1.75021007E-04
   86.8750000      -1.78632137E-04
   87.0000000      -1.82352916E-04
   87.1250000      -1.86105783E-04
   87.2500000      -1.89810802E-04
   87.3750000      -1.93388201E-04
   87.5000000      -1.96760811E-04
   87.6250000      -1.99856469E-04
   87.7500000      -2.02610216E-04
   87.8750000      -2.04966258E-04
   88.0000000      -2.06879544E-04
   88.1250000      -2.08317026E-04
   88.2500000      -2.09258389E-04
   88.3750000      -2.09696431E-04
   88.5000000      -2.09636855E-04
   88.6250000      -2.09097823E-04
   88.7500000      -2.08108890E-04
   88.8750000      -2.06709796E-04
   89.0000000      -2.04948854E-04
   89.1250000      -2.02881041E-04
   89.2500000      -2.00566210E-04
   89.3750000      -1.98066904E-04
   89.5000000      -1.95446395E-04
   89.6250000      -1.92766747E-04
   89.7500000      -1.90086925E-04
   89.8750000      -1.87461192E-04
   90.0000000      -1.84937744E-04
   90.1250000      -1.82557618E-04
   90.2500000      -1.80353774E-04
   90.3750000      -1.78350805E-04
   90.5000000      -1.76564630E-04
   90.6250000      -1.75002715E-04
   90.7500000      -1.73664535E-04
   90.8750000      -1.72542248E-04
   91.0000000      -1.71621607E-04
   91.1250000      -1.70883111E-04
   91.2500000      -1.70303130E-04
   91.3750000      -1.69855295E-04
   91.5000000      -1.69511710E-04
   91.6250000      -1.69244246E-04
   91.7500000      -1.69025734E-04
   91.8750000      -1.68831073E-04
   92.0000000      -1.68638042E-04
   92.1250000      -1.68428203E-04
   92.2500000      -1.68187311E-04
   92.3750000      -1.67905760E-04
   92.5000000      -1.67578750E-04
   92.6250000      -1.67206250E-04
   92.7500000      -1.66792830E-04
   92.8750000      -1.66347279E-04
   93.0000000      -1.65882244E-04
   93.1250000      -1.65413527E-04
   93.2500000      -1.64959478E-04
   93.3750000      -1.64540281E-04
   93.5000000      -1.64177196E-04
   93.6250000      -1.63891789E-04
   93.7500000      -1.63705190E-04
   93.8750000      -1.63637378E-04
   94.0000000      -1.63706398E-04
   94.1250000      -1.63927849E-04
   94.2500000      -1.64314188E-04
   94.3750000      -1.64874247E-04
   94.5000000      -1.65612742E-04
   94.6250000      -1.66529964E-04
   94.7500000      -1.67621387E-04
   94.8750000      -1.68877596E-04
   95.0000000      -1.70284111E-04
   95.1250000      -1.71821477E-04
   95.2500000      -1.73465334E-04
   95.3750000      -1.75186782E-04
   95.5000000      -1.76952643E-04
   95.6250000      -1.78726012E-04
   95.7500000      -1.80466843E-04
   95.8750000      -1.82132586E-04
   96.0000000      -1.83679105E-04
   96.1250000      -1.85061435E-04
   96.2500000      -1.86234814E-04
   96.3750000      -1.87155732E-04
   96.5000000      -1.87783007E-04
   96.6250000      -1.88078979E-04
   96.7500000      -1.88010628E-04
   96.8750000      -1.87550846E-04
   97.0000000      -1.86679448E-04
   97.1250000      -1.85384357E-04
   97.2500000      -1.83662574E-04
   97.3750000      -1.81520969E-04
   97.5000000      -1.78976974E-04
   97.6250000      -1.76058966E-04
   97.7500000      -1.72806365E-04
   97.8750000      -1.69269493E-04
   98.0000000      -1.65509016E-04
   98.1250000      -1.61595090E-04
   98.2500000      -1.57606060E-04
   98.3750000      -1.53626999E-04
   98.5000000      -1.49747721E-04
   98.6250000      -1.46060731E-04
   98.7500000      -1.42658813E-04
   98.8750000      -1.39632612E-04
   99.0000000      -1.37068026E-04
   99.1250000      -1.35043694E-04
   99.2500000      -1.33628593E-04
   99.3750000      -1.32879795E-04
   99.5000000      -1.32840447E-04
   99.6250000      -1.33538328E-04
   99.7500000      -1.34984453E-04
   99.8750000      -1.37172581E-04
   100.000000      -1.40078831E-04
   100.125000      -1.43662081E-04
   100.250000      -1.47864790E-04
   100.375000      -1.52614346E-04
   100.500000      -1.57824834E-04
   100.625000      -1.63399192E-04
   100.750000      -1.69231746E-04
   100.875000      -1.75210938E-04
   101.000000      -1.81222189E-04
   101.125000      -1.87150828E-04
   101.250000      -1.92884996E-04
   101.375000      -1.98318448E-04
   101.500000      -2.03352945E-04
   101.625000      -2.07900652E-04
   101.750000      -2.11885912E-04
   101.875000      -2.15246764E-04
   102.000000      -2.17936031E-04
   102.125000      -2.19921887E-04
   102.250000      -2.21188093E-04
   102.375000      -2.21733673E-04
   102.500000      -2.21572365E-04