  -4.50000000         0.00000000    
  -4.37500000         0.00000000    
  -4.25000000         0.00000000    
  -4.12500000         0.00000000    
  -4.00000000        -2.51974038E-23
  -3.87500000        -9.21345046E-23
  -3.75000000         5.07283404E-22
  -3.62500000         5.47384145E-21
  -3.50000000         2.40432792E-20
  -3.37500000         6.78290041E-20
  -3.25000000         1.34741415E-19
  -3.12500000         1.83882935E-19
  -3.00000000         1.27426954E-19
  -2.87500000        -1.23706618E-19
  -2.75000000        -5.55360171E-19
  -2.62500000        -9.60093544E-19
  -2.50000000        -1.00551486E-18
  -2.37500000        -5.75402292E-19
  -2.25000000        -3.15899966E-19
  -2.12500000        -2.05629180E-18
  -2.00000000        -8.62814395E-18
  -1.87500000        -2.27796822E-17
  -1.75000000        -4.53975381E-17
  -1.62500000        -7.38603664E-17
  -1.50000000        -1.01646673E-16
  -1.37500000        -1.20001302E-16
  -1.25000000        -1.21572323E-16
  -1.12500000        -1.04877522E-16
  -1.00000000        -7.77587628E-17
 -0.875000000        -5.79293707E-17
 -0.750000000        -6.92551740E-17
 -0.625000000        -1.33306800E-16
 -0.500000000        -2.56941171E-16
 -0.375000000        -4.18487718E-16
 -0.250000000        -5.57691681E-16
 -0.125000000        -5.77253589E-16
   0.00000000        -3.64694615E-16
  0.125000000         1.60297518E-16
  0.250000000         9.77604029E-16
  0.375000000         1.89660630E-15
  0.500000000         2.51749457E-15
  0.625000000         2.26221219E-15
  0.750000000         5.02053898E-16
  0.875000000        -3.22079492E-15
   1.00000000        -8.92180989E-15
   1.12500000        -1.59344838E-14
   1.25000000        -2.28002550E-14
   1.37500000        -2.73668044E-14
   1.50000000        -2.71189609E-14
   1.62500000        -1.96909190E-14
   1.75000000        -3.43770778E-15
   1.87500000         2.20949188E-14
   2.00000000         5.59518015E-14
   2.12500000         9.58910482E-14
   2.25000000         1.38849923E-13
   2.37500000         1.81670407E-13
   2.50000000         2.21949439E-13
   2.62500000         2.58876444E-13
   2.75000000         2.93962202E-13
   2.87500000         3.31619579E-13
   3.00000000         3.79597422E-13
   3.12500000         4.49263402E-13
   3.25000000         5.55678171E-13
   3.37500000         7.17327510E-13
   3.50000000         9.55320783E-13
   3.62500000         1.29187232E-12
   3.75000000         1.74798056E-12
   3.87500000         2.34041063E-12
   4.00000000         3.07831928E-12
   4.12500000         3.96009961E-12
   4.25000000         4.97118492E-12
   4.37500000         6.08360237E-12
   4.50000000         7.25796853E-12
   4.62500000         8.44837308E-12
   4.75000000         9.61017810E-12
   4.87500000         1.07102261E-11
   5.00000000         1.17383022E-11
   5.12500000         1.27180610E-11
   5.25000000         1.37151289E-11
   5.37500000         1.48398325E-11
   5.50000000         1.62423391E-11
   5.62500000         1.80987638E-11
   5.75000000         2.05883730E-11
   5.87500000         2.38639247E-11
   6.00000000         2.80191911E-11
   6.12500000         3.30594926E-11
   6.25000000         3.88815855E-11
   6.37500000         4.52686257E-11
   6.50000000         5.19032317E-11
   6.62500000         5.83977727E-11
   6.75000000         6.43358630E-11
   6.87500000         6.93141308E-11
   7.00000000         7.29699356E-11
   7.12500000         7.49799597E-11
   7.25000000         7.50174992E-11
   7.37500000         7.26633614E-11
   7.50000000         6.72755879E-11
   7.62500000         5.78350701E-11
   7.75000000         4.27954755E-11
   7.87500000         1.99736529E-11
   8.00000000        -1.34823845E-11
   8.12500000        -6.10168999E-11
   8.25000000        -1.26466407E-10
   8.37500000        -2.13743329E-10
   8.50000000        -3.26436739E-10
   8.62500000        -4.67388295E-10
   8.75000000        -6.38319508E-10
   8.87500000        -8.39589565E-10
   9.00000000        -1.07015208E-09
   9.12500000        -1.32774480E-09
   9.25000000        -1.60930025E-09
   9.37500000        -1.91150606E-09
   9.50000000        -2.23138485E-09
   9.62500000        -2.56671728E-09
   9.75000000        -2.91610691E-09
   9.87500000        -3.27850014E-09
   10.0000000        -3.65201247E-09
   10.1250000        -4.03200229E-09
   10.2500000        -4.40844472E-09
   10.3750000        -4.76276707E-09
   10.5000000        -5.06444309E-09
   10.6250000        -5.26771426E-09
   10.7500000        -5.30887467E-09
   10.8750000        -5.10454923E-09
   11.0000000        -4.55133131E-09
   11.1250000        -3.52708196E-09
   11.2500000        -1.89403182E-09
   11.3750000         4.96292951E-10
   11.5000000         3.79642007E-09
   11.6250000         8.15482704E-09
   11.7500000         1.37066740E-08
   11.8750000         2.05638049E-08
   12.0000000         2.88045054E-08
   12.1250000         3.84635968E-08
   12.2500000         4.95236172E-08
   12.3750000         6.19079685E-08
   12.5000000         7.54771605E-08
   12.6250000         9.00297579E-08
   12.7500000         1.05309617E-07
   12.8750000         1.21021657E-07
   13.0000000         1.36858347E-07
   13.1250000         1.52539116E-07
   13.2500000         1.67865579E-07
   13.3750000         1.82793755E-07
   13.5000000         1.97525267E-07
   13.6250000         2.12618147E-07
   13.7500000         2.29116949E-07
   13.8750000         2.48700928E-07
   14.0000000         2.73848002E-07
   14.1250000         3.08010812E-07
   14.2500000         3.55800495E-07
   14.3750000         4.23172821E-07
   14.5000000         5.17608953E-07
   14.6250000         6.48285891E-07
   14.7500000         8.26228415E-07
   14.8750000         1.06443372E-06
   15.0000000         1.37796383E-06
   15.1250000         1.78399296E-06
   15.2500000         2.30181058E-06
   15.3750000         2.95277027E-06
   15.5000000         3.76017056E-06
   15.6250000         4.74908165E-06
   15.7500000         5.94610083E-06
   15.8750000         7.37903247E-06
   16.0000000         9.07651429E-06
   16.1250000         1.10675519E-05
   16.2500000         1.33810281E-05
   16.3750000         1.60451291E-05
   16.5000000         1.90867322E-05
   16.6250000         2.25307722E-05
   16.7500000         2.63995735E-05
   16.8750000         3.07122027E-05
   17.0000000         3.54838194E-05
   17.1250000         4.07250918E-05
   17.2500000         4.64416444E-05
   17.3750000         5.26336225E-05
   17.5000000         5.92953402E-05
   17.6250000         6.64150721E-05
   17.7500000         7.39750030E-05
   17.8750000         8.19513225E-05
   18.0000000         9.03144901E-05
   18.1250000         9.90296903E-05
   18.2500000         1.08057437E-04
   18.3750000         1.17354393E-04
   18.5000000         1.26874249E-04
   18.6250000         1.36568880E-04
   18.7500000         1.46389357E-04
   18.8750000         1.56287249E-04
   19.0000000         1.66215745E-04
   19.1250000         1.76130998E-04
   19.2500000         1.85993020E-04
   19.3750000         1.95766872E-04
   19.5000000         2.05423392E-04
   19.6250000         2.14939908E-04
   19.7500000         2.24300660E-04
   19.8750000         2.33496918E-04
   20.0000000         2.42527050E-04
   20.1250000         2.51396035E-04
   20.2500000         2.60115048E-04
   20.3750000         2.68700562E-04
   20.5000000         2.77173385E-04
   20.6250000         2.85557617E-04
   20.7500000         2.93879159E-04
   20.8750000         3.02164641E-04
   21.0000000         3.10439966E-04
   21.1250000         3.18729144E-04
   21.2500000         3.27053131E-04
   21.3750000         3.35428806E-04
   21.5000000         3.43868422E-04
   21.6250000         3.52378906E-04
   21.7500000         3.60961771E-04
   21.8750000         3.69613117E-04
   22.0000000         3.78324010E-04
   22.1250000         3.87081091E-04
   22.2500000         3.95867246E-04
   22.3750000         4.04662715E-04
   22.5000000         4.13446163E-04
   22.6250000         4.22195764E-04
   22.7500000         4.30890388E-04
   22.8750000         4.39510710E-04
   23.0000000         4.48040140E-04
   23.1250000         4.56465728E-04
   23.2500000         4.64778772E-04
   23.3750000         4.72975284E-04
   23.5000000         4.81056253E-04
   23.6250000         4.89027589E-04
   23.7500000         4.96900291E-04
   23.8750000         5.04689873E-04
   24.0000000         5.12416009E-04
   24.1250000         5.20102214E-04
   24.2500000         5.27774915E-04
   24.3750000         5.35463216E-04
   24.5000000         5.43198257E-04
   24.6250000         5.51012345E-04
   24.7500000         5.58938889E-04
   24.8750000         5.67011710E-04
   25.0000000         5.75264392E-04
   25.1250000         5.83730289E-04
   25.2500000         5.92441647E-04
   25.3750000         6.01429492E-04
   25.5000000         6.10723102E-04
   25.6250000         6.20349310E-04
   25.7500000         6.30332041E-04
   25.8750000         6.40691491E-04
   26.0000000         6.51443203E-04
   26.1250000         6.62597071E-04
   26.2500000         6.74156239E-04
   26.3750000         6.86115527E-04
   26.5000000         6.98460266E-04
   26.6250000         7.11164961E-04
   26.7500000         7.24191312E-04
   26.8750000         7.37487338E-04
   27.0000000         7.50985462E-04
   27.1250000         7.64601573E-04
   27.2500000         7.78234098E-04
   27.3750000         7.91763188E-04
   27.5000000         8.05050367E-04
   27.6250000         8.17938650E-04
   27.7500000         8.30252946E-04
   27.8750000         8.41801055E-04
   28.0000000         8.52375000E-04
   28.1250000         8.61753128E-04
   28.2500000         8.69702199E-04
   28.3750000         8.75980302E-04
   28.5000000         8.80339823E-04
   28.6250000         8.82530934E-04
   28.7500000         8.82305147E-04
   28.8750000         8.79418978E-04
   29.0000000         8.73637793E-04
   29.1250000         8.64739355E-04
   29.2500000         8.52517725E-04
   29.3750000         8.36786057E-04
   29.5000000         8.17380380E-04
   29.6250000         7.94161926E-04
   29.7500000         7.67019519E-04
   29.8750000         7.35871668E-04
   30.0000000         7.00668257E-04
   30.1250000         6.61391532E-04
   30.2500000         6.18057209E-04
   30.3750000         5.70714299E-04
   30.5000000         5.19445690E-04
   30.6250000         4.64367535E-04
   30.7500000         4.05628758E-04
   30.8750000         3.43410007E-04
   31.0000000         2.77922576E-04
   31.1250000         2.09407139E-04
   31.2500000         1.38132047E-04
   31.3750000         6.43915992E-05
   31.5000000        -1.14957529E-05
   31.6250000        -8.91894379E-05
   31.7500000        -1.68328930E-04
   31.8750000        -2.48536002E-04
   32.0000000        -3.29417002E-04
   32.1250000        -4.10565379E-04
   32.2500000        -4.91564220E-04
   32.3750000        -5.71988930E-04
   32.5000000        -6.51410199E-04
   32.6250000        -7.29396590E-04
   32.7500000        -8.05517950E-04
   32.8750000        -8.79348372E-04
   33.0000000        -9.50469752E-04
   33.1250000        -1.01847481E-03
   33.2500000        -1.08297111E-03
   33.3750000        -1.14358380E-03
   33.5000000        -1.19996001E-03
   33.6250000        -1.25177158E-03
   33.7500000        -1.29871874E-03
   33.8750000        -1.34053326E-03
   34.0000000        -1.37698161E-03
   34.1250000        -1.40786718E-03
   34.2500000        -1.43303350E-03
   34.3750000        -1.45236484E-03
   34.5000000        -1.46578928E-03
   34.6250000        -1.47327839E-03
   34.7500000        -1.47484848E-03
   34.8750000        -1.47055998E-03
   35.0000000        -1.46051741E-03
   35.1250000        -1.44486758E-03
   35.2500000        -1.42379827E-03
   35.3750000        -1.39753532E-03
   35.5000000        -1.36633986E-03
   35.6250000        -1.33050571E-03
   35.7500000        -1.29035488E-03
   35.8750000        -1.24623370E-03
   36.0000000        -1.19850878E-03
   36.1250000        -1.14756229E-03
   36.2500000        -1.09378749E-03
   36.3750000        -1.03758427E-03
   36.5000000        -9.79354372E-04
   36.6250000        -9.19497106E-04
   36.7500000        -8.58405489E-04
   36.8750000        -7.96462118E-04
   37.0000000        -7.34036032E-04
   37.1250000        -6.71479385E-04
   37.2500000        -6.09125302E-04
   37.3750000        -5.47285657E-04
   37.5000000        -4.86249250E-04
   37.6250000        -4.26281593E-04
   37.7500000        -3.67623696E-04
   37.8750000        -3.10492440E-04
   38.0000000        -2.55080784E-04
   38.1250000        -2.01558752E-04
   38.2500000        -1.50074411E-04
   38.3750000        -1.00755278E-04
   38.5000000        -5.37097440E-05
   38.6250000        -9.02875308E-06
   38.7500000         3.32127529E-05
   38.8750000         7.29543026E-05
   39.0000000         1.10148540E-04
   39.1250000         1.44760153E-04
   39.2500000         1.76764981E-04
   39.3750000         2.06149387E-04
   39.5000000         2.32909937E-04
   39.6250000         2.57053383E-04
   39.7500000         2.78596941E-04
   39.8750000         2.97568477E-04
   40.0000000         3.14007397E-04
   40.1250000         3.27965070E-04
   40.2500000         3.39505612E-04
   40.3750000         3.48706439E-04
   40.5000000         3.55658674E-04
   40.6250000         3.60467500E-04
   40.7500000         3.63251806E-04
   40.8750000         3.64143809E-04
   41.0000000         3.63288040E-04
   41.1250000         3.60839942E-04
   41.2500000         3.56963981E-04
   41.3750000         3.51831375E-04
   41.5000000         3.45617242E-04
   41.6250000         3.38497601E-04
   41.7500000         3.30645882E-04
   41.8750000         3.22229549E-04
   42.0000000         3.13406461E-04
   42.1250000         3.04321526E-04
   42.2500000         2.95103353E-04
   42.3750000         2.85861577E-04
   42.5000000         2.76684412E-04
   42.6250000         2.67636991E-04
   42.7500000         2.58760381E-04
   42.8750000         2.50071345E-04
   43.0000000         2.41562971E-04
   43.1250000         2.33206272E-04
   43.2500000         2.24952280E-04
   43.3750000         2.16735236E-04
   43.5000000         2.08476384E-04
   43.6250000         2.00088165E-04
   43.7500000         1.91478990E-04
   43.8750000         1.82558229E-04
   44.0000000         1.73241322E-04
   44.1250000         1.63454562E-04
   44.2500000         1.53139859E-04
   44.3750000         1.42258825E-04
   44.5000000         1.30796281E-04
   44.6250000         1.18763055E-04
   44.7500000         1.06197782E-04
   44.8750000         9.31676914E-05
   45.0000000         7.97685716E-05
   45.1250000         6.61234444E-05
   45.2500000         5.23805502E-05
   45.3750000         3.87101281E-05
   45.5000000         2.53006147E-05
   45.6250000         1.23539885E-05
   45.7500000         8.07047371E-08
   45.8750000        -1.13058140E-05
   46.0000000        -2.15948112E-05
   46.1250000        -3.05838657E-05
   46.2500000        -3.80844067E-05
   46.3750000        -4.39268224E-05
   46.5000000        -4.79651681E-05
   46.6250000        -5.00811948E-05
   46.7500000        -5.01877003E-05
   46.8750000        -4.82310897E-05
   47.0000000        -4.41930970E-05
   47.1250000        -3.80916754E-05
   47.2500000        -2.99810745E-05
   47.3750000        -1.99510705E-05
   47.5000000        -8.12550843E-06
   47.6250000         5.33985485E-06
   47.7500000         2.02600932E-05
   47.8750000         3.64243861E-05
   48.0000000         5.35997242E-05
   48.1250000         7.15349524E-05
   48.2500000         8.99650404E-05
   48.3750000         1.08615597E-04
   48.5000000         1.27207459E-04
   48.6250000         1.45461381E-04
   48.7500000         1.63102493E-04
   48.8750000         1.79865063E-04
   49.0000000         1.95496628E-04
   49.1250000         2.09762322E-04
   49.2500000         2.22448652E-04
   49.3750000         2.33367042E-04
   49.5000000         2.42357026E-04
   49.6250000         2.49288772E-04
   49.7500000         2.54065293E-04
   49.8750000         2.56623927E-04
   50.0000000         2.56937230E-04
   50.1250000         2.55013350E-04
   50.2500000         2.50895537E-04
   50.3750000         2.44661118E-04
   50.5000000         2.36419859E-04
   50.6250000         2.26311764E-04
   50.7500000         2.14504034E-04
   50.8750000         2.01187955E-04
   51.0000000         1.86575053E-04
   51.1250000         1.70892992E-04
   51.2500000         1.54381254E-04
   51.3750000         1.37286683E-04
   51.5000000         1.19858902E-04
   51.6250000         1.02345824E-04
   51.7500000         8.49892676E-05
   51.8750000         6.80208905E-05
   52.0000000         5.16583968E-05
   52.1250000         3.61021448E-05
   52.2500000         2.15322070E-05
   52.3750000         8.10602887E-06
   52.5000000        -4.04348839E-06
   52.6250000        -1.48091303E-05
   52.7500000        -2.41101352E-05
   52.8750000        -3.18922102E-05
   53.0000000        -3.81271166E-05
   53.1250000        -4.28117346E-05
   53.2500000        -4.59666080E-05
   53.3750000        -4.76341520E-05
   53.5000000        -4.78765760E-05
   53.6250000        -4.67735190E-05
   53.7500000        -4.44195757E-05
   53.8750000        -4.09217100E-05
   54.0000000        -3.63967083E-05
   54.1250000        -3.09687166E-05
   54.2500000        -2.47668468E-05
   54.3750000        -1.79230210E-05
   54.5000000        -1.05699874E-05
   54.6250000        -2.83953000E-06
   54.7500000         5.13905388E-06
   54.8750000         1.32403247E-05
   55.0000000         2.13439016E-05
   55.1250000         2.93354442E-05
   55.2500000         3.71076421E-05
   55.3750000         4.45609840E-05
   55.5000000         5.16045948E-05
   55.6250000         5.81569802E-05
   55.7500000         6.41467486E-05
   55.8750000         6.95133349E-05
   56.0000000         7.42076154E-05
   56.1250000         7.81925628E-05
   56.2500000         8.14436935E-05
   56.3750000         8.39494242E-05
   56.5000000         8.57112245E-05
   56.6250000         8.67435811E-05
   56.7500000         8.70736694E-05
   56.8750000         8.67407580E-05
   57.0000000         8.57953200E-05
   57.1250000         8.42979280E-05
   57.2500000         8.23177834E-05
   57.3750000         7.99310510E-05
   57.5000000         7.72190178E-05
   57.6250000         7.42660923E-05
   57.7500000         7.11577377E-05
   57.8750000         6.79783625E-05
   58.0000000         6.48093410E-05
   58.1250000         6.17270925E-05
   58.2500000         5.88014700E-05
   58.3750000         5.60943336E-05
   58.5000000         5.36584012E-05
   58.6250000         5.15365791E-05
   58.7500000         4.97616020E-05
   58.8750000         4.83559888E-05
   59.0000000         4.73324944E-05
   59.1250000         4.66948404E-05
   59.2500000         4.64387122E-05
   59.3750000         4.65530757E-05
   59.5000000         4.70215891E-05
   59.6250000         4.78241564E-05
   59.7500000         4.89384620E-05
   59.8750000         5.03414303E-05
   60.0000000         5.20105023E-05
   60.1250000         5.39247267E-05
   60.2500000         5.60654189E-05
   60.3750000         5.84166191E-05
   60.5000000         6.09650269E-05
   60.6250000         6.36995974E-05
   60.7500000         6.66107444E-05
   60.8750000         6.96891366E-05
   61.0000000         7.29242965E-05
   61.1250000         7.63028875E-05
   61.2500000         7.98069595E-05
   61.3750000         8.34121020E-05
   61.5000000         8.70857621E-05
   61.6250000         9.07857902E-05
   61.7500000         9.44592830E-05
   61.8750000         9.80419063E-05
   62.0000000         1.01457714E-04
   62.1250000         1.04619576E-04
   62.2500000         1.07430227E-04
   62.3750000         1.09783919E-04
   62.5000000         1.11568792E-04
   62.6250000         1.12669681E-04
   62.7500000         1.12971517E-04
   62.8750000         1.12363043E-04
   63.0000000         1.10740853E-04
   63.1250000         1.08013519E-04
   63.2500000         1.04105660E-04
   63.3750000         9.89618493E-05
   63.5000000         9.25501081E-05
   63.6250000         8.48649361E-05
   63.7500000         7.59296599E-05
   63.8750000         6.57980490E-05
   64.0000000         5.45549628E-05
   64.1250000         4.23162528E-05
   64.2500000         2.92275381E-05
   64.3750000         1.54621630E-05
   64.5000000         1.21819460E-06
   64.6250000        -1.32853747E-05
   64.7500000        -2.78131665E-05
   64.8750000        -4.21184632E-05
   65.0000000        -5.59487889E-05
   65.1250000        -6.90516536E-05
   65.2500000        -8.11803839E-05
   65.3750000        -9.20999519E-05
   65.5000000        -1.01592355E-04
   65.6250000        -1.09461704E-04
   65.7500000        -1.15538671E-04
   65.8750000        -1.19684177E-04
   66.0000000        -1.21792378E-04
   66.1250000        -1.21792778E-04
   66.2500000        -1.19651246E-04
   66.3750000        -1.15370385E-04
   66.5000000        -1.08988876E-04
   66.6250000        -1.00580037E-04
   66.7500000        -9.02496249E-05
   66.8750000        -7.81330236E-05
   67.0000000        -6.43918465E-05
   67.1250000        -4.92102918E-05
   67.2500000        -3.27911075E-05
   67.3750000        -1.53514611E-05
   67.5000000         2.88119554E-06
   67.6250000         2.16731278E-05
   67.7500000         4.07881525E-05
   67.8750000         5.99911800E-05
   68.0000000         7.90514387E-05
   68.1250000         9.77453819E-05
   68.2500000         1.15859068E-04
   68.3750000         1.33190333E-04
   68.5000000         1.49550469E-04
   68.6250000         1.64765719E-04
   68.7500000         1.78678310E-04
   68.8750000         1.91147425E-04
   69.0000000         2.02049894E-04
   69.1250000         2.11280800E-04
   69.2500000         2.18753979E-04
   69.3750000         2.24402422E-04
   69.5000000         2.28178716E-04
   69.6250000         2.30055462E-04
   69.7500000         2.30025602E-04
   69.8750000         2.28102741E-04
   70.0000000         2.24321353E-04
   70.1250000         2.18736939E-04
   70.2500000         2.11425853E-04
   70.3750000         2.02485156E-04
   70.5000000         1.92031890E-04
   70.6250000         1.80202245E-04
   70.7500000         1.67150269E-04
   70.8750000         1.53046203E-04
   71.0000000         1.38074465E-04
   71.1250000         1.22431142E-04
   71.2500000         1.06321197E-04
   71.3750000         8.99553488E-05
   71.5000000         7.35466892E-05
   71.6250000         5.73071047E-05
   71.7500000         4.14437418E-05
   71.8750000         2.61553196E-05
   72.0000000         1.16286965E-05
   72.1250000        -1.96434326E-06
   72.2500000        -1.44699634E-05
   72.3750000        -2.57547217E-05
   72.5000000        -3.57075223E-05
   72.6250000        -4.42410565E-05
   72.7500000        -5.12925944E-05
   72.8750000        -5.68242431E-05
   73.0000000        -6.08227456E-05
   73.1250000        -6.32986194E-05
   73.2500000        -6.42849627E-05
   73.3750000        -6.38359270E-05
   73.5000000        -6.20248029E-05
   73.6250000        -5.89420233E-05
   73.7500000        -5.46929659E-05
   73.8750000        -4.93957123E-05
   74.0000000        -4.31788394E-05
   74.1250000        -3.61792336E-05
   74.2500000        -2.85399656E-05
   74.3750000        -2.04082680E-05
   74.5000000        -1.19335737E-05
   74.6250000        -3.26563963E-06
   74.7500000         5.44723525E-06
   74.8750000         1.40599823E-05
   75.0000000         2.24324449E-05
   75.1250000         3.04310815E-05
   75.2500000         3.79306221E-05
   75.3750000         4.48156497E-05
   75.5000000         5.09822203E-05
   75.6250000         5.63393260E-05
   75.7500000         6.08103219E-05
   75.8750000         6.43342137E-05
   76.0000000         6.68667490E-05
   76.1250000         6.83812978E-05
   76.2500000         6.88695436E-05
   76.3750000         6.83418402E-05
   76.5000000         6.68272478E-05
   76.6250000         6.43733147E-05
   76.7500000         6.10454081E-05
   76.8750000         5.69258227E-05
   77.0000000         5.21125294E-05
   77.1250000         4.67175669E-05
   77.2500000         4.08651758E-05
   77.3750000         3.46897286E-05
   77.5000000         2.83333502E-05
   77.6250000         2.19434278E-05
   77.7500000         1.56699589E-05
   77.8750000         9.66277275E-06
   78.0000000         4.06872095E-06
   78.1250000        -9.71167992E-07
   78.2500000        -5.32452850E-06
   78.3750000        -8.87034093E-06
   78.5000000        -1.15015910E-05
   78.6250000        -1.31277275E-05
   78.7500000        -1.36768003E-05
   78.8750000        -1.30974377E-05
   79.0000000        -1.13603865E-05
   79.1250000        -8.45966042E-06
   79.2500000        -4.41327666E-06
   79.3750000         7.36543768E-07
   79.5000000         6.92365666E-06
   79.6250000         1.40588072E-05
   79.7500000         2.20310103E-05
   79.8750000         3.07094597E-05
   80.0000000         3.99459641E-05
   80.1250000         4.95778113E-05
   80.2500000         5.94311095E-05
   80.3750000         6.93244510E-05
   80.5000000         7.90729609E-05
   80.6250000         8.84923211E-05
   80.7500000         9.74031209E-05
   80.8750000         1.05635045E-04
   81.0000000         1.13030961E-04
   81.1250000         1.19450728E-04
   81.2500000         1.24774742E-04
   81.3750000         1.28906948E-04
   81.5000000         1.31777226E-04
   81.6250000         1.33343361E-04
   81.7500000         1.33592141E-04
   81.8750000         1.32539746E-04
   82.0000000         1.30231507E-04
   82.1250000         1.26740764E-04
   82.2500000         1.22167097E-04
   82.3750000         1.16633768E-04
   82.5000000         1.10284644E-04
   82.6250000         1.03280443E-04
   82.7500000         9.57946031E-05
   82.8750000         8.80087609E-05
   83.0000000         8.01080241E-05
   83.1250000         7.22761179E-05
   83.2500000         6.46905755E-05
   83.3750000         5.75180529E-05
   83.5000000         5.09100064E-05
   83.6250000         4.49987238E-05
   83.7500000         3.98939846E-05
   83.8750000         3.56802448E-05
   84.0000000         3.24146313E-05
   84.1250000         3.01257660E-05
   84.2500000         2.88133579E-05
   84.3750000         2.84486650E-05
   84.5000000         2.89758300E-05
   84.6250000         3.03139877E-05
   84.7500000         3.23600943E-05
   84.8750000         3.49923903E-05
   85.0000000         3.80743004E-05
   85.1250000         4.14588612E-05
   85.2500000         4.49931940E-05
   85.3750000         4.85231867E-05
   85.5000000         5.18979650E-05
   85.6250000         5.49742472E-05
   85.7500000         5.76202729E-05
   85.8750000         5.97192156E-05
   86.0000000         6.11721116E-05
   86.1250000         6.19000202E-05
   86.2500000         6.18456033E-05
   86.3750000         6.09738854E-05
   86.5000000         5.92724064E-05
   86.6250000         5.67506686E-05
   86.7500000         5.34390201E-05
   86.8750000         4.93869593E-05
   87.0000000         4.46611011E-05
   87.1250000         3.93426999E-05
   87.2500000         3.35250297E-05
   87.3750000         2.73105488E-05
   87.5000000         2.08081128E-05
   87.6250000         1.41301371E-05
   87.7500000         7.38992321E-06
   87.8750000         6.99199177E-07
   88.0000000        -5.83412293E-06
   88.1250000        -1.21079011E-05
   88.2500000        -1.80273546E-05
   88.3750000        -2.35063526E-05
   88.5000000        -2.84683374E-05
   88.6250000        -3.28469396E-05
   88.7500000        -3.65862470E-05
   88.8750000        -3.96408177E-05
   89.0000000        -4.19754651E-05
   89.1250000        -4.35648108E-05
   89.2500000        -4.43927493E-05
   89.3750000        -4.44518228E-05
   89.5000000        -4.37425770E-05
   89.6250000        -4.22728954E-05
   89.7500000        -4.00574681E-05
   89.8750000        -3.71173155E-05
   90.0000000        -3.34795150E-05
   90.1250000        -2.91769466E-05
   90.2500000        -2.42483038E-05
   90.3750000        -1.87381374E-05
   90.5000000        -1.26970072E-05
   90.6250000        -6.18165541E-06
   90.7500000         7.44817612E-07
   90.8750000         8.01289025E-06
   91.0000000         1.55466314E-05
   91.1250000         2.32639704E-05
   91.2500000         3.10771138E-05
   91.3750000         3.88933186E-05
   91.5000000         4.66159509E-05
   91.6250000         5.41457557E-05
   91.7500000         6.13825541E-05
   91.8750000         6.82270620E-05
   92.0000000         7.45830694E-05
   92.1250000         8.03595976E-05
   92.2500000         8.54733298E-05
   92.3750000         8.98508370E-05
   92.5000000         9.34307827E-05
   92.6250000         9.61658661E-05
   92.7500000         9.80245168E-05
   92.8750000         9.89921828E-05
   93.0000000         9.90721383E-05
   93.1250000         9.82858837E-05
   93.2500000         9.66729567E-05
   93.3750000         9.42901897E-05
   93.5000000         9.12106407E-05
   93.6250000         8.75218102E-05
   93.7500000         8.33236991E-05
   93.8750000         7.87263416E-05
   94.0000000         7.38471863E-05
   94.1250000         6.88082800E-05
   94.2500000         6.37333869E-05
   94.3750000         5.87451250E-05
   94.5000000         5.39622233E-05
   94.6250000         4.94969390E-05
   94.7500000         4.54526744E-05
   94.8750000         4.19219796E-05
   95.0000000         3.89847301E-05
   95.1250000         3.67068387E-05
   95.2500000         3.51391973E-05
   95.3750000         3.43170068E-05
   95.5000000         3.42594794E-05
   95.6250000         3.49698712E-05
   95.7500000         3.64358093E-05
   95.8750000         3.86299253E-05
   96.0000000         4.15106842E-05
   96.1250000         4.50234656E-05
   96.2500000         4.91018436E-05
   96.3750000         5.36689076E-05
   96.5000000         5.86388051E-05
   96.6250000         6.39182908E-05