 -4.5   1.044406348E-17
 -4.37296724   1.044408168E-17
 -4.24593449   1.044411228E-17
 -4.11890221   1.044414454E-17
 -3.99186945   1.044417018E-17
 -3.86483669   1.044463423E-17
 -3.73780417   1.044682543E-17
 -3.61077142   1.044980907E-17
 -3.4837389   1.044205508E-17
 -3.35670614   1.03997481E-17
 -3.22967362   1.032364583E-17
 -3.10264087   1.034399448E-17
 -2.97560835   1.08673533E-17
 -2.84857559   1.263438976E-17
 -2.72154307   1.64667953E-17
 -2.59451032   2.250855227E-17
 -2.46747756   2.900227577E-17
 -2.34044504   3.10951883E-17
 -2.21341228   2.070737145E-17
 -2.08637977   -1.121142404E-17
 -1.95934713   -6.915779169E-17
 -1.83231449   -1.450360487E-16
 -1.70528185   -2.11082781E-16
 -1.57824922   -2.199027498E-16
 -1.45121646   -1.181373263E-16
 -1.32418382   1.239877961E-16
 -1.19715118   4.743989074E-16
 -1.07011855   8.107131274E-16
 -0.943085909   9.265420242E-16
 -0.816053271   5.915689221E-16
 -0.689020634   -3.369577532E-16
 -0.561987996   -1.78461414E-15
 -0.434955359   -3.371459216E-15
 -0.307922721   -4.428730399E-15
 -0.180890068   -4.157376195E-15
 -5.385742337E-2   -1.912236382E-15
 7.317522168E-2   2.463222844E-15
 0.200207874   8.365344821E-15
 0.327240527   1.433527708E-14
 0.454273164   1.821281603E-14
 0.581305802   1.754498815E-14
 0.708338439   1.018655968E-14
 0.835371077   -5.023192945E-15
 0.962403715   -2.765384865E-14
 1.08943641   -5.530468187E-14
 1.21646905   -8.360251781E-14
 1.34350169   -1.06691545E-13
 1.47053432   -1.182538361E-13
 1.59756696   -1.129746389E-13
 1.7245996   -8.820902857E-14
 1.85163224   -4.546176939E-14
 1.97866488   8.772475442E-15
 2.10569763   6.319705366E-14
 2.23273015   1.031101474E-13
 2.35976291   1.128944824E-13
 2.48679543   7.919274232E-14
 2.61382818   -5.816235165E-15
 2.7408607   -1.41631322E-13
 2.86789346   -3.175753389E-13
 2.99492598   -5.1210479E-13
 3.12195873   -6.933656123E-13
 3.24899125   -8.210682026E-13
 3.37602401   -8.498714428E-13
 3.50305653   -7.345696317E-13
 3.63008928   -4.372977403E-13
 3.75712204   6.344364866E-14
 3.88415456   7.628629716E-13
 4.01118708   1.620825761E-12
 4.13821983   2.556064301E-12
 4.26525259   3.446091069E-12
 4.39228535   4.134519116E-12
 4.51931763   4.44606808E-12
 4.64635038   4.20773312E-12
 4.77338314   3.272978459E-12
 4.9004159   1.544914153E-12
 5.02744818   -1.005617464E-12
 5.15448093   -4.330150821E-12
 5.28151369   -8.302601662E-12
 5.40854645   -1.272933408E-11
 5.53557873   -1.736826828E-11
 5.66261148   -2.195525185E-11
 5.78964424   -2.623536631E-11
 5.916677   -2.999626242E-11
 6.04370975   -3.309966537E-11
 6.17074203   -3.550616745E-11
 6.29777479   -3.728775622E-11
 6.42480755   -3.862302145E-11
 6.55184031   -3.977250126E-11
 6.67887259   -4.103603568E-11
 6.80590534   -4.269956611E-11
 6.9329381   -4.498448836E-11
 7.05997086   -4.801544232E-11
 7.18700314   -5.182230339E-11
 7.31403589   -5.638671821E-11
 7.44106865   -6.173560274E-11
 7.56810141   -6.80750456E-11
 7.69513416   -7.595162693E-11
 7.82216644   -8.642720567E-11
 7.9491992   -1.012589804E-10
 8.07623196   -1.230881785E-10
 8.20326424   -1.556536566E-10
 8.33029747   -2.040559804E-10
 8.45732975   -2.750975003E-10
 8.58436203   -3.777095026E-10
 8.71139526   -5.234440659E-10
 8.83842754   -7.269644886E-10
 8.96546078   -1.006411399E-9
 9.09249306   -1.383463677E-9
 9.21952534   -1.882868306E-9
 9.34655857   -2.531189702E-9
 9.47359085   -3.354529765E-9
 9.60062313   -4.375021678E-9
 9.72765636   -5.605985898E-9
 9.85468864   -7.045765305E-9
 9.98172188   -8.670429708E-9
 10.1087542   -1.042572428E-8
 10.2357864   -1.221883128E-8
 10.3628197   -1.391070459E-8
 10.489852   -1.530989557E-8
 10.6168852   -1.616885292E-8
 10.7439175   -1.618375833E-8
 10.8709497   -1.499885727E-8
 10.997983   -1.22160877E-8
 11.1250153   -7.410617453E-9
 11.2520475   -1.525066323E-10
 11.3790808   9.965747338E-9
 11.5061131   2.329653448E-8
 11.6331463   4.010069787E-8
 11.7601786   6.050954227E-8
 11.8872108   8.448806454E-8
 12.0142441   1.118031747E-7
 12.1412764   1.420012268E-7
 12.2683096   1.743999576E-7
 12.3953419   2.081005164E-7
 12.5223742   2.420249245E-7
 12.6494074   2.749850978E-7
 12.7764397   3.057877791E-7
 12.9034719   3.333800862E-7
 13.0305052   3.570379477E-7
 13.1575375   3.765975407E-7
 13.2845707   3.92729163E-7
 13.411603   4.072477111E-7
 13.5386353   4.234539119E-7
 13.6656685   4.464949654E-7
 13.7927008   4.837328902E-7
 13.919734   5.451045695E-7
 14.0467663   6.434557349E-7
 14.1737986   7.948311804E-7
 14.3008318   1.01870171E-6
 14.4278641   1.338108859E-6
 14.5548964   1.779707873E-6
 14.6819296   2.373697498E-6
 14.8089619   3.153622174E-6
 14.9359951   4.156036994E-6
 15.0630274   5.420035905E-6
 15.1900597   6.986642347E-6
 15.3170929   8.898074157E-6
 15.4441252   1.119688386E-5
 15.5711575   1.392501872E-5
 15.6981907   1.71227839E-5
 15.825223   2.082777974E-5
 15.9522562   2.507379577E-5
 16.0792885   2.988972483E-5
 16.2063217   3.529851892E-5
 16.333353   4.131620881E-5
 16.4603863   4.79509763E-5
 16.5874195   5.520240666E-5
 16.7144508   6.306080468E-5
 16.8414841   7.15066999E-5
 16.9685173   8.051046461E-5
 17.0955505   9.003214655E-5
 17.2225819   1.000213888E-4
 17.3496151   1.104175681E-4
 17.4766483   1.211500785E-4
 17.6036797   1.321388118E-4
 17.7307129   1.432946883E-4
 17.8577461   1.545205159E-4
 17.9847775   1.65711841E-4
 18.1118107   1.767581125E-4
 18.2388439   1.875438902E-4
 18.3658752   1.979502849E-4
 18.4929085   2.078566322E-4
 18.6199417   2.171420783E-4
 18.7469749   2.25687807E-4
 18.8740063   2.333788289E-4
 19.0010395   2.401063248E-4
 19.1280727   2.457699447E-4
 19.2551041   2.502801071E-4
 19.3821373   2.535603126E-4
 19.5091705   2.555495012E-4
 19.6362019   2.562041045E-4
 19.7632351   2.554999664E-4
 19.8902683   2.534338273E-4
 20.0172997   2.500246628E-4
 20.1443329   2.453143825E-4
 20.2713661   2.393677278E-4
 20.3983994   2.322721994E-4
 20.5254307   2.241366892E-4
 20.6524639   2.1509004E-4
 20.7794971   2.052784985E-4
 20.9065285   1.948628342E-4
 21.0335617   1.840148907E-4
 21.1605949   1.729136566E-4
 21.2876263   1.617409289E-4
 21.4146595   1.506770932E-4
 21.5416927   1.398964523E-4
 21.6687241   1.2956305E-4
 21.7957573   1.198265309E-4
 21.9227905   1.10818517E-4
 22.0498238   1.026495665E-4
 22.1768551   9.540678002E-5
 22.3038883   8.915219223E-5
 22.4309216   8.392204472E-5
 22.5579529   7.972675667E-5
 22.6849861   7.655202353E-5
 22.8120193   7.436031592E-5
 22.9390507   7.309351349E-5
 23.0660839   7.267596811E-5
 23.1931171   7.301792357E-5
 23.3201485   7.401949551E-5
 23.4471817   7.557460776E-5
 23.5742149   7.757516141E-5
 23.7012463   7.991481107E-5
 23.8282795   8.249250823E-5
 23.9553127   8.521576819E-5
 24.082346   8.800312935E-5
 24.2093773   9.078637231E-5
 24.3364105   9.351161862E-5
 24.4634438   9.614018199E-5
 24.5904751   9.864856838E-5
 24.7175083   1.010277701E-4
 24.8445415   1.03282182E-4
 24.9715729   1.054279928E-4
 25.0986061   1.074911634E-4
 25.2256393   1.095050757E-4
 25.3526707   1.115083869E-4
 25.4797039   1.135424391E-4
 25.6067371   1.156490835E-4
 25.7337704   1.178683669E-4
 25.8608017   1.202366257E-4
 25.9878349   1.227847679E-4
 26.1148682   1.255369571E-4
 26.2418995   1.285093895E-4
 26.3689327   1.317096903E-4
 26.495966   1.351366664E-4
 26.6229973   1.387800294E-4
 26.7500305   1.426209492E-4
 26.8770638   1.466322428E-4
 27.0040951   1.507793495E-4
 27.1311283   1.550211018E-4
 27.2581615   1.593109337E-4
 27.3851948   1.635979861E-4
 27.5122261   1.678284461E-4
 27.6392593   1.719468128E-4
 27.7662926   1.758975268E-4
 27.8933239   1.79626426E-4
 28.0203571   1.830822875E-4
 28.1473904   1.862183708E-4
 28.2744217   1.88993843E-4
 28.4014549   1.91375424E-4
 28.5284882   1.933386084E-4
 28.6555195   1.948687859E-4
 28.7825527   1.959623041E-4
 28.909586   1.966273994E-4
 29.0366192   1.968846191E-4
 29.1636505   1.967670105E-4
 29.2906837   1.963204122E-4
 29.417717   1.956028864E-4
 29.5447483   1.946837438E-4
 29.6717815   1.936425688E-4
 29.7988148   1.925676042E-4
 29.9258461   1.915538305E-4
 30.0528793   1.907007245E-4
 30.1799126   1.901100477E-4
 30.3069439   1.898830087E-4
 30.4339771   1.901176438E-4
 30.5610104   1.909062412E-4
 30.6880436   1.923327945E-4
 30.8150749   1.944703545E-4
 30.9421082   1.97379195E-4
 31.0691414   2.011047327E-4
 31.1961727   2.056760859E-4
 31.3232059   2.111049835E-4
 31.4502392   2.1738543E-4
 31.5772705   2.244935749E-4
 31.7043037   2.323881345E-4
 31.831337   2.410115849E-4
 31.9583683   2.502915158E-4
 32.0854034   2.601422893E-4
 32.2124329   2.704673389E-4
 32.3394661   2.811613376E-4
 32.4664993   2.921126434E-4
 32.5935326   3.032059176E-4
 32.7205658   3.143246868E-4
 32.847599   3.253539617E-4
 32.9746284   3.361821291E-4
 33.1016617   3.467033675E-4
 33.2286949   3.568193933E-4
 33.3557281   3.664409451E-4
 33.4827614   3.754889476E-4
 33.6097946   3.838955017E-4
 33.7368279   3.916039132E-4
 33.8638573   3.985692165E-4
 33.9908905   4.047573602E-4
 34.1179237   4.101454979E-4
 34.244957   4.147202999E-4
 34.3719902   4.184779245E-4
 34.4990234   4.214224173E-4
 34.6260529   4.235650122E-4
 34.7530861   4.249228805E-4
 34.8801193   4.255176173E-4
 35.0071526   4.253745137E-4
 35.1341858   4.245209566E-4
 35.261219   4.22985875E-4
 35.3882523   4.20798664E-4
 35.5152817   4.1798866E-4
 35.6423149   4.145845014E-4
 35.7693481   4.106138949E-4
 35.8963814   4.061032378E-4
 36.0234146   4.010778794E-4
 36.1504478   3.955616266E-4
 36.2774773   3.895769478E-4
 36.4045105   3.831449721E-4
 36.5315437   3.762856068E-4
 36.658577   3.690176818E-4
 36.7856102   3.613592999E-4
 36.9126434   3.533279814E-4
 37.0396767   3.449411306E-4
 37.1667061   3.362162388E-4
 37.2937393   3.271708556E-4
 37.4207726   3.178229381E-4
 37.5478058   3.081907926E-4
 37.674839   2.982931328E-4
 37.8018723   2.881491673E-4
 37.9289017   2.777787449E-4
 38.0559349   2.672024712E-4
 38.1829681   2.564417955E-4
 38.3100014   2.455190406E-4
 38.4370346   2.344577661E-4
 38.5640678   2.232825791E-4
 38.6911011   2.120191348E-4
 38.8181305   2.006941359E-4
 38.9451637   1.893353765E-4
 39.072197   1.779718441E-4
 39.1992302   1.666337193E-4
 39.3262634   1.553526818E-4
 39.4532967   1.441620843E-4
 39.5803261   1.330971427E-4
 39.7073593   1.221951097E-4
 39.8343925   1.114954721E-4
 39.9614258   1.010399719E-4
 40.088459   9.087288345E-5
 40.2154922   8.104096923E-5
 40.3425255   7.159361121E-5
 40.4695549   6.258279609E-5
 40.5965881   5.406303171E-5
 40.7236214   4.609112148E-5
 40.8506546   3.872572779E-5
 40.9776878   3.202683365E-5
 41.1047211   2.605484951E-5
 41.2317505   2.086962195E-5
 41.3587837   1.652922947E-5
 41.485817   1.308868104E-5
 41.6128502   1.059836541E-5
 41.7398834   9.102568583E-6
 41.8669167   8.637822248E-6
 41.9939499   9.231166587E-6
 42.1209793   1.089853049E-5
 42.2480125   1.364305717E-5
 42.3750458   1.74537181E-5
 42.502079   2.23039242E-5
 42.6291122   2.815070184E-5
 42.7561455   3.493394615E-5
 42.8831749   4.257627734E-5
 43.0102081   5.098319889E-5
 43.1372414   6.004383613E-5
 43.2642746   6.963210035E-5
 43.3913078   7.960831863E-5
 43.5183411   8.98213475E-5
 43.6453743   1.00111014E-4
 43.7724037   1.103110917E-4
 43.899437   1.202523417E-4
 44.0264702   1.297661365E-4
 44.1535034   1.386880322E-4
 44.2805367   1.468614355E-4
 44.4075699   1.541412639E-4
 44.5345993   1.603974233E-4
 44.6616325   1.65518024E-4
 44.7886658   1.694122911E-4
 44.915699   1.72013024E-4
 45.0427322   1.732784731E-4
 45.1697655   1.731936645E-4
 45.2967987   1.717710984E-4
 45.4238281   1.690508361E-4
 45.5508614   1.650999184E-4
 45.6778946   1.600111282E-4
 45.8049278   1.539010991E-4
 45.9319611   1.469079725E-4
 46.0589943   1.391883852E-4
 46.1860237   1.309141371E-4
 46.3130569   1.222684659E-4
 46.4400902   1.134420309E-4
 46.5671234   1.046287434E-4
 46.6941566   9.60215184E-5
 46.8211899   8.780809731E-5
 46.9482231   8.016701759E-5
 47.0752525   7.32638E-5
 47.2022858   6.724752893E-5
 47.329319   6.224772369E-5
 47.4563522   5.837170829E-5
 47.5833855   5.570243957E-5
 47.7104187   5.429691373E-5
 47.8374481   5.418516594E-5
 47.9644814   5.536984463E-5
 48.0915146   5.782638618E-5
 48.2185478   6.150387344E-5
 48.3455811   6.632638542E-5
 48.4726143   7.219488907E-5
 48.5996475   7.898973126E-5
 48.7266769   8.657336002E-5
 48.8537102   9.479352593E-5
 48.9807434   1.034866291E-4
 49.1077766   1.124812916E-4
 49.2348099   1.216020682E-4
 49.3618431   1.306732447E-4
 49.4888725   1.395224535E-4
 49.6159058   1.479843777E-4
 49.742939   1.559039956E-4
 49.8699722   1.631397463E-4
 49.9970055   1.695661485E-4
 50.1240387   1.750761439E-4
 50.2510719   1.795829885E-4
 50.3781013   1.830216643E-4
 50.5051346   1.85349767E-4
 50.6321678   1.865479426E-4
 50.759201   1.866199455E-4
 50.8862343   1.855921146E-4
 51.0132675   1.835124276E-4
 51.1402969   1.804491621E-4
 51.2673302   1.764889457E-4
 51.3943634   1.717346604E-4
 51.5213966   1.663029107E-4
 51.6484299   1.603212004E-4
 51.7754631   1.539251098E-4
 51.9024925   1.472551085E-4
 52.0295258   1.404536015E-4
 52.156559   1.336616697E-4
 52.2835922   1.270161301E-4
 52.4106255   1.206465895E-4
 52.5376587   1.146728755E-4
 52.6646919   1.092024177E-4
 52.7917213   1.043282537E-4
 52.9187546   1.00127254E-4
 53.0457878   9.665885591E-5
 53.172821   9.396434325E-5
 53.2998543   9.206651885E-5
 53.4268875   9.096982831E-5
 53.5539169   9.066105849E-5
 53.6809502   9.111025429E-5
 53.8079834   9.227217379E-5
 53.9350166   9.408795449E-5
 54.0620499   9.648710693E-5
 54.1890831   9.938971198E-5
 54.3161163   1.027087055E-4
 54.4431458   1.063522795E-4
 54.570179   1.102263195E-4
 54.6972122   1.142366673E-4
 54.8242455   1.182913038E-4
 54.9512787   1.223022118E-4
 55.0783119   1.261870639E-4
 55.2053413   1.298705465E-4
 55.3323746   1.332854299E-4
 55.4594078   1.363734045E-4
 55.586441   1.390856196E-4
 55.7134743   1.413829741E-4
 55.8405075   1.432360586E-4
 55.9675407   1.446249807E-4
 56.0945702   1.455389429E-4
 56.2216034   1.459756313E-4
 56.3486366   1.459404739E-4
 56.4756699   1.454458397E-4
 56.6027031   1.445101807E-4
 56.7297363   1.431571436E-4
 56.8567657   1.414147991E-4
 56.983799   1.393149141E-4
 57.1108322   1.368922385E-4
 57.2378654   1.341839088E-4
 57.3648987   1.312287932E-4
 57.4919319   1.28066953E-4
 57.6189651   1.247391774E-4
 57.7459946   1.212865391E-4
 57.8730278   1.177500089E-4
 58.000061   1.141702014E-4
 58.1270943   1.105870324E-4
 58.2541275   1.070394937E-4
 58.3811607   1.035653258E-4
 58.5081902   1.002007193E-4
 58.6352234   9.697992937E-5
 58.7622566   9.393475193E-5
 58.8892899   9.10939998E-5
 59.0163231   8.848290599E-5
 59.1433563   8.612261445E-5
 59.2703896   8.40295761E-5
 59.397419   8.221511234E-5
 59.5244522   8.068497118E-5
 59.6514854   7.943899982E-5
 59.7785187   7.847087545E-5
 59.9055519   7.776814164E-5
 60.0325851   7.731217192E-5
 60.1596146   7.707863551E-5
 60.2866478   7.703804295E-5
 60.413681   7.715658285E-5
 60.5407143   7.73972497E-5
 60.6677475   7.772120443E-5
 60.7947807   7.808928785E-5
 60.921814   7.846365042E-5
 61.0488434   7.88093239E-5
 61.1758766   7.909590204E-5
 61.3029099   7.929892308E-5
 61.4299431   7.940120122E-5
 61.5569763   7.939387433E-5
 61.6840096   7.927711704E-5
 61.811039   7.906056271E-5
 61.9380722   7.87631725E-5
 62.0651054   7.841282786E-5
 62.1921387   7.804537017E-5
 62.3191719   7.770321827E-5
 62.4462051   7.743357855E-5
 62.5732384   7.728639321E-5
 62.7002678   7.73119973E-5
 62.827301   7.755869592E-5
 62.9543343   7.807039219E-5
 63.0813675   7.888429536E-5
 63.2084007   8.002891263E-5
 63.335434   8.152228838E-5
 63.4624634   8.337073086E-5
 63.5894966   8.556797547E-5
 63.7165298   8.809484279E-5
 63.8435631   9.091955872E-5
 63.9705963   9.399862756E-5
 64.0976257   9.727824363E-5
 64.2246628   1.006962484E-4
 64.3516922   1.041844371E-4
 64.4787292   1.076711997E-4
 64.6057587   1.110844314E-4
 64.7327881   1.143543632E-4
 64.8598251   1.174163845E-4
 64.9868546   1.202135973E-4
 65.1138916   1.226990425E-4
 65.240921   1.248375484E-4
 65.3679581   1.266069885E-4
 65.4949875   1.279990829E-4
 65.6220169   1.290192886E-4
 65.749054   1.296865084E-4
 65.8760834   1.30031869E-4
 66.0031204   1.300970616E-4
 66.1301498   1.299322321E-4
 66.2571869   1.295936381E-4
 66.3842163   1.291408698E-4
 66.5112457   1.286342304E-4
 66.6382828   1.281320001E-4
 66.7653122   1.276879775E-4
 66.8923492   1.273494418E-4
 67.0193787   1.271552173E-4
 67.1464081   1.271346118E-4
 67.2734451   1.273064845E-4
 67.4004745   1.276791154E-4
 67.5275116   1.282504963E-4
 67.654541   1.290090295E-4
 67.7815781   1.299348369E-4
 67.9086075   1.310012012E-4
 68.0356369   1.321762393E-4
 68.162674   1.334248227E-4
 68.2897034   1.347102225E-4
 68.4167404   1.359959715E-4
 68.5437698   1.37247247E-4
 68.6708069   1.384320931E-4
 68.7978363   1.395222207E-4
 68.9248657   1.404935028E-4
 69.0519028   1.413260179E-4
 69.1789322   1.420037879E-4
 69.3059692   1.425142837E-4
 69.4329987   1.428475807E-4
 69.5600357   1.429953991E-4
 69.6870651   1.429501426E-4
 69.8140945   1.427039533E-4
 69.9411316   1.422479399E-4
 70.068161   1.415716106E-4
 70.1951981   1.406625815E-4
 70.3222275   1.395065046E-4
 70.4492569   1.380875183E-4
 70.5762939   1.363888296E-4
 70.7033234   1.343938347E-4
 70.8303604   1.320872252E-4
 70.9573898   1.294565591E-4
 71.0844269   1.2649376E-4
 71.2114563   1.231965871E-4
 71.3384857   1.195701843E-4
 71.4655228   1.156282888E-4
 71.5925522   1.113942344E-4
 71.7195892   1.069015925E-4
 71.8466187   1.021943535E-4
 71.9736557   9.732670878E-5
 72.1006851   9.236230835E-5
 72.2277145   8.737305325E-5
 72.3547516   8.243753837E-5
 72.481781   7.763895701E-5
 72.6088181   7.306285261E-5
 72.7358475   6.87944048E-5
 72.8628845   6.491579552E-5
 72.9899139   6.150332047E-5
 73.1169434   5.862473699E-5
 73.2439804   5.633676847E-5
 73.3710098   5.46828669E-5
 73.4980469   5.369148857E-5
 73.6250763   5.337474795E-5
 73.7521057   5.372773012E-5
 73.8791428   5.47284144E-5
 74.0061722   5.633816181E-5
 74.1332092   5.850290108E-5
 74.2602386   6.115481665E-5
 74.3872757   6.421465514E-5
 74.5143051   6.759442476E-5
 74.6413345   7.120043301E-5
 74.7683716   7.493670273E-5
 74.895401   7.870823902E-5
 75.022438   8.242436888E-5
 75.1494675   8.600188448E-5
 75.2765045   8.936777886E-5
 75.4035339   9.246152331E-5
 75.5305634   9.523685731E-5
 75.6576004   9.766290896E-5
 75.7846298   9.972457337E-5
 75.9116669   1.014223599E-4
 76.0386963   1.027714025E-4
 76.1657333   1.038000264E-4
 76.2927628   1.045476529E-4
 76.4197922   1.050623396E-4
 76.5468292   1.053979286E-4
 76.6738586   1.056109977E-4
 76.8008957   1.057579866E-4
 76.9279251   1.058922062E-4
 77.0549545   1.060613358E-4
 77.1819916   1.063051823E-4
 77.309021   1.066539771E-4
 77.436058   1.071271618E-4
 77.5630875   1.07732827E-4
 77.6901245   1.084676769E-4
 77.8171539   1.093176907E-4
 77.9441833   1.102591996E-4
 78.0712204   1.112605096E-4
 78.1982498   1.12283873E-4
 78.3252869   1.132877369E-4
 78.4523163   1.142291658E-4
 78.5793533   1.15066221E-4
 78.7063828   1.157602601E-4
 78.8334122   1.162780318E-4
 78.9604492   1.165933936E-4
 79.0874786   1.166886868E-4
 79.2145157   1.165557551E-4
 79.3415451   1.161964246E-4
 79.4685822   1.156226717E-4
 79.5956116   1.148560914E-4
 79.722641   1.139272499E-4
 79.849678   1.12874397E-4
 79.9767075   1.117419815E-4
 80.1037445   1.10578927E-4
 80.2307739   1.094366598E-4
 80.3578033   1.083671887E-4
 80.4848404   1.074210522E-4
 80.6118698   1.066455661E-4
 80.7389069   1.060830473E-4
 80.8659363   1.057694535E-4
 80.9929733   1.057331247E-4
 81.1200027   1.059939095E-4
 81.2470322   1.065624529E-4
 81.3740692   1.074399042E-4
 81.5010986   1.086179691E-4
 81.6281357   1.100792797E-4
 81.7551651   1.117980719E-4
 81.8822021   1.137411891E-4
 82.0092316   1.158693485E-4
 82.136261   1.181384869E-4
 82.263298   1.205014269E-4
 82.3903275   1.229094196E-4
 82.5173645   1.253137452E-4
 82.6443939   1.276672992E-4
 82.771431   1.299260475E-4
 82.8984604   1.320503361E-4
 83.0254898   1.340060699E-4
 83.1525269   1.357656292E-4
 83.2795563   1.373084961E-4
 83.4065933   1.386214281E-4
 83.5336227   1.396983134E-4
 83.6606522   1.405397488E-4
 83.7876892   1.411521225E-4
 83.9147186   1.415466104E-4
 84.0417557   1.417378808E-4
 84.1687851   1.417426538E-4
 84.2958221   1.415782463E-4
 84.4228516   1.412610873E-4
 84.549881   1.408053067E-4
 84.676918   1.402214257E-4
 84.8039474   1.39515294E-4
 84.9309845   1.386872318E-4
 85.0580139   1.377314911E-4
 85.185051   1.366363576E-4
 85.3120804   1.353843691E-4
 85.4391098   1.339533774E-4
 85.5661469   1.323176839E-4
 85.6931763   1.304497418E-4
 85.8202133   1.283218735E-4
 85.9472427   1.259083219E-4
 86.0742722   1.231872448E-4
 86.2013092   1.201426203E-4
 86.3283386   1.167661903E-4
 86.4553757   1.130590026E-4
 86.5824051   1.090328151E-4
 86.7094421   1.047110054E-4
 86.8364716   1.001290439E-4
 86.963501   9.533441334E-5
 87.090538   9.038586722E-5
 87.2175674   8.53521633E-5
 87.3446045   8.031020843E-5
 87.4716339   7.534282486E-5
 87.598671   7.053613808E-5
 87.7257004   6.597686297E-5
 87.8527298   6.174944428E-5
 87.9797668   5.793323726E-5
 88.1067963   5.459989552E-5
 88.2338333   5.181089728E-5
 88.3608627   4.961549712E-5
 88.4878998   4.804913988E-5
 88.6149292   4.713228554E-5
 88.7419586   4.686998727E-5
 88.8689957   4.72519896E-5
 88.9960251   4.825353608E-5
 89.1230621   4.983670806E-5
 89.2500916   5.195225458E-5
 89.377121   5.454176789E-5
 89.504158   5.754000449E-5
 89.6311874   6.087735892E-5
 89.7582245   6.448223576E-5
 89.8852539   6.828331971E-5
 90.012291   7.221166743E-5
 90.1393204   7.620251563E-5
 90.2663498   8.019669622E-5
 90.3933868   8.414167678E-5
 90.5204163   8.799219358E-5
 90.6474533   9.171034617E-5
 90.7744827   9.52653354E-5
 90.9015198   9.863285231E-5
 91.0285492   1.017941904E-4
 91.1555786   1.047352562E-4
 91.2826157   1.074455431E-4
 91.4096451   1.099172296E-4
 91.5366821   1.12144473E-4
 91.6637115   1.141228204E-4
 91.7907486   1.158490122E-4
 91.917778   1.173209312E-4
 92.0448074   1.185378205E-4
 92.1718445   1.195007862E-4
 92.2988739   1.202134445E-4
 92.4259109   1.206827001E-4
 92.5529404   1.209195907E-4
 92.6799698   1.209401235E-4
 92.8070068   1.207658497E-4
 92.9340363   1.204243745E-4
 93.0610733   1.199493709E-4
 93.1881027   1.193802746E-4
 93.3151398   1.187615198E-4
 93.4421692   1.181413172E-4
 93.5691986   1.175700891E-4
 93.6962357   1.170985488E-4
 93.8232651   1.167755399E-4
 93.9503021   1.166457732E-4
 94.0773315   1.167475202E-4
 94.2043686   1.171103286E-4
 94.331398   1.177530576E-4
 94.4584274   1.186822192E-4
 94.5854645   1.198907557E-4
 94.7124939   1.213574506E-4
 94.8395309   1.230468915E-4
 94.9665604   1.249101624E-4
 95.0935974   1.268862106E-4
 95.2206268   1.289037464E-4
 95.3476563   1.308839419E-4
 95.4746933   1.32743342E-4
 95.6017227   1.343973854E-4
 95.7287598   1.357639121E-4
 95.8557892   1.367667719E-4
 95.9828186   1.373393607E-4
 96.1098557   1.374278363E-4
 96.2368851   1.369937527E-4
 96.3639221   1.360163005E-4
 96.4909515   1.344936172E-4
 96.6179886   1.324435289E-4
 96.745018   1.299033029E-4
 96.8720474   1.269287022E-4
 96.9990845   1.235921955E-4
 97.1261139   1.199803883E-4
 97.2531509   1.161909458E-4
 97.3801804   1.123288384E-4
 97.5072174   1.085023323E-4
 97.6342468   1.048187478E-4
 97.7612762   1.013803485E-4
 97.8883133   9.828037582E-5
 98.0153427   9.559952741E-5
 98.1423798   9.340300312E-5
 98.2694092   9.173827857E-5
 98.3964462   9.063362086E-5
 98.5234756   9.009744826E-5
 98.6505051   9.011846123E-5
 98.7775421   9.06666537E-5
 98.9045715   9.169505211E-5
 99.0316086   9.314207273E-5
 99.158638   9.493458492E-5
 99.2856674   9.699129441E-5
 99.4127045   9.922642494E-5
 99.5397339   1.015534144E-4
 99.6667709   1.038884584E-4
 99.7938004   1.061537259E-4
 99.9208374   1.082801682E-4
 100.047867   1.102096066E-4
 100.174896   1.118962537E-4
 100.301933   1.133076876E-4
 100.428963   1.144249545E-4
 100.556   1.152422265E-4
 100.683029   1.157657971E-4
 100.810066   1.160126267E-4
 100.937096   1.160083993E-4
 101.064125   1.157853112E-4
 101.191162   1.15379713E-4
 101.318192   1.14829636E-4
 101.445229   1.141725807E-4
 101.572258   1.134435006E-4
 101.699295   1.126732168E-4
 101.826324   1.118872533E-4
 101.953354   1.111051242E-4
 102.080391   1.103401009E-4
 102.20742   1.095993794E-4
 102.334457   1.088845893E-4
 102.461487   1.08192573E-4
 102.588516   1.07516491E-4
 102.715553   1.068469574E-4
 102.842583   1.061734365E-4
 102.96962   1.054855675E-4
 103.096649   1.047743717E-4
 103.223686   1.0403341E-4
 103.350716   1.032594373E-4
 103.477745   1.024529847E-4
 103.604782   1.016183742E-4
 103.731812   1.007635656E-4
 103.858849   9.989958198E-5
 103.985878   9.903970931E-5
 104.112915   9.819865954E-5
 104.239944   9.739156667E-5
 104.366974   9.663290984E-5
 104.494011   9.593557479E-5
 104.62104   9.530986426E-5
 104.748077   9.476268315E-5
 104.875107   9.429695638E-5
 105.002144   9.391114145E-5
 105.129173   9.359915566E-5
 105.256203   9.335049253E-5
 105.38324   9.315081843E-5
 105.510269   9.298264922E-5
 105.637306   9.282644896E-5
 105.764336   9.266182315E-5
 105.891365   9.246874833E-5
 106.018402   9.222896188E-5
 106.145432   9.192716243E-5
 106.272469   9.155226871E-5
 106.399498   9.109844541E-5
 106.526535   9.056599811E-5
 106.653564   8.996202814E-5
 106.780594   8.930096374E-5
 106.907631   8.860458911E-5
 107.03466   8.790195716E-5
 107.161697   8.722878556E-5
 107.288727   8.662662003E-5
 107.415764   8.614171384E-5
 107.542793   8.582352166E-5
 107.669823   8.572309162E-5
 107.79686   8.58912681E-5
 107.923889   8.637685823E-5
 108.050926   8.72247474E-5
 108.177956   8.847405115E-5
 108.304985   9.015636897E-5
 108.432022   9.229415446E-5
 108.559052   9.489920194E-5
 108.686089   9.797143139E-5
 108.813118   1.014978989E-4
 108.940155   1.054521999E-4
 109.067184   1.097942804E-4
 109.194214   1.144705748E-4
 109.321251   1.194146971E-4
 109.44828   1.245485037E-4
 109.575317   1.297834242E-4
 109.702347   1.35022492E-4
 109.829384   1.401623158E-4
 109.956413   1.450955606E-4
 110.083443   1.497135963E-4
 110.21048   1.539093646E-4
 110.337509   1.57580318E-4
 110.464546   1.606313745E-4
 110.591576   1.629778853E-4
 110.718613   1.645483862E-4
 110.845642   1.65287056E-4
 110.972672   1.651557977E-4
 111.099709   1.64135854E-4
 111.226738   1.622289565E-4
 111.353775   1.594576752E-4
 111.480804   1.558654767E-4
 111.607834   1.515159238E-4
 111.734871   1.464914676E-4
 111.8619   1.408916141E-4
 111.988937   1.348305523E-4
 112.115967   1.284342579E-4
 112.243004   1.218372854E-4
 112.370033   1.151792239E-4
 112.497063   1.086008924E-4
 112.6241   1.022406141E-4
 112.751129   9.623052028E-5
 112.878166   9.069308726E-5
 113.005196   8.573800733E-5
 113.132233   8.145947504E-5
 113.259262   7.79340553E-5
 113.386292   7.521895168E-5
 113.513329   7.335095142E-5
 113.640358   7.234598161E-5
 113.767395   7.219923282E-5
 113.894424   7.28859377E-5
 114.021461   7.436270243E-5
 114.148491   7.656932576E-5
 114.27552   7.943114906E-5
 114.402557   8.286163938E-5
 114.529587   8.676519064E-5
 114.656624   9.10400704E-5
 114.783653   9.558120655E-5
 114.910683   1.002829958E-4
 115.03772   1.050418286E-4
 115.164749   1.097584027E-4
 115.291786   1.14339724E-4
 115.418816   1.187008165E-4
 115.545853   1.227660105E-4
 115.672882   1.264698512E-4
 115.799911   1.297576528E-4
 115.926949   1.325856283E-4
 116.053978   1.349207305E-4
 116.181015   1.36740171E-4
 116.308044   1.380307804E-4
 116.435081   1.38788193E-4
 116.562111   1.390160614E-4
 116.68914   1.387250959E-4
 116.816177   1.379323076E-4
 116.943207   1.366602082E-4
 117.070244   1.349361264E-4
 117.197273   1.327916689E-4
 117.32431   1.302621822E-4
 117.45134   1.273864764E-4
 117.578369   1.242065046E-4
 117.705406   1.207672831E-4
 117.832436   1.171167387E-4
 117.959473   1.133056867E-4
 118.086502   1.093876563E-4
 118.213531   1.054187451E-4
 118.340569   1.014572554E-4
 118.467598   9.756324289E-5
 118.594635   9.379783296E-5
 118.721664   9.022235463E-5
 118.848701   8.689733659E-5
 118.975731   8.388129936E-5
 119.10276   8.122941654E-5
 119.229797   7.899201591E-5
 119.356827   7.721307338E-5
 119.483864   7.592871407E-5
 119.610893   7.516569895E-5
 119.73793   7.494009333E-5
 119.86496   7.525614637E-5
 119.991989   7.610556349E-5
 120.119026   7.746696065E-5
 120.246056   7.930592255E-5
 120.373093   8.157543925E-5
 120.500122   8.421679377E-5
 120.627159   8.716103184E-5
 120.754189   9.033084643E-5
 120.881218   9.364286961E-5
 121.008255   9.701038653E-5
 121.135284   1.003461948E-4
 121.262321   1.03565646E-4
 121.389351   1.065896649E-4
 121.51638   1.093476239E-4
 121.643417   1.117799766E-4
 121.770447   1.138405714E-4
 121.897484   1.154983402E-4
 122.024513   1.167385853E-4
 122.15155   1.175634898E-4
 122.27858   1.179919855E-4
 122.405609   1.180588442E-4
 122.532646   1.178131351E-4
 122.659676   1.173160053E-4
 122.786713   1.166378206E-4
 122.913742   1.15855124E-4
 123.040779   1.150471144E-4
 123.167809   1.142920955E-4
 123.294838   1.136640858E-4
 123.421875   1.132295292E-4
 123.548904   1.130444507E-4
 123.675941   1.131520403E-4
 123.802971   1.135809143E-4
 123.930008   1.143438858E-4
 124.057037   1.154375568E-4
 124.184067   1.168426388E-4
 124.311104   1.18524993E-4
 124.438133   1.204372893E-4
 124.56517   1.225212909E-4
 124.6922   1.247105101E-4
 124.819229   1.26933126E-4
 124.946266   1.291150838E-4
 125.073296   1.311830856E-4
 125.200333   1.330674422E-4
 125.327362   1.347047946E-4
 125.454399   1.360402384E-4
 125.581429   1.370292593E-4
 125.708458   1.376389846E-4
 125.835495   1.378490706E-4
 125.962524   1.376519358E-4
 126.089561   1.370525279E-4
 126.216591   1.360675378E-4
 126.343628   1.347242651E-4
 126.470657   1.330590894E-4
 126.597687   1.311158121E-4