 -4.5   8.933800062E-20
 -4.37320757   8.930992172E-20
 -4.24641466   8.925550228E-20
 -4.11962223   8.91799445E-20
 -3.99282932   8.906319571E-20
 -3.86603665   8.889782421E-20
 -3.73924398   8.953200033E-20
 -3.61245155   9.52442576E-20
 -3.48565888   1.163415444E-19
 -3.35886621   1.646667799E-19
 -3.23207355   2.343972138E-19
 -3.10528088   2.749773504E-19
 -2.97848821   1.883959809E-19
 -2.85169554   -1.095052843E-19
 -2.72490287   -5.693976846E-19
 -2.5981102   -9.297187485E-19
 -2.47131753   -8.450525735E-19
 -2.34452486   -3.21022049E-19
 -2.21773219   -3.164438887E-19
 -2.09093952   -3.084051717E-18
 -1.96414697   -1.172926227E-17
 -1.8373543   -2.877274307E-17
 -1.71056163   -5.415478348E-17
 -1.58376896   -8.375275832E-17
 -1.45697629   -1.096256576E-16
 -1.33018374   -1.226034795E-16
 -1.20339108   -1.167113595E-16
 -1.07659841   -9.382094266E-17
 -0.949805737   -6.639106445E-17
 -0.823013067   -5.637978352E-17
 -0.696220458   -8.917852051E-17
 -0.569427788   -1.825300812E-16
 -0.442635119   -3.319869668E-16
 -0.315842479   -4.968885851E-16
 -0.189049825   -5.940212942E-16
 -6.225717068E-2   -5.086090859E-16
 6.453548372E-2   -1.312939317E-16
 0.191328138   5.775957901E-16
 0.318120778   1.509453052E-15
 0.444913447   2.344639291E-15
 0.571706116   2.547444601E-15
 0.698498726   1.456922292E-15
 0.825291395   -1.513054001E-15
 0.952084064   -6.593977006E-15
 1.07887673   -1.337902516E-14
 1.2056694   -2.064120359E-14
 1.33246195   -2.635316349E-14
 1.45925462   -2.796044409E-14
 1.58604729   -2.288030639E-14
 1.71283996   -9.113576457E-15
 1.83963263   1.420044045E-14
 1.9664253   4.646083458E-14
 2.09321785   8.563551208E-14
 2.22001052   1.286734391E-13
 2.34680319   1.722270736E-13
 2.47359586   2.135447852E-13
 2.60038853   2.513782368E-13
 2.7271812   2.867883069E-13
 2.85397387   3.237961928E-13
 2.98076653   3.698782545E-13
 3.1075592   4.363035269E-13
 3.23435187   5.382617095E-13
 3.36114454   6.946430193E-13
 3.48793697   9.272598965E-13
 3.61472964   1.259300607E-12
 3.74152231   1.712906509E-12
 3.86831498   2.305966832E-12
 3.99510765   3.048492665E-12
 4.12190056   3.939190987E-12
 4.24869299   4.963057743E-12
 4.37548542   6.090856552E-12
 4.50227833   7.281263266E-12
 4.62907076   8.486155355E-12
 4.75586367   9.659088633E-12
 4.8826561   1.076636263E-11
 5.00944901   1.179938439E-11
 5.13624144   1.278631021E-11
 5.26303434   1.38003645E-11
 5.38982677   1.496207672E-11
 5.51661968   1.643295743E-11
 5.64341211   1.839925608E-11
 5.77020502   2.104615614E-11
 5.89699745   2.452501917E-11
 6.02379036   2.891854985E-11
 6.15058279   3.421051636E-11
 6.27737522   4.026710215E-11
 6.40416813   4.683573668E-11
 6.53096056   5.356394495E-11
 6.65775347   6.003601088E-11
 6.7845459   6.581921813E-11
 6.91133881   7.05064826E-11
 7.03813124   7.37387304E-11
 7.16492414   7.519080497E-11
 7.29171658   7.450944722E-11
 7.41850948   7.120088547E-11
 7.54530191   6.447826301E-11
 7.67209482   5.309257894E-11
 7.79888725   3.518235703E-11
 7.92567968   8.183694174E-12
 8.05247211   -3.115986635E-11
 8.17926502   -8.66592631E-11
 8.30605793   -1.624070739E-10
 8.43285084   -2.623899709E-10
 8.55964279   -3.900371415E-10
 8.6864357   -5.477794884E-10
 8.81322861   -7.367084165E-10
 8.94002151   -9.564182779E-10
 9.06681347   -1.205091582E-9
 9.19360638   -1.479839917E-9
 9.32039928   -1.777253122E-9
 9.44719219   -2.094038276E-9
 9.57398415   -2.42757503E-9
 9.70077705   -2.776171737E-9
 9.82756996   -3.138803883E-9
 9.95436192   -3.514147418E-9
 10.0811548   -3.89880217E-9
 10.2079477   -4.284716137E-9
 10.3347406   -4.65594896E-9
 10.4615326   -4.985049262E-9
 10.5883255   -5.229443545E-9
 10.7151184   -5.328295583E-9
 10.8419113   -5.200299302E-9
 10.9687033   -4.742874538E-9
 11.0954962   -3.833083628E-9
 11.2222891   -2.330481808E-9
 11.349082   -8.196404666E-11
 11.4758739   3.071492616E-9
 11.6026669   7.286419468E-9
 11.7294598   1.270712691E-8
 11.8562517   1.945507933E-8
 11.9830446   2.761790618E-8
 12.1098375   3.723862818E-8
 12.2366304   4.830597078E-8
 12.3634224   6.074659353E-8
 12.4902153   7.442062611E-8
 12.6170082   8.912203953E-8
 12.7438011   1.04585709E-7
 12.8705931   1.205036E-7
 12.997386   1.365524867E-7
 13.1241789   1.524358595E-7
 13.2509708   1.679424884E-7
 13.3777637   1.83024099E-7
 13.5045567   1.978934279E-7
 13.6313496   2.131437213E-7
 13.7581415   2.298891388E-7
 13.8849344   2.499249945E-7
 14.0117273   2.759045685E-7
 14.1385202   3.115296181E-7
 14.2653122   3.617478512E-7
 14.3921051   4.32952362E-7
 14.518898   5.331758075E-7
 14.6456909   6.722705734E-7
 14.7724829   8.620685321E-7
 14.8992758   1.11651002E-6
 15.0260687   1.451733624E-6
 15.1528606   1.88612205E-6
 15.2796535   2.440291155E-6
 15.4064465   3.137018666E-6
 15.5332394   4.001108664E-6
 15.6600313   5.05917842E-6
 15.7868242   6.339377251E-6
 15.9136171   7.871032722E-6
 16.0404091   9.684205907E-6
 16.167202   1.180920208E-5
 16.2939949   1.427599909E-5
 16.4207878   1.711361438E-5
 16.5475807   2.034944737E-5
 16.6743736   2.40085792E-5
 16.8011646   2.811305967E-5
 16.9279575   3.268121145E-5
 17.0547504   3.7726968E-5
 17.1815434   4.325922055E-5
 17.3083363   4.928131239E-5
 17.4351292   5.579061326E-5
 17.5619221   6.27781701E-5
 17.688715   7.022859791E-5
 17.815506   7.812008698E-5
 17.9422989   8.642460307E-5
 18.0690918   9.510829113E-5
 18.1958847   1.04131992E-4
 18.3226776   1.134521299E-4
 18.4494705   1.230215421E-4
 18.5762634   1.327906357E-4
 18.7030544   1.427084935E-4
 18.8298473   1.527242421E-4
 18.9566402   1.627882884E-4
 19.0834332   1.728536445E-4
 19.2102261   1.828771492E-4
 19.337019   1.928205456E-4
 19.4638119   2.026514849E-4
 19.5906048   2.123443264E-4
 19.7173958   2.218805894E-4
 19.8441887   2.312493161E-4
 19.9709816   2.404469124E-4
 20.0977745   2.494770451E-4
 20.2245674   2.583500464E-4
 20.3513603   2.670821268E-4
 20.4781532   2.75694154E-4
 20.6049442   2.842107788E-4
 20.7317371   2.926588641E-4
 20.85853   3.010660876E-4
 20.985323   3.094596905E-4
 21.1121159   3.178649931E-4
 21.2389088   3.263042017E-4
 21.3657017   3.347953607E-4
 21.4924946   3.433515085E-4
 21.6192856   3.519802412E-4
 21.7460785   3.606833634E-4
 21.8728714   3.694569459E-4
 21.9996643   3.782917047E-4
 22.1264572   3.871737572E-4
 22.2532501   3.960851463E-4
 22.380043   4.050052958E-4
 22.506834   4.139118246E-4
 22.6336269   4.227820318E-4
 22.7604198   4.315939732E-4
 22.8872128   4.403277126E-4
 23.0140057   4.489663697E-4
 23.1407986   4.574968771E-4
 23.2675915   4.659107944E-4
 23.3943844   4.742047458E-4
 23.5211754   4.82380623E-4
 23.6479683   4.904455272E-4
 23.7747612   4.984118277E-4
 23.9015541   5.062965211E-4
 24.028347   5.141209695E-4
 24.1551399   5.219104351E-4
 24.2819328   5.29693265E-4
 24.4087238   5.375003093E-4
 24.5355167   5.453643389E-4
 24.6623096   5.533196963E-4
 24.7891026   5.614011316E-4
 24.9158955   5.696440348E-4
 25.0426884   5.78083389E-4
 25.1694813   5.867535947E-4
 25.2962742   5.956880632E-4
 25.4230652   6.049184594E-4
 25.5498581   6.14474644E-4
 25.676651   6.243834505E-4
 25.8034439   6.346685113E-4
 25.9302368   6.453489186E-4
 26.0570297   6.56438584E-4
 26.1838226   6.679447251E-4
 26.3106136   6.798669347E-4
 26.4374065   6.921952008E-4
 26.5641994   7.049088599E-4
 26.6909924   7.179746171E-4
 26.8177853   7.313452661E-4
 26.9445782   7.449578261E-4
 27.0713711   7.587324362E-4
 27.198164   7.72571133E-4
 27.324955   7.863566279E-4
 27.4517479   7.999521331E-4
 27.5785408   8.132012445E-4
 27.7053337   8.259279421E-4
 27.8321266   8.379378123E-4
 27.9589195   8.490190376E-4
 28.0857124   8.589446661E-4
 28.2125034   8.674746496E-4
 28.3392963   8.74358695E-4
 28.4660892   8.793395828E-4
 28.5928822   8.821568335E-4
 28.7196751   8.825501427E-4
 28.846468   8.802638622E-4
 28.9732609   8.750505513E-4
 29.1000538   8.666751091E-4
 29.2268448   8.549189661E-4
 29.3536377   8.395832265E-4
 29.4804306   8.204923361E-4
 29.6072235   7.974971668E-4
 29.7340164   7.704776363E-4
 29.8608093   7.393444539E-4
 29.9876022   7.040417986E-4
 30.1143932   6.645476678E-4
 30.2411861   6.208753912E-4
 30.367979   5.730740377E-4
 30.494772   5.212281249E-4
 30.6215649   4.654575605E-4
 30.7483578   4.059168277E-4
 30.8751507   3.427942283E-4
 31.0019417   2.763104276E-4
 31.1287346   2.067172027E-4
 31.2555275   1.34295522E-4
 31.3823204   5.935382433E-5
 31.5091133   -1.777398575E-5
 31.6359062   -9.673081513E-5
 31.7626991   -1.771385723E-4
 31.889492   -2.586006594E-4
 32.0162849   -3.407044278E-4
 32.1430779   -4.230238264E-4
 32.2698708   -5.051222397E-4
 32.3966637   -5.865553976E-4
 32.5234528   -6.668743445E-4
 32.6502457   -7.456287276E-4
 32.7770386   -8.223701152E-4
 32.9038315   -8.966553723E-4
 33.0306244   -9.680502117E-4
 33.1574173   -1.036133035E-3
 33.2842102   -1.100498368E-3
 33.4110031   -1.160761109E-3
 33.537796   -1.216560137E-3
 33.6645889   -1.26756134E-3
 33.7913818   -1.313462504E-3
 33.9181747   -1.353995176E-3
 34.0449677   -1.388929086E-3
 34.1717606   -1.418073894E-3
 34.2985535   -1.441282337E-3
 34.4253426   -1.458451501E-3
 34.5521355   -1.469524577E-3
 34.6789284   -1.474491786E-3
 34.8057213   -1.473390497E-3
 34.9325142   -1.466304646E-3
 35.0593071   -1.453364035E-3
 35.1861   -1.434743055E-3
 35.3128929   -1.410657424E-3
 35.4396858   -1.381362439E-3
 35.5664787   -1.34714914E-3
 35.6932716   -1.308340579E-3
 35.8200645   -1.265287399E-3
 35.9468575   -1.218363992E-3
 36.0736504   -1.167963026E-3
 36.2004433   -1.114490908E-3
 36.3272324   -1.058362774E-3
 36.4540253   -9.999977192E-4
 36.5808182   -9.398139082E-4
 36.7076111   -8.78224324E-4
 36.834404   -8.156320546E-4
 36.9611969   -7.524272078E-4
 37.0879898   -6.889828946E-4
 37.2147827   -6.256527849E-4
 37.3415756   -5.627684877E-4
 37.4683685   -5.006380379E-4
 37.5951614   -4.395445576E-4
 37.7219543   -3.79745441E-4
 37.8487473   -3.214724711E-4
 37.9755402   -2.649321104E-4
 38.1023293   -2.103060979E-4
 38.2291222   -1.577528601E-4
 38.3559151   -1.074087559E-4
 38.482708   -5.938961112E-5
 38.6095009   -1.379256264E-5
 38.7362938   2.930231312E-5
 38.8630867   6.983042113E-5
 38.9898796   1.077412016E-4
 39.1166725   1.429968688E-4
 39.2434654   1.755714766E-4
 39.3702583   2.054502256E-4
 39.4970512   2.326292306E-4
 39.6238441   2.571153454E-4
 39.7506371   2.789263963E-4
 39.87743   2.980916761E-4
 40.0042191   3.146525996E-4
 40.131012   3.286633582E-4
 40.2578049   3.401917056E-4
 40.3845978   3.493195109E-4
 40.5113907   3.561432241E-4
 40.6381836   3.607741091E-4
 40.7649765   3.633379529E-4
 40.8917694   3.639745701E-4
 41.0185623   3.628366103E-4
 41.1453552   3.600880154E-4
 41.2721481   3.559019824E-4
 41.398941   3.504582273E-4
 41.5257339   3.43940017E-4
 41.6525269   3.365308221E-4
 41.7793198   3.284106206E-4
 41.9061089   3.197520564E-4
 42.0329018   3.10716714E-4
 42.1596947   3.014514805E-4
 42.2864876   2.920850238E-4
 42.4132805   2.827252029E-4
 42.5400734   2.734564769E-4
 42.6668663   2.643384796E-4
 42.7936592   2.554051462E-4
 42.9204521   2.466648875E-4
 43.047245   2.381014638E-4
 43.1740379   2.296761522E-4
 43.3008308   2.213303233E-4
 43.4276237   2.129891654E-4
 43.5544167   2.045659348E-4
 43.6812096   1.95966757E-4
 43.8079987   1.870959095E-4
 43.9347916   1.778612495E-4
 44.0615845   1.681794529E-4
 44.1883774   1.579813834E-4
 44.3151703   1.472166186E-4
 44.4419632   1.358577574E-4
 44.5687561   1.239036355E-4
 44.695549   1.113818289E-4
 44.8223419   9.834989032E-5
 44.9491348   8.489583706E-5
 45.0759277   7.113717584E-5
 45.2027206   5.721906564E-5
 45.3295135   4.331132004E-5
 45.4563065   2.960450729E-5
 45.5830994   1.630531551E-5
 45.7098885   3.631150093E-6
 45.8366814   -8.195610462E-6
 45.9634743   -1.895366222E-5
 46.0902672   -2.842888171E-5
 46.2170601   -3.642029333E-5
 46.343853   -4.274569073E-5
 46.4706459   -4.724675819E-5
 46.5974388   -4.979360165E-5
 46.7242317   -5.028846863E-5
 46.8510246   -4.86687095E-5
 46.9778175   -4.490874926E-5
 47.1046104   -3.902123717E-5
 47.2314034   -3.105724682E-5
 47.3581963   -2.11056049E-5
 47.4849892   -9.291412425E-6
 47.6117783   4.226145393E-6
 47.7385712   1.925674042E-5
 47.8653641   3.558231765E-5
 47.992157   5.2961037E-5
 48.1189499   7.113159518E-5
 48.2457428   8.981781866E-5
 48.3725357   1.08733504E-4
 48.4993286   1.275872783E-4
 48.6261215   1.460876665E-4
 48.7529144   1.639480615E-4
 48.8797073   1.808914967E-4
 49.0065002   1.966553973E-4
 49.1332932   2.109960624E-4
 49.2600861   2.236927539E-4
 49.386879   2.345514804E-4
 49.5136681   2.434082562E-4
 49.640461   2.501319395E-4
 49.7672539   2.546262986E-4
 49.8940468   2.568316995E-4
 50.0208397   2.56725878E-4
 50.1476326   2.543241717E-4
 50.2744255   2.496788802E-4
 50.4012184   2.428781736E-4
 50.5280113   2.340440406E-4
 50.6548042   2.233297419E-4
 50.7815971   2.10916638E-4
 50.90839   1.97010464E-4
 51.035183   1.818372257E-4
 51.1619759   1.656386885E-4
 51.2887688   1.486677356E-4
 51.4155579   1.311834494E-4
 51.5423508   1.134462509E-4
 51.6691437   9.571309783E-5
 51.7959366   7.823295891E-5
 51.9227295   6.124241918E-5
 52.0495224   4.49618019E-5
 52.1763153   2.959175436E-5
 52.3031082   1.531030466E-5
 52.4299011   2.270573532E-6
 52.556694   -9.40092923E-6
 52.6834869   -1.960537884E-5
 52.8102798   -2.827202843E-5
 52.9370728   -3.535803262E-5
 53.0638657   -4.084765169E-5
 53.1906586   -4.475097376E-5
 53.3174477   -4.710216308E-5
 53.4442406   -4.795732457E-5
 53.5710335   -4.739209908E-5
 53.6978264   -4.549904406E-5
 53.8246193   -4.238491238E-5
 53.9514122   -3.816786921E-5
 54.0782051   -3.297482181E-5
 54.204998   -2.693884926E-5
 54.3317909   -2.019677049E-5
 54.4585838   -1.288697513E-5
 54.5853767   -5.1474467E-6
 54.7121696   2.885975846E-6
 54.8389626   1.108110882E-5
 54.9657555   1.931073348E-5
 55.0925484   2.745376696E-5
 55.2193375   3.539629324E-5
 55.3461304   4.30324726E-5
 55.4729233   5.026541839E-5
 55.5997162   5.700805195E-5
 55.7265091   6.318385567E-5
 55.853302   6.872766971E-5
 55.9800949   7.358639414E-5
 56.1068878   7.77196401E-5
 56.2336807   8.110027557E-5
 56.3604736   8.37148109E-5
 56.4872665   8.556355169E-5
 56.6140594   8.666060603E-5
 56.7408524   8.703352069E-5
 56.8676453   8.672269905E-5
 56.9944382   8.578044799E-5
 57.1212273   8.426974091E-5
 57.2480202   8.226275531E-5
 57.3748131   7.983899559E-5
 57.501606   7.708332851E-5
 57.6283989   7.408389502E-5
 57.7551918   7.092979649E-5
 57.8819847   6.770891923E-5
 58.0087776   6.450580258E-5
 58.1355705   6.139952166E-5
 58.2623634   5.84620575E-5
 58.3891563   5.57567364E-5
 58.5159492   5.333712033E-5
 58.6427422   5.124627205E-5
 58.7695351   4.951642768E-5
 58.896328   4.816908768E-5
 59.0231171   4.721550795E-5
 59.14991   4.665756205E-5
 59.2767029   4.648892718E-5
 59.4034958   4.669652481E-5
 59.5302887   4.726205589E-5
 59.6570816   4.816374712E-5
 59.7838745   4.937792255E-5
 59.9106674   5.088060061E-5
 60.0374603   5.264874562E-5
 60.1642532   5.466135553E-5
 60.2910461   5.69000731E-5
 60.4178391   5.934949877E-5
 60.544632   6.199693598E-5
 60.6714249   6.483183097E-5
 60.7982178   6.784472498E-5
 60.9250069   7.102582458E-5
 61.0517998   7.436339365E-5
 61.1785927   7.784179616E-5
 61.3053856   8.143961168E-5
 61.4321785   8.512771456E-5
 61.5589714   8.886754949E-5
 61.6857643   9.260970546E-5
 61.8125572   9.629292617E-5
 61.9393501   9.984370263E-5
 62.066143   1.031763386E-4
 62.1929359   1.061938019E-4
 62.3197289   1.087892597E-4
 62.4465218   1.108481956E-4
 62.5733147   1.122513495E-4
 62.7001076   1.12878035E-4
 62.8268967   1.12610076E-4
 62.9536896   1.113360486E-4
 63.0804825   1.089556172E-4
 63.2072754   1.053840242E-4
 63.3340683   1.00556339E-4
 63.4608612   9.443135787E-5
 63.5876541   8.699503087E-5
 63.714447   7.826324145E-5
 63.8412399   6.828369078E-5
 63.9680328   5.713696009E-5
 64.0948257   4.493651795E-5
 64.2216187   3.182771616E-5
 64.3484116   1.798579615E-5
 64.4752045   3.612855608E-6
 64.6019974   -1.106608306E-5
 64.7287903   -2.58077871E-5
 64.8555832   -4.035621168E-5
 64.9823761   -5.444837734E-5
 65.109169   -6.78205397E-5
 65.2359619   -8.021446411E-5
 65.3627548   -9.138367022E-5
 65.4895477   -1.010993146E-4
 65.616333   -1.091556114E-4
 65.7431259   -1.153746489E-4
 65.8699188   -1.196104567E-4
 65.9967117   -1.217521494E-4
 66.1235046   -1.217261597E-4
 66.2502975   -1.194974539E-4
 66.3770905   -1.150698081E-4
 66.5038834   -1.084850883E-4
 66.6306763   -9.982167103E-5
 66.7574692   -8.919203538E-5
 66.8842621   -7.673970686E-5
 67.011055   -6.26356632E-5
 67.1378479   -4.707424887E-5
 67.2646408   -3.026890408E-5
 67.3914337   -1.24477674E-5
 67.5182266   6.15077397E-6
 67.6450195   2.528238656E-5
 67.7718124   4.470076237E-5
 67.8986053   6.416145334E-5
 68.0253983   8.342517685E-5
 68.1521912   1.022608631E-4
 68.2789841   1.204481377E-4
 68.405777   1.377795561E-4
 68.5325699   1.540623052E-4
 68.6593628   1.691196521E-4
 68.7861557   1.827920933E-4
 68.9129486   1.949382713E-4
 69.0397415   2.054356737E-4
 69.1665344   2.141812438E-4
 69.2933273   2.210919192E-4
 69.4201126   2.26105054E-4
 69.5469055   2.291789278E-4
 69.6736984   2.302931534E-4
 69.8004913   2.294490114E-4
 69.9272842   2.266698284E-4
 70.0540771   2.220011083E-4
 70.1808701   2.155105758E-4
 70.307663   2.072880743E-4
 70.4344559   1.97445057E-4
 70.5612488   1.861137862E-4
 70.6880417   1.734461403E-4
 70.8148346   1.596121001E-4
 70.9416275   1.447976829E-4
 71.0684204   1.292025117E-4
 71.1952133   1.130369128E-4
 71.3220062   9.651877917E-5
 71.4487991   7.986994024E-5
 71.575592   6.331248005E-5
 71.7023849   4.706482287E-5
 71.8291779   3.133789505E-5
 71.9559708   1.633127067E-5
 72.0827637   2.229680831E-6
 72.2095566   -1.080024867E-5
 72.3363495   -2.261275586E-5
 72.4631424   -3.308518353E-5
 72.5899353   -4.211963096E-5
 72.7167282   -4.964407344E-5
 72.8435211   -5.56127161E-5
 72.970314   -6.000589929E-5
 73.0971069   -6.282932736E-5
 73.2238922   -6.41128936E-5
 73.3506851   -6.390905764E-5
 73.477478   -6.229092105E-5
 73.6042709   -5.935008085E-5
 73.7310638   -5.519426122E-5
 73.8578568   -4.994497795E-5
 73.9846497   -4.37351373E-5
 74.1114426   -3.670671504E-5
 74.2382355   -2.900844629E-5
 74.3650284   -2.079365731E-5
 74.4918213   -1.221814364E-5
 74.6186142   -3.438207386E-6
 74.7454071   5.391323157E-6
 74.8722   1.411895482E-5
 74.9989929   2.259840221E-5
 75.1257858   3.069034574E-5
 75.2525787   3.826426109E-5
 75.3793716   4.520011134E-5
 75.5061646   5.139007044E-5
 75.6329575   5.674014756E-5
 75.7597504   6.117166777E-5
 75.8865433   6.462264719E-5
 76.0133362   6.704897532E-5
 76.1401291   6.842533185E-5
 76.266922   6.874587416E-5
 76.3937149   6.80245721E-5
 76.5205078   6.629524432E-5
 76.6473007   6.361113628E-5
 76.7740936   6.004427996E-5
 76.9008865   5.5684377E-5
 77.0276718   5.063735443E-5
 77.1544647   4.502360025E-5
 77.2812576   3.897588977E-5
 77.4080505   3.263707185E-5
 77.5348434   2.615747144E-5
 77.6616364   1.969217192E-5
 77.7884293   1.339810296E-5
 77.9152222   7.431077393E-6
 78.0420151   1.942714789E-6
 78.168808   -2.922589147E-6
 78.2956009   -7.030674624E-6
 78.4223938   -1.02605336E-5
 78.5491867   -1.250705827E-5
 78.6759796   -1.368355515E-5
 78.8027725   -1.372398947E-5
 78.9295654   -1.25849092E-5
 79.0563583   -1.024691301E-5
 79.1831512   -6.715700238E-6
 79.3099442   -2.022578201E-6
 79.4367371   3.775538744E-6
 79.56353   1.05967747E-5
 79.6903229   1.833546412E-5
 79.8171158   2.686391599E-5
 79.9439087   3.603480218E-5
 80.0707016   4.568403529E-5
 80.1974945   5.563417653E-5
 80.3242874   6.569824473E-5
 80.4510803   7.568387082E-5
 80.5778732   8.539768169E-5
 80.7046585   9.46499058E-5
 80.8314514   1.032588625E-4
 80.9582443   1.110554076E-4
 81.0850372   1.178871898E-4
 81.2118301   1.236225507E-4
 81.338623   1.281538862E-4
 81.465416   1.314005058E-4
 81.5922089   1.333108085E-4
 81.7190018   1.338637085E-4
 81.8457947   1.330692612E-4
 81.9725876   1.309686049E-4
 82.0993805   1.276327675E-4
 82.2261734   1.231610513E-4
 82.3529663   1.176783189E-4
 82.4797592   1.113317921E-4
 82.6065521   1.042872245E-4
 82.733345   9.672438318E-5
 82.8601379   8.883236296E-5
 82.9869308   8.080444968E-5
 83.1137238   7.283292507E-5
 83.2405167   6.51039154E-5
 83.3673096   5.77923056E-5
 83.4941025   5.105706805E-5
 83.6208954   4.503699165E-5
 83.7476883   3.984698924E-5
 83.8744812   3.557516538E-5
 84.0012741   3.228065907E-5
 84.128067   2.999234493E-5
 84.2548599   2.870848584E-5
 84.3816528   2.839730405E-5
 84.5084381   2.899844185E-5
 84.635231   3.042530443E-5
 84.7620239   3.2568194E-5
 84.8888168   3.529802416E-5
 85.0156097   3.847066182E-5
 85.1424026   4.193162022E-5
 85.2691956   4.552098835E-5
 85.3959885   4.907830589E-5
 85.5227814   5.244744534E-5
 85.6495743   5.548116678E-5
 85.7763672   5.804519969E-5
 85.9031601   6.002181181E-5
 86.029953   6.131275586E-5
 86.1567459   6.184142694E-5
 86.2835388   6.155431038E-5
 86.4103317   6.042168025E-5
 86.5371246   5.843751205E-5
 86.6639175   5.561870785E-5
 86.7907104   5.200367013E-5
 86.9175034   4.765040649E-5
 87.0442963   4.263410301E-5
 87.1710892   3.704443589E-5
 87.2978821   3.098261732E-5
 87.424675   2.455837603E-5
 87.5514679   1.78868886E-5
 87.6782608   1.108587276E-5
 87.8050537   4.272766091E-6
 87.9318466   -2.437775265E-6
 88.0586395   -8.936102859E-6
 88.1854324   -1.511950995E-5
 88.3122177   -2.089373083E-5
 88.4390106   -2.617413702E-5
 88.5658035   -3.088653466E-5
 88.6925964   -3.496762656E-5
 88.8193893   -3.836514225E-5
 88.9461823   -4.103771425E-5
 89.0729752   -4.295453982E-5
 89.1997681   -4.409482426E-5
 89.326561   -4.444716978E-5
 89.4533539   -4.400887701E-5
 89.5801468   -4.278524284E-5
 89.7069397   -4.078898201E-5
 89.8337326   -3.803967411E-5
 89.9605255   -3.456339255E-5
 90.0873184   -3.03924644E-5
 90.2141113   -2.556537947E-5
 90.3409042   -2.012682307E-5
 90.4676971   -1.412782149E-5
 90.5944901   -7.625927083E-6
 90.721283   -6.854087928E-7
 90.8480759   6.622586625E-6
 90.9748688   1.422009609E-5
 91.1016617   2.202249016E-5
 91.2284546   2.993894668E-5
 91.3552475   3.787321839E-5
 91.4820404   4.572466059E-5
 91.6088333   5.338965639E-5
 91.7356262   6.076338468E-5
 91.8624191   6.774179928E-5
 91.989212   7.422394265E-5
 92.1159973   8.01143251E-5
 92.2427902   8.53254387E-5
 92.3695831   8.978024562E-5
 92.496376   9.341452824E-5
 92.6231689   9.617899195E-5
 92.7499619   9.804107685E-5
 92.8767548   9.898625285E-5
 93.0035477   9.9018951E-5
 93.1303406   9.816292732E-5
 93.2571335   9.646092803E-5
 93.3839264   9.397400572E-5
 93.5107193   9.078012226E-5
 93.6375122   8.697235899E-5
 93.7643051   8.265658107E-5
 93.891098   7.79489128E-5
 94.0178909   7.297279808E-5
 94.1446838   6.78560391E-5
 94.2714767   6.272758765E-5
 94.3982697   5.771466385E-5
 94.5250626   5.293971117E-5
 94.6518555   4.851772246E-5
 94.7786484   4.455379531E-5
 94.9054413   4.114100375E-5
 95.0322342   3.83586339E-5
 95.1590271   3.627082333E-5
 95.28582   3.492556425E-5
 95.4126129   3.43541069E-5
 95.5394058   3.457077037E-5
 95.6661987   3.557309537E-5
 95.7929916   3.734228812E-5
 95.9197769   3.984398791E-5
 96.0465698   4.302931848E-5
 96.1733627   4.68360995E-5
 96.3001556   5.119020716E-5
 96.4269485   5.600717122E-5
 96.5537415   6.119382306E-5
 96.6805344   6.665002002E-5
 96.8073273   7.227039896E-5
 96.9341202   7.79462207E-5
 97.0609131   8.356715989E-5
 97.187706   8.902311674E-5
 97.3144989   9.420596325E-5
 97.4412918   9.901125304E-5
 97.5680847   1.033398512E-4
 97.6948776   1.070995422E-4
 97.8216705   1.102064271E-4
 97.9484634   1.125863346E-4
 98.0752563   1.141759858E-4
 98.2020493   1.149241289E-4
 98.3288422   1.147925286E-4
 98.4556351   1.137567233E-4
 98.582428   1.118067084E-4
 98.7092209   1.089473881E-4
 98.8360138   1.051988947E-4
 98.9628067   1.005966988E-4
 99.0895996   9.51914335E-5
 99.2163925   8.904856077E-5
 99.3431854   8.224770863E-5
 99.4699783   7.488170377E-5
 99.5967712   6.705530541E-5
 99.7235565   5.888363376E-5
 99.8503494   5.049024548E-5
 99.9771423   4.200483454E-5
 100.103935   3.356081652E-5
 100.230728   2.529252924E-5
 100.357521   1.73324097E-5
 100.484314   9.807995411E-6
 100.611107   2.839058425E-6
 100.7379   -3.465220516E-6
 100.864693   -9.008787856E-6
 100.991486   -1.371100007E-5
 101.118279   -1.750848241E-5
 101.245071   -2.035652324E-5
 101.371864   -2.222999683E-5
 101.498657   -2.312372089E-5
 101.62545   -2.305228918E-5
 101.752243   -2.204936754E-5
 101.879036   -2.016652797E-5
 102.005829   -1.747157876E-5
 102.132622   -1.40465545E-5
 102.259415   -9.985319593E-6
 102.386208   -5.390981187E-6
 102.513   -3.730204696E-7
 102.639793   4.955566965E-6
 102.766586   1.04812234E-5
 102.893379   1.609273568E-5
 103.020172   2.168391802E-5
 103.146965   2.715619303E-5
 103.273758   3.242079401E-5
 103.400551   3.740068132E-5
 103.527336   4.203201024E-5
 103.654129   4.626517693E-5
 103.780922   5.006540232E-5
 103.907715   5.341285578E-5
 104.034508   5.630220767E-5
 104.161301   5.874180351E-5
 104.288094   6.075231067E-5
 104.414886   6.236503395E-5
 104.541679   6.361986016E-5
 104.668472   6.456286064E-5
 104.795265   6.524380296E-5
 104.922058   6.571343692E-5
 105.048851   6.602088251E-5
 105.175644   6.621105422E-5
 105.302437   6.632227451E-5
 105.42923   6.638423656E-5
 105.556023   6.641638174E-5
 105.682816   6.642674271E-5
 105.809608   6.641127402E-5
 105.936401   6.63539322E-5
 106.063194   6.622719229E-5
 106.189987   6.599336484E-5
 106.31678   6.560633483E-5
 106.443573   6.50138827E-5
 106.570366   6.416036922E-5
 106.697159   6.298979133E-5
 106.823952   6.144888903E-5
 106.950745   5.949039769E-5
 107.077538   5.707603486E-5
 107.20433   5.417928696E-5
 107.331116   5.078773756E-5
 107.457909   4.690492278E-5
 107.584702   4.255153544E-5
 107.711494   3.776600352E-5
 107.838287   3.260434823E-5
 107.96508   2.713934009E-5
 108.091873   2.145907456E-5
 108.218666   1.566487663E-5
 108.345459   9.868706911E-6
 108.472252   4.190232175E-6
 108.599045   -1.246473289E-6
 108.725838   -6.31633884E-6
 108.852631   -1.089677698E-5
 108.979424   -1.487108057E-5
 109.106216   -1.813160816E-5
 109.233009   -2.058275095E-5
 109.359802   -2.214347296E-5
 109.486595   -2.27495093E-5
 109.613388   -2.235508509E-5
 109.740181   -2.093410149E-5
 109.866974   -1.848088141E-5
 109.993767   -1.501037787E-5
 110.12056   -1.055784105E-5
 110.247353   -5.177999356E-6
 110.374146   1.056162318E-6
 110.500938   8.055160833E-6
 110.627731   1.571508255E-5
 110.754524   2.392006354E-5
 110.881317   3.254499825E-5
 111.008102   4.145840649E-5
 111.134895   5.052551933E-5
 111.261688   5.961130228E-5
 111.388481   6.858352572E-5
 111.515274   7.731559162E-5
 111.642067   8.568915655E-5
 111.76886   9.359642718E-5
 111.895653   1.009420885E-4
 112.022446   1.076446788E-4
 112.149239   1.136375868E-4
 112.276031   1.188694878E-4
 112.402824   1.233042567E-4
 112.529617   1.269204513E-4
 112.65641   1.29710359E-4
 112.783203   1.316787238E-4
 112.909996   1.328412181E-4
 113.036789   1.332227694E-4
 113.163582   1.328558428E-4
 113.290375   1.31778841E-4
 113.417168   1.300345029E-4
 113.543961   1.276686526E-4
 113.670753   1.247292093E-4
 113.797546   1.212654242E-4
 113.924339   1.17327465E-4
 114.051132   1.12966387E-4
 114.177925   1.082341769E-4
 114.304718   1.031841093E-4
 114.431511   9.787112504E-5
 114.558304   9.235227481E-5
 114.685097   8.668706141E-5
 114.811882   8.093759971E-5
 114.938675   7.516860205E-5
 115.065468   6.944699271E-5
 115.192261   6.3841253E-5
 115.319054   5.842036262E-5
 115.445847   5.325250095E-5
 115.572639   4.840334077E-5
 115.699432   4.393421477E-5
 115.826225   3.990004552E-5
 115.953018   3.634734821E-5
 116.079811   3.331214975E-5
 116.206604   3.081825707E-5
 116.333397   2.887569099E-5
 116.46019   2.747966209E-5
 116.586983   2.660992686E-5
 116.713776   2.623075488E-5
 116.840569   2.629151277E-5
 116.967361   2.67278192E-5
 117.094154   2.74632639E-5
 117.220947   2.841169589E-5
 117.34774   2.947991561E-5
 117.474533   3.057071081E-5
 117.601326   3.158609979E-5
 117.728119   3.243066385E-5
 117.854912   3.301474135E-5
 117.981705   3.32575728E-5
 118.108498   3.308998203E-5
 118.235291   3.245681364E-5
 118.362083   3.131871927E-5
 118.488876   2.965349813E-5
 118.615662   2.745686288E-5
 118.742455   2.474253597E-5
 118.869247   2.154183858E-5
 118.99604   1.790272836E-5
 119.122833   1.388824057E-5
 119.249626   9.574634532E-6
 119.376419   5.049078482E-6
 119.503212   4.070577972E-7
 119.630005   -4.25035887E-6
 119.756798   -8.819454706E-6
 119.883591   -1.319672447E-5
 120.010384   -1.728178722E-5
 120.137177   -2.098005643E-5
 120.263969   -2.420524288E-5
 120.390762   -2.688161476E-5
 120.517555   -2.894584395E-5
 120.644348   -3.034847578E-5
 120.771141   -3.105499127E-5
 120.897934   -3.104635471E-5
 121.024727   -3.031909728E-5
 121.15152   -2.888490963E-5
 121.278313   -2.676977238E-5
 121.405106   -2.401264828E-5
 121.531898   -2.066376328E-5
 121.658691   -1.67826347E-5
 121.785484   -1.243579754E-5
 121.912277   -7.694420674E-6
 122.03907   -2.631886218E-6
 122.165863   2.678661758E-6
 122.292656   8.166487532E-6
 122.419441   1.376535693E-5
 122.546234   1.941522169E-5
 122.673027   2.506361488E-5
 122.79982   3.066660793E-5
 122.926613   3.61893326E-5
 123.053406   4.160612662E-5
 123.180199   4.690018613E-5
 123.306992   5.206288915E-5
 123.433784   5.709276593E-5
 123.560577   6.199412019E-5
 123.68737   6.677551573E-5
 123.814163   7.144797564E-5
 123.940956   7.602327241E-5
 124.067749   8.05120726E-5
 124.194542   8.492220513E-5
 124.321335   8.925714064E-5
 124.448128   9.351459448E-5
 124.574921   9.768544987E-5
 124.701714   1.017529867E-4
 124.828506   1.056925175E-4
 124.955299   1.094713807E-4
 125.082092   1.130492965E-4
 125.208885   1.163791894E-4
 125.335678   1.194083379E-4
 125.462471   1.220798877E-4
 125.589264   1.243346778E-4