  -4.50000000       0.00000000    
  -4.37500000       0.00000000    
  -4.25000000       0.00000000    
  -4.12500000       0.00000000    
  -4.00000000      -4.11157459E-22
  -3.87500000      -1.31197217E-21
  -3.75000000       2.54435667E-21
  -3.62500000       3.03126830E-20
  -3.50000000       1.20242063E-19
  -3.37500000       3.25852965E-19
  -3.25000000       7.09257176E-19
  -3.12500000       1.34249325E-18
  -3.00000000       2.30163977E-18
  -2.87500000       3.58744303E-18
  -2.75000000       4.88436503E-18
  -2.62500000       5.14341691E-18
  -2.50000000       2.14393035E-18
  -2.37500000      -7.65192276E-18
  -2.25000000      -2.86530236E-17
  -2.12500000      -6.50726709E-17
  -2.00000000      -1.19631929E-16
  -1.87500000      -1.92741143E-16
  -1.75000000      -2.82872185E-16
  -1.62500000      -3.88541107E-16
  -1.50000000      -5.11981283E-16
  -1.37500000      -6.64441337E-16
  -1.25000000      -8.73045329E-16
  -1.12500000      -1.18884166E-15
  -1.00000000      -1.69450243E-15
 -0.875000000      -2.50805439E-15
 -0.750000000      -3.77688561E-15
 -0.625000000      -5.65594307E-15
 -0.500000000      -8.26735581E-15
 -0.375000000      -1.16466124E-14
 -0.250000000      -1.56915852E-14
 -0.125000000      -2.01407342E-14
   0.00000000      -2.46105338E-14
  0.125000000      -2.87131599E-14
  0.250000000      -3.22521449E-14
  0.375000000      -3.54584153E-14
  0.500000000      -3.91926990E-14
  0.625000000      -4.50155626E-14
  0.750000000      -5.50295588E-14
  0.875000000      -7.14352554E-14
   1.00000000      -9.58121454E-14
   1.12500000      -1.28220744E-13
   1.25000000      -1.66295214E-13
   1.37500000      -2.04531677E-13
   1.50000000      -2.33953021E-13
   1.62500000      -2.42244999E-13
   1.75000000      -2.14325153E-13
   1.87500000      -1.33164299E-13
   2.00000000       1.94371090E-14
   2.12500000       2.62456045E-13
   2.25000000       6.15945012E-13
   2.37500000       1.10221001E-12
   2.50000000       1.74789892E-12
   2.62500000       2.58687386E-12
   2.75000000       3.66361759E-12
   2.87500000       5.03688497E-12
   3.00000000       6.78333041E-12
   3.12500000       9.00086949E-12
   3.25000000       1.18115856E-11
   3.37500000       1.53639150E-11
   3.50000000       1.98337596E-11
   3.62500000       2.54239806E-11
   3.75000000       3.23614677E-11
   3.87500000       4.08909989E-11
   4.00000000       5.12649923E-11
   4.12500000       6.37287098E-11
   4.25000000       7.85008031E-11
   4.37500000       9.57498178E-11
   4.50000000       1.15568131E-10
   4.62500000       1.37945003E-10
   4.75000000       1.62741182E-10
   4.87500000       1.89667365E-10
   5.00000000       2.18267834E-10
   5.12500000       2.47910720E-10
   5.25000000       2.77783851E-10
   5.37500000       3.06895703E-10
   5.50000000       3.34077321E-10
   5.62500000       3.57983559E-10
   5.75000000       3.77089082E-10
   5.87500000       3.89676375E-10
   6.00000000       3.93815175E-10
   6.12500000       3.87333804E-10
   6.25000000       3.67786052E-10
   6.37500000       3.32421146E-10
   6.50000000       2.78166268E-10
   6.62500000       2.01632946E-10
   6.75000000       9.91619842E-11
   6.87500000      -3.30816589E-11
   7.00000000      -1.98952757E-10
   7.12500000      -4.02102462E-10
   7.25000000      -6.45686560E-10
   7.37500000      -9.32010247E-10
   7.50000000      -1.26212363E-09
   7.62500000      -1.63538738E-09
   7.75000000      -2.04903761E-09
   7.87500000      -2.49778354E-09
   8.00000000      -2.97347902E-09
   8.12500000      -3.46491169E-09
   8.25000000      -3.95775501E-09
   8.37500000      -4.43473303E-09
   8.50000000      -4.87603824E-09
   8.62500000      -5.26004040E-09
   8.75000000      -5.56430457E-09
   8.87500000      -5.76692738E-09
   9.00000000      -5.84814774E-09
   9.12500000      -5.79218629E-09
   9.25000000      -5.58918867E-09
   9.37500000      -5.23713117E-09
   9.50000000      -4.74346873E-09
   9.62500000      -4.12631485E-09
   9.75000000      -3.41486883E-09
   9.87500000      -2.64885580E-09
   10.0000000      -1.87675031E-09
   10.1250000      -1.15263388E-09
   10.2500000      -5.31651612E-10
   10.3750000      -6.41507750E-11
   10.5000000       2.11239859E-10
   10.6250000       2.75174494E-10
   10.7500000       1.35230896E-10
   10.8750000      -1.67062017E-10
   11.0000000      -5.50588075E-10
   11.1250000      -8.91176521E-10
   11.2500000      -1.02100761E-09
   11.3750000      -7.31494643E-10
   11.5000000       2.19977536E-10
   11.6250000       2.09937623E-09
   11.7500000       5.18156806E-09
   11.8750000       9.73269731E-09
   12.0000000       1.59902704E-08
   12.1250000       2.41422100E-08
   12.2500000       3.43065878E-08
   12.3750000       4.65138577E-08
   12.5000000       6.06939352E-08
   12.6250000       7.66704247E-08
   12.7500000       9.41646832E-08
   12.8750000       1.12812323E-07
   13.0000000       1.32194401E-07
   13.1250000       1.51885999E-07
   13.2500000       1.71523524E-07
   13.3750000       1.90892194E-07
   13.5000000       2.10033974E-07
   13.6250000       2.29375090E-07
   13.7500000       2.49871789E-07
   13.8750000       2.73170798E-07
   14.0000000       3.01780574E-07
   14.1250000       3.39247975E-07
   14.2500000       3.90333611E-07
   14.3750000       4.61179582E-07
   14.5000000       5.59462137E-07
   14.6250000       6.94520224E-07
   14.7500000       8.77456046E-07
   14.8750000       1.12119869E-06
   15.0000000       1.44052603E-06
   15.1250000       1.85204169E-06
   15.2500000       2.37410495E-06
   15.3750000       3.02670855E-06
   15.5000000       3.83131191E-06
   15.6250000       4.81062352E-06
   15.7500000       5.98834049E-06
   15.8750000       7.38884955E-06
   16.0000000       9.03688669E-06
   16.1250000       1.09571765E-05
   16.2500000       1.31740371E-05
   16.3750000       1.57109698E-05
   16.5000000       1.85902481E-05
   16.6250000       2.18324894E-05
   16.7500000       2.54562510E-05
   16.8750000       2.94776146E-05
   17.0000000       3.39098151E-05
   17.1250000       3.87628897E-05
   17.2500000       4.40433760E-05
   17.3750000       4.97540277E-05
   17.5000000       5.58936481E-05
   17.6250000       6.24569366E-05
   17.7500000       6.94344344E-05
   17.8750000       7.68125174E-05
   18.0000000       8.45735412E-05
   18.1250000       9.26959765E-05
   18.2500000       1.01154728E-04
   18.3750000       1.09921471E-04
   18.5000000       1.18965094E-04
   18.6250000       1.28252213E-04
   18.7500000       1.37747717E-04
   18.8750000       1.47415427E-04
   19.0000000       1.57218718E-04
   19.1250000       1.67121194E-04
   19.2500000       1.77087466E-04
   19.3750000       1.87083599E-04
   19.5000000       1.97077985E-04
   19.6250000       2.07041739E-04
   19.7500000       2.16949295E-04
   19.8750000       2.26778808E-04
   20.0000000       2.36512496E-04
   20.1250000       2.46136799E-04
   20.2500000       2.55642604E-04
   20.3750000       2.65025068E-04
   20.5000000       2.74283608E-04
   20.6250000       2.83421599E-04
   20.7500000       2.92446086E-04
   20.8750000       3.01367225E-04
   21.0000000       3.10197793E-04
   21.1250000       3.18952632E-04
   21.2500000       3.27647896E-04
   21.3750000       3.36300465E-04
   21.5000000       3.44927277E-04
   21.6250000       3.53544543E-04
   21.7500000       3.62167222E-04
   21.8750000       3.70808499E-04
   22.0000000       3.79479228E-04
   22.1250000       3.88187560E-04
   22.2500000       3.96938849E-04
   22.3750000       4.05735249E-04
   22.5000000       4.14575887E-04
   22.6250000       4.23456979E-04
   22.7500000       4.32372093E-04
   22.8750000       4.41312528E-04
   23.0000000       4.50267718E-04
   23.1250000       4.59225994E-04
   23.2500000       4.68175247E-04
   23.3750000       4.77103487E-04
   23.5000000       4.85999888E-04
   23.6250000       4.94855281E-04
   23.7500000       5.03663090E-04
   23.8750000       5.12419909E-04
   24.0000000       5.21126145E-04
   24.1250000       5.29786572E-04
   24.2500000       5.38410677E-04
   24.3750000       5.47012489E-04
   24.5000000       5.55611448E-04
   24.6250000       5.64231479E-04
   24.7500000       5.72900928E-04
   24.8750000       5.81652392E-04
   25.0000000       5.90521551E-04
   25.1250000       5.99546533E-04
   25.2500000       6.08767150E-04
   25.3750000       6.18223392E-04
   25.5000000       6.27954432E-04
   25.6250000       6.37997349E-04
   25.7500000       6.48385438E-04
   25.8750000       6.59147219E-04
   26.0000000       6.70304580E-04
   26.1250000       6.81871432E-04
   26.2500000       6.93852431E-04
   26.3750000       7.06241350E-04
   26.5000000       7.19019969E-04
   26.6250000       7.32156564E-04
   26.7500000       7.45604921E-04
   26.8750000       7.59303221E-04
   27.0000000       7.73173233E-04
   27.1250000       7.87119498E-04
   27.2500000       8.01028858E-04
   27.3750000       8.14770290E-04
   27.5000000       8.28194839E-04
   27.6250000       8.41135858E-04
   27.7500000       8.53409641E-04
   27.8750000       8.64816539E-04
   28.0000000       8.75142112E-04
   28.1250000       8.84158828E-04
   28.2500000       8.91628093E-04
   28.3750000       8.97302642E-04
   28.5000000       9.00929212E-04
   28.6250000       9.02251457E-04
   28.7500000       9.01013380E-04
   28.8750000       8.96962651E-04
   29.0000000       8.89854273E-04
   29.1250000       8.79454135E-04
   29.2500000       8.65542970E-04
   29.3750000       8.47920019E-04
   29.5000000       8.26406409E-04
   29.6250000       8.00848997E-04
   29.7500000       7.71123392E-04
   29.8750000       7.37136928E-04
   30.0000000       6.98831689E-04
   30.1250000       6.56186487E-04
   30.2500000       6.09218783E-04
   30.3750000       5.57986437E-04
   30.5000000       5.02588460E-04
   30.6250000       4.43165627E-04
   30.7500000       3.79900244E-04
   30.8750000       3.13015829E-04
   31.0000000       2.42775670E-04
   31.1250000       1.69481224E-04
   31.2500000       9.34699419E-05
   31.3750000       1.51124450E-05
   31.5000000      -6.51907612E-05
   31.6250000      -1.47012935E-04
   31.7500000      -2.29905330E-04
   31.8750000      -3.13401455E-04
   32.0000000      -3.97021824E-04
   32.1250000      -4.80278948E-04
   32.2500000      -5.62682399E-04
   32.3750000      -6.43743435E-04
   32.5000000      -7.22980534E-04
   32.6250000      -7.99923961E-04
   32.7500000      -8.74120276E-04
   32.8750000      -9.45137057E-04
   33.0000000      -1.01256662E-03
   33.1250000      -1.07602973E-03
   33.2500000      -1.13517931E-03
   33.3750000      -1.18970231E-03
   33.5000000      -1.23932282E-03
   33.6250000      -1.28380384E-03
   33.7500000      -1.32294802E-03
   33.8750000      -1.35659927E-03
   34.0000000      -1.38464302E-03
   34.1250000      -1.40700571E-03
   34.2500000      -1.42365484E-03
   34.3750000      -1.43459823E-03
   34.5000000      -1.43988233E-03
   34.6250000      -1.43959152E-03
   34.7500000      -1.43384549E-03
   34.8750000      -1.42279768E-03
   35.0000000      -1.40663318E-03
   35.1250000      -1.38556620E-03
   35.2500000      -1.35983713E-03
   35.3750000      -1.32971071E-03
   35.5000000      -1.29547238E-03
   35.6250000      -1.25742587E-03
   35.7500000      -1.21589052E-03
   35.8750000      -1.17119774E-03
   36.0000000      -1.12368853E-03
   36.1250000      -1.07371039E-03
   36.2500000      -1.02161430E-03
   36.3750000      -9.67751723E-04
   36.5000000      -9.12472140E-04
   36.6250000      -8.56119674E-04
   36.7500000      -7.99030589E-04
   36.8750000      -7.41530908E-04
   37.0000000      -6.83933613E-04
   37.1250000      -6.26536785E-04
   37.2500000      -5.69621159E-04
   37.3750000      -5.13448729E-04
   37.5000000      -4.58261231E-04
   37.6250000      -4.04278719E-04
   37.7500000      -3.51699127E-04
   37.8750000      -3.00697633E-04
   38.0000000      -2.51426653E-04
   38.1250000      -2.04015960E-04
   38.2500000      -1.58573515E-04
   38.3750000      -1.15186202E-04
   38.5000000      -7.39211901E-05
   38.6250000      -3.48271642E-05
   38.7500000       2.06390337E-06
   38.8750000       3.67350949E-05
   39.0000000       6.91827518E-05
   39.1250000       9.94147413E-05
   39.2500000       1.27448628E-04
   39.3750000       1.53310059E-04
   39.5000000       1.77031383E-04
   39.6250000       1.98650217E-04
   39.7500000       2.18208530E-04
   39.8750000       2.35751781E-04
   40.0000000       2.51328340E-04
   40.1250000       2.64989270E-04
   40.2500000       2.76788196E-04
   40.3750000       2.86781520E-04
   40.5000000       2.95028556E-04
   40.6250000       3.01592139E-04
   40.7500000       3.06538976E-04
   40.8750000       3.09940195E-04
   41.0000000       3.11871787E-04
   41.1250000       3.12414952E-04
   41.2500000       3.11656302E-04
   41.3750000       3.09687835E-04
   41.5000000       3.06606904E-04
   41.6250000       3.02515633E-04
   41.7500000       2.97520339E-04
   41.8750000       2.91730685E-04
   42.0000000       2.85258691E-04
   42.1250000       2.78217223E-04
   42.2500000       2.70718883E-04
   42.3750000       2.62874266E-04
   42.5000000       2.54790735E-04
   42.6250000       2.46570475E-04
   42.7500000       2.38309440E-04
   42.8750000       2.30095553E-04
   43.0000000       2.22007788E-04
   43.1250000       2.14114960E-04
   43.2500000       2.06474841E-04
   43.3750000       1.99133719E-04
   43.5000000       1.92125939E-04
   43.6250000       1.85473953E-04
   43.7500000       1.79188544E-04
   43.8750000       1.73269305E-04
   44.0000000       1.67705497E-04
   44.1250000       1.62477096E-04
   44.2500000       1.57556075E-04
   44.3750000       1.52907829E-04
   44.5000000       1.48492865E-04
   44.6250000       1.44268575E-04
   44.7500000       1.40191027E-04
   44.8750000       1.36216855E-04
   45.0000000       1.32305082E-04
   45.1250000       1.28418818E-04
   45.2500000       1.24526938E-04
   45.3750000       1.20605437E-04
   45.5000000       1.16638585E-04
   45.6250000       1.12619840E-04
   45.7500000       1.08552347E-04
   45.8750000       1.04449136E-04
   46.0000000       1.00332989E-04
   46.1250000       9.62358899E-05
   46.2500000       9.21981336E-05
   46.3750000       8.82671302E-05
   46.5000000       8.44959213E-05
   46.6250000       8.09414778E-05
   46.7500000       7.76626839E-05
   46.8750000       7.47184240E-05
   47.0000000       7.21654287E-05
   47.1250000       7.00562741E-05
   47.2500000       6.84373808E-05
   47.3750000       6.73472096E-05
   47.5000000       6.68147113E-05
   47.6250000       6.68580033E-05
   47.7500000       6.74833864E-05
   47.8750000       6.86847052E-05
   48.0000000       7.04430422E-05
   48.1250000       7.27268853E-05
   48.2500000       7.54925059E-05
   48.3750000       7.86848905E-05
   48.5000000       8.22387810E-05
   48.6250000       8.60802320E-05
   48.7500000       9.01282183E-05
   48.8750000       9.42965416E-05
   49.0000000       9.84958315E-05
   49.1250000       1.02635633E-04
   49.2500000       1.06626489E-04
   49.3750000       1.10381938E-04
   49.5000000       1.13820461E-04
   49.6250000       1.16867232E-04
   49.7500000       1.19455624E-04
   49.8750000       1.21528523E-04
   50.0000000       1.23039310E-04
   50.1250000       1.23952632E-04
   50.2500000       1.24244703E-04
   50.3750000       1.23903548E-04
   50.5000000       1.22928715E-04
   50.6250000       1.21330828E-04
   50.7500000       1.19130964E-04
   50.8750000       1.16359726E-04
   51.0000000       1.13056194E-04
   51.1250000       1.09266708E-04
   51.2500000       1.05043757E-04
   51.3750000       1.00444566E-04
   51.5000000       9.55299693E-05
   51.6250000       9.03631735E-05
   51.7500000       8.50086144E-05
   51.8750000       7.95309825E-05
   52.0000000       7.39943061E-05
   52.1250000       6.84612023E-05
   52.2500000       6.29921924E-05
   52.3750000       5.76451930E-05
   52.5000000       5.24751085E-05
   52.6250000       4.75334964E-05
   52.7500000       4.28682579E-05
   52.8750000       3.85234744E-05
   53.0000000       3.45392073E-05
   53.1250000       3.09513380E-05
   53.2500000       2.77913932E-05
   53.3750000       2.50862868E-05
   53.5000000       2.28581921E-05
   53.6250000       2.11242150E-05
   53.7500000       1.98961425E-05
   53.8750000       1.91801500E-05
   54.0000000       1.89764942E-05
   54.1250000       1.92792177E-05
   54.2500000       2.00758859E-05
   54.3750000       2.13473413E-05
   54.5000000       2.30676196E-05
   54.6250000       2.52038644E-05
   54.7500000       2.77164072E-05
   54.8750000       3.05590183E-05
   55.0000000       3.36792764E-05
   55.1250000       3.70191410E-05
   55.2500000       4.05157080E-05
   55.3750000       4.41021220E-05
   55.5000000       4.77087015E-05
   55.6250000       5.12642073E-05
   55.7500000       5.46971896E-05
   55.8750000       5.79375373E-05
   56.0000000       6.09180024E-05
   56.1250000       6.35757533E-05
   56.2500000       6.58539211E-05
   56.3750000       6.77031203E-05
   56.5000000       6.90827073E-05
   56.6250000       6.99620214E-05
   56.7500000       7.03213955E-05
   56.8750000       7.01528988E-05
   57.0000000       6.94608607E-05
   57.1250000       6.82621176E-05
   57.2500000       6.65859770E-05
   57.3750000       6.44738757E-05
   57.5000000       6.19787461E-05
   57.6250000       5.91641547E-05
   57.7500000       5.61031775E-05
   57.8750000       5.28769015E-05
   58.0000000       4.95728964E-05
   58.1250000       4.62833705E-05
   58.2500000       4.31032277E-05
   58.3750000       4.01279576E-05
   58.5000000       3.74514566E-05
   58.6250000       3.51638664E-05
   58.7500000       3.33493408E-05
   58.8750000       3.20839390E-05
   59.0000000       3.14335812E-05
   59.1250000       3.14522003E-05
   59.2500000       3.21801635E-05
   59.3750000       3.36428311E-05
   59.5000000       3.58496072E-05
   59.6250000       3.87932196E-05
   59.7500000       4.24494392E-05
   59.8750000       4.67771824E-05
   60.0000000       5.17190347E-05
   60.1250000       5.72022254E-05
   60.2500000       6.31398580E-05
   60.3750000       6.94327100E-05
   60.5000000       7.59711547E-05
   60.6250000       8.26374308E-05
   60.7500000       8.93081087E-05
   60.8750000       9.58566452E-05
   61.0000000       1.02156038E-04
   61.1250000       1.08081411E-04
   61.2500000       1.13512528E-04
   61.3750000       1.18336124E-04
   61.5000000       1.22448066E-04
   61.6250000       1.25755207E-04
   61.7500000       1.28176995E-04
   61.8750000       1.29646636E-04
   62.0000000       1.30112152E-04
   62.1250000       1.29536784E-04
   62.2500000       1.27899373E-04
   62.3750000       1.25194187E-04
   62.5000000       1.21430596E-04
   62.6250000       1.16632502E-04
   62.7500000       1.10837515E-04
   62.8750000       1.04095998E-04
   63.0000000       9.64699939E-05
   63.1250000       8.80321095E-05
   63.2500000       7.88643156E-05
   63.3750000       6.90567467E-05
   63.5000000       5.87065988E-05
   63.6250000       4.79169139E-05
   63.7500000       3.67955763E-05
   63.8750000       2.54542520E-05
   64.0000000       1.40074435E-05
   64.1250000       2.57158376E-06
   64.2500000      -8.73584486E-06
   64.3750000      -1.97971494E-05
   64.5000000      -3.04952628E-05
   64.6250000      -4.07145708E-05
   64.7500000      -5.03418305E-05
   64.8750000      -5.92670694E-05
   65.0000000      -6.73845498E-05
   65.1250000      -7.45938160E-05
   65.2500000      -8.08007753E-05
   65.3750000      -8.59188440E-05
   65.5000000      -8.98701910E-05
   65.6250000      -9.25868808E-05
   65.7500000      -9.40121827E-05
   65.8750000      -9.41017424E-05
   66.0000000      -9.28247682E-05
   66.1250000      -9.01650856E-05
   66.2500000      -8.61220979E-05
   66.3750000      -8.07115866E-05
   66.5000000      -7.39662428E-05
   66.6250000      -6.59360448E-05
   66.7500000      -5.66883282E-05
   66.8750000      -4.63075448E-05
   67.0000000      -3.48947506E-05
   67.1250000      -2.25667536E-05
   67.2500000      -9.45488500E-06
   67.3750000       4.29645024E-06
   67.5000000       1.85316476E-05
   67.6250000       3.30860239E-05
   67.7500000       4.77882240E-05
   67.8750000       6.24628738E-05
   68.0000000       7.69334220E-05
   68.1250000       9.10250819E-05
   68.2500000       1.04567916E-04
   68.3750000       1.17399824E-04
   68.5000000       1.29369524E-04
   68.6250000       1.40339354E-04
   68.7500000       1.50187858E-04
   68.8750000       1.58812007E-04
   69.0000000       1.66129073E-04
   69.1250000       1.72078144E-04
   69.2500000       1.76620932E-04
   69.3750000       1.79742303E-04
   69.5000000       1.81450145E-04
   69.6250000       1.81774638E-04
   69.7500000       1.80767151E-04
   69.8750000       1.78498507E-04
   70.0000000       1.75056877E-04
   70.1250000       1.70545332E-04
   70.2500000       1.65078993E-04
   70.3750000       1.58782103E-04
   70.5000000       1.51784916E-04
   70.6250000       1.44220641E-04
   70.7500000       1.36222341E-04
   70.8750000       1.27920110E-04
   71.0000000       1.19438460E-04
   71.1250000       1.10894005E-04
   71.2500000       1.02393504E-04
   71.3750000       9.40323298E-05
   71.5000000       8.58932981E-05
   71.6250000       7.80460250E-05
   71.7500000       7.05465573E-05
   71.8750000       6.34375465E-05
   72.0000000       5.67486604E-05
   72.1250000       5.04974050E-05
   72.2500000       4.46901540E-05
   72.3750000       3.93234659E-05
   72.5000000       3.43854881E-05
   72.6250000       2.98574869E-05
   72.7500000       2.57154479E-05
   72.8750000       2.19315953E-05
   73.0000000       1.84759047E-05
   73.1250000       1.53174751E-05
   73.2500000       1.24257194E-05
   73.3750000       9.77144737E-06
   73.5000000       7.32769786E-06
   73.6250000       5.07037157E-06
   73.7500000       2.97871156E-06
   73.8750000       1.03553009E-06
   74.0000000      -7.72696353E-07
   74.1250000      -2.45591264E-06
   74.2500000      -4.02062233E-06
   74.3750000      -5.47021364E-06
   74.5000000      -6.80528365E-06
   74.6250000      -8.02400154E-06
   74.7500000      -9.12252381E-06
   74.8750000      -1.00953248E-05
   75.0000000      -1.09355897E-05
   75.1250000      -1.16354877E-05
   75.2500000      -1.21864650E-05
   75.3750000      -1.25794395E-05
   75.5000000      -1.28049787E-05
   75.6250000      -1.28534512E-05
   75.7500000      -1.27151106E-05
   75.8750000      -1.23802056E-05
   76.0000000      -1.18390890E-05
   76.1250000      -1.10823303E-05
   76.2500000      -1.01008663E-05
   76.3750000      -8.88616887E-06
   76.5000000      -7.43044848E-06
   76.6250000      -5.72692898E-06
   76.7500000      -3.77012748E-06
   76.8750000      -1.55617295E-06
   77.0000000       9.16860586E-07
   77.1250000       3.64862012E-06
   77.2500000       6.63612263E-06
   77.3750000       9.87343810E-06
   77.5000000       1.33514186E-05
   77.6250000       1.70574676E-05
   77.7500000       2.09753671E-05
   77.8750000       2.50852008E-05
   78.0000000       2.93633930E-05
   78.1250000       3.37827805E-05
   78.2500000       3.83128536E-05
   78.3750000       4.29200809E-05
   78.5000000       4.75682900E-05
   78.6250000       5.22192277E-05
   78.7500000       5.68331270E-05
   78.8750000       6.13693483E-05
   79.0000000       6.57870260E-05
   79.1250000       7.00458259E-05
   79.2500000       7.41066033E-05
   79.3750000       7.79321126E-05
   79.5000000       8.14876112E-05
   79.6250000       8.47414340E-05
   79.7500000       8.76654813E-05
   79.8750000       9.02356551E-05
   80.0000000       9.24321139E-05
   80.1250000       9.42395345E-05
   80.2500000       9.56471995E-05
   80.3750000       9.66490552E-05
   80.5000000       9.72435955E-05
   80.6250000       9.74337891E-05
   80.7500000       9.72267953E-05
   80.8750000       9.66337393E-05
   81.0000000       9.56694057E-05
   81.1250000       9.43518389E-05
   81.2500000       9.27019864E-05
   81.3750000       9.07433059E-05
   81.5000000       8.85014088E-05
   81.6250000       8.60036598E-05
   81.7500000       8.32788719E-05
   81.8750000       8.03570147E-05
   82.0000000       7.72689455E-05
   82.1250000       7.40462128E-05
   82.2500000       7.07209038E-05
   82.3750000       6.73255126E-05
   82.5000000       6.38928177E-05
   82.6250000       6.04558518E-05
   82.7500000       5.70477241E-05
   82.8750000       5.37015876E-05
   83.0000000       5.04504824E-05
   83.1250000       4.73271502E-05
   83.2500000       4.43637691E-05
   83.3750000       4.15916293E-05
   83.5000000       3.90407622E-05
   83.6250000       3.67394350E-05
   83.7500000       3.47135392E-05
   83.8750000       3.29859868E-05
   84.0000000       3.15759789E-05
   84.1250000       3.04982823E-05
   84.2500000       2.97625211E-05
   84.3750000       2.93724515E-05
   84.5000000       2.93253706E-05
   84.6250000       2.96116450E-05
   84.7500000       3.02144017E-05
   84.8750000       3.11094409E-05
   85.0000000       3.22653868E-05
   85.1250000       3.36440462E-05
   85.2500000       3.52011011E-05
   85.3750000       3.68869842E-05
   85.5000000       3.86480024E-05
   85.6250000       4.04276470E-05
   85.7500000       4.21680561E-05
   85.8750000       4.38115312E-05
   86.0000000       4.53021348E-05
   86.1250000       4.65871926E-05
   86.2500000       4.76187670E-05
   86.3750000       4.83549120E-05
   86.5000000       4.87608340E-05
   86.6250000       4.88096630E-05
   86.7500000       4.84830962E-05
   86.8750000       4.77716421E-05
   87.0000000       4.66746933E-05
   87.1250000       4.52002387E-05
   87.2500000       4.33643436E-05
   87.3750000       4.11904439E-05
   87.5000000       3.87084074E-05
   87.6250000       3.59535079E-05
   87.7500000       3.29653012E-05
   87.8750000       2.97864808E-05
   88.0000000       2.64617520E-05
   88.1250000       2.30367641E-05
   88.2500000       1.95571483E-05
   88.3750000       1.60676645E-05
   88.5000000       1.26115083E-05
   88.6250000       9.22978506E-06
   88.7500000       5.96108566E-06
   88.8750000       2.84125213E-06
   89.0000000      -9.67243636E-08
   89.1250000      -2.82277574E-06
   89.2500000      -5.30966736E-06
   89.3750000      -7.53286758E-06
   89.5000000      -9.47040189E-06
   89.6250000      -1.11026256E-05
   89.7500000      -1.24120870E-05
   89.8750000      -1.33833155E-05
   90.0000000      -1.40027123E-05
   90.1250000      -1.42584804E-05
   90.2500000      -1.41405490E-05
   90.3750000      -1.36406579E-05
   90.5000000      -1.27524991E-05
   90.6250000      -1.14718760E-05
   90.7500000      -9.79701053E-06
   90.8750000      -7.72883686E-06
   91.0000000      -5.27140173E-06
   91.1250000      -2.43223076E-06
   91.2500000       7.77314767E-07
   91.3750000       4.34168442E-06
   91.5000000       8.24087874E-06
   91.6250000       1.24503513E-05
   91.7500000       1.69409359E-05
   91.8750000       2.16789977E-05
   92.0000000       2.66266852E-05
   92.1250000       3.17423946E-05
   92.2500000       3.69813279E-05
   92.3750000       4.22962185E-05
   92.5000000       4.76381610E-05
   92.6250000       5.29575191E-05
   92.7500000       5.82048488E-05
   92.8750000       6.33318850E-05
   93.0000000       6.82923855E-05
   93.1250000       7.30430183E-05
   93.2500000       7.75440640E-05
   93.3750000       8.17599794E-05
   93.5000000       8.56598053E-05
   93.6250000       8.92174066E-05
   93.7500000       9.24115448E-05
   93.8750000       9.52257687E-05
   94.0000000       9.76481970E-05
   94.1250000       9.96711460E-05
   94.2500000       1.01290680E-04
   94.3750000       1.02506106E-04
   94.5000000       1.03319508E-04
   94.6250000       1.03735190E-04
   94.7500000       1.03759317E-04
   94.8750000       1.03399543E-04
   95.0000000       1.02664730E-04
   95.1250000       1.01564896E-04
   95.2500000       1.00111181E-04
   95.3750000       9.83159698E-05
   95.5000000       9.61931582E-05
   95.6250000       9.37584919E-05
   95.7500000       9.10299932E-05
   95.8750000       8.80283769E-05
   96.0000000       8.47775300E-05
   96.1250000       8.13049483E-05
   96.2500000       7.76420784E-05
   96.3750000       7.38245799E-05
   96.5000000       6.98924341E-05
   96.6250000       6.58898862E-05
   96.7500000       6.18651975E-05
   96.8750000       5.78701110E-05
   97.0000000       5.39592111E-05
   97.1250000       5.01890208E-05
   97.2500000       4.66167839E-05
   97.3750000       4.32992674E-05
   97.5000000       4.02912228E-05
   97.6250000       3.76439093E-05
   97.7500000       3.54035255E-05
   97.8750000       3.36096491E-05
   98.0000000       3.22938176E-05
   98.1250000       3.14782119E-05
   98.2500000       3.11745825E-05
   98.3750000       3.13834171E-05
   98.5000000       3.20934487E-05
   98.6250000       3.32814634E-05
   98.7500000       3.49124603E-05
   98.8750000       3.69401896E-05
   99.0000000       3.93080118E-05
   99.1250000       4.19501048E-05
   99.2500000       4.47929633E-05
   99.3750000       4.77570720E-05
   99.5000000       5.07589139E-05
   99.6250000       5.37129563E-05
   99.7500000       5.65337905E-05
   99.8750000       5.91382450E-05
   100.000000       6.14474848E-05
   100.125000       6.33889504E-05
   100.250000       6.48981368E-05
   100.375000       6.59202342E-05
   100.500000       6.64114050E-05
   100.625000       6.63399478E-05
   100.750000       6.56869961E-05
   100.875000       6.44471002E-05
   101.000000       6.26283072E-05
   101.125000       6.02520922E-05
   101.250000       5.73528596E-05
   101.375000       5.39772263E-05
   101.500000       5.01829963E-05
   101.625000       4.60378942E-05
   101.750000       4.16180919E-05
   101.875000       3.70064881E-05
   102.000000       3.22909436E-05
   102.125000       2.75623515E-05
   102.250000       2.29126836E-05
   102.375000       1.84330092E-05
   102.500000       1.42115787E-05