  -4.50000000       0.00000000    
  -4.37500000       0.00000000    
  -4.25000000       0.00000000    
  -4.12500000       0.00000000    
  -4.00000000       0.00000000    
  -3.87500000       0.00000000    
  -3.75000000       0.00000000    
  -3.62500000       0.00000000    
  -3.50000000       0.00000000    
  -3.37500000       0.00000000    
  -3.25000000       0.00000000    
  -3.12500000       0.00000000    
  -3.00000000       0.00000000    
  -2.87500000       0.00000000    
  -2.75000000       0.00000000    
  -2.62500000       0.00000000    
  -2.50000000       0.00000000    
  -2.37500000       0.00000000    
  -2.25000000       0.00000000    
  -2.12500000       0.00000000    
  -2.00000000       0.00000000    
  -1.87500000       0.00000000    
  -1.75000000       0.00000000    
  -1.62500000       0.00000000    
  -1.50000000       0.00000000    
  -1.37500000       0.00000000    
  -1.25000000       0.00000000    
  -1.12500000       0.00000000    
  -1.00000000       0.00000000    
 -0.875000000       0.00000000    
 -0.750000000       0.00000000    
 -0.625000000       0.00000000    
 -0.500000000       0.00000000    
 -0.375000000       0.00000000    
 -0.250000000       0.00000000    
 -0.125000000       0.00000000    
   0.00000000       0.00000000    
  0.125000000       0.00000000    
  0.250000000       0.00000000    
  0.375000000       0.00000000    
  0.500000000       0.00000000    
  0.625000000       0.00000000    
  0.750000000       0.00000000    
  0.875000000       0.00000000    
   1.00000000       0.00000000    
   1.12500000       0.00000000    
   1.25000000       0.00000000    
   1.37500000       0.00000000    
   1.50000000       0.00000000    
   1.62500000       0.00000000    
   1.75000000       0.00000000    
   1.87500000       0.00000000    
   2.00000000       0.00000000    
   2.12500000       0.00000000    
   2.25000000       0.00000000    
   2.37500000       0.00000000    
   2.50000000       0.00000000    
   2.62500000       0.00000000    
   2.75000000       0.00000000    
   2.87500000       0.00000000    
   3.00000000       0.00000000    
   3.12500000       0.00000000    
   3.25000000       0.00000000    
   3.37500000       0.00000000    
   3.50000000       0.00000000    
   3.62500000       0.00000000    
   3.75000000       0.00000000    
   3.87500000       0.00000000    
   4.00000000       0.00000000    
   4.12500000       0.00000000    
   4.25000000       0.00000000    
   4.37500000       0.00000000    
   4.50000000       0.00000000    
   4.62500000       0.00000000    
   4.75000000       0.00000000    
   4.87500000       0.00000000    
   5.00000000       0.00000000    
   5.12500000       0.00000000    
   5.25000000       0.00000000    
   5.37500000       0.00000000    
   5.50000000       0.00000000    
   5.62500000       0.00000000    
   5.75000000       0.00000000    
   5.87500000       0.00000000    
   6.00000000       0.00000000    
   6.12500000       0.00000000    
   6.25000000       0.00000000    
   6.37500000       0.00000000    
   6.50000000       0.00000000    
   6.62500000       0.00000000    
   6.75000000       0.00000000    
   6.87500000       0.00000000    
   7.00000000       0.00000000    
   7.12500000       0.00000000    
   7.25000000       0.00000000    
   7.37500000       0.00000000    
   7.50000000       0.00000000    
   7.62500000       0.00000000    
   7.75000000       0.00000000    
   7.87500000       0.00000000    
   8.00000000       0.00000000    
   8.12500000       0.00000000    
   8.25000000       0.00000000    
   8.37500000       0.00000000    
   8.50000000       0.00000000    
   8.62500000       0.00000000    
   8.75000000       0.00000000    
   8.87500000       0.00000000    
   9.00000000       0.00000000    
   9.12500000       0.00000000    
   9.25000000       0.00000000    
   9.37500000       2.45856414E-40
   9.50000000       5.30761412E-40
   9.62500000       6.71940831E-40
   9.75000000       3.43019647E-40
   9.87500000       6.14470778E-40
   10.0000000       1.33056372E-39
   10.1250000       1.73378035E-39
   10.2500000       2.86429190E-39
   10.3750000       4.59397625E-39
   10.5000000       6.07430654E-39
   10.6250000       6.71540199E-39
   10.7500000       5.70176434E-39
   10.8750000       3.10722240E-39
   11.0000000       1.33885240E-39
   11.1250000      -7.30892336E-38
   11.2500000       3.91855908E-38
   11.3750000      -3.82787236E-38
   11.5000000      -4.19729332E-38
   11.6250000      -4.39391399E-38
   11.7500000      -3.05222536E-37
   11.8750000      -8.26611391E-37
   12.0000000      -1.34894470E-36
   12.1250000      -1.86597782E-36
   12.2500000      -2.18536482E-36
   12.3750000      -2.63426551E-36
   12.5000000      -3.14434551E-36
   12.6250000      -3.51209609E-36
   12.7500000      -3.48603382E-36
   12.8750000      -3.25811139E-36
   13.0000000      -3.27045860E-36
   13.1250000      -3.33933558E-36
   13.2500000      -3.29948615E-36
   13.3750000      -3.34945004E-36
   13.5000000      -3.87527750E-36
   13.6250000      -3.52233324E-36
   13.7500000      -3.02299530E-36
   13.8750000      -2.47823521E-36
   14.0000000      -1.05341475E-36
   14.1250000      -5.51799498E-37
   14.2500000      -6.30406153E-37
   14.3750000      -2.47452717E-37
   14.5000000      -1.42997571E-36
   14.6250000      -1.94510827E-36
   14.7500000      -1.19006283E-36
   14.8750000       1.97489957E-36
   15.0000000       7.92107198E-36
   15.1250000       1.58863986E-35
   15.2500000       2.60640732E-35
   15.3750000       3.67435198E-35
   15.5000000       4.66077283E-35
   15.6250000       5.35714561E-35
   15.7500000       5.62629593E-35
   15.8750000       5.14417220E-35
   16.0000000       3.60454409E-35
   16.1250000       8.88689370E-36
   16.2500000      -3.23908846E-35
   16.3750000      -8.93496298E-35
   16.5000000      -1.64028114E-34
   16.6250000      -2.56681957E-34
   16.7500000      -3.65724027E-34
   16.8750000      -4.87058600E-34
   17.0000000      -6.13689831E-34
   17.1250000      -7.35224834E-34
   17.2500000      -8.40485532E-34
   17.3750000      -9.14939599E-34
   17.5000000      -9.43321911E-34
   17.6250000      -9.10197123E-34
   17.7500000      -7.97626182E-34
   17.8750000      -5.90163459E-34
   18.0000000      -2.73637521E-34
   18.1250000       1.66239628E-34
   18.2500000       7.43083933E-34
   18.3750000       1.46845620E-33
   18.5000000       2.35466635E-33
   18.6250000       3.41245275E-33
   18.7500000       4.65950275E-33
   18.8750000       6.11295890E-33
   19.0000000       7.78840386E-33
   19.1250000       9.70204915E-33
   19.2500000       1.18593847E-32
   19.3750000       1.42422543E-32
   19.5000000       1.67938205E-32
   19.6250000       1.93926299E-32
   19.7500000       2.18191118E-32
   19.8750000       2.37224884E-32
   20.0000000       2.45799307E-32
   20.1250000       2.36586444E-32
   20.2500000       1.99898119E-32
   20.3750000       1.23558739E-32
   20.5000000      -6.93769281E-34
   20.6250000      -2.07869881E-32
   20.7500000      -4.96209550E-32
   20.8750000      -8.87975603E-32
   21.0000000      -1.39580844E-31
   21.1250000      -2.02586577E-31
   21.2500000      -2.77390970E-31
   21.3750000      -3.62085973E-31
   21.5000000      -4.52791866E-31
   21.6250000      -5.43167446E-31
   21.7500000      -6.23972385E-31
   21.8750000      -6.82734313E-31
   22.0000000      -7.03610011E-31
   22.1250000      -6.67518855E-31
   22.2500000      -5.52637651E-31
   22.3750000      -3.35349072E-31
   22.5000000       8.28390338E-33
   22.6250000       5.00457692E-31
   22.7500000       1.15897461E-30
   22.8750000       1.99399577E-30
   23.0000000       3.00430157E-30
   23.1250000       4.17318550E-30
   23.2500000       5.46420518E-30
   23.3750000       6.81707128E-30
   23.5000000       8.14401821E-30
   23.6250000       9.32710343E-30
   23.7500000       1.02168861E-29
   23.8750000       1.06329659E-29
   24.0000000       1.03669288E-29
   24.1250000       9.18813555E-30
   24.2500000       6.85282362E-30
   24.3750000       3.11687669E-30
   24.5000000      -2.24744909E-30
   24.6250000      -9.43074404E-30
   24.7500000      -1.85616133E-29
   24.8750000      -2.96779003E-29
   25.0000000      -4.26943641E-29
   25.1250000      -5.73675188E-29
   25.2500000      -7.32583186E-29
   25.3750000      -8.96942529E-29
   25.5000000      -1.05732290E-28
   25.6250000      -1.20124921E-28
   25.7500000      -1.31292895E-28
   25.8750000      -1.37307719E-28
   26.0000000      -1.35889837E-28
   26.1250000      -1.24429098E-28
   26.2500000      -1.00034192E-28
   26.3750000      -5.96224036E-29
   26.5000000      -5.83624011E-32
   26.6250000       8.16449370E-29
   26.7500000       1.88053084E-28
   26.8750000       3.20953938E-28
   27.0000000       4.80909185E-28
   27.1250000       6.66713421E-28
   27.2500000       8.74764603E-28
   27.3750000       1.09836295E-27
   27.5000000       1.32696737E-27
   27.6250000       1.54545988E-27
   27.7500000       1.73348139E-27
   27.8750000       1.86494287E-27
   28.0000000       1.90781291E-27
   28.1250000       1.82433329E-27
   28.2500000       1.57181383E-27
   28.3750000       1.10417637E-27
   28.5000000       3.74420233E-28
   28.6250000      -6.61848137E-28
   28.7500000      -2.04169933E-27
   28.8750000      -3.78892936E-27
   29.0000000      -5.90692536E-27
   29.1250000      -8.37049675E-27
   29.2500000      -1.11170215E-26
   29.3750000      -1.40373638E-26
   29.5000000      -1.69673504E-26
   29.6250000      -1.96806544E-26
   29.7500000      -2.18842988E-26
   29.8750000      -2.32180346E-26
   30.0000000      -2.32591740E-26
   30.1250000      -2.15342557E-26
   30.2500000      -1.75391836E-26
   30.3750000      -1.07689582E-26
   30.5000000      -7.58005148E-28
   30.6250000       1.28686841E-26
   30.7500000       3.03339420E-26
   30.8750000       5.16380213E-26
   31.0000000       7.64820924E-26
   31.1250000       1.04189692E-25
   31.2500000       1.33632101E-25
   31.3750000       1.63164526E-25
   31.5000000       1.90581966E-25
   31.6250000       2.13104734E-25
   31.7500000       2.27403775E-25
   31.8750000       2.29677592E-25
   32.0000000       2.15789597E-25
   32.1250000       1.81475294E-25
   32.2500000       1.22624779E-25
   32.3750000       3.56417649E-26
   32.5000000      -8.21246172E-26
   32.6250000      -2.31885984E-25
   32.7500000      -4.12877694E-25
   32.8750000      -6.21806691E-25
   33.0000000      -8.52320328E-25
   33.1250000      -1.09454352E-24
   33.2500000      -1.33473648E-24
   33.3750000      -1.55513741E-24
   33.5000000      -1.73405156E-24
   33.6250000      -1.84625164E-24
   33.7500000      -1.86375587E-24
   33.8750000      -1.75702102E-24
   34.0000000      -1.49659841E-24
   34.1250000      -1.05524632E-24
   34.2500000      -4.10485867E-25
   34.3750000       4.52466111E-25
   34.5000000       1.53748626E-24
   34.6250000       2.83422124E-24
   34.7500000       4.31483249E-24
   34.8750000       5.93108503E-24
   35.0000000       7.61205256E-24
   35.1250000       9.26277004E-24
   35.2500000       1.07641924E-23
   35.3750000       1.19747752E-23
   35.5000000       1.27340231E-23
   35.6250000       1.28682509E-23
   35.7500000       1.21987502E-23
   35.8750000       1.05523959E-23
   36.0000000       7.77464547E-24
   36.1250000       3.74459413E-24
   36.2500000      -1.60833859E-24
   36.3750000      -8.28688205E-24
   36.5000000      -1.62084410E-23
   36.6250000      -2.51888383E-23
   36.7500000      -3.49287509E-23
   36.8750000      -4.50042717E-23
   37.0000000      -5.48632565E-23
   37.1250000      -6.38291024E-23
   37.2500000      -7.11135134E-23
   37.3750000      -7.58394529E-23
   37.5000000      -7.70752950E-23
   37.6250000      -7.38806166E-23
   37.7500000      -6.53633296E-23
   37.8750000      -5.07470749E-23
   38.0000000      -2.94472089E-23
   38.1250000      -1.15226092E-24
   38.2500000       3.40929180E-23
   38.3750000       7.58073305E-23
   38.5000000       1.23002701E-22
   38.6250000       1.74128133E-22
   38.7500000       2.27036491E-22
   38.8750000       2.78980520E-22
   39.0000000       3.26644632E-22
   39.1250000       3.66218389E-22
   39.2500000       3.93516636E-22
   39.3750000       4.04147932E-22
   39.5000000       3.93732443E-22
   39.6250000       3.58165747E-22
   39.7500000       2.93922859E-22
   39.8750000       1.98391790E-22
   40.0000000       7.02229210E-23
   40.1250000      -9.03228255E-23
   40.2500000      -2.81049078E-22
   40.3750000      -4.97546160E-22
   40.5000000      -7.32986733E-22
   40.6250000      -9.78020915E-22
   40.7500000      -1.22079873E-21
   40.8750000      -1.44714188E-21
   41.0000000      -1.64088713E-21
   41.1250000      -1.78441114E-21
   41.2500000      -1.85934551E-21
   41.3750000      -1.84747559E-21
   41.5000000      -1.73180561E-21
   41.6250000      -1.49776105E-21
   41.7500000      -1.13448619E-21
   41.8750000      -6.36177420E-22
   42.0000000      -3.38477337E-24
   42.1250000       7.55800338E-22
   42.2500000       1.62476003E-21
   42.3750000       2.57766160E-21
   42.5000000       3.57915598E-21
   42.6250000       4.58456009E-21
   42.7500000       5.54058741E-21
   42.8750000       6.38669705E-21
   43.0000000       7.05708655E-21
   43.1250000       7.48333740E-21
   43.2500000       7.59767331E-21
   43.3750000       7.33677295E-21
   43.5000000       6.64599031E-21
   43.6250000       5.48385163E-21
   43.7500000       3.82661022E-21
   43.8750000       1.67261261E-21
   44.0000000      -9.53788118E-22
   44.1250000      -3.99906808E-21
   44.2500000      -7.37841067E-21
   44.3750000      -1.09749387E-20
   44.5000000      -1.46405362E-20
   44.6250000      -1.81985066E-20
   44.7500000      -2.14481971E-20
   44.8750000      -2.41716554E-20
   45.0000000      -2.61423356E-20
   45.1250000      -2.71355954E-20
   45.2500000      -2.69408477E-20
   45.3750000      -2.53748397E-20
   45.5000000      -2.22955904E-20
   45.6250000      -1.76162684E-20
   45.7500000      -1.13183810E-20
   45.8750000      -3.46327436E-21
   46.0000000       5.79877278E-21
   46.1250000       1.62227970E-20
   46.2500000       2.74675468E-20
   46.3750000       3.90987241E-20
   46.5000000       5.05975815E-20
   46.6250000       6.13753022E-20
   46.7500000       7.07931283E-20
   46.8750000       7.81880648E-20
   47.0000000       8.29035307E-20
   47.1250000       8.43241229E-20
   47.2500000       8.19130788E-20
   47.3750000       7.52510372E-20
   47.5000000       6.40738174E-20
   47.6250000       4.83076095E-20
   47.7500000       2.80986759E-20
   47.8750000       3.83591357E-21
   48.0000000      -2.38366408E-20
   48.1250000      -5.40187714E-20
   48.2500000      -8.55665223E-20
   48.3750000      -1.17119249E-19
   48.5000000      -1.47141472E-19
   48.6250000      -1.73979683E-19
   48.7500000      -1.95932837E-19
   48.8750000      -2.11334552E-19
   49.0000000      -2.18643998E-19
   49.1250000      -2.16541835E-19
   49.2500000      -2.04026812E-19
   49.3750000      -1.80507418E-19
   49.5000000      -1.45883188E-19
   49.6250000      -1.00610191E-19
   49.7500000      -4.57440281E-20
   49.8750000       1.70433570E-20
   50.0000000       8.54791384E-20
   50.1250000       1.56739120E-19
   50.2500000       2.27534096E-19
   50.3750000       2.94232538E-19
   50.5000000       3.53017318E-19
   50.6250000       4.00072185E-19
   50.7500000       4.31792390E-19
   50.8750000       4.45008952E-19
   51.0000000       4.37216963E-19
   51.1250000       4.06795379E-19
   51.2500000       3.53204519E-19
   51.3750000       2.77146476E-19
   51.5000000       1.80676111E-19
   51.6250000       6.72478580E-20
   51.7500000      -5.83125561E-20
   51.8750000      -1.89918911E-19
   52.0000000      -3.20424256E-19
   52.1250000      -4.41908990E-19
   52.2500000      -5.46052425E-19
   52.3750000      -6.24579265E-19
   52.5000000      -6.69765919E-19
   52.6250000      -6.74980879E-19
   52.7500000      -6.35240486E-19
   52.8750000      -5.47742251E-19
   53.0000000      -4.12348114E-19
   53.1250000      -2.31975487E-19
   53.2500000      -1.28666741E-20
   53.3750000       2.35301400E-19
   53.5000000       4.99494357E-19
   53.6250000       7.63610542E-19
   53.7500000       1.00899377E-18
   53.8750000       1.21517940E-18
   54.0000000       1.36086152E-18
   54.1250000       1.42505570E-18
   54.2500000       1.38843227E-18
   54.3750000       1.23475639E-18
   54.5000000       9.52375225E-19
   54.6250000       5.35679683E-19
   54.7500000      -1.35535369E-20
   54.8750000      -6.85025799E-19
   55.0000000      -1.45909035E-18
   55.1250000      -2.30631521E-18
   55.2500000      -3.18753946E-18
   55.3750000      -4.05447499E-18
   55.5000000      -4.85092584E-18
   55.6250000      -5.51462165E-18
   55.7500000      -5.97970478E-18
   55.8750000      -6.17979398E-18
   56.0000000      -6.05157726E-18
   56.1250000      -5.53880428E-18
   56.2500000      -4.59654671E-18
   56.3750000      -3.19552526E-18
   56.5000000      -1.32628351E-18
   56.6250000       9.97012683E-19
   56.7500000       3.73342096E-18
   56.8750000       6.81296972E-18
   57.0000000       1.01355582E-17
   57.1250000       1.35712322E-17
   57.2500000       1.69620300E-17
   57.3750000       2.01255525E-17
   57.5000000       2.28602844E-17
   57.6250000       2.49527188E-17
   57.7500000       2.61861410E-17
   57.8750000       2.63508972E-17
   58.0000000       2.52558639E-17
   58.1250000       2.27407088E-17
   58.2500000       1.86884635E-17
   58.3750000       1.30378380E-17
   58.5000000       5.79464338E-18
   58.6250000      -2.95833991E-18
   58.7500000      -1.30537761E-17
   58.8750000      -2.42351049E-17
   59.0000000      -3.61554392E-17
   59.1250000      -4.83806029E-17
   59.2500000      -6.03966255E-17
   59.3750000      -7.16221083E-17
   59.5000000      -8.14253566E-17
   59.6250000      -8.91462605E-17
   59.7500000      -9.41224864E-17
   59.8750000      -9.57193155E-17
   60.0000000      -9.33623074E-17
   60.1250000      -8.65715582E-17
   60.2500000      -7.49962905E-17
   60.3750000      -5.84481453E-17
   60.5000000      -3.69316523E-17
   60.6250000      -1.06699442E-17
   60.7500000       1.98758829E-17
   60.8750000       5.39955214E-17
   61.0000000       9.07277372E-17
   61.1250000       1.28869578E-16
   61.2500000       1.66997310E-16
   61.3750000       2.03499626E-16
   61.5000000       2.36623260E-16
   61.6250000       2.64530295E-16
   61.7500000       2.85366194E-16
   61.8750000       2.97336702E-16
   62.0000000       2.98791746E-16
   62.1250000       2.88312730E-16
   62.2500000       2.64800790E-16
   62.3750000       2.27561383E-16
   62.5000000       1.76381998E-16
   62.6250000       1.11598205E-16
   62.7500000       3.41442521E-17
   62.8750000      -5.44156001E-17
   63.0000000      -1.51878831E-16
   63.1250000      -2.55421965E-16
   63.2500000      -3.61645958E-16
   63.3750000      -4.66650038E-16
   63.5000000      -5.66135223E-16
   63.6250000      -6.55534521E-16
   63.7500000      -7.30169347E-16
   63.8750000      -7.85426229E-16
   64.0000000      -8.16950413E-16
   64.1250000      -8.20848618E-16
   64.2500000      -7.93894282E-16
   64.3750000      -7.33726991E-16
   64.5000000      -6.39037072E-16
   64.6250000      -5.09726216E-16
   64.7500000      -3.47035857E-16
   64.8750000      -1.53633460E-16
   65.0000000       6.63491363E-17
   65.1250000       3.07332670E-16
   65.2500000       5.62367514E-16
   65.3750000       8.23271503E-16
   65.5000000       1.08083130E-15
   65.6250000       1.32506277E-15
   65.7500000       1.54552660E-15
   65.8750000       1.73169089E-15
   66.0000000       1.87333004E-15
   66.1250000       1.96094840E-15
   66.2500000       1.98621158E-15
   66.3750000       1.94237170E-15
   66.5000000       1.82466652E-15
   66.6250000       1.63067501E-15
   66.7500000       1.36061263E-15
   66.8750000       1.01754756E-15
   67.0000000       6.07524217E-16
   67.1250000       1.39580601E-16
   67.2500000      -3.74348276E-16
   67.3750000      -9.19648870E-16
   67.5000000      -1.47936792E-15
   67.6250000      -2.03466864E-15
   67.7500000      -2.56539386E-15
   67.8750000      -3.05072617E-15
   68.0000000      -3.46991960E-15
   68.1250000      -3.80308518E-15
   68.2500000      -4.03200050E-15
   68.3750000      -4.14091030E-15
   68.5000000      -4.11729290E-15
   68.6250000      -3.95255135E-15
   68.7500000      -3.64260293E-15
   68.8750000      -3.18833302E-15
   69.0000000      -2.59588769E-15
   69.1250000      -1.87678085E-15
   69.2500000      -1.04780178E-15
   69.3750000      -1.30713966E-16
   69.5000000       8.48262416E-16
   69.6250000       1.85916702E-15
   69.7500000       2.86920722E-15
   69.8750000       3.84382959E-15
   70.0000000       4.74792079E-15
   70.1250000       5.54709892E-15
   70.2500000       6.20904712E-15
   70.3750000       6.70483541E-15
   70.5000000       7.01018740E-15
   70.6250000       7.10661574E-15
   70.7500000       6.98239328E-15
   70.8750000       6.63330051E-15
   71.0000000       6.06310588E-15
   71.1250000       5.28374579E-15
   71.2500000       4.31517928E-15
   71.3750000       3.18490995E-15
   71.5000000       1.92717529E-15
   71.6250000       5.81812373E-16
   71.7500000      -8.07153895E-16
   71.8750000      -2.19316100E-15
   72.0000000      -3.52894445E-15
   72.1250000      -4.76847447E-15
   72.2500000      -5.86892951E-15
   72.3750000      -6.79260073E-15
   72.5000000      -7.50865993E-15
   72.6250000      -7.99468998E-15
   72.7500000      -8.23788754E-15
   72.8750000      -8.23589108E-15
   73.0000000      -7.99714129E-15
   73.1250000      -7.54074554E-15
   73.2500000      -6.89583583E-15
   73.3750000      -6.10038507E-15
   73.5000000      -5.19953250E-15
   73.6250000      -4.24345380E-15
   73.7500000      -3.28484544E-15
   73.8750000      -2.37613812E-15
   74.0000000      -1.56651999E-15
   74.1250000      -8.98938597E-16
   74.2500000      -4.07212016E-16
   74.3750000      -1.13380230E-16
   74.5000000      -2.55008583E-17
   74.6250000      -1.35977997E-16
   74.7500000      -4.20586401E-16
   74.8750000      -8.38301202E-16
   75.0000000      -1.33200526E-15
   75.1250000      -1.83013496E-15
   75.2500000      -2.24925618E-15
   75.3750000      -2.49755563E-15
   75.5000000      -2.47914219E-15
   75.6250000      -2.09909249E-15
   75.7500000      -1.26899003E-15
   75.8750000       8.71813823E-17
   76.0000000       2.02705636E-15
   76.1250000       4.58411902E-15
   76.2500000       7.76240051E-15
   76.3750000       1.15319275E-14
   76.5000000       1.58252673E-14
   76.6250000       2.05353634E-14
   76.7500000       2.55150159E-14
   76.8750000       3.05780825E-14
   77.0000000       3.55025932E-14
   77.1250000       4.00359067E-14
   77.2500000       4.39017786E-14
   77.3750000       4.68093615E-14
   77.5000000       4.84639049E-14
   77.6250000       4.85789286E-14
   77.7500000       4.68894434E-14
   77.8750000       4.31658629E-14
   78.0000000       3.72280738E-14
   78.1250000       2.89591451E-14
   78.2500000       1.83179989E-14
   78.3750000       5.35053094E-15
   78.5000000      -9.80145530E-15
   78.6250000      -2.68940804E-14
   78.7500000      -4.55785346E-14
   78.8750000      -6.54019007E-14
   79.0000000      -8.58120609E-14
   79.1250000      -1.06166811E-13
   79.2500000      -1.25747421E-13
   79.3750000      -1.43776280E-13
   79.5000000      -1.59438652E-13
   79.6250000      -1.71907885E-13
   79.7500000      -1.80373715E-13
   79.8750000      -1.84072579E-13
   80.0000000      -1.82319397E-13
   80.1250000      -1.74539487E-13
   80.2500000      -1.60299766E-13
   80.3750000      -1.39337787E-13
   80.5000000      -1.11587700E-13
   80.6250000      -7.72016050E-14
   80.7500000      -3.65655246E-14
   80.8750000       9.69120634E-15
   81.0000000       6.06940306E-14
   81.1250000       1.15329336E-13
   81.2500000       1.72259058E-13
   81.3750000       2.29944129E-13
   81.5000000       2.86676363E-13
   81.6250000       3.40618782E-13
   81.7500000       3.89853162E-13
   81.8750000       4.32434199E-13
   82.0000000       4.66448874E-13
   82.1250000       4.90079331E-13
   82.2500000       5.01667555E-13
   82.3750000       4.99780013E-13
   82.5000000       4.83269837E-13
   82.6250000       4.51334879E-13
   82.7500000       4.03568753E-13
   82.8750000       3.40003768E-13
   83.0000000       2.61142968E-13
   83.1250000       1.67980023E-13
   83.2500000       6.20053799E-14
   83.3750000      -5.48019644E-14
   83.5000000      -1.79998716E-13
   83.6250000      -3.10716269E-13
   83.7500000      -4.43715756E-13
   83.8750000      -5.75456783E-13
   84.0000000      -7.02180393E-13
   84.1250000      -8.20002432E-13
   84.2500000      -9.25017007E-13
   84.3750000      -1.01340659E-12
   84.5000000      -1.08155574E-12
   84.6250000      -1.12616513E-12
   84.7500000      -1.14436379E-12
   84.8750000      -1.13381461E-12
   85.0000000      -1.09281041E-12
   85.1250000      -1.02035752E-12
   85.2500000      -9.16243643E-13
   85.3750000      -7.81087217E-13
   85.5000000      -6.16366062E-13
   85.6250000      -4.24424222E-13
   85.7500000      -2.08454849E-13
   85.8750000       2.75403937E-14
   86.0000000       2.78815680E-13
   86.1250000       5.39968677E-13
   86.2500000       8.05048628E-13
   86.3750000       1.06768435E-12
   86.5000000       1.32122796E-12
   86.6250000       1.55891099E-12
   86.7500000       1.77401138E-12
   86.8750000       1.96002286E-12
   87.0000000       2.11082714E-12
   87.1250000       2.22086087E-12
   87.2500000       2.28527418E-12
   87.3750000       2.30007810E-12
   87.5000000       2.26227175E-12
   87.6250000       2.16995280E-12
   87.7500000       2.02240199E-12
   87.8750000       1.82014234E-12
   88.0000000       1.56496940E-12
   88.1250000       1.25995275E-12
   88.2500000       9.09408237E-13
   88.3750000       5.18840288E-13
   88.5000000       9.48551947E-14
   88.6250000      -3.54949983E-13
   88.7500000      -8.22125137E-13
   88.8750000      -1.29752220E-12
   89.0000000      -1.77147153E-12
   89.1250000      -2.23396822E-12
   89.2500000      -2.67486857E-12
   89.3750000      -3.08409223E-12
   89.5000000      -3.45182390E-12
   89.6250000      -3.76870930E-12
   89.7500000      -4.02604903E-12
   89.8750000      -4.21597306E-12
   90.0000000      -4.33160712E-12
   90.1250000      -4.36721753E-12
   90.2500000      -4.31833909E-12
   90.3750000      -4.18187880E-12
   90.5000000      -3.95620082E-12
   90.6250000      -3.64118501E-12
   90.7500000      -3.23826621E-12
   90.8750000      -2.75044744E-12
   91.0000000      -2.18229688E-12
   91.1250000      -1.53991945E-12
   91.2500000      -8.30912921E-13
   91.3750000      -6.43042680E-14
   91.5000000       7.49528261E-13
   91.6250000       1.59894971E-12
   91.7500000       2.47117669E-12
   91.8750000       3.35239952E-12
   92.0000000       4.22791619E-12
   92.1250000       5.08228485E-12
   92.2500000       5.89948056E-12
   92.3750000       6.66307894E-12
   92.5000000       7.35644271E-12
   92.6250000       7.96293673E-12
   92.7500000       8.46615399E-12
   92.8750000       8.85015845E-12
   93.0000000       9.09975480E-12
   93.1250000       9.20077296E-12
   93.2500000       9.14036815E-12
   93.3750000       8.90734275E-12
   93.5000000       8.49248276E-12
   93.6250000       7.88889874E-12
   93.7500000       7.09237747E-12
   93.8750000       6.10172720E-12
   94.0000000       4.91911416E-12
   94.1250000       3.55037787E-12
   94.2500000       2.00531453E-12
   94.3750000       2.97916585E-13
   94.5000000      -1.55344021E-12
   94.6250000      -3.52588575E-12
   94.7500000      -5.59202381E-12
   94.8750000      -7.72000085E-12
   95.0000000      -9.87367740E-12
   95.1250000      -1.20129262E-11
   95.2500000      -1.40940454E-11
   95.3750000      -1.60703308E-11
   95.5000000      -1.78927515E-11
   95.6250000      -1.95107906E-11
   95.7500000      -2.08734020E-11
   95.8750000      -2.19300845E-11
   96.0000000      -2.26320820E-11
   96.1250000      -2.29336463E-11
   96.2500000      -2.27933870E-11
   96.3750000      -2.21756363E-11
   96.5000000      -2.10518426E-11
   96.6250000      -1.94018968E-11
   96.7500000      -1.72154235E-11
   96.8750000      -1.44929225E-11
   97.0000000      -1.12467865E-11
   97.1250000      -7.50209790E-12
   97.2500000      -3.29720127E-12
   97.3750000       1.31600904E-12
   97.5000000       6.27210263E-12
   97.6250000       1.14924676E-11
   97.7500000       1.68860169E-11
   97.8750000       2.23502744E-11
   98.0000000       2.77728222E-11
   98.1250000       3.30331248E-11
   98.2500000       3.80047001E-11
   98.3750000       4.25575929E-11
   98.5000000       4.65611716E-11
   98.6250000       4.98871153E-11
   98.7500000       5.24125882E-11
   98.8750000       5.40235252E-11
   99.0000000       5.46179352E-11
   99.1250000       5.41091442E-11
   99.2500000       5.24288946E-11
   99.3750000       4.95302237E-11
   99.5000000       4.53900181E-11
   99.6250000       4.00111368E-11
   99.7500000       3.34240829E-11
   99.8750000       2.56881062E-11
   100.000000       1.68916617E-11
   100.125000       7.15223974E-12
   100.250000      -3.38453202E-12
   100.375000      -1.45465003E-11
   100.500000      -2.61373093E-11
   100.625000      -3.79394224E-11
   100.750000      -4.97178132E-11
   100.875000      -6.12242479E-11
   101.000000      -7.22021054E-11
   101.125000      -8.23915935E-11
   101.250000      -9.15353765E-11
   101.375000      -9.93843063E-11
   101.500000      -1.05703293E-10
   101.625000      -1.10277128E-10
   101.750000      -1.12916031E-10
   101.875000      -1.13460949E-10
   102.000000      -1.11788356E-10
   102.125000      -1.07814355E-10
   102.250000      -1.01498268E-10
   102.375000      -9.28451691E-11
   102.500000      -8.19076890E-11