  -4.50000000         0.00000000    
  -4.37500000         0.00000000    
  -4.25000000         0.00000000    
  -4.12500000         0.00000000    
  -4.00000000         0.00000000    
  -3.87500000         0.00000000    
  -3.75000000         0.00000000    
  -3.62500000         0.00000000    
  -3.50000000         0.00000000    
  -3.37500000         0.00000000    
  -3.25000000         0.00000000    
  -3.12500000         0.00000000    
  -3.00000000         0.00000000    
  -2.87500000         0.00000000    
  -2.75000000         0.00000000    
  -2.62500000         0.00000000    
  -2.50000000         0.00000000    
  -2.37500000         0.00000000    
  -2.25000000         0.00000000    
  -2.12500000         0.00000000    
  -2.00000000         0.00000000    
  -1.87500000         0.00000000    
  -1.75000000         0.00000000    
  -1.62500000         0.00000000    
  -1.50000000         0.00000000    
  -1.37500000         0.00000000    
  -1.25000000         0.00000000    
  -1.12500000         0.00000000    
  -1.00000000         0.00000000    
 -0.875000000         0.00000000    
 -0.750000000         0.00000000    
 -0.625000000         0.00000000    
 -0.500000000         0.00000000    
 -0.375000000         0.00000000    
 -0.250000000         0.00000000    
 -0.125000000         0.00000000    
   0.00000000         0.00000000    
  0.125000000         0.00000000    
  0.250000000         0.00000000    
  0.375000000         0.00000000    
  0.500000000         0.00000000    
  0.625000000         0.00000000    
  0.750000000         0.00000000    
  0.875000000         0.00000000    
   1.00000000         0.00000000    
   1.12500000         0.00000000    
   1.25000000         0.00000000    
   1.37500000         0.00000000    
   1.50000000         0.00000000    
   1.62500000         0.00000000    
   1.75000000         0.00000000    
   1.87500000         0.00000000    
   2.00000000         0.00000000    
   2.12500000         0.00000000    
   2.25000000         0.00000000    
   2.37500000         0.00000000    
   2.50000000         0.00000000    
   2.62500000         0.00000000    
   2.75000000         0.00000000    
   2.87500000         0.00000000    
   3.00000000         0.00000000    
   3.12500000         0.00000000    
   3.25000000         0.00000000    
   3.37500000         0.00000000    
   3.50000000         0.00000000    
   3.62500000         0.00000000    
   3.75000000         0.00000000    
   3.87500000         0.00000000    
   4.00000000         0.00000000    
   4.12500000         0.00000000    
   4.25000000         0.00000000    
   4.37500000         0.00000000    
   4.50000000         0.00000000    
   4.62500000         0.00000000    
   4.75000000         0.00000000    
   4.87500000         0.00000000    
   5.00000000         0.00000000    
   5.12500000         0.00000000    
   5.25000000         0.00000000    
   5.37500000         0.00000000    
   5.50000000         0.00000000    
   5.62500000         0.00000000    
   5.75000000         0.00000000    
   5.87500000         0.00000000    
   6.00000000         0.00000000    
   6.12500000         0.00000000    
   6.25000000         0.00000000    
   6.37500000         0.00000000    
   6.50000000         0.00000000    
   6.62500000         0.00000000    
   6.75000000         0.00000000    
   6.87500000         0.00000000    
   7.00000000         0.00000000    
   7.12500000         0.00000000    
   7.25000000         0.00000000    
   7.37500000         0.00000000    
   7.50000000         0.00000000    
   7.62500000         0.00000000    
   7.75000000         0.00000000    
   7.87500000         0.00000000    
   8.00000000         0.00000000    
   8.12500000         0.00000000    
   8.25000000         0.00000000    
   8.37500000         0.00000000    
   8.50000000         0.00000000    
   8.62500000         0.00000000    
   8.75000000         0.00000000    
   8.87500000         0.00000000    
   9.00000000         0.00000000    
   9.12500000         0.00000000    
   9.25000000         0.00000000    
   9.37500000         0.00000000    
   9.50000000         0.00000000    
   9.62500000         0.00000000    
   9.75000000         0.00000000    
   9.87500000         0.00000000    
   10.0000000         0.00000000    
   10.1250000         0.00000000    
   10.2500000         0.00000000    
   10.3750000         0.00000000    
   10.5000000         0.00000000    
   10.6250000         0.00000000    
   10.7500000         0.00000000    
   10.8750000         0.00000000    
   11.0000000         0.00000000    
   11.1250000         0.00000000    
   11.2500000         0.00000000    
   11.3750000         0.00000000    
   11.5000000         0.00000000    
   11.6250000         0.00000000    
   11.7500000         0.00000000    
   11.8750000         0.00000000    
   12.0000000         0.00000000    
   12.1250000         0.00000000    
   12.2500000         0.00000000    
   12.3750000         0.00000000    
   12.5000000         0.00000000    
   12.6250000         0.00000000    
   12.7500000         0.00000000    
   12.8750000         0.00000000    
   13.0000000         0.00000000    
   13.1250000         0.00000000    
   13.2500000         0.00000000    
   13.3750000         0.00000000    
   13.5000000         0.00000000    
   13.6250000         0.00000000    
   13.7500000         0.00000000    
   13.8750000         0.00000000    
   14.0000000         0.00000000    
   14.1250000         0.00000000    
   14.2500000         0.00000000    
   14.3750000         0.00000000    
   14.5000000         0.00000000    
   14.6250000         0.00000000    
   14.7500000         0.00000000    
   14.8750000         0.00000000    
   15.0000000         0.00000000    
   15.1250000         0.00000000    
   15.2500000         0.00000000    
   15.3750000         0.00000000    
   15.5000000         0.00000000    
   15.6250000         0.00000000    
   15.7500000         0.00000000    
   15.8750000         0.00000000    
   16.0000000         0.00000000    
   16.1250000         0.00000000    
   16.2500000         0.00000000    
   16.3750000         0.00000000    
   16.5000000         0.00000000    
   16.6250000         0.00000000    
   16.7500000         0.00000000    
   16.8750000         0.00000000    
   17.0000000         0.00000000    
   17.1250000         0.00000000    
   17.2500000         0.00000000    
   17.3750000         0.00000000    
   17.5000000         0.00000000    
   17.6250000         0.00000000    
   17.7500000         0.00000000    
   17.8750000         0.00000000    
   18.0000000         0.00000000    
   18.1250000         0.00000000    
   18.2500000         0.00000000    
   18.3750000         0.00000000    
   18.5000000         0.00000000    
   18.6250000         0.00000000    
   18.7500000         0.00000000    
   18.8750000         0.00000000    
   19.0000000         0.00000000    
   19.1250000        -1.88326398E-34
   19.2500000        -4.38653671E-34
   19.3750000        -6.88980887E-34
   19.5000000        -7.60251431E-34
   19.6250000        -8.50513601E-34
   19.7500000        -1.12937962E-33
   19.8750000        -1.60001661E-33
   20.0000000        -1.71952728E-33
   20.1250000        -9.16983031E-34
   20.2500000         7.77442301E-34
   20.3750000         2.56401950E-33
   20.5000000         3.78634114E-33
   20.6250000         1.05494823E-33
   20.7500000        -4.83759713E-33
   20.8750000        -1.11577990E-32
   21.0000000        -1.78348486E-32
   21.1250000        -2.07087310E-32
   21.2500000        -1.31286820E-32
   21.3750000         6.01456672E-33
   21.5000000         2.80291750E-32
   21.6250000         4.65425939E-32
   21.7500000         5.35340934E-32
   21.8750000         4.88788125E-32
   22.0000000         2.94688558E-32
   22.1250000        -4.38124561E-34
   22.2500000        -1.84086309E-32
   22.3750000        -1.78752224E-32
   22.5000000        -8.81557874E-32
   22.6250000         1.20241552E-31
   22.7500000         6.71764882E-31
   22.8750000         1.78335828E-30
   23.0000000         3.10403013E-30
   23.1250000         4.47786310E-30
   23.2500000         6.01495945E-30
   23.3750000         7.92998495E-30
   23.5000000         1.01733375E-29
   23.6250000         1.13292799E-29
   23.7500000         1.30984813E-29
   23.8750000         1.57847668E-29
   24.0000000         1.81230745E-29
   24.1250000         2.23896338E-29
   24.2500000         2.83501522E-29
   24.3750000         4.84922197E-29
   24.5000000         7.90951261E-29
   24.6250000         1.23782864E-28
   24.7500000         1.72982983E-28
   24.8750000         2.25279613E-28
   25.0000000         2.62506972E-28
   25.1250000         2.89715475E-28
   25.2500000         3.10890208E-28
   25.3750000         3.02465757E-28
   25.5000000         2.61984539E-28
   25.6250000         1.90191336E-28
   25.7500000         9.66377780E-29
   25.8750000        -4.11784285E-29
   26.0000000        -2.46972108E-28
   26.1250000        -5.15700098E-28
   26.2500000        -8.45735446E-28
   26.3750000        -1.24102563E-27
   26.5000000        -1.68565921E-27
   26.6250000        -2.15960707E-27
   26.7500000        -2.62158162E-27
   26.8750000        -3.03854988E-27
   27.0000000        -3.37561247E-27
   27.1250000        -3.60209720E-27
   27.2500000        -3.66666169E-27
   27.3750000        -3.50710995E-27
   27.5000000        -3.04773695E-27
   27.6250000        -2.22238545E-27
   27.7500000        -9.56970130E-28
   27.8750000         8.11580427E-28
   28.0000000         3.12656469E-27
   28.1250000         5.99198367E-27
   28.2500000         9.36881718E-27
   28.3750000         1.31596682E-26
   28.5000000         1.72088651E-26
   28.6250000         2.12916563E-26
   28.7500000         2.51141126E-26
   28.8750000         2.83206396E-26
   29.0000000         3.04818504E-26
   29.1250000         3.11088962E-26
   29.2500000         2.96584029E-26
   29.3750000         2.55709232E-26
   29.5000000         1.82980955E-26
   29.6250000         7.35249872E-27
   29.7500000        -7.62520963E-27
   29.8750000        -2.68031979E-26
   30.0000000        -5.00758641E-26
   30.1250000        -7.69917643E-26
   30.2500000        -1.06691096E-25
   30.3750000        -1.37849918E-25
   30.5000000        -1.68651744E-25
   30.6250000        -1.96765551E-25
   30.7500000        -2.19356259E-25
   30.8750000        -2.33137561E-25
   31.0000000        -2.34467950E-25
   31.1250000        -2.19512084E-25
   31.2500000        -1.84467468E-25
   31.3750000        -1.25857852E-25
   31.5000000        -4.08905711E-26
   31.6250000         7.21333795E-26
   31.7500000         2.13377729E-25
   31.8750000         3.81022061E-25
   32.0000000         5.70832028E-25
   32.1250000         7.75785289E-25
   32.2500000         9.85792536E-25
   32.3750000         1.18755525E-24
   32.5000000         1.36461291E-24
   32.6250000         1.49762147E-24
   32.7500000         1.56492254E-24
   32.8750000         1.54343841E-24
   33.0000000         1.40991867E-24
   33.1250000         1.14255162E-24
   33.2500000         7.22897244E-25
   33.3750000         1.38106976E-25
   33.5000000        -6.16664896E-25
   33.6250000        -1.53577798E-24
   33.7500000        -2.60070480E-24
   33.8750000        -3.77790142E-24
   34.0000000        -5.01716482E-24
   34.1250000        -6.25072398E-24
   34.2500000        -7.39331248E-24
   34.3750000        -8.34348045E-24
   34.5000000        -8.98636343E-24
   34.6250000        -9.19811184E-24
   34.7500000        -8.85208195E-24
   34.8750000        -7.82679470E-24
   35.0000000        -6.01556217E-24
   35.1250000        -3.33752652E-24
   35.2500000         2.50308499E-25
   35.3750000         4.74063594E-24
   35.5000000         1.00637281E-23
   35.6250000         1.60765719E-23
   35.7500000         2.25542890E-23
   35.8750000         2.91849884E-23
   36.0000000         3.55692523E-23
   36.1250000         4.12254197E-23
   36.2500000         4.56016508E-23
   36.3750000         4.80956945E-23
   36.5000000         4.80827351E-23
   36.6250000         4.49514716E-23
   36.7500000         3.81478840E-23
   36.8750000         2.72255494E-23
   37.0000000         1.19007643E-23
   37.1250000        -7.89023805E-24
   37.2500000        -3.19351373E-23
   37.3750000        -5.96944678E-23
   37.5000000        -9.02602720E-23
   37.6250000        -1.22329342E-22
   37.7500000        -1.54196218E-22
   37.8750000        -1.83770891E-22
   38.0000000        -2.08625727E-22
   38.1250000        -2.26075116E-22
   38.2500000        -2.33289798E-22
   38.3750000        -2.27446522E-22
   38.5000000        -2.05911010E-22
   38.6250000        -1.66449638E-22
   38.7500000        -1.07462684E-22
   38.8750000        -2.82286586E-23
   39.0000000         7.08535238E-23
   39.1250000         1.88040610E-22
   39.2500000         3.20057580E-22
   39.3750000         4.61966791E-22
   39.5000000         6.07113916E-22
   39.6250000         7.47171184E-22
   39.7500000         8.72296085E-22
   39.8750000         9.71419121E-22
   40.0000000         1.03267128E-21
   40.1250000         1.04395282E-21
   40.2500000         9.93637786E-22
   40.3750000         8.71398526E-22
   40.5000000         6.69123129E-22
   40.6250000         3.81889003E-22
   40.7500000         8.94119089E-24
   40.8750000        -4.45381426E-22
   41.0000000        -9.70842357E-22
   41.1250000        -1.55070041E-21
   41.2500000        -2.16137589E-21
   41.3750000        -2.77246808E-21
   41.5000000        -3.34719180E-21
   41.6250000        -3.84329519E-21
   41.7500000        -4.21449491E-21
   41.8750000        -4.41244594E-21
   42.0000000        -4.38923359E-21
   42.1250000        -4.10034278E-21
   42.2500000        -3.50801320E-21
   42.3750000        -2.58486045E-21
   42.5000000        -1.31759199E-21
   42.6250000         2.89380105E-22
   42.7500000         2.21067411E-21
   42.8750000         4.39727679E-21
   43.0000000         6.77476068E-21
   43.1250000         9.24266413E-21
   43.2500000         1.16752763E-20
   43.3750000         1.39240637E-20
   43.5000000         1.58219052E-20
   43.6250000         1.71892170E-20
   43.7500000         1.78419805E-20
   43.8750000         1.76015553E-20
   44.0000000         1.63060337E-20
   44.1250000         1.38227600E-20
   44.2500000         1.00615245E-20
   44.3750000         4.98777873E-21
   44.5000000        -1.36488547E-21
   44.6250000        -8.88384223E-21
   44.7500000        -1.73690351E-20
   44.8750000        -2.65280102E-20
   45.0000000        -3.59752998E-20
   45.1250000        -4.52369180E-20
   45.2500000        -5.37607169E-20
   45.3750000        -6.09329674E-20
   45.5000000        -6.61014309E-20
   45.6250000        -6.86046798E-20
   45.7500000        -6.78072260E-20
   45.8750000        -6.31393876E-20
   46.0000000        -5.41406384E-20
   46.1250000        -4.05044723E-20
   46.2500000        -2.21227758E-20
   46.3750000         8.73060662E-22
   46.5000000         2.80769721E-20
   46.6250000         5.87819553E-20
   46.7500000         9.19657208E-20
   46.8750000         1.26291002E-19
   47.0000000         1.60122999E-19
   47.1250000         1.91565892E-19
   47.2500000         2.18519585E-19
   47.3750000         2.38757102E-19
   47.5000000         2.50021751E-19
   47.6250000         2.50142054E-19
   47.7500000         2.37161548E-19
   47.8750000         2.09478540E-19
   48.0000000         1.65990204E-19
   48.1250000         1.06234069E-19
   48.2500000         3.05188836E-20
   48.3750000        -5.99635505E-20
   48.5000000        -1.63054708E-19
   48.6250000        -2.75582640E-19
   48.7500000        -3.93360493E-19
   48.8750000        -5.11237478E-19
   49.0000000        -6.23207903E-19
   49.1250000        -7.22581504E-19
   49.2500000        -8.02216147E-19
   49.3750000        -8.54810306E-19
   49.5000000        -8.73249506E-19
   49.6250000        -8.50997210E-19
   49.7500000        -7.82516892E-19
   49.8750000        -6.63709354E-19
   50.0000000        -4.92343949E-19
   50.1250000        -2.68461545E-19
   50.2500000         5.27418477E-21
   50.3750000         3.23305119E-19
   50.5000000         6.77009695E-19
   50.6250000         1.05466117E-18
   50.7500000         1.44153437E-18
   50.8750000         1.82017682E-18
   51.0000000         2.17085487E-18
   51.1250000         2.47217795E-18
   51.2500000         2.70189614E-18
   51.3750000         2.83785733E-18
   51.5000000         2.85909767E-18
   51.6250000         2.74703331E-18
   51.7500000         2.48670903E-18
   51.8750000         2.06805038E-18
   52.0000000         1.48705857E-18
   52.1250000         7.46885105E-19
   52.2500000        -1.41286274E-19
   52.3750000        -1.15761766E-18
   52.5000000        -2.27332145E-18
   52.6250000        -3.45074585E-18
   52.7500000        -4.64389908E-18
   52.8750000        -5.79943400E-18
   53.0000000        -6.85812344E-18
   53.1250000        -7.75680761E-18
   53.2500000        -8.43079686E-18
   53.3750000        -8.81667413E-18
   53.5000000        -8.85541183E-18
   53.6250000        -8.49571068E-18
   53.7500000        -7.69742928E-18
   53.8750000        -6.43495025E-18
   54.0000000        -4.70032810E-18
   54.1250000        -2.50603879E-18
   54.2500000         1.12837814E-19
   54.3750000         3.09719334E-18
   54.5000000         6.36337017E-18
   54.6250000         9.80369085E-18
   54.7500000         1.32881462E-17
   54.8750000         1.66673188E-17
   55.0000000         1.97765501E-17
   55.1250000         2.24413223E-17
   55.2500000         2.44837884E-17
   55.3750000         2.57302504E-17
   55.5000000         2.60194294E-17
   55.6250000         2.52111879E-17
   55.7500000         2.31954397E-17
   55.8750000         1.99008207E-17
   56.0000000         1.53027288E-17
   56.1250000         9.43030235E-18
   56.2500000         2.37189491E-18
   56.3750000        -5.72136966E-18
   56.5000000        -1.46343537E-17
   56.6250000        -2.40893010E-17
   56.7500000        -3.37501204E-17
   56.8750000        -4.32297227E-17
   57.0000000        -5.21004341E-17
   57.1250000        -5.99074110E-17
   57.2500000        -6.61848252E-17
   57.3750000        -7.04744448E-17
   57.5000000        -7.23460899E-17
   57.6250000        -7.14193035E-17
   57.7500000        -6.73854348E-17
   57.8750000        -6.00293110E-17
   58.0000000        -4.92494138E-17
   58.1250000        -3.50756211E-17
   58.2500000        -1.76834506E-17
   58.3750000         2.59616074E-18
   58.5000000         2.52724654E-17
   58.6250000         4.96967465E-17
   58.7500000         7.50709287E-17
   58.8750000         1.00463421E-16
   59.0000000         1.24832275E-16
   59.1250000         1.47055534E-16
   59.2500000         1.65968403E-16
   59.3750000         1.80406292E-16
   59.5000000         1.89252638E-16
   59.6250000         1.91490260E-16
   59.7500000         1.86254141E-16
   59.8750000         1.72884044E-16
   60.0000000         1.50974398E-16
   60.1250000         1.20419418E-16
   60.2500000         8.14510455E-17
   60.3750000         3.46672156E-17
   60.5000000        -1.89515731E-17
   60.6250000        -7.80392895E-17
   60.7500000        -1.40856709E-16
   60.8750000        -2.05320231E-16
   61.0000000        -2.69047469E-16
   61.1250000        -3.29419981E-16
   61.2500000        -3.83662276E-16
   61.3750000        -4.28935261E-16
   61.5000000        -4.62442826E-16
   61.6250000        -4.81547601E-16
   61.7500000        -4.83893300E-16
   61.8750000        -4.67528464E-16
   62.0000000        -4.31027432E-16
   62.1250000        -3.73603707E-16
   62.2500000        -2.95209432E-16
   62.3750000        -1.96616438E-16
   62.5000000        -7.94736471E-17
   62.6250000         5.36643977E-17
   62.7500000         1.99341660E-16
   62.8750000         3.53240585E-16
   63.0000000         5.10260430E-16
   63.1250000         6.64634037E-16
   63.2500000         8.10083835E-16
   63.3750000         9.40013236E-16
   63.5000000         1.04773105E-15
   63.6250000         1.12670247E-15
   63.7500000         1.17082103E-15
   63.8750000         1.17469060E-15
   64.0000000         1.13390977E-15
   64.1250000         1.04534644E-15
   64.2500000         9.07391139E-16
   64.3750000         7.20177005E-16
   64.5000000         4.85754761E-16
   64.6250000         2.08210386E-16
   64.7500000        -1.06284344E-16
   64.8750000        -4.49497092E-16
   65.0000000        -8.11242894E-16
   65.1250000        -1.17957925E-15
   65.2500000        -1.54108941E-15
   65.3750000        -1.88125086E-15
   65.5000000        -2.18488549E-15
   65.6250000        -2.43667874E-15
   65.7500000        -2.62175904E-15
   65.8750000        -2.72631551E-15
   66.0000000        -2.73823877E-15
   66.1250000        -2.64775808E-15
   66.2500000        -2.44805079E-15
   66.3750000        -2.13580078E-15
   66.5000000        -1.71167497E-15
   66.6250000        -1.18069098E-15
   66.7500000        -5.52455111E-16
   66.8750000         1.58756447E-16
   67.0000000         9.34087923E-16
   67.1250000         1.75038215E-15
   67.2500000         2.58065253E-15
   67.3750000         3.39474923E-15
   67.5000000         4.16021418E-15
   67.6250000         4.84330729E-15
   67.7500000         5.41018324E-15
   67.8750000         5.82818468E-15
   68.0000000         6.06721314E-15
   68.1250000         6.10113554E-15
   68.2500000         5.90916738E-15
   68.3750000         5.47718228E-15
   68.5000000         4.79888761E-15
   68.6250000         3.87680458E-15
   68.7500000         2.72300404E-15
   68.8750000         1.35953309E-15
   69.0000000        -1.81500724E-16
   69.1250000        -1.85823126E-15
   69.2500000        -3.61974278E-15
   69.3750000        -5.40719576E-15
   69.5000000        -7.15536673E-15
   69.6250000        -8.79457538E-15
   69.7500000        -1.02529645E-14
   69.8750000        -1.14590717E-14
   70.0000000        -1.23446184E-14
   70.1250000        -1.28474366E-14
   70.2500000        -1.29144056E-14
   70.3750000        -1.25043154E-14
   70.5000000        -1.15905176E-14
   70.6250000        -1.01632392E-14
   70.7500000        -8.23145093E-15
   70.8750000        -5.82416932E-15
   71.0000000        -2.99108658E-15
   71.1250000         1.97547486E-16
   71.2500000         3.65185507E-15
   71.3750000         7.26410543E-15
   71.5000000         1.09113446E-14
   71.6250000         1.44588372E-14
   71.7500000         1.77642731E-14
   71.8750000         2.06826184E-14
   72.0000000         2.30714851E-14
   72.1250000         2.47968624E-14
   72.2500000         2.57389782E-14
   72.3750000         2.57981130E-14
   72.5000000         2.49000988E-14
   72.6250000         2.30012729E-14
   72.7500000         2.00926583E-14
   72.8750000         1.62031101E-14
   73.0000000         1.14012498E-14
   73.1250000         5.79599785E-15
   73.2500000        -4.64429912E-16
   73.3750000        -7.19514593E-15
   73.5000000        -1.41788530E-14
   73.6250000        -2.11717139E-14
   73.7500000        -2.79107317E-14
   73.8750000        -3.41224411E-14
   74.0000000        -3.95326878E-14
   74.1250000        -4.38771842E-14
   74.2500000        -4.69124963E-14
   74.3750000        -4.84270318E-14
   74.5000000        -4.82516215E-14
   74.6250000        -4.62692188E-14
   74.7500000        -4.24233030E-14
   74.8750000        -3.67244856E-14
   75.0000000        -2.92550001E-14
   75.1250000        -2.01707005E-14
   75.2500000        -9.70030263E-15
   75.3750000         1.85829436E-15
   75.5000000         1.41446650E-14
   75.6250000         2.67454685E-14
   75.7500000         3.92067936E-14
   75.8750000         5.10489884E-14
   76.0000000         6.17835251E-14
   76.1250000         7.09314131E-14
   76.2500000         7.80424512E-14
   76.3750000         8.27147121E-14
   76.5000000         8.46134144E-14
   76.6250000         8.34883988E-14
   76.7500000         7.91894897E-14
   76.8750000         7.16788215E-14
   77.0000000         6.10396336E-14
   77.1250000         4.74808046E-14
   77.2500000         3.13366649E-14
   77.3750000         1.30618859E-14
   77.5000000        -6.77879028E-15
   77.6250000        -2.75258112E-14
   77.7500000        -4.84448365E-14
   77.8750000        -6.87509538E-14
   78.0000000        -8.76364885E-14
   78.1250000        -1.04301360E-13
   78.2500000        -1.17985035E-13
   78.3750000        -1.27998862E-13
   78.5000000        -1.33757493E-13
   78.6250000        -1.34808018E-13
   78.7500000        -1.30855559E-13
   78.8750000        -1.21784120E-13
   79.0000000        -1.07671345E-13
   79.1250000        -8.87964493E-14
   79.2500000        -6.56404591E-14
   79.3750000        -3.88783244E-14
   79.5000000        -9.36277016E-15
   79.6250000         2.18999860E-14
   79.7500000         5.37821232E-14
   79.8750000         8.50728112E-14
   80.0000000         1.14522392E-13
   80.1250000         1.40890609E-13
   80.2500000         1.62997111E-13
   80.3750000         1.79772375E-13
   80.5000000         1.90306850E-13
   80.6250000         1.93896399E-13
   80.7500000         1.90081715E-13
   80.8750000         1.78679811E-13
   81.0000000         1.59805993E-13
   81.1250000         1.33884657E-13
   81.2500000         1.01647925E-13
   81.3750000         6.41215596E-14
   81.5000000         2.25977243E-14
   81.6250000        -2.14044802E-14
   81.7500000        -6.61902987E-14
   81.8750000        -1.09950542E-13
   82.0000000        -1.50830899E-13
   82.1250000        -1.87006999E-13
   82.2500000        -2.16762155E-13
   82.3750000        -2.38565000E-13
   82.5000000        -2.51143561E-13
   82.6250000        -2.53552577E-13
   82.7500000        -2.45230323E-13
   82.8750000        -2.26042912E-13
   83.0000000        -1.96312801E-13
   83.1250000        -1.56829655E-13
   83.2500000        -1.08841836E-13
   83.3750000        -5.40286030E-14
   83.5000000         5.54815008E-15
   83.6250000         6.75104775E-14
   83.7500000         1.29248554E-13
   83.8750000         1.88019169E-13
   84.0000000         2.41055629E-13
   84.1250000         2.85684941E-13
   84.2500000         3.19447675E-13
   84.3750000         3.40215947E-13
   84.5000000         3.46303769E-13
   84.6250000         3.36565601E-13
   84.7500000         3.10477609E-13
   84.8750000         2.68196733E-13
   85.0000000         2.10595864E-13
   85.1250000         1.39269496E-13
   85.2500000         5.65098641E-14
   85.3750000        -3.47475480E-14
   85.5000000        -1.31009366E-13
   85.6250000        -2.28338100E-13
   85.7500000        -3.22491355E-13
   85.8750000        -4.09082571E-13
   86.0000000        -4.83757132E-13
   86.1250000        -5.42378046E-13
   86.2500000        -5.81214222E-13
   86.3750000        -5.97122503E-13
   86.5000000        -5.87717104E-13
   86.6250000        -5.51517491E-13
   86.7500000        -4.88068841E-13
   86.8750000        -3.98025769E-13
   87.0000000        -2.83197673E-13
   87.1250000        -1.46547393E-13
   87.2500000         7.85565969E-15
   87.3750000         1.74932605E-13
   87.5000000         3.48736285E-13
   87.6250000         5.22639657E-13
   87.7500000         6.89560280E-13
   87.8750000         8.42218439E-13
   88.0000000         9.73417636E-13
   88.1250000         1.07633921E-12
   88.2500000         1.14483878E-12
   88.3750000         1.17373320E-12
   88.5000000         1.15906612E-12
   88.6250000         1.09833898E-12
   88.7500000         9.90699818E-13
   88.8750000         8.37075363E-13
   89.0000000         6.40240953E-13
   89.1250000         4.04821603E-13
   89.2500000         1.37220422E-13
   89.3750000        -1.54528313E-13
   89.5000000        -4.60976689E-13
   89.6250000        -7.71549708E-13
   89.7500000        -1.07488974E-12
   89.8750000        -1.35925255E-12
   90.0000000        -1.61293689E-12
   90.1250000        -1.82473871E-12
   90.2500000        -1.98440635E-12
   90.3750000        -2.08308566E-12
   90.5000000        -2.11373258E-12
   90.6250000        -2.07147645E-12
   90.7500000        -1.95391815E-12
   90.8750000        -1.76134714E-12
   91.0000000        -1.49686708E-12
   91.1250000        -1.16641538E-12
   91.2500000        -7.78677524E-13
   91.3750000        -3.44889590E-13
   91.5000000         1.21467276E-13
   91.6250000         6.05074313E-13
   91.7500000         1.08927093E-12
   91.8750000         1.55662668E-12
   92.0000000         1.98957040E-12
   92.1250000         2.37105236E-12
   92.2500000         2.68521793E-12
   92.3750000         2.91806444E-12
   92.5000000         3.05805750E-12
   92.6250000         3.09667699E-12
   92.7500000         3.02887424E-12
   92.8750000         2.85340978E-12
   93.0000000         2.57306459E-12
   93.1250000         2.19469798E-12
   93.2500000         1.72915447E-12
   93.3750000         1.19100725E-12
   93.5000000         5.98146424E-13
   93.6250000        -2.87784391E-14
   93.7500000        -6.67049207E-13
   93.8750000        -1.29268081E-12
   94.0000000        -1.88130631E-12
   94.1250000        -2.40911783E-12
   94.2500000        -2.85382395E-12
   94.3750000        -3.19559223E-12
   94.5000000        -3.41793260E-12
   94.6250000        -3.50849341E-12
   94.7500000        -3.45972383E-12
   94.8750000        -3.26938064E-12
   95.0000000        -2.94084700E-12
   95.1250000        -2.48324386E-12
   95.2500000        -1.91132223E-12
   95.3750000        -1.24512325E-12
   95.5000000        -5.09420902E-13
   95.6250000         2.67048075E-13
   95.7500000         1.05255334E-12
   95.8750000         1.81349347E-12
   96.0000000         2.51564828E-12
   96.1250000         3.12551764E-12
   96.2500000         3.61168994E-12
   96.3750000         3.94620534E-12
   96.5000000         4.10583503E-12
   96.6250000         4.07324521E-12