  -4.50000000       0.00000000    
  -4.37500000       0.00000000    
  -4.25000000       0.00000000    
  -4.12500000       0.00000000    
  -4.00000000       0.00000000    
  -3.87500000       0.00000000    
  -3.75000000       0.00000000    
  -3.62500000       0.00000000    
  -3.50000000       0.00000000    
  -3.37500000       0.00000000    
  -3.25000000       0.00000000    
  -3.12500000       0.00000000    
  -3.00000000       0.00000000    
  -2.87500000       0.00000000    
  -2.75000000       0.00000000    
  -2.62500000       0.00000000    
  -2.50000000       0.00000000    
  -2.37500000       0.00000000    
  -2.25000000       0.00000000    
  -2.12500000       0.00000000    
  -2.00000000       0.00000000    
  -1.87500000       0.00000000    
  -1.75000000       0.00000000    
  -1.62500000       0.00000000    
  -1.50000000       0.00000000    
  -1.37500000       0.00000000    
  -1.25000000       0.00000000    
  -1.12500000       0.00000000    
  -1.00000000       0.00000000    
 -0.875000000       0.00000000    
 -0.750000000       0.00000000    
 -0.625000000       0.00000000    
 -0.500000000       0.00000000    
 -0.375000000       0.00000000    
 -0.250000000       0.00000000    
 -0.125000000       0.00000000    
   0.00000000       0.00000000    
  0.125000000       0.00000000    
  0.250000000       0.00000000    
  0.375000000       0.00000000    
  0.500000000       0.00000000    
  0.625000000       0.00000000    
  0.750000000       0.00000000    
  0.875000000       0.00000000    
   1.00000000       0.00000000    
   1.12500000       0.00000000    
   1.25000000       0.00000000    
   1.37500000       0.00000000    
   1.50000000       0.00000000    
   1.62500000       0.00000000    
   1.75000000       0.00000000    
   1.87500000       0.00000000    
   2.00000000       0.00000000    
   2.12500000       0.00000000    
   2.25000000       0.00000000    
   2.37500000       0.00000000    
   2.50000000       0.00000000    
   2.62500000       0.00000000    
   2.75000000       0.00000000    
   2.87500000       0.00000000    
   3.00000000       0.00000000    
   3.12500000       0.00000000    
   3.25000000       0.00000000    
   3.37500000       0.00000000    
   3.50000000       0.00000000    
   3.62500000       0.00000000    
   3.75000000       0.00000000    
   3.87500000       0.00000000    
   4.00000000       0.00000000    
   4.12500000       0.00000000    
   4.25000000       0.00000000    
   4.37500000       0.00000000    
   4.50000000       0.00000000    
   4.62500000       0.00000000    
   4.75000000       0.00000000    
   4.87500000       0.00000000    
   5.00000000       0.00000000    
   5.12500000       0.00000000    
   5.25000000       0.00000000    
   5.37500000       0.00000000    
   5.50000000       0.00000000    
   5.62500000       0.00000000    
   5.75000000       0.00000000    
   5.87500000       0.00000000    
   6.00000000       0.00000000    
   6.12500000       0.00000000    
   6.25000000       0.00000000    
   6.37500000       0.00000000    
   6.50000000       0.00000000    
   6.62500000       0.00000000    
   6.75000000       0.00000000    
   6.87500000       0.00000000    
   7.00000000       0.00000000    
   7.12500000       0.00000000    
   7.25000000       0.00000000    
   7.37500000       0.00000000    
   7.50000000       0.00000000    
   7.62500000       0.00000000    
   7.75000000       0.00000000    
   7.87500000       0.00000000    
   8.00000000       0.00000000    
   8.12500000       0.00000000    
   8.25000000       0.00000000    
   8.37500000       0.00000000    
   8.50000000       0.00000000    
   8.62500000       0.00000000    
   8.75000000       0.00000000    
   8.87500000       0.00000000    
   9.00000000       0.00000000    
   9.12500000       0.00000000    
   9.25000000       0.00000000    
   9.37500000      -2.88165819E-40
   9.50000000      -6.07653461E-40
   9.62500000       5.25300551E-40
   9.75000000       1.41402926E-39
   9.87500000       2.23296630E-39
   10.0000000       3.14706692E-39
   10.1250000       4.73916198E-39
   10.2500000       6.31048279E-39
   10.3750000       9.26626126E-39
   10.5000000       1.39281935E-38
   10.6250000       1.73172450E-38
   10.7500000       1.73708993E-38
   10.8750000       1.17581511E-38
   11.0000000       3.81349504E-39
   11.1250000      -4.43309670E-37
   11.2500000      -1.10788253E-36
   11.3750000      -1.55557672E-36
   11.5000000      -1.55350073E-36
   11.6250000      -1.54262307E-36
   11.7500000      -1.74891501E-36
   11.8750000      -2.17762911E-36
   12.0000000      -2.60018683E-36
   12.1250000      -3.02401554E-36
   12.2500000      -3.66602027E-36
   12.3750000      -4.43735414E-36
   12.5000000      -4.88612013E-36
   12.6250000      -5.21305521E-36
   12.7500000      -4.68330753E-36
   12.8750000      -3.97717113E-36
   13.0000000      -3.28194235E-36
   13.1250000      -2.59669529E-36
   13.2500000      -2.96781168E-36
   13.3750000      -3.12555475E-36
   13.5000000      -2.80943257E-36
   13.6250000      -2.70290196E-36
   13.7500000      -2.61737191E-36
   13.8750000      -3.64096138E-36
   14.0000000      -7.10170923E-36
   14.1250000      -1.24611800E-35
   14.2500000      -2.00206059E-35
   14.3750000      -2.71479674E-35
   14.5000000      -3.17187492E-35
   14.6250000      -3.32562103E-35
   14.7500000      -3.16795555E-35
   14.8750000      -2.56369750E-35
   15.0000000      -1.41553512E-35
   15.1250000       7.02519591E-36
   15.2500000       4.05725434E-35
   15.3750000       8.88387030E-35
   15.5000000       1.52915457E-34
   15.6250000       2.33833377E-34
   15.7500000       3.30122757E-34
   15.8750000       4.39096088E-34
   16.0000000       5.53798072E-34
   16.1250000       6.64089335E-34
   16.2500000       7.54911380E-34
   16.3750000       8.06964290E-34
   16.5000000       7.94195942E-34
   16.6250000       6.86363667E-34
   16.7500000       4.48915874E-34
   16.8750000       4.70941895E-35
   17.0000000      -5.57461757E-34
   17.1250000      -1.40076416E-33
   17.2500000      -2.51472809E-33
   17.3750000      -3.91928661E-33
   17.5000000      -5.61731134E-33
   17.6250000      -7.58486481E-33
   17.7500000      -9.76433493E-33
   17.8750000      -1.20556981E-32
   18.0000000      -1.43081290E-32
   18.1250000      -1.63096418E-32
   18.2500000      -1.77792374E-32
   18.3750000      -1.83558189E-32
   18.5000000      -1.75906176E-32
   18.6250000      -1.49453366E-32
   18.7500000      -9.79157113E-33
   18.8750000      -1.42404280E-33
   19.0000000       1.09184331E-32
   19.1250000       2.80122714E-32
   19.2500000       5.05932122E-32
   19.3750000       7.92745279E-32
   19.5000000       1.14436232E-31
   19.6250000       1.56078143E-31
   19.7500000       2.03637469E-31
   19.8750000       2.55772360E-31
   20.0000000       3.10104532E-31
   20.1250000       3.62936232E-31
   20.2500000       4.08954344E-31
   20.3750000       4.40941990E-31
   20.5000000       4.49537581E-31
   20.6250000       4.23081811E-31
   20.7500000       3.47608467E-31
   20.8750000       2.07058322E-31
   21.0000000      -1.62154582E-32
   21.1250000      -3.40552186E-31
   21.2500000      -7.83617871E-31
   21.3750000      -1.36047287E-30
   21.5000000      -2.08101244E-30
   21.6250000      -2.94672905E-30
   21.7500000      -3.94681501E-30
   21.8750000      -5.05366839E-30
   22.0000000      -6.21796451E-30
   22.1250000      -7.36355616E-30
   22.2500000      -8.38258300E-30
   22.3750000      -9.13133867E-30
   22.5000000      -9.42757453E-30
   22.6250000      -9.05009377E-30
   22.7500000      -7.74160417E-30
   22.8750000      -5.21595469E-30
   23.0000000      -1.17089591E-30
   23.1250000       4.69248919E-30
   23.2500000       1.26426678E-29
   23.3750000       2.28821271E-29
   23.5000000       3.55030921E-29
   23.6250000       5.04348330E-29
   23.7500000       6.73837688E-29
   23.8750000       8.57685276E-29
   24.0000000       1.04653637E-28
   24.1250000       1.22686817E-28
   24.2500000       1.38046590E-28
   24.3750000       1.48408635E-28
   24.5000000       1.50940932E-28
   24.6250000       1.42339175E-28
   24.7500000       1.18914823E-28
   24.8750000       7.67488319E-29
   25.0000000       1.19228944E-29
   25.1250000      -7.91614985E-29
   25.2500000      -1.99369584E-28
   25.3750000      -3.50324177E-28
   25.5000000      -5.31806747E-28
   25.6250000      -7.41084891E-28
   25.7500000      -9.72193354E-28
   25.8750000      -1.21521047E-27
   26.0000000      -1.45558636E-27
   26.1250000      -1.67359807E-27
   26.2500000      -1.84401764E-27
   26.3750000      -1.93610097E-27
   26.5000000      -1.91401171E-27
   26.6250000      -1.73779856E-27
   26.7500000      -1.36504897E-27
   26.8750000      -7.53322876E-28
   27.0000000       1.36552116E-28
   27.1250000       1.33628492E-27
   27.2500000       2.86504401E-27
   27.3750000       4.72359240E-27
   27.5000000       6.88783268E-27
   27.6250000       9.30205751E-27
   27.7500000       1.18723451E-26
   27.8750000       1.44606509E-26
   28.0000000       1.68803014E-26
   28.1250000       1.88936963E-26
   28.2500000       2.02131448E-26
   28.3750000       2.05057952E-26
   28.5000000       1.94036363E-26
   28.6250000       1.65194515E-26
   28.7500000       1.14694582E-26
   28.8750000       3.90305419E-27
   29.0000000      -6.46028586E-27
   29.1250000      -1.97874957E-26
   29.2500000      -3.60829354E-26
   29.3750000      -5.51359539E-26
   29.5000000      -7.64678313E-26
   29.6250000      -9.92818427E-26
   29.7500000      -1.22421167E-25
   29.8750000      -1.44340259E-25
   30.0000000      -1.63095883E-25
   30.1250000      -1.76364462E-25
   30.2500000      -1.81492538E-25
   30.3750000      -1.75586571E-25
   30.5000000      -1.55647224E-25
   30.6250000      -1.18751867E-25
   30.7500000      -6.22858810E-26
   30.8750000       1.57789576E-26
   31.0000000       1.16565970E-25
   31.1250000       2.39945997E-25
   31.2500000       3.84177060E-25
   31.3750000       5.45553572E-25
   31.5000000       7.18093475E-25
   31.6250000       8.93295144E-25
   31.7500000       1.06000285E-24
   31.8750000       1.20441932E-24
   32.0000000       1.31030763E-24
   32.1250000       1.35941816E-24
   32.2500000       1.33217682E-24
   32.3750000       1.20865462E-24
   32.5000000       9.69831218E-25
   32.6250000       5.99141879E-25
   32.7500000       8.42809562E-26
   32.8750000      -5.80797412E-25
   33.0000000      -1.39376359E-24
   33.1250000      -2.34179730E-24
   33.2500000      -3.39961658E-24
   33.3750000      -4.52782770E-24
   33.5000000      -5.67178409E-24
   33.6250000      -6.76117615E-24
   33.7500000      -7.71056078E-24
   33.8750000      -8.42103652E-24
   34.0000000      -8.78326015E-24
   34.1250000      -8.68191677E-24
   34.2500000      -8.00174827E-24
   34.3750000      -6.63509961E-24
   34.5000000      -4.49088258E-24
   34.6250000      -1.50470701E-24
   34.7500000       2.35019452E-24
   34.8750000       7.05178067E-24
   35.0000000       1.25184156E-23
   35.1250000       1.85992875E-23
   35.2500000       2.50669609E-23
   35.3750000       3.16130549E-23
   35.5000000       3.78480821E-23
   35.6250000       4.33064568E-23
   35.7500000       4.74575723E-23
   35.8750000       4.97237046E-23
   36.0000000       4.95051113E-23
   36.1250000       4.62125257E-23
   36.2500000       3.93065976E-23
   36.3750000       2.83433842E-23
   36.5000000       1.30244596E-23
   36.6250000      -6.75055413E-24
   36.7500000      -3.08317323E-23
   36.8750000      -5.87702889E-23
   37.0000000      -8.97775207E-23
   37.1250000      -1.22695677E-22
   37.2500000      -1.55984950E-22
   37.3750000      -1.87731452E-22
   37.5000000      -2.15679645E-22
   37.6250000      -2.37293349E-22
   37.7500000      -2.49847370E-22
   37.8750000      -2.50550579E-22
   38.0000000      -2.36700353E-22
   38.1250000      -2.05864954E-22
   38.2500000      -1.56089168E-22
   38.3750000      -8.61151929E-23
   38.5000000       4.39116031E-24
   38.6250000       1.14621591E-22
   38.7500000       2.42428821E-22
   38.8750000       3.84168748E-22
   39.0000000       5.34599297E-22
   39.1250000       6.86853087E-22
   39.2500000       8.32501650E-22
   39.3750000       9.61725497E-22
   39.5000000       1.06360159E-21
   39.6250000       1.12651468E-21
   39.7500000       1.13869459E-21
   39.8750000       1.08887120E-21
   40.0000000       9.67031691E-22
   40.1250000       7.65257329E-22
   40.2500000       4.78605975E-22
   40.3750000       1.05995580E-22
   40.5000000      -3.48960510E-22
   40.6250000      -8.77226655E-22
   40.7500000      -1.46378879E-21
   40.8750000      -2.08733535E-21
   41.0000000      -2.72023959E-21
   41.1250000      -3.32890053E-21
   41.2500000      -3.87449420E-21
   41.3750000      -4.31416695E-21
   41.5000000      -4.60268738E-21
   41.6250000      -4.69454805E-21
   41.7500000      -4.54648232E-21
   41.8750000      -4.12032598E-21
   42.0000000      -3.38612765E-21
   42.1250000      -2.32537676E-21
   42.2500000      -9.34183877E-22
   42.3750000       7.73770362E-22
   42.5000000       2.76473185E-21
   42.6250000       4.98304022E-21
   42.7500000       7.35017829E-21
   42.8750000       9.76493256E-21
   43.0000000       1.21048440E-20
   43.1250000       1.42290995E-20
   43.2500000       1.59829615E-20
   43.3750000       1.72037654E-20
   43.5000000       1.77284176E-20
   43.6250000       1.74022370E-20
   43.7500000       1.60889182E-20
   43.8750000       1.36812071E-20
   44.0000000       1.01118557E-20
   44.1250000       5.36432201E-21
   44.2500000      -5.17473922E-22
   44.3750000      -7.42098705E-21
   44.5000000      -1.51592059E-20
   44.6250000      -2.34678830E-20
   44.7500000      -3.20064290E-20
   44.8750000      -4.03631149E-20
   45.0000000      -4.80650097E-20
   45.1250000      -5.45928218E-20
   45.2500000      -5.94008027E-20
   45.3750000      -6.19413587E-20
   45.5000000      -6.16938701E-20
   45.6250000      -5.81968219E-20
   45.7500000      -5.10821348E-20
   45.8750000      -4.01101365E-20
   46.0000000      -2.52034533E-20
   46.1250000      -6.47783394E-21
   46.2500000       1.57321982E-20
   46.3750000       4.08551161E-20
   46.5000000       6.80737203E-20
   46.6250000       9.63279418E-20
   46.7500000       1.24330920E-19
   46.8750000       1.50599475E-19
   47.0000000       1.73499686E-19
   47.1250000       1.91307605E-19
   47.2500000       2.02284227E-19
   47.3750000       2.04763042E-19
   47.5000000       1.97247537E-19
   47.6250000       1.78515179E-19
   47.7500000       1.47723342E-19
   47.8750000       1.04512144E-19
   48.0000000       4.90980937E-20
   48.1250000      -1.76470534E-20
   48.2500000      -9.41394416E-20
   48.3750000      -1.78053483E-19
   48.5000000      -2.66326127E-19
   48.6250000      -3.55198981E-19
   48.7500000      -4.40302346E-19
   48.8750000      -5.16783104E-19
   49.0000000      -5.79476157E-19
   49.1250000      -6.23117534E-19
   49.2500000      -6.42593760E-19
   49.3750000      -6.33221752E-19
   49.5000000      -5.91047690E-19
   49.6250000      -5.13153849E-19
   49.7500000      -3.97958635E-19
   49.8750000      -2.45494178E-19
   50.0000000      -5.76434639E-20
   50.1250000       1.61679546E-19
   50.2500000       4.06424751E-19
   50.3750000       6.68391300E-19
   50.5000000       9.37317436E-19
   50.6250000       1.20108538E-18
   50.7500000       1.44604644E-18
   50.8750000       1.65746843E-18
   51.0000000       1.82010051E-18
   51.1250000       1.91884230E-18
   51.2500000       1.93950320E-18
   51.3750000       1.86962154E-18
   51.5000000       1.69931787E-18
   51.6250000       1.42214081E-18
   51.7500000       1.03586546E-18
   51.8750000       5.43199892E-19
   52.0000000      -4.76491608E-20
   52.1250000      -7.22598255E-19
   52.2500000      -1.46153664E-18
   52.3750000      -2.23844628E-18
   52.5000000      -3.02182065E-18
   52.6250000      -3.77540369E-18
   52.7500000      -4.45925458E-18
   52.8750000      -5.03113582E-18
   53.0000000      -5.44819698E-18
   53.1250000      -5.66891731E-18
   53.2500000      -5.65524360E-18
   53.3750000      -5.37486080E-18
   53.5000000      -4.80348869E-18
   53.6250000      -3.92711358E-18
   53.7500000      -2.74403437E-18
   53.8750000      -1.26660801E-18
   54.0000000       4.77435983E-19
   54.1250000       2.44421531E-18
   54.2500000       4.57356970E-18
   54.3750000       6.78967176E-18
   54.5000000       9.00244070E-18
   54.6250000       1.11098016E-17
   54.7500000       1.30007936E-17
   54.8750000       1.45594839E-17
   55.0000000       1.56696298E-17
   55.1250000       1.62199464E-17
   55.2500000       1.61098321E-17
   55.3750000       1.52553347E-17
   55.5000000       1.35951452E-17
   55.6250000       1.10963028E-17
   55.7500000       7.75935946E-18
   55.8750000       3.62267968E-18
   56.0000000      -1.23442200E-18
   56.1250000      -6.68999815E-18
   56.2500000      -1.25794683E-17
   56.3750000      -1.86975459E-17
   56.5000000      -2.48022282E-17
   56.6250000      -3.06209193E-17
   56.7500000      -3.58586733E-17
   56.8750000      -4.02084555E-17
   57.0000000      -4.33632363E-17
   57.1250000      -4.50295321E-17
   57.2500000      -4.49420528E-17
   57.3750000      -4.28788724E-17
   57.5000000      -3.86765765E-17
   57.6250000      -3.22446352E-17
   57.7500000      -2.35783962E-17
   57.8750000      -1.27698588E-17
   58.0000000      -1.55176207E-20
   58.1250000       1.43793438E-17
   58.2500000       3.00006265E-17
   58.3750000       4.63300751E-17
   58.5000000       6.27550299E-17
   58.6250000       7.85833824E-17
   58.7500000       9.30638143E-17
   58.8750000       1.05410848E-16
   59.0000000       1.14834454E-16
   59.1250000       1.20573247E-16
   59.2500000       1.21930432E-16
   59.3750000       1.18311100E-16
   59.5000000       1.09259607E-16
   59.6250000       9.44953662E-17
   59.7500000       7.39452815E-17
   59.8750000       4.77712289E-17
   60.0000000       1.63907575E-17
   60.1250000      -1.95107141E-17
   60.2500000      -5.89774946E-17
   60.3750000      -1.00792474E-16
   60.5000000      -1.43497810E-16
   60.6250000      -1.85428178E-16
   60.7500000      -2.24756328E-16
   60.8750000      -2.59550774E-16
   61.0000000      -2.87843977E-16
   61.1250000      -3.07709997E-16
   61.2500000      -3.17348861E-16
   61.3750000      -3.15175295E-16
   61.5000000      -2.99908241E-16
   61.6250000      -2.70657864E-16
   61.7500000      -2.27005703E-16
   61.8750000      -1.69074566E-16
   62.0000000      -9.75834365E-17
   62.1250000      -1.38841025E-17
   62.2500000       8.00242649E-17
   62.3750000       1.81505542E-16
   62.5000000       2.87324164E-16
   62.6250000       3.93711184E-16
   62.7500000       4.96459298E-16
   62.8750000       5.91045667E-16
   63.0000000       6.72780853E-16
   63.1250000       7.36980074E-16
   63.2500000       7.79152944E-16
   63.3750000       7.95204642E-16
   63.5000000       7.81642798E-16
   63.6250000       7.35781311E-16
   63.7500000       6.55932732E-16
   63.8750000       5.41581379E-16
   64.0000000       3.93525790E-16
   64.1250000       2.13984610E-16
   64.2500000       6.65524623E-18
   64.3750000      -2.23280241E-16
   64.5000000      -4.69207707E-16
   64.6250000      -7.23196572E-16
   64.7500000      -9.76179108E-16
   64.8750000      -1.21819326E-15
   65.0000000      -1.43868567E-15
   65.1250000      -1.62686738E-15
   65.2500000      -1.77211638E-15
   65.3750000      -1.86441036E-15
   65.5000000      -1.89478030E-15
   65.6250000      -1.85576639E-15
   65.7500000      -1.74185931E-15
   65.8750000      -1.54990512E-15
   66.0000000      -1.27946042E-15
   66.1250000      -9.33071484E-16
   66.2500000      -5.16464364E-16
   66.3750000      -3.86282560E-17
   66.5000000       4.88221162E-16
   66.6250000       1.04880869E-15
   66.7500000       1.62510132E-15
   66.8750000       2.19674607E-15
   67.0000000       2.74163897E-15
   67.1250000       3.23661475E-15
   67.2500000       3.65824086E-15
   67.3750000       3.98369421E-15
   67.5000000       4.19169585E-15
   67.6250000       4.26346580E-15
   67.7500000       4.18367149E-15
   67.8750000       3.94132350E-15
   68.0000000       3.53058643E-15
   68.1250000       2.95145899E-15
   68.2500000       2.21028991E-15
   68.3750000       1.32009471E-15
   68.5000000       3.00640501E-16
   68.6250000      -8.21718521E-16
   68.7500000      -2.01447559E-15
   68.8750000      -3.23967825E-15
   69.0000000      -4.45490245E-15
   69.1250000      -5.61448250E-15
   69.2500000      -6.67096383E-15
   69.3750000      -7.57674444E-15
   69.5000000      -8.28586094E-15
   69.6250000      -8.75585242E-15
   69.7500000      -8.94964255E-15
   69.8750000      -8.83736748E-15
   70.0000000      -8.39807248E-15
   70.1250000      -7.62120774E-15
   70.2500000      -6.50784053E-15
   70.3750000      -5.07152041E-15
   70.5000000      -3.33874151E-15
   70.6250000      -1.34894158E-15
   70.7500000       8.45985591E-16
   70.8750000       3.18268712E-15
   71.0000000       5.58785772E-15
   71.1250000       7.98022943E-15
   71.2500000       1.02730146E-14
   71.3750000       1.23767285E-14
   71.5000000       1.42023183E-14
   71.6250000       1.56644954E-14
   71.7500000       1.66851515E-14
   71.8750000       1.71967594E-14
   72.0000000       1.71455969E-14
   72.1250000       1.64946571E-14
   72.2500000       1.52261457E-14
   72.3750000       1.33433990E-14
   72.5000000       1.08721431E-14
   72.6250000       7.86098922E-15
   72.7500000       4.38108776E-15
   72.8750000       5.24933899E-16
   73.0000000      -3.59573575E-15
   73.1250000      -7.85287718E-15
   73.2500000      -1.21058770E-14
   73.3750000      -1.62059798E-14
   73.5000000      -2.00012888E-14
   73.6250000      -2.33421884E-14
   73.7500000      -2.60869614E-14
   73.8750000      -2.81074534E-14
   74.0000000      -2.92945159E-14
   74.1250000      -2.95630491E-14
   74.2500000      -2.88563593E-14
   74.3750000      -2.71497353E-14
   74.5000000      -2.44529264E-14
   74.6250000      -2.08114945E-14
   74.7500000      -1.63068157E-14
   74.8750000      -1.10547634E-14
   75.0000000      -5.20296934E-15
   75.1250000       1.07325840E-15
   75.2500000       7.57623792E-15
   75.3750000       1.40923548E-14
   75.5000000       2.03993587E-14
   75.6250000       2.62743589E-14
   75.7500000       3.15021548E-14
   75.8750000       3.58836225E-14
   76.0000000       3.92437988E-14
   76.1250000       4.14393353E-14
   76.2500000       4.23650135E-14
   76.3750000       4.19589561E-14
   76.5000000       4.02062959E-14
   76.6250000       3.71411174E-14
   76.7500000       3.28464977E-14
   76.8750000       2.74525038E-14
   77.0000000       2.11322438E-14
   77.1250000       1.40959970E-14
   77.2500000       6.58362669E-15
   77.3750000      -1.14451441E-15
   77.5000000      -8.81780865E-15
   77.6250000      -1.61663810E-14
   77.7500000      -2.29323972E-14
   77.8750000      -2.88811943E-14
   78.0000000      -3.38116918E-14
   78.1250000      -3.75657181E-14
   78.2500000      -4.00356052E-14
   78.3750000      -4.11697823E-14
   78.5000000      -4.09759303E-14
   78.6250000      -3.95215612E-14
   78.7500000      -3.69316936E-14
   78.8750000      -3.33837978E-14
   79.0000000      -2.90998813E-14
   79.1250000      -2.43362103E-14
   79.2500000      -1.93707880E-14
   79.3750000      -1.44891864E-14
   79.5000000      -9.96937704E-15
   79.6250000      -6.06612217E-15
   79.7500000      -2.99562879E-15
   79.8750000      -9.21479944E-16
   80.0000000       5.78130427E-17
   80.1250000      -8.17496114E-17
   80.2500000      -1.28293410E-15
   80.3750000      -3.40487424E-15
   80.5000000      -6.22444872E-15
   80.6250000      -9.44235484E-15
   80.7500000      -1.26936578E-14
   80.8750000      -1.55625990E-14
   81.0000000      -1.76015107E-14
   81.1250000      -1.83530457E-14
   81.2500000      -1.73750750E-14
   81.3750000      -1.42671773E-14
   81.5000000      -8.69766549E-15
   81.6250000      -4.30046383E-16
   81.7500000       1.06527954E-14
   81.8750000       2.45275771E-14
   82.0000000       4.10139858E-14
   82.1250000       5.97642053E-14
   82.2500000       8.02589467E-14
   82.3750000       1.01811273E-13
   82.5000000       1.23578312E-13
   82.6250000       1.44581626E-13
   82.7500000       1.63735440E-13
   82.8750000       1.79882842E-13
   83.0000000       1.91838760E-13
   83.1250000       1.98438610E-13
   83.2500000       1.98591022E-13
   83.3750000       1.91333006E-13
   83.5000000       1.75885023E-13
   83.6250000       1.51703980E-13
   83.7500000       1.18531731E-13
   83.8750000       7.64363819E-14
   84.0000000       2.58445405E-14
   84.1250000      -3.24376790E-14
   84.2500000      -9.72169258E-14
   84.3750000      -1.66919430E-13
   84.5000000      -2.39613424E-13
   84.6250000      -3.13047683E-13
   84.7500000      -3.84705072E-13
   84.8750000      -4.51871965E-13
   85.0000000      -5.11721037E-13
   85.1250000      -5.61405035E-13
   85.2500000      -5.98159976E-13
   85.3750000      -6.19412887E-13
   85.5000000      -6.22892580E-13
   85.6250000      -6.06737100E-13
   85.7500000      -5.69595857E-13
   85.8750000      -5.10720101E-13
   86.0000000      -4.30039440E-13
   86.1250000      -3.28219629E-13
   86.2500000      -2.06697886E-13
   86.3750000      -6.76939448E-14
   86.5000000       8.58065246E-14
   86.6250000       2.50096683E-13
   86.7500000       4.20821472E-13
   86.8750000       5.93079188E-13
   87.0000000       7.61548539E-13
   87.1250000       9.20638891E-13
   87.2500000       1.06466019E-12
   87.3750000       1.18800716E-12
   87.5000000       1.28535160E-12
   87.6250000       1.35183889E-12
   87.7500000       1.38327837E-12
   87.8750000       1.37632397E-12
   88.0000000       1.32863609E-12
   88.1250000       1.23901920E-12
   88.2500000       1.10752748E-12
   88.3750000       9.35535178E-13
   88.5000000       7.25765639E-13
   88.6250000       4.82275624E-13
   88.7500000       2.10395259E-13
   88.8750000      -8.33788605E-14
   89.0000000      -3.91535410E-13
   89.1250000      -7.05740587E-13
   89.2500000      -1.01706816E-12
   89.3750000      -1.31625917E-12
   89.5000000      -1.59400488E-12
   89.6250000      -1.84124504E-12
   89.7500000      -2.04946823E-12
   89.8750000      -2.21101002E-12
   90.0000000      -2.31933223E-12
   90.1250000      -2.36927557E-12
   90.2500000      -2.35727713E-12
   90.3750000      -2.28154106E-12
   90.5000000      -2.14215516E-12
   90.6250000      -1.94114971E-12
   90.7500000      -1.68249030E-12
   90.8750000      -1.37200483E-12
   91.0000000      -1.01724813E-12
   91.1250000      -6.27296880E-13
   91.2500000      -2.12491754E-13
   91.3750000       2.15874424E-13
   91.5000000       6.45911059E-13
   91.6250000       1.06551313E-12
   91.7500000       1.46276470E-12
   91.8750000       1.82634246E-12
   92.0000000       2.14591062E-12
   92.1250000       2.41248839E-12
   92.2500000       2.61877911E-12
   92.3750000       2.75944263E-12
   92.5000000       2.83130268E-12
   92.6250000       2.83348020E-12
   92.7500000       2.76744187E-12
   92.8750000       2.63696140E-12
   93.0000000       2.44798973E-12
   93.1250000       2.20844068E-12
   93.2500000       1.92789079E-12
   93.3750000       1.61720583E-12
   93.5000000       1.28811111E-12
   93.6250000       9.52711434E-13
   93.7500000       6.22983978E-13
   93.8750000       3.10259115E-13
   94.0000000       2.47185187E-14
   94.1250000      -2.25081157E-13
   94.2500000      -4.32629518E-13
   94.3750000      -5.93811567E-13
   94.5000000      -7.07164687E-13
   94.6250000      -7.74032422E-13
   94.7500000      -7.98595673E-13
   94.8750000      -7.87785418E-13
   95.0000000      -7.51060347E-13
   95.1250000      -7.00064355E-13
   95.2500000      -6.48159261E-13
   95.3750000      -6.09853964E-13
   95.5000000      -6.00144392E-13
   95.6250000      -6.33780680E-13
   95.7500000      -7.24497122E-13
   95.8750000      -8.84219672E-13
   96.0000000      -1.12229735E-12
   96.1250000      -1.44477854E-12
   96.2500000      -1.85376606E-12
   96.3750000      -2.34689243E-12
   96.5000000      -2.91693752E-12
   96.6250000      -3.55160346E-12
   96.7500000      -4.23349723E-12
   96.8750000      -4.94029644E-12
   97.0000000      -5.64514494E-12
   97.1250000      -6.31724274E-12
   97.2500000      -6.92265516E-12
   97.3750000      -7.42530690E-12
   97.5000000      -7.78815380E-12
   97.6250000      -7.97447785E-12
   97.7500000      -7.94930007E-12
   97.8750000      -7.68084034E-12
   98.0000000      -7.14198882E-12
   98.1250000      -6.31173759E-12
   98.2500000      -5.17652241E-12
   98.3750000      -3.73139757E-12
   98.5000000      -1.98102884E-12
   98.6250000       5.95630722E-14
   98.7500000       2.36453327E-12
   98.8750000       4.89708881E-12
   99.0000000       7.60969933E-12
   99.1250000       1.04446582E-11
   99.2500000       1.33350241E-11
   99.3750000       1.62059272E-11
   99.5000000       1.89761887E-11
   99.6250000       2.15602709E-11
   99.7500000       2.38704681E-11
   99.8750000       2.58193120E-11
   100.000000       2.73221307E-11
   100.125000       2.82996439E-11
   100.250000       2.86806065E-11
   100.375000       2.84043102E-11
   100.500000       2.74229615E-11
   100.625000       2.57038071E-11
   100.750000       2.32309311E-11
   100.875000       2.00066699E-11
   101.000000       1.60525881E-11
   101.125000       1.14099719E-11
   101.250000       6.13978052E-12
   101.375000       3.22081229E-13
   101.500000      -5.94508340E-12
   101.625000      -1.25473087E-11
   101.750000      -1.93559821E-11
   101.875000      -2.62308196E-11
   102.000000      -3.30228796E-11
   102.125000      -3.95777924E-11
   102.250000      -4.57392978E-11
   102.375000      -5.13528629E-11
   102.500000      -5.62693434E-11