  -4.50000000       0.00000000    
  -4.37500000       0.00000000    
  -4.25000000       0.00000000    
  -4.12500000       0.00000000    
  -4.00000000       0.00000000    
  -3.87500000       0.00000000    
  -3.75000000       0.00000000    
  -3.62500000       0.00000000    
  -3.50000000       0.00000000    
  -3.37500000       0.00000000    
  -3.25000000       0.00000000    
  -3.12500000       0.00000000    
  -3.00000000       0.00000000    
  -2.87500000       0.00000000    
  -2.75000000       0.00000000    
  -2.62500000       0.00000000    
  -2.50000000       0.00000000    
  -2.37500000       0.00000000    
  -2.25000000       0.00000000    
  -2.12500000       0.00000000    
  -2.00000000       0.00000000    
  -1.87500000       0.00000000    
  -1.75000000       0.00000000    
  -1.62500000       0.00000000    
  -1.50000000       0.00000000    
  -1.37500000       0.00000000    
  -1.25000000       0.00000000    
  -1.12500000       0.00000000    
  -1.00000000       0.00000000    
 -0.875000000       0.00000000    
 -0.750000000       0.00000000    
 -0.625000000       0.00000000    
 -0.500000000       0.00000000    
 -0.375000000       0.00000000    
 -0.250000000       0.00000000    
 -0.125000000       0.00000000    
   0.00000000       0.00000000    
  0.125000000       0.00000000    
  0.250000000       0.00000000    
  0.375000000       0.00000000    
  0.500000000       0.00000000    
  0.625000000       0.00000000    
  0.750000000       0.00000000    
  0.875000000       0.00000000    
   1.00000000       0.00000000    
   1.12500000       0.00000000    
   1.25000000       0.00000000    
   1.37500000       0.00000000    
   1.50000000       0.00000000    
   1.62500000       0.00000000    
   1.75000000       0.00000000    
   1.87500000       0.00000000    
   2.00000000       0.00000000    
   2.12500000       0.00000000    
   2.25000000       0.00000000    
   2.37500000       0.00000000    
   2.50000000       0.00000000    
   2.62500000       0.00000000    
   2.75000000       0.00000000    
   2.87500000       0.00000000    
   3.00000000       0.00000000    
   3.12500000       0.00000000    
   3.25000000       0.00000000    
   3.37500000       0.00000000    
   3.50000000       0.00000000    
   3.62500000       0.00000000    
   3.75000000       0.00000000    
   3.87500000       0.00000000    
   4.00000000       0.00000000    
   4.12500000       0.00000000    
   4.25000000       0.00000000    
   4.37500000       0.00000000    
   4.50000000       0.00000000    
   4.62500000       0.00000000    
   4.75000000       0.00000000    
   4.87500000       0.00000000    
   5.00000000       0.00000000    
   5.12500000       0.00000000    
   5.25000000       0.00000000    
   5.37500000       0.00000000    
   5.50000000       0.00000000    
   5.62500000       0.00000000    
   5.75000000       0.00000000    
   5.87500000       0.00000000    
   6.00000000       0.00000000    
   6.12500000       0.00000000    
   6.25000000       0.00000000    
   6.37500000       0.00000000    
   6.50000000       0.00000000    
   6.62500000       0.00000000    
   6.75000000       0.00000000    
   6.87500000       0.00000000    
   7.00000000       0.00000000    
   7.12500000       0.00000000    
   7.25000000       0.00000000    
   7.37500000       0.00000000    
   7.50000000       0.00000000    
   7.62500000       0.00000000    
   7.75000000       0.00000000    
   7.87500000       0.00000000    
   8.00000000       0.00000000    
   8.12500000       0.00000000    
   8.25000000       0.00000000    
   8.37500000       0.00000000    
   8.50000000       0.00000000    
   8.62500000       0.00000000    
   8.75000000       0.00000000    
   8.87500000       0.00000000    
   9.00000000       0.00000000    
   9.12500000       0.00000000    
   9.25000000       0.00000000    
   9.37500000       2.58021086E-40
   9.50000000       3.15292154E-43
   9.62500000      -1.07269397E-41
   9.75000000      -1.22602405E-40
   9.87500000      -9.75745140E-40
   10.0000000      -2.17490350E-39
   10.1250000      -2.69569047E-39
   10.2500000      -2.87996402E-39
   10.3750000      -2.53990391E-39
   10.5000000      -1.71856225E-39
   10.6250000      -6.70689471E-41
   10.7500000       3.68336206E-39
   10.8750000       7.77494058E-39
   11.0000000       1.26265441E-38
   11.1250000       2.11094224E-37
   11.2500000       6.04199137E-37
   11.3750000       8.02221533E-37
   11.5000000       7.99421716E-37
   11.6250000       7.89595767E-37
   11.7500000       7.72715434E-37
   11.8750000       7.48443106E-37
   12.0000000       7.15396587E-37
   12.1250000       6.78925070E-37
   12.2500000       8.37911551E-37
   12.3750000       1.00619023E-36
   12.5000000       9.95258939E-37
   12.6250000       1.00627767E-36
   12.7500000       1.61422534E-36
   12.8750000       2.25517199E-36
   13.0000000       2.52229239E-36
   13.1250000       3.16555879E-36
   13.2500000       3.76364786E-36
   13.3750000       3.78036551E-36
   13.5000000       2.93453763E-36
   13.6250000       1.12118711E-36
   13.7500000      -5.55146785E-37
   13.8750000      -2.75197171E-36
   14.0000000      -5.11814861E-36
   14.1250000      -7.40309396E-36
   14.2500000      -7.93533805E-36
   14.3750000      -6.23093797E-36
   14.5000000      -1.02695618E-36
   14.6250000       6.88265072E-36
   14.7500000       1.61755183E-35
   14.8750000       2.65777723E-35
   15.0000000       3.52779027E-35
   15.1250000       4.03213934E-35
   15.2500000       3.90848313E-35
   15.3750000       2.87913234E-35
   15.5000000       8.69857282E-36
   15.6250000      -2.32772677E-35
   15.7500000      -6.66999888E-35
   15.8750000      -1.20810663E-34
   16.0000000      -1.81151761E-34
   16.1250000      -2.43051296E-34
   16.2500000      -3.01696020E-34
   16.3750000      -3.50611899E-34
   16.5000000      -3.84402288E-34
   16.6250000      -3.97503103E-34
   16.7500000      -3.89596021E-34
   16.8750000      -3.61219060E-34
   17.0000000      -3.20100749E-34
   17.1250000      -2.75417844E-34
   17.2500000      -2.40511585E-34
   17.3750000      -2.30253538E-34
   17.5000000      -2.58826338E-34
   17.6250000      -3.32402918E-34
   17.7500000      -4.44199800E-34
   17.8750000      -5.66415902E-34
   18.0000000      -6.39889947E-34
   18.1250000      -5.67137316E-34
   18.2500000      -2.09168773E-34
   18.3750000       6.23375445E-34
   18.5000000       2.16082439E-33
   18.6250000       4.66611858E-33
   18.7500000       8.40592925E-33
   18.8750000       1.36153573E-32
   19.0000000       2.04438862E-32
   19.1250000       2.88910151E-32
   19.2500000       3.87235405E-32
   19.3750000       4.93902230E-32
   19.5000000       5.99348776E-32
   19.6250000       6.89185696E-32
   19.7500000       7.43647231E-32
   19.8750000       7.37404827E-32
   20.0000000       6.39949939E-32
   20.1250000       4.16683213E-32
   20.2500000       3.08888030E-33
   20.3750000      -5.53261110E-32
   20.5000000      -1.36665700E-31
   20.6250000      -2.43006844E-31
   20.7500000      -3.74805057E-31
   20.8750000      -5.30211617E-31
   21.0000000      -7.04348363E-31
   21.1250000      -8.88599156E-31
   21.2500000      -1.06998141E-30
   21.3750000      -1.23066359E-30
   21.5000000      -1.34772402E-30
   21.6250000      -1.39322741E-30
   21.7500000      -1.33471290E-30
   21.8750000      -1.13616664E-30
   22.0000000      -7.59552022E-31
   22.1250000      -1.66945859E-31
   22.2500000       6.76686536E-31
   22.3750000       1.80007964E-30
   22.5000000       3.22162527E-30
   22.6250000       4.94474990E-30
   22.7500000       6.95278540E-30
   22.8750000       9.20340832E-30
   23.0000000       1.16227841E-29
   23.1250000       1.40995691E-29
   23.2500000       1.64789532E-29
   23.3750000       1.85570332E-29
   23.5000000       2.00758937E-29
   23.6250000       2.07199067E-29
   23.7500000       2.01139986E-29
   23.8750000       1.78248999E-29
   24.0000000       1.33667152E-29
   24.1250000       6.21254256E-30
   24.2500000      -4.18574129E-30
   24.3750000      -1.83670221E-29
   24.5000000      -3.68171451E-29
   24.6250000      -5.99089037E-29
   24.7500000      -8.78233203E-29
   24.8750000      -1.20450487E-28
   25.0000000      -1.57269236E-28
   25.1250000      -1.97207246E-28
   25.2500000      -2.38485618E-28
   25.3750000      -2.78456031E-28
   25.5000000      -3.13442860E-28
   25.6250000      -3.38608144E-28
   25.7500000      -3.47863176E-28
   25.8750000      -3.33855719E-28
   26.0000000      -2.88068877E-28
   26.1250000      -2.01068940E-28
   26.2500000      -6.29446929E-29
   26.3750000       1.36023725E-28
   26.5000000       4.04433251E-28
   26.6250000       7.48542140E-28
   26.7500000       1.17076655E-27
   26.8750000       1.66791349E-27
   27.0000000       2.22920671E-27
   27.1250000       2.83420351E-27
   27.2500000       3.45074877E-27
   27.3750000       4.03316385E-27
   27.5000000       4.52092526E-27
   27.6250000       4.83812014E-27
   27.7500000       4.89403720E-27
   27.8750000       4.58523783E-27
   28.0000000       3.79948499E-27
   28.1250000       2.42184747E-27
   28.2500000       3.43244892E-28
   28.3750000      -2.52843402E-27
   28.5000000      -6.25468437E-27
   28.6250000      -1.08504590E-26
   28.7500000      -1.62665353E-26
   28.8750000      -2.23710229E-26
   29.0000000      -2.89312919E-26
   29.1250000      -3.55978814E-26
   29.2500000      -4.18924245E-26
   29.3750000      -4.72018620E-26
   29.5000000      -5.07814232E-26
   29.6250000      -5.17690770E-26
   29.7500000      -4.92138703E-26
   29.8750000      -4.21204546E-26
   30.0000000      -2.95113019E-26
   30.1250000      -1.05074516E-26
   30.2500000       1.55728430E-26
   30.3750000       4.90996272E-26
   30.5000000       9.00047707E-26
   30.6250000       1.37649683E-25
   30.7500000       1.90695291E-25
   30.8750000       2.46985102E-25
   31.0000000       3.03453738E-25
   31.1250000       3.56075616E-25
   31.2500000       3.99869131E-25
   31.3750000       4.28972502E-25
   31.5000000       4.36806138E-25
   31.6250000       4.16334901E-25
   31.7500000       3.60439546E-25
   31.8750000       2.62401194E-25
   32.0000000       1.16496205E-25
   32.1250000      -8.13107593E-26
   32.2500000      -3.32597464E-25
   32.3750000      -6.35672055E-25
   32.5000000      -9.84764157E-25
   32.6250000      -1.36927705E-24
   32.7500000      -1.77316999E-24
   32.8750000      -2.17454774E-24
   33.0000000      -2.54554410E-24
   33.1250000      -2.85258316E-24
   33.2500000      -3.05710087E-24
   33.3750000      -3.11680127E-24
   33.5000000      -2.98749770E-24
   33.6250000      -2.62556989E-24
   33.7500000      -1.99102773E-24
   33.8750000      -1.05113280E-24
   34.0000000       2.15522395E-25
   34.1250000       1.81463212E-24
   34.2500000       3.73170691E-24
   34.3750000       5.92778523E-24
   34.5000000       8.33565574E-24
   34.6250000       1.08569664E-23
   34.7500000       1.33606263E-23
   34.8750000       1.56829098E-23
   35.0000000       1.76297081E-23
   35.1250000       1.89812524E-23
   35.2500000       1.94996618E-23
   35.3750000       1.89394712E-23
   35.5000000       1.70611918E-23
   35.6250000       1.36477970E-23
   35.7500000       8.52375173E-24
   35.8750000       1.57601738E-24
   36.0000000      -7.22381625E-24
   36.1250000      -1.77974010E-23
   36.2500000      -2.99388522E-23
   36.3750000      -4.32969085E-23
   36.5000000      -5.73618314E-23
   36.6250000      -7.14589020E-23
   36.7500000      -8.47504068E-23
   36.8750000      -9.62479472E-23
   37.0000000      -1.04836667E-22
   37.1250000      -1.09312506E-22
   37.2500000      -1.08433349E-22
   37.3750000      -1.00983965E-22
   37.5000000      -8.58539411E-23
   37.6250000      -6.21269236E-23
   37.7500000      -2.91783777E-23
   37.8750000       1.32220408E-23
   38.0000000       6.48085079E-23
   38.1250000       1.24723377E-22
   38.2500000       1.91434895E-22
   38.3750000       2.62675788E-22
   38.5000000       3.35410783E-22
   38.6250000       4.05841218E-22
   38.7500000       4.69454129E-22
   38.8750000       5.21122574E-22
   39.0000000       5.55262354E-22
   39.1250000       5.66047862E-22
   39.2500000       5.47687724E-22
   39.3750000       4.94756647E-22
   39.5000000       4.02577253E-22
   39.6250000       2.67639982E-22
   39.7500000       8.80465769E-23
   39.8750000      -1.36043291E-22
   40.0000000      -4.01985923E-22
   40.1250000      -7.04275781E-22
   40.2500000      -1.03424718E-21
   40.3750000      -1.37988711E-21
   40.5000000      -1.72579219E-21
   40.6250000      -2.05330179E-21
   40.7500000      -2.34083430E-21
   40.8750000      -2.56445074E-21
   41.0000000      -2.69865918E-21
   41.1250000      -2.71746562E-21
   41.2500000      -2.59566409E-21
   41.3750000      -2.31034433E-21
   41.5000000      -1.84257733E-21
   41.6250000      -1.17922917E-21
   41.7500000      -3.14827824E-22
   41.8750000       7.46605981E-22
   42.0000000       1.98986253E-21
   42.1250000       3.38710448E-21
   42.2500000       4.89680462E-21
   42.3750000       6.46319308E-21
   42.5000000       8.01634383E-21
   42.6250000       9.47301374E-21
   42.7500000       1.07383367E-20
   42.8750000       1.17084629E-20
   43.0000000       1.22741607E-20
   43.1250000       1.23254096E-20
   43.2500000       1.17569143E-20
   43.3750000       1.04744387E-20
   43.5000000       8.40178980E-21
   43.6250000       5.48822260E-21
   43.7500000       1.71594478E-21
   43.8750000      -2.89261849E-21
   44.0000000      -8.26823649E-21
   44.1250000      -1.42894142E-20
   44.2500000      -2.07785540E-20
   44.3750000      -2.75002495E-20
   44.5000000      -3.41621909E-20
   44.6250000      -4.04190820E-20
   44.7500000      -4.58800283E-20
   44.8750000      -5.01195454E-20
   45.0000000      -5.26924164E-20
   45.1250000      -5.31522577E-20
   45.2500000      -5.10736336E-20
   45.3750000      -4.60771913E-20
   45.5000000      -3.78571712E-20
   45.6250000      -2.62102355E-20
   45.7500000      -1.10646167E-20
   45.8750000       7.49210358E-21
   46.0000000       2.91879016E-20
   46.1250000       5.35459311E-20
   46.2500000       7.98705308E-20
   46.3750000       1.07241543E-19
   46.5000000       1.34518696E-19
   46.6250000       1.60357686E-19
   46.7500000       1.83239130E-19
   46.8750000       2.01511434E-19
   47.0000000       2.13447702E-19
   47.1250000       2.17316632E-19
   47.2500000       2.11466022E-19
   47.3750000       1.94417468E-19
   47.5000000       1.64968998E-19
   47.6250000       1.22302453E-19
   47.7500000       6.60910330E-20
   47.8750000      -3.39838754E-21
   48.0000000      -8.52138849E-20
   48.1250000      -1.77644481E-19
   48.2500000      -2.78170113E-19
   48.3750000      -3.83442184E-19
   48.5000000      -4.89300907E-19
   48.6250000      -5.90834484E-19
   48.7500000      -6.82485217E-19
   48.8750000      -7.58204193E-19
   49.0000000      -8.11656604E-19
   49.1250000      -8.36474762E-19
   49.2500000      -8.26555833E-19
   49.3750000      -7.76397306E-19
   49.5000000      -6.81458944E-19
   49.6250000      -5.38540332E-19
   49.7500000      -3.46156475E-19
   49.8750000      -1.04894457E-19
   50.0000000       1.82269804E-19
   50.1250000       5.09715880E-19
   50.2500000       8.69006897E-19
   50.3750000       1.24882280E-18
   50.5000000       1.63501916E-18
   50.6250000       2.01082892E-18
   50.7500000       2.35722011E-18
   50.8750000       2.65341797E-18
   51.0000000       2.87759261E-18
   51.1250000       3.00770626E-18
   51.2500000       3.02250452E-18
   51.3750000       2.90262805E-18
   51.5000000       2.63181140E-18
   51.6250000       2.19812536E-18
   51.7500000       1.59521171E-18
   51.8750000       8.23452199E-19
   52.0000000      -1.08995431E-19
   52.1250000      -1.18536140E-18
   52.2500000      -2.37969771E-18
   52.3750000      -3.65665116E-18
   52.5000000      -4.97163341E-18
   52.6250000      -6.27144559E-18
   52.7500000      -7.49539455E-18
   52.8750000      -8.57691666E-18
   53.0000000      -9.44572348E-18
   53.1250000      -1.00304310E-17
   53.2500000      -1.02616395E-17
   53.3750000      -1.00753684E-17
   53.5000000      -9.41676141E-18
   53.6250000      -8.24391608E-18
   53.7500000      -6.53167827E-18
   53.8750000      -4.27524205E-18
   54.0000000      -1.49333790E-18
   54.1250000       1.76918237E-18
   54.2500000       5.43956866E-18
   54.3750000       9.41640324E-18
   54.5000000       1.35700146E-17
   54.6250000       1.77442236E-17
   54.7500000       2.17595204E-17
   54.8750000       2.54177465E-17
   55.0000000       2.85082736E-17
   55.1250000       3.08155748E-17
   55.2500000       3.21280987E-17
   55.3750000       3.22481556E-17
   55.5000000       3.10026102E-17
   55.6250000       2.82538394E-17
   55.7500000       2.39107094E-17
   55.8750000       1.79389187E-17
   56.0000000       1.03702277E-17
   56.1250000       1.31000511E-18
   56.2500000      -9.05746144E-18
   56.3750000      -2.04664402E-17
   56.5000000      -3.25704815E-17
   56.6250000      -4.49467975E-17
   56.7500000      -5.71045856E-17
   56.8750000      -6.84973575E-17
   57.0000000      -7.85394360E-17
   57.1250000      -8.66261588E-17
   57.2500000      -9.21576016E-17
   57.3750000      -9.45651339E-17
   57.5000000      -9.33399404E-17
   57.6250000      -8.80626009E-17
   57.7500000      -7.84324716E-17
   57.8750000      -6.42956638E-17
   58.0000000      -4.56700511E-17
   58.1250000      -2.27660635E-17
   58.2500000       3.99837725E-18
   58.3750000       3.39900061E-17
   58.5000000       6.63607301E-17
   58.6250000       1.00057441E-16
   58.7500000       1.33841860E-16
   58.8750000       1.66320743E-16
   59.0000000       1.95986325E-16
   59.1250000       2.21266632E-16
   59.2500000       2.40584383E-16
   59.3750000       2.52423230E-16
   59.5000000       2.55398989E-16
   59.6250000       2.48333755E-16
   59.7500000       2.30329672E-16
   59.8750000       2.00839426E-16
   60.0000000       1.59729900E-16
   60.1250000       1.07335439E-16
   60.2500000       4.44974002E-17
   60.3750000      -2.74135033E-17
   60.5000000      -1.06494640E-16
   60.6250000      -1.90331281E-16
   60.7500000      -2.76040308E-16
   60.8750000      -3.60338615E-16
   61.0000000      -4.39635987E-16
   61.1250000      -5.10151268E-16
   61.2500000      -5.68049041E-16
   61.3750000      -6.09593889E-16
   61.5000000      -6.31316790E-16
   61.6250000      -6.30188436E-16
   61.7500000      -6.03792402E-16
   61.8750000      -5.50491159E-16
   62.0000000      -4.69576696E-16
   62.1250000      -3.61398227E-16
   62.2500000      -2.27458760E-16
   62.3750000      -7.04730221E-17
   62.5000000       1.05619093E-16
   62.6250000       2.95689302E-16
   62.7500000       4.93511676E-16
   62.8750000       6.91908127E-16
   63.0000000       8.82949050E-16
   63.1250000       1.05820578E-15
   63.2500000       1.20904943E-15
   63.3750000       1.32698807E-15
   63.5000000       1.40403218E-15
   63.6250000       1.43307450E-15
   63.7500000       1.40827179E-15
   63.8750000       1.32541026E-15
   64.0000000       1.18223893E-15
   64.1250000       9.78753876E-16
   64.2500000       7.17414354E-16
   64.3750000       4.03278342E-16
   64.5000000       4.40416435E-17
   64.6250000      -3.50030357E-16
   64.7500000      -7.66284079E-16
   64.8750000      -1.18997764E-15
   65.0000000      -1.60469608E-15
   65.1250000      -1.99287625E-15
   65.2500000      -2.33642942E-15
   65.3750000      -2.61744383E-15
   65.5000000      -2.81894598E-15
   65.6250000      -2.92569330E-15
   65.7500000      -2.92496803E-15
   65.8750000      -2.80733654E-15
   66.0000000      -2.56734395E-15
   66.1250000      -2.20410128E-15
   66.2500000      -1.72173730E-15
   66.3750000      -1.12967863E-15
   66.5000000      -4.42732342E-16
   66.6250000       3.19051000E-16
   66.7500000       1.13074780E-15
   66.8750000       1.96317165E-15
   67.0000000       2.78371957E-15
   67.1250000       3.55743885E-15
   67.2500000       4.24828824E-15
   67.3750000       4.82056318E-15
   67.5000000       5.24043106E-15
   67.6250000       5.47752914E-15
   67.7500000       5.50655399E-15
   67.8750000       5.30878535E-15
   68.0000000       4.87346335E-15
   68.1250000       4.19895281E-15
   68.2500000       3.29362536E-15
   68.3750000       2.17639292E-15
   68.5000000       8.76841784E-16
   68.6250000      -5.65074843E-16
   68.7500000      -2.09981352E-15
   68.8750000      -3.66949750E-15
   69.0000000      -5.20964057E-15
   69.1250000      -6.65131012E-15
   69.2500000      -7.92367220E-15
   69.3750000      -8.95685334E-15
   69.5000000      -9.68501453E-15
   69.6250000      -1.00495411E-14
   69.7500000      -1.00022097E-14
   69.8750000      -9.50819894E-15
   70.0000000      -8.54881385E-15
   70.1250000      -7.12376731E-15
   70.2500000      -5.25288456E-15
   70.3750000      -2.97711964E-15
   70.5000000      -3.58761784E-16
   70.6250000       2.51924073E-15
   70.7500000       5.55489967E-15
   70.8750000       8.62975378E-15
   71.0000000       1.16123753E-14
   71.1250000       1.43627396E-14
   71.2500000       1.67373761E-14
   71.3750000       1.85951362E-14
   71.5000000       1.98033897E-14
   71.6250000       2.02444635E-14
   71.7500000       1.98220329E-14
   71.8750000       1.84672241E-14
   72.0000000       1.61441549E-14
   72.1250000       1.28545957E-14
   72.2500000       8.64152669E-15
   72.3750000       3.59130365E-15
   72.5000000      -2.16575716E-15
   72.6250000      -8.45654740E-15
   72.7500000      -1.50682164E-14
   72.8750000      -2.17531190E-14
   73.0000000      -2.82356620E-14
   73.1250000      -3.42209137E-14
   73.2500000      -3.94048164E-14
   73.3750000      -4.34857025E-14
   73.5000000      -4.61767838E-14
   73.6250000      -4.72192442E-14
   73.7500000      -4.63953488E-14
   73.8750000      -4.35411662E-14
   74.0000000      -3.85583289E-14
   74.1250000      -3.14242379E-14
   74.2500000      -2.22002152E-14
   74.3750000      -1.10370824E-14
   74.5000000       1.82224443E-15
   74.6250000       1.60435731E-14
   74.7500000       3.12058762E-14
   74.8750000       4.68095174E-14
   75.0000000       6.22882551E-14
   75.1250000       7.70249140E-14
   75.2500000       9.03704398E-14
   75.3750000       1.01665834E-13
   75.5000000       1.10266410E-13
   75.6250000       1.15567712E-13
   75.7500000       1.17032089E-13
   75.8750000       1.14215156E-13
   76.0000000       1.06791027E-13
   76.1250000       9.45751656E-14
   76.2500000       7.75441248E-14
   76.3750000       5.58508555E-14
   76.5000000       2.98347332E-14
   76.6250000       2.56640527E-17
   76.7500000      -3.28585561E-14
   76.8750000      -6.79219593E-14
   77.0000000      -1.04107478E-13
   77.1250000      -1.40221249E-13
   77.2500000      -1.74963952E-13
   77.3750000      -2.06968340E-13
   77.5000000      -2.34842527E-13
   77.6250000      -2.57217343E-13
   77.7500000      -2.72796976E-13
   77.8750000      -2.80410704E-13
   78.0000000      -2.79064613E-13
   78.1250000      -2.67990789E-13
   78.2500000      -2.46692694E-13
   78.3750000      -2.14984253E-13
   78.5000000      -1.73021387E-13
   78.6250000      -1.21323822E-13
   78.7500000      -6.07861133E-14
   78.8750000       7.32351886E-15
   79.0000000       8.13772471E-14
   79.1250000       1.59414962E-13
   79.2500000       2.39185001E-13
   79.3750000       3.18197644E-13
   79.5000000       3.93790415E-13
   79.6250000       4.63204019E-13
   79.7500000       5.23666776E-13
   79.8750000       5.72485039E-13
   80.0000000       6.07137875E-13
   80.1250000       6.25371933E-13
   80.2500000       6.25294250E-13
   80.3750000       6.05459042E-13
   80.5000000       5.64946256E-13
   80.6250000       5.03427595E-13
   80.7500000       4.21217775E-13
   80.8750000       3.19308517E-13
   81.0000000       1.99382706E-13
   81.1250000       6.38074459E-14
   81.2500000      -8.43953407E-14
   81.3750000      -2.41600685E-13
   81.5000000      -4.03654567E-13
   81.6250000      -5.65969418E-13
   81.7500000      -7.23638326E-13
   81.8750000      -8.71566382E-13
   82.0000000      -1.00461544E-12
   82.1250000      -1.11775823E-12
   82.2500000      -1.20623856E-12
   82.3750000      -1.26573123E-12
   82.5000000      -1.29249855E-12
   82.6250000      -1.28353730E-12
   82.7500000      -1.23671093E-12
   82.8750000      -1.15086391E-12
   83.0000000      -1.02591189E-12
   83.1250000      -8.62904529E-13
   83.2500000      -6.64058869E-13
   83.3750000      -4.32758918E-13
   83.5000000      -1.73521530E-13
   83.6250000       1.08072629E-13
   83.7500000       4.05482505E-13
   83.8750000       7.11342606E-13
   84.0000000       1.01762956E-12
   84.1250000       1.31585487E-12
   84.2500000       1.59728036E-12
   84.3750000       1.85315045E-12
   84.5000000       2.07493463E-12
   84.6250000       2.25457587E-12
   84.7500000       2.38473542E-12
   84.8750000       2.45902994E-12
   85.0000000       2.47225005E-12
   85.1250000       2.42055898E-12
   85.2500000       2.30165886E-12
   85.3750000       2.11492586E-12
   85.5000000       1.86150205E-12
   85.6250000       1.54434636E-12
   85.7500000       1.16823814E-12
   85.8750000       7.39732060E-13
   86.0000000       2.67066425E-13
   86.1250000      -2.39977824E-13
   86.2500000      -7.70262706E-13
   86.3750000      -1.31152099E-12
   86.5000000      -1.85062100E-12
   86.6250000      -2.37386369E-12
   86.7500000      -2.86730535E-12
   86.8750000      -3.31709573E-12
   87.0000000      -3.70982802E-12
   87.1250000      -4.03289121E-12
   87.2500000      -4.27481054E-12
   87.3750000      -4.42557622E-12
   87.5000000      -4.47694616E-12
   87.6250000      -4.42271523E-12
   87.7500000      -4.25894606E-12
   87.8750000      -3.98415198E-12
   88.0000000      -3.59942718E-12
   88.1250000      -3.10852299E-12
   88.2500000      -2.51786070E-12
   88.3750000      -1.83648452E-12
   88.5000000      -1.07595064E-12
   88.6250000      -2.50156422E-13
   88.7500000       6.24892770E-13
   88.8750000       1.53136889E-12
   89.0000000       2.44996016E-12
   89.1250000       3.36025240E-12
   89.2500000       4.24114866E-12
   89.3750000       5.07131663E-12
   89.5000000       5.82965750E-12
   89.6250000       6.49578048E-12
   89.7500000       7.05048259E-12
   89.8750000       7.47621322E-12
   90.0000000       7.75751945E-12
   90.1250000       7.88145937E-12
   90.2500000       7.83797680E-12
   90.3750000       7.62021956E-12
   90.5000000       7.22480973E-12
   90.6250000       6.65203786E-12
   90.7500000       5.90599488E-12
   90.8750000       4.99462234E-12
   91.0000000       3.92968774E-12
   91.1250000       2.72667652E-12
   91.2500000       1.40460777E-12
   91.3750000      -1.42312699E-14
   91.5000000      -1.50462542E-12
   91.6250000      -3.03883936E-12
   91.7500000      -4.58708939E-12
   91.8750000      -6.11807306E-12
   92.0000000      -7.59953992E-12
   92.1250000      -8.99890232E-12
   92.2500000      -1.02838718E-11
   92.3750000      -1.14231029E-11
   92.5000000      -1.23868407E-11
   92.6250000      -1.31475620E-11
   92.7500000      -1.36805836E-11
   92.8750000      -1.39646393E-11
   93.0000000      -1.39824116E-11
   93.1250000      -1.37209974E-11
   93.2500000      -1.31723183E-11
   93.3750000      -1.23334442E-11
   93.5000000      -1.12068358E-11
   93.6250000      -9.80050416E-12
   93.7500000      -8.12806940E-12
   93.8750000      -6.20872364E-12
   94.0000000      -4.06709865E-12
   94.1250000      -1.73303570E-12
   94.2500000       7.58742299E-13
   94.3750000       3.36905048E-12
   94.5000000       6.05474915E-12
   94.6250000       8.76933422E-12
   94.7500000       1.14636044E-11
   94.8750000       1.40863952E-11
   95.0000000       1.65853702E-11
   95.1250000       1.89078631E-11
   95.2500000       2.10017524E-11
   95.3750000       2.28163807E-11
   95.5000000       2.43034690E-11
   95.6250000       2.54180427E-11
   95.7500000       2.61193567E-11
   95.8750000       2.63717832E-11
   96.0000000       2.61456759E-11
   96.1250000       2.54181780E-11
   96.2500000       2.41739753E-11
   96.3750000       2.24059556E-11
   96.5000000       2.01157962E-11
   96.6250000       1.73144329E-11
   96.7500000       1.40224074E-11
   96.8750000       1.02700973E-11
   97.0000000       6.09778287E-12
   97.1250000       1.55556742E-12
   97.2500000      -3.29686864E-12
   97.3750000      -8.39069352E-12
   97.5000000      -1.36485320E-11
   97.6250000      -1.89852491E-11
   97.7500000      -2.43089299E-11
   97.8750000      -2.95220341E-11
   98.0000000      -3.45227319E-11
   98.1250000      -3.92064124E-11
   98.2500000      -4.34673443E-11
   98.3750000      -4.72004553E-11
   98.5000000      -5.03032511E-11
   98.6250000      -5.26778135E-11
   98.7500000      -5.42328474E-11
   98.8750000      -5.48857834E-11
   99.0000000      -5.45648214E-11
   99.1250000      -5.32109738E-11
   99.2500000      -5.07800052E-11
   99.3750000      -4.72441981E-11
   99.5000000      -4.25940255E-11
   99.6250000      -3.68395175E-11
   99.7500000      -3.00114586E-11
   99.8750000      -2.21622078E-11
   100.000000      -1.33662378E-11
   100.125000      -3.72031789E-12
   100.250000       6.65673419E-12
   100.375000       1.76246674E-11
   100.500000       2.90228518E-11
   100.625000       4.06717750E-11
   100.750000       5.23749481E-11
   100.875000       6.39212849E-11
   101.000000       7.50878110E-11
   101.125000       8.56428747E-11
   101.250000       9.53496448E-11
   101.375000       1.03969958E-10
   101.500000       1.11268418E-10
   101.625000       1.17016841E-10
   101.750000       1.20998711E-10
   101.875000       1.23013960E-10
   102.000000       1.22883592E-10
   102.125000       1.20454410E-10
   102.250000       1.15603645E-10
   102.375000       1.08243338E-10
   102.500000       9.83245430E-11