 -4.5   -1.023056258E-18
 -4.37296724   -1.023047055E-18
 -4.24593449   -1.02302772E-18
 -4.11890221   -1.023001457E-18
 -3.99186945   -1.022971265E-18
 -3.86483669   -1.022939108E-18
 -3.73780417   -1.02290902E-18
 -3.61077142   -1.022882343E-18
 -3.4837389   -1.022861147E-18
 -3.35670614   -1.022846051E-18
 -3.22967362   -1.022837262E-18
 -3.10264087   -1.022833436E-18
 -2.97560835   -1.022832299E-18
 -2.84857559   -1.022831885E-18
 -2.72154307   -1.022829197E-18
 -2.59451032   -1.022822166E-18
 -2.46747756   -1.022809034E-18
 -2.34044504   -1.022788768E-18
 -2.21341228   -1.022761058E-18
 -2.08637977   -1.022725799E-18
 -1.95934713   -1.022684337E-18
 -1.83231449   -1.022638738E-18
 -1.70528185   -1.022591796E-18
 -1.57824922   -1.022545474E-18
 -1.45121646   -1.022502564E-18
 -1.32418382   -1.022465237E-18
 -1.19715118   -1.022434735E-18
 -1.07011855   -1.022410954E-18
 -0.943085909   -1.02239441E-18
 -0.816053271   -1.022383657E-18
 -0.689020634   -1.022376626E-18
 -0.561987996   -1.022371456E-18
 -0.434955359   -1.022364631E-18
 -0.307922721   -1.022354292E-18
 -0.180890068   -1.022337541E-18
 -5.385742337E-2   -1.022313139E-18
 7.317522168E-2   -1.022280259E-18
 0.200207874   -1.022239003E-18
 0.327240527   -1.02219113E-18
 0.454273164   -1.022138501E-18
 0.581305802   -1.022083804E-18
 0.708338439   -1.022029727E-18
 0.835371077   -1.021979372E-18
 0.962403715   -1.021935635E-18
 1.08943641   -1.02190017E-18
 1.21646905   -1.021872562E-18
 1.34350169   -1.021853227E-18
 1.47053432   -1.021839889E-18
 1.59756696   -1.021829963E-18
 1.7245996   -1.021820347E-18
 1.85163224   -1.021807318E-18
 1.97866488   -1.021787673E-18
 2.10569763   -1.021758825E-18
 2.23273015   -1.021719534E-18
 2.35976291   -1.021670007E-18
 2.48679543   -1.021611794E-18
 2.61382818   -1.02154655E-18
 2.7408607   -1.021479031E-18
 2.86789346   -1.021412443E-18
 2.99492598   -1.021350715E-18
 3.12195873   -1.021297051E-18
 3.24899125   -1.021253418E-18
 3.37602401   -1.021220744E-18
 3.50305653   -1.021198514E-18
 3.63008928   -1.021184451E-18
 3.75712204   -1.021176076E-18
 3.88415456   -1.021168838E-18
 4.01118708   -1.021159429E-18
 4.13821983   -1.02114423E-18
 4.26525259   -1.021120965E-18
 4.39228535   -1.021087361E-18
 4.51931763   -1.02104321E-18
 4.64635038   -1.020988927E-18
 4.77338314   -1.020928129E-18
 4.9004159   -1.020862988E-18
 5.02744818   -1.020797124E-18
 5.15448093   -1.020734672E-18
 5.28151369   -1.020678217E-18
 5.40854645   -1.020630447E-18
 5.53557873   -1.020592294E-18
 5.66261148   -1.020563756E-18
 5.78964424   -1.020542663E-18
 5.916677   -1.020526636E-18
 6.04370975   -1.020512574E-18
 6.17074203   -1.020496134E-18
 6.29777479   -1.02047411E-18
 6.42480755   -1.020443091E-18
 6.55184031   -1.020400491E-18
 6.67887259   -1.020345897E-18
 6.80590534   -1.020280343E-18
 6.9329381   -1.020206207E-18
 7.05997086   -1.020126694E-18
 7.18700314   -1.020046354E-18
 7.31403589   -1.019970047E-18
 7.44106865   -1.019901805E-18
 7.56810141   -1.019845763E-18
 7.69513416   -1.019802439E-18
 7.82216644   -1.019772454E-18
 7.9491992   -1.01975467E-18
 8.07623196   -1.019744744E-18
 8.20326424   -1.01973916E-18
 8.33029747   -1.0197343E-18
 8.45732975   -1.019724995E-18
 8.58436203   -1.019708037E-18
 8.71139526   -1.01968043E-18
 8.83842754   -1.01964176E-18
 8.96546078   -1.019591508E-18
 9.09249306   -1.019532468E-18
 9.21952534   -1.019468259E-18
 9.34655857   -1.019401981E-18
 9.47359085   -1.019339115E-18
 9.60062313   -1.019283384E-18
 9.72765636   -1.019237889E-18
 9.85468864   -1.019205112E-18
 9.98172188   -1.019184949E-18
 10.1087542   -1.019176471E-18
 10.2357864   -1.019176367E-18
 10.3628197   -1.01918164E-18
 10.489852   -1.019187431E-18
 10.6168852   -1.019189809E-18
 10.7439175   -1.019184949E-18
 10.8709497   -1.019169646E-18
 10.997983   -1.019143383E-18
 11.1250153   -1.01910647E-18
 11.2520475   -1.019060355E-18
 11.3790808   -1.019007726E-18
 11.5061131   -1.018951994E-18
 11.6331463   -1.018896677E-18
 11.7601786   -1.018845909E-18
 11.8872108   -1.018802378E-18
 12.0142441   -1.018769394E-18
 12.1412764   -1.018747164E-18
 12.2683096   -1.018735066E-18
 12.3953419   -1.018731137E-18
 12.5223742   -1.018731861E-18
 12.6494074   -1.018733102E-18
 12.7764397   -1.018730413E-18
 12.9034719   -1.018719763E-18
 13.0305052   -1.01869867E-18
 13.1575375   -1.018665273E-18
 13.2845707   -1.018619054E-18
 13.411603   -1.018561979E-18
 13.5386353   -1.018497045E-18
 13.6656685   -1.018427562E-18
 13.7927008   -1.018358596E-18
 13.919734   -1.018294179E-18
 14.0467663   -1.018238034E-18
 14.1737986   -1.018192332E-18
 14.3008318   -1.018158935E-18
 14.4278641   -1.018136705E-18
 14.5548964   -1.018124607E-18
 14.6819296   -1.018118507E-18
 14.8089619   -1.018114474E-18
 14.9359951   -1.01810796E-18
 15.0630274   -1.018095035E-18
 15.1900597   -1.018071771E-18
 15.3170929   -1.018036822E-18
 15.4441252   -1.017988122E-18
 15.5711575   -1.017926911E-18
 15.6981907   -1.017855773E-18
 15.825223   -1.017778329E-18
 15.9522562   -1.017698506E-18
 16.0792885   -1.017620854E-18
 16.2063217   -1.017549096E-18
 16.333353   -1.017486644E-18
 16.4603863   -1.017434945E-18
 16.5874195   -1.017394724E-18
 16.7144508   -1.017364531E-18
 16.8414841   -1.017342301E-18
 16.9685173   -1.017324206E-18
 17.0955505   -1.017306112E-18
 17.2225819   -1.017284915E-18
 17.3496151   -1.017255861E-18
 17.4766483   -1.017215846E-18
 17.6036797   -1.017163837E-18
 17.7307129   -1.017100144E-18
 17.8577461   -1.017025801E-18
 17.9847775   -1.016944737E-18
 18.1118107   -1.016860158E-18
 18.2388439   -1.016776923E-18
 18.3658752   -1.016700202E-18
 18.4929085   -1.0166332E-18
 18.6199417   -1.01657871E-18
 18.7469749   -1.016537558E-18
 18.8740063   -1.016509744E-18
 19.0010395   -1.016492373E-18
 19.1280727   -1.016481516E-18
 19.2551041   -1.016473244E-18
 19.3821373   -1.016462594E-18
 19.5091705   -1.016445637E-18
 19.6362019   -1.01641834E-18
 19.7632351   -1.016379256E-18
 19.8902683   -1.016326833E-18
 20.0172997   -1.016262106E-18
 20.1443329   -1.01618797E-18
 20.2713661   -1.016108354E-18
 20.3983994   -1.01602698E-18
 20.5254307   -1.015949225E-18
 20.6524639   -1.015879846E-18
 20.7794971   -1.015821219E-18
 20.9065285   -1.015775931E-18
 21.0335617   -1.015743568E-18
 21.1605949   -1.015723508E-18
 21.2876263   -1.015712238E-18
 21.4146595   -1.015706965E-18
 21.5416927   -1.015702829E-18
 21.6687241   -1.015695281E-18
 21.7957573   -1.015679461E-18
 21.9227905   -1.015653819E-18
 22.0498238   -1.015616285E-18
 22.1768551   -1.015566861E-18
 22.3038883   -1.015506477E-18
 22.4309216   -1.015437924E-18
 22.5579529   -1.015365029E-18
 22.6849861   -1.01529172E-18
 22.8120193   -1.015222444E-18
 22.9390507   -1.015162783E-18
 23.0660839   -1.015115738E-18
 23.1931171   -1.015082754E-18
 23.3201485   -1.015064659E-18
 23.4471817   -1.015060627E-18
 23.5742149   -1.015066624E-18
 23.7012463   -1.015078928E-18
 23.8282795   -1.015091439E-18
 23.9553127   -1.015099918E-18
 24.082346   -1.01509785E-18
 24.2093773   -1.015081927E-18
 24.3364105   -1.015049666E-18
 24.4634438   -1.015001897E-18
 24.5904751   -1.014938928E-18
 24.7175083   -1.014865309E-18
 24.8445415   -1.01478714E-18
 24.9715729   -1.014708971E-18
 25.0986061   -1.014637937E-18
 25.2256393   -1.014579311E-18
 25.3526707   -1.014537228E-18
 25.4797039   -1.014514274E-18
 25.6067371   -1.014509724E-18
 25.7337704   -1.014521201E-18
 25.8608017   -1.014544156E-18
 25.9878349   -1.014572693E-18
 26.1148682   -1.014599887E-18
 26.2418995   -1.014619739E-18
 26.3689327   -1.014627184E-18
 26.495966   -1.014618395E-18
 26.6229973   -1.014591719E-18
 26.7500305   -1.014547671E-18
 26.8770638   -1.014489458E-18
 27.0040951   -1.01442163E-18
 27.1311283   -1.014350595E-18
 27.2581615   -1.014282663E-18
 27.3851948   -1.014224657E-18
 27.5122261   -1.014180403E-18
 27.6392593   -1.014153933E-18
 27.7662926   -1.014145868E-18
 27.8933239   -1.014154037E-18
 28.0203571   -1.01417482E-18
 28.1473904   -1.014203151E-18
 28.2744217   -1.014232412E-18
 28.4014549   -1.01425547E-18
 28.5284882   -1.01426674E-18
 28.6555195   -1.014260433E-18
 28.7825527   -1.014234583E-18
 28.909586   -1.014187848E-18
 29.0366192   -1.014123224E-18
 29.1636505   -1.014045056E-18
 29.2906837   -1.01396058E-18
 29.417717   -1.013876104E-18
 29.5447483   -1.013800314E-18
 29.6717815   -1.013739929E-18
 29.7988148   -1.013699708E-18
 29.9258461   -1.01368213E-18
 30.0528793   -1.013686783E-18
 30.1799126   -1.013710358E-18
 30.3069439   -1.013746133E-18
 30.4339771   -1.013785424E-18
 30.5610104   -1.013819546E-18
 30.6880436   -1.013839501E-18
 30.8150749   -1.013839398E-18
 30.9421082   -1.013814686E-18
 31.0691414   -1.013765262E-18
 31.1961727   -1.013694021E-18
 31.3232059   -1.01360696E-18
 31.4502392   -1.013512455E-18
 31.5772705   -1.013419707E-18
 31.7043037   -1.01333823E-18
 31.831337   -1.013275467E-18
 31.9583683   -1.01323659E-18
 32.0854034   -1.013223562E-18
 32.2124329   -1.013234832E-18
 32.3394661   -1.013265748E-18
 32.4664993   -1.013308658E-18
 32.5935326   -1.013355497E-18
 32.7205658   -1.01339727E-18
 32.847599   -1.01342498E-18
 32.9746284   -1.013432735E-18
 33.1016617   -1.013415778E-18
 33.2286949   -1.013374316E-18
 33.3557281   -1.01331114E-18
 33.4827614   -1.013230903E-18
 33.6097946   -1.013141878E-18
 33.7368279   -1.013052025E-18
 33.8638573   -1.01296879E-18
 33.9908905   -1.012900238E-18
 34.1179237   -1.01285102E-18
 34.244957   -1.012823103E-18
 34.3719902   -1.012816072E-18
 34.4990234   -1.012825998E-18
 34.6260529   -1.012849056E-18
 34.7530861   -1.01287687E-18
 34.8801193   -1.012902719E-18
 35.0071526   -1.012918229E-18
 35.1341858   -1.012917298E-18
 35.261219   -1.012895068E-18
 35.3882523   -1.012849159E-18
 35.5152817   -1.012780193E-18
 35.6423149   -1.012691685E-18
 35.7693481   -1.012588804E-18
 35.8963814   -1.01247941E-18
 36.0234146   -1.012371462E-18
 36.1504478   -1.012272718E-18
 36.2774773   -1.012190207E-18
 36.4045105   -1.012129099E-18
 36.5315437   -1.012091462E-18
 36.658577   -1.012076366E-18
 36.7856102   -1.012080708E-18
 36.9126434   -1.012098493E-18
 37.0396767   -1.012122274E-18
 37.1667061   -1.012144401E-18
 37.2937393   -1.012156912E-18
 37.4207726   -1.0121535E-18
 37.5478058   -1.012130236E-18
 37.674839   -1.012085568E-18
 37.8018723   -1.012021668E-18
 37.9289017   -1.011942879E-18
 38.0559349   -1.011855819E-18
 38.1829681   -1.011768655E-18
 38.3100014   -1.011689555E-18
 38.4370346   -1.011626483E-18
 38.5640678   -1.011584193E-18
 38.6911011   -1.011565272E-18
 38.8181305   -1.011569304E-18
 38.9451637   -1.011591948E-18
 39.072197   -1.01162638E-18
 39.1992302   -1.011664223E-18
 39.3262634   -1.011696586E-18
 39.4532967   -1.011713337E-18
 39.5803261   -1.011709098E-18
 39.7073593   -1.011679112E-18
 39.8343925   -1.011623588E-18
 39.9614258   -1.011545212E-18
 40.088459   -1.011452982E-18
 40.2154922   -1.011356822E-18
 40.3425255   -1.011270795E-18
 40.4695549   -1.01120824E-18
 40.5965881   -1.011183114E-18
 40.7236214   -1.011206172E-18
 40.8506546   -1.011285374E-18
 40.9776878   -1.01142372E-18
 41.1047211   -1.011619038E-18
 41.2317505   -1.011864918E-18
 41.3587837   -1.012150915E-18
 41.485817   -1.01246328E-18
 41.6128502   -1.012785363E-18
 41.7398834   -1.013101036E-18
 41.8669167   -1.013393134E-18
 41.9939499   -1.013646768E-18
 42.1209793   -1.013848497E-18
 42.2480125   -1.013987567E-18
 42.3750458   -1.014055499E-18
 42.502079   -1.0140464E-18
 42.6291122   -1.013956547E-18
 42.7561455   -1.013784494E-18
 42.8831749   -1.013530239E-18
 43.0102081   -1.013195748E-18
 43.1372414   -1.0127865E-18
 43.2642746   -1.01230901E-18
 43.3913078   -1.011774341E-18
 43.5183411   -1.01119759E-18
 43.6453743   -1.010599021E-18
 43.7724037   -1.010003658E-18
 43.899437   -1.009441485E-18
 44.0264702   -1.008948899E-18
 44.1535034   -1.00856302E-18
 44.2805367   -1.008325308E-18
 44.4075699   -1.008275574E-18
 44.5345993   -1.00845166E-18
 44.6616325   -1.008885103E-18
 44.7886658   -1.009597409E-18
 44.915699   -1.010599952E-18
 45.0427322   -1.011886735E-18
 45.1697655   -1.013438319E-18
 45.2967987   -1.01521655E-18
 45.4238281   -1.017167662E-18
 45.5508614   -1.019221552E-18
 45.6778946   -1.021296017E-18
 45.8049278   -1.023300276E-18
 45.9319611   -1.025136927E-18
 46.0589943   -1.026711879E-18
 46.1860237   -1.0279359E-18
 46.3130569   -1.028731234E-18
 46.4400902   -1.029035429E-18
 46.5671234   -1.02880537E-18
 46.6941566   -1.028020996E-18
 46.8211899   -1.026683548E-18
 46.9482231   -1.02481898E-18
 47.0752525   -1.022472579E-18
 47.2022858   -1.019707004E-18
 47.329319   -1.016597632E-18
 47.4563522   -1.013225837E-18
 47.5833855   -1.009673509E-18
 47.7104187   -1.006016958E-18
 47.8374481   -1.002319564E-18
 47.9644814   -9.986304415E-19
 48.0915146   -9.949786459E-19
 48.2185478   -9.913747234E-19
 48.3455811   -9.878127803E-19
 48.4726143   -9.842771001E-19
 48.5996475   -9.807519665E-19
 48.7266769   -9.772327266E-19
 48.8537102   -9.737396463E-19
 48.9807434   -9.703387966E-19
 49.1077766   -9.671563226E-19
 49.2348099   -9.643972617E-19
 49.3618431   -9.62360743E-19
 49.4888725   -9.614485696E-19
 49.6159058   -9.621720424E-19
 49.742939   -9.651433786E-19
 49.8699722   -9.710639238E-19
 49.9970055   -9.806930299E-19
 50.1240387   -9.948088671E-19
 50.2510719   -1.014154657E-18
 50.3781013   -1.039367432E-18
 50.5051346   -1.070900074E-18
 50.6321678   -1.10893084E-18
 50.759201   -1.153269375E-18
 50.8862343   -1.203262207E-18
 51.0132675   -1.257706925E-18
 51.1402969   -1.314777114E-18
 51.2673302   -1.371974689E-18
 51.3943634   -1.426109524E-18
 51.5213966   -1.473323442E-18
 51.6484299   -1.509160008E-18
 51.7754631   -1.52869119E-18
 51.9024925   -1.526699856E-18
 52.0295258   -1.497925862E-18
 52.156559   -1.437370244E-18
 52.2835922   -1.340651944E-18
 52.4106255   -1.204408576E-18
 52.5376587   -1.026721805E-18
 52.6646919   -8.075525472E-19
 52.7917213   -5.491599354E-19
 52.9187546   -2.564752588E-19
 53.0457878   6.260055054E-20
 53.172821   3.970053608E-19
 53.2998543   7.324652788E-19
 53.4268875   1.051613738E-18
 53.5539169   1.334306848E-18
 53.6809502   1.558157018E-18
 53.8079834   1.699295124E-18
 53.9350166   1.733361006E-18
 54.0620499   1.636713534E-18
 54.1890831   1.387835257E-18
 54.3161163   9.688862675E-19
 54.4431458   3.673511427E-19
 54.570179   -4.222874642E-19
 54.6972122   -1.396938483E-18
 54.8242455   -2.543455686E-18
 54.9512787   -3.83745423E-18
 55.0783119   -5.242499496E-18
 55.2053413   -6.70978514E-18
 55.3323746   -8.178390137E-18
 55.4594078   -9.576212049E-18
 55.586441   -1.082163007E-17
 55.7134743   -1.182595472E-17
 55.8405075   -1.24966493E-17
 55.9675407   -1.274130286E-17
 56.0945702   -1.247226733E-17
 56.2216034   -1.161183405E-17
 56.3486366   -1.009778086E-17
 56.4756699   -7.889054767E-18
 56.6027031   -4.971340179E-18
 56.7297363   -1.362206616E-18
 56.8567657   2.884484055E-18
 56.983799   7.675253394E-18
 57.1108322   1.287510594E-17
 57.2378654   1.83073433E-17
 57.3648987   2.375540627E-17
 57.4919319   2.896693199E-17
 57.6189651   3.366019928E-17
 57.7459946   3.753296957E-17
 57.8730278   4.027370018E-17
 58.000061   4.157487845E-17
 58.1270943   4.114823192E-17
 58.2541275   3.874126207E-17
 58.3811607   3.415457204E-17
 58.5081902   2.725923085E-17
 58.6352234   1.801337985E-17
 58.7622566   6.477130253E-18
 58.8892899   -7.175161502E-18
 59.0163231   -2.264621498E-17
 59.1433563   -3.951162861E-17
 59.2703896   -5.722106591E-17
 59.397419   -7.510541882E-17
 59.5244522   -9.239059518E-17
 59.6514854   -1.082179418E-16
 59.7785187   -1.216715845E-16
 59.9055519   -1.318120512E-16
 60.0325851   -1.377155929E-16
 60.1596146   -1.385182757E-16
 60.2866478   -1.334631301E-16
 60.413681   -1.219488687E-16
 60.5407143   -1.035780938E-16
 60.6677475   -7.820246244E-17
 60.7947807   -4.596270102E-17
 60.921814   -7.320790785E-18
 61.0488434   3.691822217E-17
 61.1758766   8.559689463E-17
 61.3029099   1.372107348E-16
 61.4299431   1.899296948E-16
 61.5569763   2.416370064E-16
 61.6840096   2.899855411E-16
 61.811039   3.324716285E-16
 61.9380722   3.665246823E-16
 62.0651054   3.8961128E-16
 62.1921387   3.993499354E-16
 62.3191719   3.936335218E-16
 62.4462051   3.707539972E-16
 62.5732384   3.295252773E-16
 62.7002678   2.693972672E-16
 62.827301   1.90556036E-16
 62.9543343   9.400369663E-17
 63.0813675   -1.838805296E-17
 63.2084007   -1.438555362E-16
 63.335434   -2.787571665E-16
 63.4624634   -4.186268171E-16
 63.5894966   -5.582687747E-16
 63.7165298   -6.918949454E-16
 63.8435631   -8.133030894E-16
 63.9705963   -9.160920728E-16
 64.0976257   -9.939098367E-16
 64.2246628   -1.040726936E-15
 64.3516922   -1.051124583E-15
 64.4787292   -1.020590316E-15
 64.6057587   -9.458042946E-16
 64.7327881   -8.249073879E-16
 64.8598251   -6.577347949E-16
 64.9868546   -4.460028161E-16
 65.1138916   -1.934359745E-16
 65.240921   9.417805307E-17
 65.3679581   4.090141049E-16
 65.4949875   7.41323606E-16
 65.6220169   1.0796409E-15
 65.749054   1.411082775E-15
 65.8760834   1.721736661E-15
 66.0031204   1.997129624E-15
 66.1301498   2.222769037E-15
 66.2571869   2.384732748E-15
 66.3842163   2.470297687E-15
 66.5112457   2.468574187E-15
 66.6382828   2.37112707E-15
 66.7653122   2.172553112E-15
 66.8923492   1.87098609E-15
 67.0193787   1.468502715E-15
 67.1464081   9.714033243E-16
 67.2734451   3.903421371E-16
 67.4004745   -2.597087984E-16
 67.5275116   -9.596793295E-16
 67.654541   -1.686806822E-15
 67.7815781   -2.415232499E-15
 67.9086075   -3.116775891E-15
 68.0356369   -3.761873219E-15
 68.162674   -4.320651113E-15
 68.2897034   -4.764110554E-15
 68.4167404   -5.065368409E-15
 68.5437698   -5.200919515E-15
 68.6708069   -5.151866567E-15
 68.7978363   -4.905058107E-15
 68.9248657   -4.454087601E-15
 69.0519028   -3.800092192E-15
 69.1789322   -2.952309832E-15
 69.3059692   -1.928344196E-15
 69.4329987   -7.54107292E-16
 69.5600357   5.365842548E-16
 69.6870651   1.90276846E-15
 69.8140945   3.297455006E-15
 69.9411316   4.669071763E-15
 70.068161   5.963212322E-15
 70.1951981   7.12463383E-15
 70.3222275   8.099438309E-15
 70.4492569   8.837355625E-15
 70.5762939   9.294049532E-15
 70.7033234   9.433344947E-15
 70.8303604   9.229276075E-15
 70.9573898   8.667856709E-15
 71.0844269   7.748476983E-15
 71.2114563   6.484838081E-15
 71.3384857   4.905362615E-15
 71.4655228   3.05299918E-15
 71.5925522   9.844150209E-16
 71.7195892   -1.231451968E-15
 71.8466187   -3.515462864E-15
 71.9736557   -5.780916856E-15
 72.1006851   -7.936701257E-15
 72.2277145   -9.890842689E-15
 72.3547516   -1.155433323E-14
 72.481781   -1.284510557E-14
 72.6088181   -1.369195894E-14
 72.7358475   -1.403830648E-14
 72.8628845   -1.384552856E-14
 72.9899139   -1.309578327E-14
 73.1169434   -1.179409946E-14
 73.2439804   -9.969609129E-15
 73.3710098   -7.675820191E-15
 73.4980469   -4.989809682E-15
 73.6250763   -2.010342703E-15
 73.7521057   1.145120147E-15
 73.8791428   4.344450198E-15
 74.0061722   7.445827029E-15
 74.1332092   1.030349681E-14
 74.2602386   1.277413606E-14
 74.3872757   1.472354682E-14
 74.5143051   1.603346972E-14
 74.6413345   1.66081443E-14
 74.7683716   1.638037545E-14
 74.895401   1.531673077E-14
 75.022438   1.342161821E-14
 75.1494675   1.073996273E-14
 75.2765045   7.3582074E-15
 75.4035339   3.403533813E-15
 75.5305634   -9.58870413E-16
 75.6576004   -5.530496647E-15
 75.7846298   -1.008612275E-14
 75.9116669   -1.438218915E-14
 76.0386963   -1.816672728E-14
 76.1657333   -2.119051631E-14
 76.2927628   -2.321909077E-14
 76.4197922   -2.404510036E-14
 76.5468292   -2.350055812E-14
 76.6738586   -2.146836006E-14
 76.8008957   -1.789255627E-14
 76.9279251   -1.278677464E-14
 77.0549545   -6.240310257E-15
 77.1819916   1.578670255E-15
 77.309021   1.042308685E-14
 77.436058   1.997044836E-14
 77.5630875   2.983003723E-14
 77.6901245   3.955369425E-14
 77.8171539   4.865023518E-14
 77.9441833   5.660299025E-14
 78.0712204   6.289019734E-14
 78.1982498   6.700744831E-14
 78.3252869   6.84915449E-14
 78.4523163   6.694483563E-14
 78.5793533   6.205904117E-14
 78.7063828   5.363748047E-14
 78.8334122   4.161476597E-14
 78.9604492   2.607280067E-14
 79.0874786   7.252132617E-15
 79.2145157   -1.44422692E-14
 79.3415451   -3.844132315E-14
 79.4685822   -6.401902798E-14
 79.5956116   -9.030668872E-14
 79.722641   -1.163141577E-13
 79.849678   -1.409578969E-13
 79.9767075   -1.630954079E-13
 80.1037445   -1.815649546E-13
 80.2307739   -1.952297509E-13
 80.3578033   -2.030248528E-13
 80.4848404   -2.040054594E-13
 80.6118698   -1.973949704E-13
 80.7389069   -1.826302239E-13
 80.8659363   -1.594026289E-13
 80.9929733   -1.27693117E-13
 81.1200027   -8.779880035E-14
 81.2470322   -4.034985779E-14
 81.3740692   1.368465498E-14
 81.5010986   7.300338448E-14
 81.6281357   1.359921697E-13
 81.7551651   2.007567967E-13
 81.8822021   2.651686921E-13
 82.0092316   3.269228963E-13
 82.136261   3.83607073E-13
 82.263298   4.327795717E-13
 82.3903275   4.720546328E-13
 82.5173645   4.991921048E-13
 82.6443939   5.121879483E-13
 82.771431   5.093636559E-13
 82.8984604   4.894501146E-13
 83.0254898   4.516625789E-13
 83.1525269   3.957641506E-13
 83.2795563   3.221141344E-13
 83.4065933   2.316985579E-13
 83.5336227   1.2614119E-13
 83.6606522   7.692324628E-15
 83.7876892   -1.208044081E-13
 83.9147186   -2.559681254E-13
 84.0417557   -3.939588727E-13
 84.1687851   -5.305766677E-13
 84.2958221   -6.613786667E-13
 84.4228516   -7.818117356E-13
 84.549881   -8.873567571E-13
 84.676918   -9.736799041E-13
 84.8039474   -1.036786542E-12
 84.9309845   -1.073171933E-12
 85.0580139   -1.079963376E-12
 85.185051   -1.055050144E-12
 85.3120804   -9.971925629E-13
 85.4391098   -9.061095515E-13
 85.5661469   -7.825373921E-13
 85.6931763   -6.282583503E-13
 85.8202133   -4.460958783E-13
 85.9472427   -2.398748789E-13
 86.0742722   -1.434788432E-14
 86.2013092   2.249127534E-13
 86.3283386   4.716539659E-13
 86.4553757   7.191087461E-13
 86.5824051   9.601863575E-13
 86.7094421   1.187680054E-12
 86.8364716   1.394486198E-12
 86.963501   1.57382744E-12
 87.090538   1.719472871E-12
 87.2175674   1.825946729E-12
 87.3446045   1.888720083E-12
 87.4716339   1.904376179E-12
 87.598671   1.870744662E-12
 87.7257004   1.786999368E-12
 87.8527298   1.6537146E-12
 87.9797668   1.472876725E-12
 88.1067963   1.247852082E-12
 88.2338333   9.833084867E-13
 88.3608627   6.850945592E-13
 88.4878998   3.600784493E-13
 88.6149292   1.595295246E-14
 88.7419586   -3.389882233E-13
 88.8689957   -6.960945492E-13
 88.9960251   -1.046614293E-12
 89.1230621   -1.381955314E-12
 89.2500916   -1.693936224E-12
 89.377121   -1.975025395E-12
 89.504158   -2.218553032E-12
 89.6311874   -2.418892994E-12
 89.7582245   -2.571603954E-12
 89.8852539   -2.673528066E-12
 90.012291   -2.722840833E-12
 90.1393204   -2.719050245E-12
 90.2663498   -2.662949071E-12
 90.3933868   -2.556519449E-12
 90.5204163   -2.402795194E-12
 90.6474533   -2.205687672E-12
 90.7744827   -1.969787397E-12
 90.9015198   -1.700142522E-12
 91.0285492   -1.402034413E-12
 91.1555786   -1.08075441E-12
 91.2826157   -7.413956601E-13
 91.4096451   -3.886718963E-13
 91.5366821   -2.67700189E-14
 91.6637115   3.407509192E-13
 91.7907486   7.110112737E-13
 91.917778   1.081806845E-12
 92.0448074   1.451546023E-12
 92.1718445   1.819132518E-12
 92.2988739   2.183794812E-12
 92.4259109   2.54486883E-12
 92.5529404   2.901547275E-12
 92.6799698   3.252603265E-12
 92.8070068   3.59610345E-12
 92.9340363   3.929134795E-12
 93.0610733   4.247548493E-12
 93.1881027   4.54574876E-12
 93.3151398   4.816543865E-12
 93.4421692   5.051065902E-12
 93.5691986   5.238787702E-12
 93.6962357   5.367634722E-12
 93.8232651   5.424209693E-12
 93.9503021   5.394125251E-12
 94.0773315   5.262453667E-12
 94.2043686   5.014273285E-12
 94.331398   4.635315569E-12
 94.4584274   4.112687621E-12
 94.5854645   3.435646732E-12
 94.7124939   2.596405946E-12
 94.8395309   1.590940921E-12
 94.9665604   4.197590897E-13
 95.0935974   -9.113987776E-13
 95.2206268   -2.390962211E-12
 95.3476563   -4.001075079E-12
 95.4746933   -5.717311607E-12
 95.6017227   -7.508600512E-12
 95.7287598   -9.337372021E-12
 95.8557892   -1.115995577E-11
 95.9828186   -1.292723394E-11
 96.1098557   -1.458556192E-11
 96.2368851   -1.607793586E-11
 96.3639221   -1.734541157E-11
 96.4909515   -1.832872049E-11
 96.6179886   -1.897007551E-11
 96.745018   -1.921511214E-11
 96.8720474   -1.901489383E-11
 96.9990845   -1.832795374E-11
 97.1261139   -1.712228449E-11
 97.2531509   -1.537720472E-11
 97.3801804   -1.308505127E-11
 97.5072174   -1.025260692E-11
 97.6342468   -6.902212742E-12
 97.7612762   -3.072486709E-12
 97.8883133   1.181381056E-12
 98.0153427   5.787815539E-12
 98.1423798   1.065955484E-11
 98.2694092   1.569486208E-11
 98.3964462   2.077925852E-11
 98.5234756   2.578775735E-11
 98.6505051   3.058757414E-11
 98.7775421   3.50412338E-11
 98.9045715   3.901004866E-11
 99.0316086   4.235782211E-11
 99.158638   4.495477254E-11
 99.2856674   4.668146772E-11
 99.4127045   4.74327487E-11
 99.5397339   4.712143523E-11
 99.6667709   4.568180556E-11
 99.7938004   4.307260104E-11
 99.9208374   3.927957265E-11
 100.047867   3.431736492E-11
 100.174896   2.823075107E-11
 100.301933   2.10950632E-11
 100.428963   1.301583667E-11
 100.556   4.127595835E-12
 100.683029   -5.408162633E-12
 100.810066   -1.540583806E-11
 100.937096   -2.565929934E-11
 101.064125   -3.594620435E-11
 101.191162   -4.603286849E-11
 101.318192   -5.567960329E-11
 101.445229   -6.464640628E-11
 101.572258   -7.269885388E-11
 101.699295   -7.96139682E-11
 101.826324   -8.51860249E-11
 101.953354   -8.923202455E-11
 102.080391   -9.159671632E-11
 102.20742   -9.215705976E-11
 102.334457   -9.082594399E-11
 102.461487   -8.755510206E-11
 102.588516   -8.233707466E-11
 102.715553   -7.520620932E-11
 102.842583   -6.623868121E-11
 102.96962   -5.555147661E-11
 103.096649   -4.330038411E-11
 103.223686   -2.967709065E-11
 103.350716   -1.490539636E-11
 103.477745   7.632673248E-13
 103.604782   1.705496681E-11
 103.731812   3.367884097E-11
 103.858849   5.033299819E-11
 103.985878   6.671056069E-11
 104.112915   8.250569672E-11
 104.239944   9.741947526E-11
 104.366974   1.111654657E-10
 104.494011   1.234748276E-10
 104.62104   1.341008693E-10
 104.748077   1.428230589E-10
 104.875107   1.494501467E-10
 105.002144   1.538228017E-10
 105.129173   1.558152773E-10
 105.256203   1.553365769E-10
 105.38324   1.523307869E-10
 105.510269   1.467769101E-10
 105.637306   1.386881165E-10
 105.764336   1.281106887E-10
 105.891365   1.151225157E-10
 106.018402   9.983151805E-11
 106.145432   8.237393406E-11
 106.272469   6.291265425E-11
 106.399498   4.163561856E-11
 106.526535   1.875439387E-11
 106.653564   -5.497022976E-12
 106.780594   -3.086322517E-11
 106.907631   -5.706815923E-11
 107.03466   -8.381573213E-11
 107.161697   -1.107903214E-10
 107.288727   -1.376573022E-10
 107.415764   -1.640636377E-10
 107.542793   -1.896387491E-10
 107.669823   -2.139956962E-10
 107.79686   -2.367329943E-10
 107.923889   -2.574370161E-10
 108.050926   -2.756852524E-10
 108.177956   -2.910503782E-10
 108.304985   -3.031055684E-10
 108.432022   -3.114304648E-10
 108.559052   -3.156185868E-10
 108.686089   -3.152855477E-10
 108.813118   -3.100780743E-10
 108.940155   -2.996842774E-10
 109.067184   -2.838439483E-10
 109.194214   -2.62359634E-10
 109.321251   -2.351076556E-10
 109.44828   -2.020489331E-10
 109.575317   -1.632391444E-10
 109.702347   -1.188381754E-10
 109.829384   -6.911804462E-11
 109.956413   -1.446928081E-11
 110.083443   4.459469599E-11
 110.21048   1.074356784E-10
 110.337509   1.732912563E-10
 110.464546   2.412781919E-10
 110.591576   3.103990676E-10
 110.718613   3.795518067E-10
 110.845642   4.475425031E-10
 110.972672   5.131010061E-10
 111.099709   5.748997944E-10
 111.226738   6.315752921E-10
 111.353775   6.817514886E-10
 111.480804   7.240656408E-10
 111.607834   7.57195584E-10
 111.734871   7.798874324E-10
 111.8619   7.909845556E-10
 111.988937   7.894555565E-10
 112.115967   7.7442186E-10
 112.243004   7.451840256E-10
 112.370033   7.012455061E-10
 112.497063   6.423345744E-10
 112.6241   5.684224758E-10
 112.751129   4.797381936E-10
 112.878166   3.767799961E-10
 113.005196   2.603215699E-10
 113.132233   1.314144765E-10
 113.259262   -8.614811989E-12
 113.386292   -1.581714482E-10
 113.513329   -3.154045636E-10
 113.640358   -4.782236274E-10
 113.767395   -6.443199863E-10
 113.894424   -8.111916139E-10
 114.021461   -9.761724762E-10
 114.148491   -1.136465477E-9
 114.27552   -1.289178875E-9
 114.402557   -1.431364471E-9
 114.529587   -1.560059859E-9
 114.656624   -1.672331162E-9
 114.783653   -1.765318003E-9
 114.910683   -1.836280128E-9
 115.03772   -1.882643375E-9
 115.164749   -1.90204652E-9
 115.291786   -1.892389134E-9
 115.418816   -1.851875431E-9
 115.545853   -1.779060343E-9
 115.672882   -1.672892047E-9
 115.799911   -1.53275248E-9
 115.926949   -1.358494761E-9
 116.053978   -1.150477713E-9
 116.181015   -9.095951214E-10
 116.308044   -6.373014894E-10
 116.435081   -3.356307454E-10
 116.562111   -7.208474269E-12
 116.68914   3.447414576E-10
 116.816177   7.164013271E-10
 116.943207   1.103369729E-9
 117.070244   1.500684355E-9
 117.197273   1.902853208E-9
 117.32431   2.303897739E-9
 117.45134   2.697408297E-9
 117.578369   3.076609856E-9
 117.705406   3.43444051E-9
 117.832436   3.763642287E-9
 117.959473   4.056864178E-9
 118.086502   4.306772716E-9
 118.213531   4.506178097E-9
 118.340569   4.648161855E-9
 118.467598   4.726217639E-9
 118.594635   4.734392434E-9
 118.721664   4.667434883E-9
 118.848701   4.52093829E-9
 118.975731   4.291483169E-9
 119.10276   3.976777574E-9
 119.229797   3.575777008E-9
 119.356827   3.088805434E-9
 119.483864   2.5176492E-9
 119.610893   1.865637866E-9
 119.73793   1.137697603E-9
 119.86496   3.403833604E-10
 119.991989   -5.181224338E-10
 120.119026   -1.428038576E-9
 120.246056   -2.378046871E-9