 -4.5   -1.023056258E-18
 -4.37320757   -1.023046952E-18
 -4.24641466   -1.023027927E-18
 -4.11962223   -1.023001871E-18
 -3.99282932   -1.022971782E-18
 -3.86603665   -1.022940349E-18
 -3.73924398   -1.02290995E-18
 -3.61245155   -1.022883274E-18
 -3.48565888   -1.02286125E-18
 -3.35886621   -1.022845844E-18
 -3.23207355   -1.022836745E-18
 -3.10528088   -1.022832402E-18
 -2.97848821   -1.022830644E-18
 -2.85169554   -1.022830024E-18
 -2.72490287   -1.022827749E-18
 -2.5981102   -1.022821649E-18
 -2.47131753   -1.022809241E-18
 -2.34452486   -1.022789389E-18
 -2.21773219   -1.022762505E-18
 -2.09093952   -1.022728074E-18
 -1.96414697   -1.022687128E-18
 -1.8373543   -1.022642047E-18
 -1.71056163   -1.022594794E-18
 -1.58376896   -1.022547955E-18
 -1.45697629   -1.022504632E-18
 -1.33018374   -1.022466685E-18
 -1.20339108   -1.022434942E-18
 -1.07659841   -1.022410747E-18
 -0.949805737   -1.02239379E-18
 -0.823013067   -1.022383036E-18
 -0.696220458   -1.022376832E-18
 -0.569427788   -1.022371869E-18
 -0.442635119   -1.022366493E-18
 -0.315842479   -1.022357083E-18
 -0.189049825   -1.022341677E-18
 -6.225717068E-2   -1.022318206E-18
 6.453548372E-2   -1.022285739E-18
 0.191328138   -1.02224438E-18
 0.318120778   -1.022195887E-18
 0.444913447   -1.022142533E-18
 0.571706116   -1.022086802E-18
 0.698498726   -1.022032622E-18
 0.825291395   -1.021982164E-18
 0.952084064   -1.02193853E-18
 1.07887673   -1.021902961E-18
 1.2056694   -1.021875147E-18
 1.33246195   -1.021856122E-18
 1.45925462   -1.021842784E-18
 1.58604729   -1.021832651E-18
 1.71283996   -1.021822415E-18
 1.83963263   -1.021809386E-18
 1.9664253   -1.021789121E-18
 2.09321785   -1.021760893E-18
 2.22001052   -1.021722532E-18
 2.34680319   -1.021674142E-18
 2.47359586   -1.021617067E-18
 2.60038853   -1.021553684E-18
 2.7271812   -1.021486579E-18
 2.85397387   -1.021420301E-18
 2.98076653   -1.021357849E-18
 3.1075592   -1.021302945E-18
 3.23435187   -1.021258277E-18
 3.36114454   -1.021223639E-18
 3.48793697   -1.021199341E-18
 3.61472964   -1.021182901E-18
 3.74152231   -1.021172768E-18
 3.86831498   -1.021165116E-18
 3.99510765   -1.021156327E-18
 4.12190056   -1.021143609E-18
 4.24869299   -1.021122827E-18
 4.37548542   -1.021092945E-18
 4.50227833   -1.021052826E-18
 4.62907076   -1.021002575E-18
 4.75586367   -1.020944052E-18
 4.8826561   -1.020879946E-18
 5.00944901   -1.020813668E-18
 5.13624144   -1.020748527E-18
 5.26303434   -1.020688764E-18
 5.38982677   -1.020637375E-18
 5.51661968   -1.020594982E-18
 5.64341211   -1.020562618E-18
 5.77020502   -1.020539251E-18
 5.89699745   -1.020522914E-18
 6.02379036   -1.020509265E-18
 6.15058279   -1.020494479E-18
 6.27737522   -1.020474524E-18
 6.40416813   -1.020446917E-18
 6.53096056   -1.020408142E-18
 6.65775347   -1.020357478E-18
 6.7845459   -1.020295336E-18
 6.91133881   -1.020223371E-18
 7.03813124   -1.020144789E-18
 7.16492414   -1.020064035E-18
 7.29171658   -1.01998566E-18
 7.41850948   -1.019914109E-18
 7.54530191   -1.019853208E-18
 7.67209482   -1.019805128E-18
 7.79888725   -1.0197708E-18
 7.92567968   -1.0197495E-18
 8.05247211   -1.019738126E-18
 8.17926502   -1.01973306E-18
 8.30605793   -1.019730268E-18
 8.43285084   -1.019724788E-18
 8.55964279   -1.019711967E-18
 8.6864357   -1.019689426E-18
 8.81322861   -1.019654995E-18
 8.94002151   -1.019609086E-18
 9.06681347   -1.019552734E-18
 9.19360638   -1.019489041E-18
 9.32039928   -1.019421419E-18
 9.44719219   -1.019355452E-18
 9.57398415   -1.019294551E-18
 9.70077705   -1.019244299E-18
 9.82756996   -1.019206559E-18
 9.95436192   -1.019182881E-18
 10.0811548   -1.019172024E-18
 10.2079477   -1.019170887E-18
 10.3347406   -1.019177505E-18
 10.4615326   -1.019186397E-18
 10.5883255   -1.019192911E-18
 10.7151184   -1.019192497E-18
 10.8419113   -1.019182364E-18
 10.9687033   -1.019160444E-18
 11.0954962   -1.019126013E-18
 11.2222891   -1.019080414E-18
 11.349082   -1.019026441E-18
 11.4758739   -1.018967401E-18
 11.6026669   -1.018908567E-18
 11.7294598   -1.018853146E-18
 11.8562517   -1.018806204E-18
 11.9830446   -1.018769911E-18
 12.1098375   -1.018744992E-18
 12.2366304   -1.018731654E-18
 12.3634224   -1.018727932E-18
 12.4902153   -1.018730724E-18
 12.6170082   -1.018734549E-18
 12.7438011   -1.01873579E-18
 12.8705931   -1.018729793E-18
 12.997386   -1.018713353E-18
 13.1241789   -1.018684298E-18
 13.2509708   -1.018641181E-18
 13.3777637   -1.018585553E-18
 13.5045567   -1.018520103E-18
 13.6313496   -1.018449379E-18
 13.7581415   -1.018377517E-18
 13.8849344   -1.018308655E-18
 14.0117273   -1.01824765E-18
 14.1385202   -1.018197296E-18
 14.2653122   -1.018159245E-18
 14.3921051   -1.018133809E-18
 14.518898   -1.018119541E-18
 14.6456909   -1.018113543E-18
 14.7724829   -1.018112096E-18
 14.8992758   -1.018109614E-18
 15.0260687   -1.018102066E-18
 15.1528606   -1.018085523E-18
 15.2796535   -1.018055951E-18
 15.4064465   -1.018012731E-18
 15.5332394   -1.017955966E-18
 15.6600313   -1.017887413E-18
 15.7868242   -1.017809865E-18
 15.9136171   -1.017727767E-18
 16.0404091   -1.017646393E-18
 16.167202   -1.017569982E-18
 16.2939949   -1.017502671E-18
 16.4207878   -1.017446422E-18
 16.5475807   -1.017402272E-18
 16.6743736   -1.017368667E-18
 16.8011646   -1.017344472E-18
 16.9279575   -1.017325964E-18
 17.0547504   -1.0173088E-18
 17.1815434   -1.017288844E-18
 17.3083363   -1.017261754E-18
 17.4351292   -1.017224841E-18
 17.5619221   -1.017176348E-18
 17.688715   -1.017116274E-18
 17.815506   -1.01704524E-18
 17.9422989   -1.016966244E-18
 18.0690918   -1.016883009E-18
 18.1958847   -1.016800808E-18
 18.3226776   -1.016723156E-18
 18.4494705   -1.016654707E-18
 18.5762634   -1.016597735E-18
 18.7030544   -1.016553481E-18
 18.8298473   -1.016522358E-18
 18.9566402   -1.016501679E-18
 19.0834332   -1.016488857E-18
 19.2102261   -1.016479758E-18
 19.337019   -1.016469212E-18
 19.4638119   -1.016453289E-18
 19.5906048   -1.016428473E-18
 19.7173958   -1.016392077E-18
 19.8441887   -1.016343274E-18
 19.9709816   -1.016282579E-18
 20.0977745   -1.016212889E-18
 20.2245674   -1.016136065E-18
 20.3513603   -1.016055932E-18
 20.4781532   -1.01597797E-18
 20.6049442   -1.015906005E-18
 20.7317371   -1.015842726E-18
 20.85853   -1.015791441E-18
 20.985323   -1.015753804E-18
 21.1121159   -1.015728575E-18
 21.2389088   -1.015713686E-18
 21.3657017   -1.015705931E-18
 21.4924946   -1.015701692E-18
 21.6192856   -1.015696522E-18
 21.7460785   -1.015685975E-18
 21.8728714   -1.015667053E-18
 21.9996643   -1.015636138E-18
 22.1264572   -1.015592814E-18
 22.2532501   -1.0155376E-18
 22.380043   -1.015472769E-18
 22.506834   -1.015400908E-18
 22.6336269   -1.015326048E-18
 22.7604198   -1.015254083E-18
 22.8872128   -1.015188529E-18
 23.0140057   -1.015133522E-18
 23.1407986   -1.015092576E-18
 23.2675915   -1.015066624E-18
 23.3943844   -1.015055147E-18
 23.5211754   -1.01505587E-18
 23.6479683   -1.015064866E-18
 23.7747612   -1.015076963E-18
 23.9015541   -1.015086786E-18
 24.028347   -1.015089475E-18
 24.1551399   -1.015079962E-18
 24.2819328   -1.015055767E-18
 24.4087238   -1.015016269E-18
 24.5355167   -1.014961572E-18
 24.6623096   -1.01489488E-18
 24.7891026   -1.014820331E-18
 24.9158955   -1.01474423E-18
 25.0426884   -1.014672162E-18
 25.1694813   -1.014610123E-18
 25.2962742   -1.01456194E-18
 25.4230652   -1.014531438E-18
 25.5498581   -1.014518617E-18
 25.676651   -1.014522649E-18
 25.8034439   -1.014539916E-18
 25.9302368   -1.014565662E-18
 26.0570297   -1.014593373E-18
 26.1838226   -1.014616741E-18
 26.3106136   -1.014629872E-18
 26.4374065   -1.014629252E-18
 26.5641994   -1.014610951E-18
 26.6909924   -1.014574451E-18
 26.8177853   -1.014522029E-18
 26.9445782   -1.014458129E-18
 27.0713711   -1.014387922E-18
 27.198164   -1.014316888E-18
 27.324955   -1.014251851E-18
 27.4517479   -1.014198291E-18
 27.5785408   -1.014161481E-18
 27.7053337   -1.014142973E-18
 27.8321266   -1.01414318E-18
 27.9589195   -1.014159103E-18
 28.0857124   -1.014186504E-18
 28.2125034   -1.014218143E-18
 28.3392963   -1.014246991E-18
 28.4660892   -1.014265396E-18
 28.5928822   -1.014267671E-18
 28.7196751   -1.014248956E-18
 28.846468   -1.014208734E-18
 28.9732609   -1.014148557E-18
 29.1000538   -1.014072353E-18
 29.2268448   -1.013986222E-18
 29.3536377   -1.013898955E-18
 29.4804306   -1.013818718E-18
 29.6072235   -1.013752854E-18
 29.7340164   -1.013707566E-18
 29.8608093   -1.013685129E-18
 29.9876022   -1.013686163E-18
 30.1143932   -1.013707359E-18
 30.2411861   -1.013742825E-18
 30.367979   -1.013783667E-18
 30.494772   -1.0138212E-18
 30.6215649   -1.013847153E-18
 30.7483578   -1.013855114E-18
 30.8751507   -1.013839398E-18
 31.0019417   -1.013799383E-18
 31.1287346   -1.013736414E-18
 31.2555275   -1.013655454E-18
 31.3823204   -1.013563947E-18
 31.5091133   -1.013470475E-18
 31.6359062   -1.013384035E-18
 31.7626991   -1.013312174E-18
 31.889492   -1.013262026E-18
 32.0162849   -1.013236073E-18
 32.1430779   -1.013234419E-18
 32.2698708   -1.013253651E-18
 32.3966637   -1.013288496E-18
 32.5234528   -1.013331199E-18
 32.6502457   -1.013374109E-18
 32.7770386   -1.01340792E-18
 32.9038315   -1.013426014E-18
 33.0306244   -1.013423429E-18
 33.1574173   -1.01339696E-18
 33.2842102   -1.013348053E-18
 33.4110031   -1.013280224E-18
 33.537796   -1.013197506E-18
 33.6645889   -1.013108791E-18
 33.7913818   -1.01302142E-18
 33.9181747   -1.012943458E-18
 34.0449677   -1.012881419E-18
 34.1717606   -1.012838716E-18
 34.2985535   -1.01281783E-18
 34.4253426   -1.012816796E-18
 34.5521355   -1.012831168E-18
 34.6789284   -1.012855673E-18
 34.8057213   -1.01288204E-18
 34.9325142   -1.012903029E-18
 35.0593071   -1.012910991E-18
 35.1861   -1.012899514E-18
 35.3128929   -1.01286591E-18
 35.4396858   -1.012808834E-18
 35.5664787   -1.0127317E-18
 35.6932716   -1.012637298E-18
 35.8200645   -1.012533176E-18
 35.9468575   -1.012426573E-18
 36.0736504   -1.012325451E-18
 36.2004433   -1.012236529E-18
 36.3272324   -1.012166528E-18
 36.4540253   -1.012117208E-18
 36.5808182   -1.012090118E-18
 36.7076111   -1.012082983E-18
 36.834404   -1.012091772E-18
 36.9611969   -1.012110487E-18
 37.0879898   -1.012131373E-18
 37.2147827   -1.012147503E-18
 37.3415756   -1.012151846E-18
 37.4683685   -1.012139645E-18
 37.5951614   -1.012108833E-18
 37.7219543   -1.012058581E-18
 37.8487473   -1.01199189E-18
 37.9755402   -1.011913411E-18
 38.1023293   -1.011829246E-18
 38.2291222   -1.011746838E-18
 38.3559151   -1.011673219E-18
 38.482708   -1.011615626E-18
 38.6095009   -1.011578403E-18
 38.7362938   -1.01156279E-18
 38.8630867   -1.01156889E-18
 38.9898796   -1.011592775E-18
 39.1166725   -1.01162762E-18
 39.2434654   -1.011664637E-18
 39.3702583   -1.011694932E-18
 39.4970512   -1.011709408E-18
 39.6238441   -1.011701756E-18
 39.7506371   -1.011668359E-18
 39.87743   -1.011609112E-18
 40.0042191   -1.011528255E-18
 40.131012   -1.011435197E-18
 40.2578049   -1.011340899E-18
 40.3845978   -1.011259628E-18
 40.5113907   -1.011205758E-18
 40.6381836   -1.011192006E-18
 40.7649765   -1.011229023E-18
 40.8917694   -1.011323631E-18
 41.0185623   -1.01147759E-18
 41.1453552   -1.011688004E-18
 41.2721481   -1.011947636E-18
 41.398941   -1.012243766E-18
 41.5257339   -1.012561714E-18
 41.6525269   -1.012884831E-18
 41.7793198   -1.013196058E-18
 41.9061089   -1.013478954E-18
 42.0329018   -1.013718526E-18
 42.1596947   -1.013902057E-18
 42.2864876   -1.014019723E-18
 42.4132805   -1.014063667E-18
 42.5400734   -1.014029132E-18
 42.6668663   -1.0139125E-18
 42.7936592   -1.013713046E-18
 42.9204521   -1.013432735E-18
 43.047245   -1.013073739E-18
 43.1740379   -1.012642157E-18
 43.3008308   -1.01214678E-18
 43.4276237   -1.011599496E-18
 43.5544167   -1.011017264E-18
 43.6812096   -1.010420454E-18
 43.8079987   -1.009835844E-18
 43.9347916   -1.00929342E-18
 44.0615845   -1.008830199E-18
 44.1883774   -1.008484024E-18
 44.3151703   -1.00829522E-18
 44.4419632   -1.008303078E-18
 44.5687561   -1.008544098E-18
 44.695549   -1.009047334E-18
 44.8223419   -1.009832432E-18
 44.9491348   -1.010906422E-18
 45.0759277   -1.012260517E-18
 45.2027206   -1.013871038E-18
 45.3295135   -1.015695695E-18
 45.4563065   -1.017675862E-18
 45.5830994   -1.019739987E-18
 45.7098885   -1.021802355E-18
 45.8366814   -1.023770011E-18
 45.9634743   -1.025548553E-18
 46.0902672   -1.027043268E-18
 46.2170601   -1.028167717E-18
 46.343853   -1.028847349E-18
 46.4706459   -1.029025193E-18
 46.5974388   -1.028664232E-18
 46.7242317   -1.027748853E-18
 46.8510246   -1.026287846E-18
 46.9778175   -1.024311401E-18
 47.1046104   -1.021869667E-18
 47.2314034   -1.019029026E-18
 47.3581963   -1.01586475E-18
 47.4849892   -1.012458627E-18
 47.6117783   -1.008889963E-18
 47.7385712   -1.00523186E-18
 47.8653641   -1.001543772E-18
 47.992157   -9.978692286E-19
 48.1189499   -9.942328392E-19
 48.2457428   -9.906423583E-19
 48.3725357   -9.870901346E-19
 48.4993286   -9.835608651E-19
 48.6261215   -9.800391437E-19
 48.7529144   -9.76525177E-19
 48.8797073   -9.730486403E-19
 49.0065002   -9.696857375E-19
 49.1332932   -9.665765724E-19
 49.2600861   -9.639424157E-19
 49.386879   -9.621008015E-19
 49.5136681   -9.614719374E-19
 49.640461   -9.625834614E-19
 49.7672539   -9.660621694E-19
 49.8940468   -9.726166452E-19
 50.0208397   -9.830095492E-19
 50.1476326   -9.980118138E-19
 50.2744255   -1.018347429E-18
 50.4012184   -1.04462189E-18
 50.5280113   -1.077241758E-18
 50.6548042   -1.116326662E-18
 50.7815971   -1.161610872E-18
 50.90839   -1.21235468E-18
 51.035183   -1.267259E-18
 51.1619759   -1.324395777E-18
 51.2887688   -1.381165079E-18
 51.4155579   -1.434282482E-18
 51.5423508   -1.479810296E-18
 51.6691437   -1.513233046E-18
 51.7959366   -1.529594058E-18
 51.9227295   -1.523684783E-18
 52.0495224   -1.490299463E-18
 52.1763153   -1.424543361E-18
 52.3031082   -1.322192995E-18
 52.4299011   -1.180099185E-18
 52.556694   -9.966107767E-19
 52.6834869   -7.720040468E-19
 52.8102798   -5.08893507E-19
 52.9370728   -2.125915308E-19
 53.0638657   1.086068111E-19
 53.1906586   4.432562084E-19
 53.3174477   7.767290058E-19
 53.4442406   1.091361938E-18
 53.5710335   1.366795401E-18
 53.6978264   1.580533598E-18
 53.8246193   1.708727671E-18
 53.9514122   1.727189308E-18
 54.0782051   1.612614557E-18
 54.204998   1.343995821E-18
 54.3317909   9.041734466E-19
 54.4585838   2.81478318E-19
 54.5853767   -5.286185592E-19
 54.7121696   -1.521925473E-18
 54.8389626   -2.684121885E-18
 54.9657555   -3.989624443E-18
 55.0925484   -5.400837995E-18
 55.2193375   -6.867892856E-18
 55.3461304   -8.328970096E-18
 55.4729233   -9.711303878E-18
 55.5997162   -1.093290819E-17
 55.7265091   -1.190508116E-17
 55.853302   -1.253567734E-17
 55.9800949   -1.273311129E-17
 56.1068878   -1.241100468E-17
 56.2336807   -1.149336442E-17
 56.3604736   -9.920086746E-18
 56.4872665   -7.652594435E-18
 56.6140594   -4.679322261E-18
 56.7408524   -1.020765588E-18
 56.8676453   3.266242176E-18
 56.9944382   8.085345553E-18
 57.1212273   1.329891523E-17
 57.2480202   1.872802254E-17
 57.3748131   2.415443489E-17
 57.501606   2.932482657E-17
 57.6283989   3.395731263E-17
 57.7551918   3.775042874E-17
 57.8819847   4.039433951E-17
 58.0087776   4.158425206E-17
 58.1355705   4.103553352E-17
 58.2623634   3.850016208E-17
 58.3891563   3.378393557E-17
 58.5159492   2.676360574E-17
 58.6427422   1.740326301E-17
 58.7695351   5.768935849E-18
 58.896328   -7.959402342E-18
 59.0231171   -2.347948198E-17
 59.14991   -4.036285371E-17
 59.2767029   -5.805632642E-17
 59.4034958   -7.588944707E-17
 59.5302887   -9.308833857E-17
 59.6570816   -1.087964124E-16
 59.7838745   -1.221015464E-16
 59.9106674   -1.320698007E-16
 60.0374603   -1.377844937E-16
 60.1642532   -1.383899899E-16
 60.2910461   -1.331385312E-16
 60.4178391   -1.214385313E-16
 60.544632   -1.029020954E-16
 60.6714249   -7.738978727E-17
 60.7982178   -4.504999324E-17
 60.9250069   -6.35050834E-18
 61.0517998   3.790015504E-17
 61.1785927   8.654381129E-17
 61.3053856   1.380782289E-16
 61.4321785   1.906789087E-16
 61.5589714   2.422375528E-16
 61.6857643   2.904184544E-16
 61.8125572   3.327315353E-16
 61.9393501   3.666215882E-16
 62.066143   3.895712312E-16
 62.1929359   3.992147543E-16
 62.3197289   3.934592183E-16
 62.4465218   3.706083605E-16
 62.5733147   3.294837198E-16
 62.7001076   2.695379276E-16
 62.8268967   1.909539033E-16
 62.9536896   9.472385993E-17
 63.0804825   -1.729739382E-17
 63.2072754   -1.423701713E-16
 63.3340683   -2.768832914E-16
 63.4608612   -4.164069026E-16
 63.5876541   -5.557856976E-16
 63.714447   -6.892744373E-16
 63.8412399   -8.107133921E-16
 63.9680328   -9.137413447E-16
 64.0948257   -9.920406468E-16
 64.2216187   -1.039606841E-15
 64.3484116   -1.051034797E-15
 64.4752045   -1.021810467E-15
 64.6019974   -9.485952681E-16
 64.7287903   -8.294921655E-16
 64.8555832   -6.64278442E-16
 64.9823761   -4.545921008E-16
 65.109169   -2.040603087E-16
 65.2359619   8.164358011E-17
 65.3627548   3.948216708E-16
 65.4895477   7.25861549E-16
 65.616333   1.063436313E-15
 65.7431259   1.394796872E-15
 65.8699188   1.706152737E-15
 65.9967117   1.983132405E-15
 66.1235046   2.211315669E-15
 66.2502975   2.376817437E-15
 66.3770905   2.466906591E-15
 66.5038834   2.470635653E-15
 66.6306763   2.37945785E-15
 66.7574692   2.187800552E-15
 66.8842621   1.893572859E-15
 67.011055   1.498572914E-15
 67.1378479   1.008775159E-15
 67.2646408   4.344706478E-16
 67.3914337   -2.097582332E-16
 67.5182266   -9.052402044E-16
 67.6450195   -1.629604676E-15
 67.7718124   -2.35735749E-15
 67.8986053   -3.060634759E-15
 68.0253983   -3.7101212E-15
 68.1521912   -4.276102686E-15
 68.2789841   -4.729630384E-15
 68.405777   -5.04374874E-15
 68.5325699   -5.194745492E-15
 68.6593628   -5.16337351E-15
 68.7861557   -4.935989209E-15
 68.9129486   -4.505555441E-15
 69.0397415   -3.872456758E-15
 69.1665344   -3.045071799E-15
 69.2933273   -2.040068266E-15
 69.4201126   -8.82378838E-16
 69.5469055   3.951630251E-16
 69.6736984   1.752538591E-15
 69.8004913   3.143614341E-15
 69.9272842   4.517539263E-15
 70.0540771   5.820448307E-15
 70.1808701   6.997411599E-15
 70.307663   7.994579865E-15
 70.4344559   8.761438603E-15
 70.5612488   9.253095489E-15
 70.6880417   9.432497914E-15
 70.8148346   9.272486614E-15
 70.9416275   8.75759392E-15
 71.0684204   7.885470163E-15
 71.1952133   6.667878936E-15
 71.3220062   5.131166776E-15
 71.4487991   3.316154529E-15
 71.575592   1.277418011E-15
 71.7023849   -9.180628009E-16
 71.8291779   -3.192871213E-15
 71.9559708   -5.461688773E-15
 72.0827637   -7.63435454E-15
 72.2095566   -9.619332207E-15
 72.3363495   -1.132746732E-14
 72.4631424   -1.267590904E-14
 72.5899353   -1.359202007E-14
 72.7167282   -1.401712219E-14
 72.8435211   -1.390989374E-14
 72.970314   -1.324924108E-14
 73.0971069   -1.203648895E-14
 73.2238922   -1.029675189E-14
 73.3506851   -8.07935177E-15
 73.477478   -5.457199498E-15
 73.6042709   -2.525105166E-15
 73.7310638   6.030094785E-16
 73.8578568   3.797930564E-15
 73.9846497   6.919931801E-15
 74.1114426   9.824362461E-15
 74.2382355   1.236785332E-14
 74.3650284   1.441492359E-14
 74.4918213   1.58447152E-14
 74.6186142   1.655755441E-14
 74.7454071   1.648107242E-14
 74.8722   1.557554168E-14
 74.9989929   1.383812549E-14
 75.1257858   1.130580699E-14
 75.2525787   8.056710579E-15
 75.3793716   4.209672433E-15
 75.5061646   -7.809378414E-17
 75.6329575   -4.615265689E-15
 75.7597504   -9.182589313E-15
 75.8865433   -1.354084657E-14
 76.0133362   -1.74404033E-14
 76.1401291   -2.063204547E-14
 76.266922   -2.287872244E-14
 76.3937149   -2.396777641E-14
 76.5205078   -2.372310925E-14
 76.6473007   -2.201682406E-14
 76.7740936   -1.877966742E-14
 76.9008865   -1.400983008E-14
 77.0276718   -7.779491942E-15
 77.1544647   -2.386709617E-16
 77.2812576   8.384053238E-15
 77.4080505   1.778420889E-14
 77.5348434   2.758773434E-14
 77.6616364   3.736086825E-14
 77.7884293   4.662363432E-14
 77.9152222   5.48665761E-14
 78.0420151   6.157031672E-14
 78.168808   6.622739195E-14
 78.2956009   6.836566225E-14
 78.4223938   6.757233797E-14
 78.5491867   6.351778776E-14
 78.6759796   5.597804934E-14
 78.8027725   4.485500919E-14
 78.9295654   3.019321108E-14
 79.0563583   1.219230575E-14
 79.1831512   -8.785770471E-15
 79.3099442   -3.221560727E-14
 79.4367371   -5.741364144E-14
 79.56353   -8.355054387E-14
 79.6903229   -1.096704582E-13
 79.8171158   -1.347171344E-13
 79.9439087   -1.575664648E-13
 80.0707016   -1.770645533E-13
 80.1974945   -1.9207044E-13
 80.3242874   -2.015019553E-13
 80.4510803   -2.043835207E-13
 80.5778732   -1.998937989E-13
 80.7046585   -1.874114335E-13
 80.8314514   -1.665572519E-13
 80.9582443   -1.372305725E-13
 81.0850372   -9.963804413E-14
 81.2118301   -5.431321964E-14
 81.338623   -2.125516526E-15
 81.465416   5.572286203E-14
 81.5922089   1.177126024E-13
 81.7190018   1.820359456E-13
 81.8457947   2.466383489E-13
 81.9725876   3.092725186E-13
 82.0993805   3.675638353E-13
 82.2261734   4.190850412E-13
 82.3529663   4.614391009E-13
 82.4797592   4.923467775E-13
 82.6065521   5.097364588E-13
 82.733345   5.1183336E-13
 82.8601379   4.972447692E-13
 82.9869308   4.65036809E-13
 83.1137238   4.14801765E-13
 83.2405167   3.467103178E-13
 83.3673096   2.615478363E-13
 83.4941025   1.607312373E-13
 83.6208954   4.630494664E-14
 83.7476883   -7.908501328E-14
 83.8744812   -2.122395006E-13
 84.0012741   -3.494769849E-13
 84.128067   -4.867250266E-13
 84.2548599   -6.196308657E-13
 84.3816528   -7.436884225E-13
 84.5084381   -8.543776038E-13
 84.635231   -9.473125409E-13
 84.7620239   -1.018393703E-12
 84.8888168   -1.063958492E-12
 85.0156097   -1.080926147E-12
 85.1424026   -1.066930398E-12
 85.2691956   -1.020435255E-12
 85.3959885   -9.408292288E-13
 85.5227814   -8.284940659E-13
 85.6495743   -6.848431327E-13
 85.7763672   -5.123285151E-13
 85.9031601   -3.144135343E-13
 86.029953   -9.551160454E-14
 86.1567459   1.391092509E-13
 86.2835388   3.834536042E-13
 86.4103317   6.309543816E-13
 86.5371246   8.746535939E-13
 86.6639175   1.107403015E-12
 86.7907104   1.322077539E-12
 86.9175034   1.511795355E-12
 87.0442963   1.670138637E-12
 87.1710892   1.791364583E-12
 87.2978821   1.870602848E-12
 87.424675   1.904029668E-12
 87.5514679   1.889012384E-12
 87.6782608   1.824220896E-12
 87.8050537   1.709698572E-12
 87.9318466   1.546891521E-12
 88.0586395   1.33863233E-12
 88.1854324   1.089080432E-12
 88.3122177   8.036176976E-13
 88.4390106   4.887037498E-13
 88.5658035   1.51694995E-13
 88.6925964   -1.993664023E-13
 88.8193893   -5.559877103E-13
 88.9461823   -9.094755114E-13
 89.0729752   -1.251192943E-12
 89.1997681   -1.572813277E-12
 89.326561   -1.866562243E-12
 89.4533539   -2.125440449E-12
 89.5801468   -2.343416043E-12
 89.7069397   -2.515581493E-12
 89.8337326   -2.638269377E-12
 89.9605255   -2.709120471E-12
 90.0873184   -2.727103916E-12
 90.2141113   -2.692490328E-12
 90.3409042   -2.606774822E-12
 90.4676971   -2.472557315E-12
 90.5944901   -2.293385967E-12
 90.721283   -2.073567663E-12
 90.8480759   -1.817958219E-12
 90.9748688   -1.531739796E-12
 91.1016617   -1.220197663E-12
 91.2284546   -8.885068787E-13
 91.3552475   -5.415395237E-13
 91.4820404   -1.837030284E-13
 91.6088333   1.811800899E-13
 91.7356262   5.499461021E-13
 91.8624191   9.201100168E-13
 91.989212   1.289828595E-12
 92.1159973   1.657808656E-12
 92.2427902   2.023160719E-12
 92.3695831   2.385201845E-12
 92.496376   2.743222533E-12
 92.6231689   3.096221847E-12
 92.7499619   3.442626609E-12
 92.8767548   3.780014496E-12
 93.0035477   4.104845804E-12
 93.1303406   4.412236635E-12
 93.2571335   4.695779789E-12
 93.3839264   4.94743092E-12
 93.5107193   5.157481647E-12
 93.6375122   5.314623741E-12
 93.7643051   5.40612043E-12
 93.891098   5.418086986E-12
 94.0178909   5.335880175E-12
 94.1446838   5.144595687E-12
 94.2714767   4.829666181E-12
 94.3982697   4.377540865E-12
 94.5250626   3.776431425E-12
 94.6518555   3.017099808E-12
 94.7786484   2.093660748E-12
 94.9054413   1.004362609E-12
 95.0322342   -2.476779632E-13
 95.1590271   -1.65383332E-12
 95.28582   -3.199439845E-12
 95.4126129   -4.863430839E-12
 95.5394058   -6.618157845E-12
 95.6661987   -8.429423826E-12
 95.7929916   -1.025675378E-11
 95.9197769   -1.205391256E-11
 96.0465698   -1.376969112E-11
 96.1733627   -1.53489374E-11
 96.3001556   -1.673384001E-11
 96.4269485   -1.786543483E-11
 96.5537415   -1.868530504E-11
 96.6805344   -1.913743643E-11
 96.8073273   -1.917018627E-11
 96.9341202   -1.87382887E-11
 97.0609131   -1.780486002E-11
 97.187706   -1.634331906E-11
 97.3144989   -1.433916267E-11
 97.4412918   -1.179152522E-11
 97.5680847   -8.71444323E-12
 97.6948776   -5.137787331E-12
 97.8216705   -1.107770451E-12
 97.9484634   3.312976846E-12
 98.0752563   8.045830495E-12
 98.2020493   1.299709992E-11
 98.3288422   1.805947752E-11
 98.4556351   2.311398295E-11
 98.582428   2.80324132E-11
 98.7092209   3.268019536E-11
 98.8360138   3.691966524E-11
 98.9628067   4.06136097E-11
 99.0895996   4.362905176E-11
 99.2163925   4.584115726E-11
 99.3431854   4.713714141E-11
 99.4699783   4.742007134E-11
 99.5967712   4.66124396E-11
 99.7235565   4.465943587E-11
 99.8503494   4.15317121E-11
 99.9771423   3.722763417E-11
 100.103935   3.177487787E-11
 100.230728   2.523128755E-11
 100.357521   1.768499409E-11
 100.484314   9.253664675E-12
 100.611107   8.29734095E-14
 100.7379   -9.655776179E-12
 100.864693   -1.976879944E-11
 100.991486   -3.004370364E-11
 101.118279   -4.025399805E-11
 101.245071   -5.016414367E-11
 101.371864   -5.953498805E-11
 101.498657   -6.812953673E-11
 101.62545   -7.571874377E-11
 101.752243   -8.20873855E-11
 101.879036   -8.703963245E-11
 102.005829   -9.040435761E-11
 102.132622   -9.20398549E-11
 102.259415   -9.183799554E-11
 102.386208   -8.972759341E-11
 102.513   -8.567690307E-11
 102.639793   -7.969522264E-11
 102.766586   -7.183344891E-11
 102.893379   -6.218372345E-11
 103.020172   -5.087799279E-11
 103.146965   -3.808570126E-11
 103.273758   -2.401051753E-11
 103.400551   -8.886322234E-12
 103.527336   7.027501411E-12
 103.654129   2.34513433E-11
 103.780922   4.009102772E-11
 103.907715   5.664373831E-11
 104.034508   7.2803992E-11
 104.161301   8.826961384E-11
 104.288094   1.027474217E-10
 104.414886   1.1595859E-10
 104.541679   1.276435624E-10
 104.668472   1.375662778E-10
 104.795265   1.455179172E-10
 104.922058   1.5131979E-10
 105.048851   1.548255968E-10
 105.175644   1.55922858E-10
 105.302437   1.545337885E-10
 105.42923   1.506154645E-10
 105.556023   1.441593928E-10
 105.682816   1.351907059E-10
 105.809608   1.237668024E-10
 105.936401   1.099760144E-10
 106.063194   9.393587991E-11
 106.189987   7.579142175E-11
 106.31678   5.57135553E-11
 106.443573   3.389754102E-11
 106.570366   1.056166092E-11
 106.697159   -1.405392643E-11
 106.823952   -3.968807921E-11
 106.950745   -6.605942876E-11
 107.077538   -9.286688085E-11
 107.20433   -1.197901639E-10
 107.331116   -1.46490306E-10
 107.457909   -1.726103704E-10
 107.584702   -1.977763231E-10
 107.711494   -2.215984896E-10
 107.838287   -2.436734703E-10
 107.96508   -2.63586819E-10
 108.091873   -2.809165123E-10
 108.218666   -2.952373346E-10
 108.345459   -3.061263742E-10
 108.472252   -3.131694348E-10
 108.599045   -3.159684736E-10
 108.725838   -3.141502336E-10
 108.852631   -3.073753196E-10
 108.979424   -2.953485512E-10
 109.106216   -2.778294261E-10
 109.233009   -2.546430011E-10
 109.359802   -2.25690841E-10
 109.486595   -1.909615799E-10
 109.613388   -1.505408853E-10
 109.740181   -1.046202153E-10
 109.866974   -5.350438495E-11
 109.993767   2.38264985E-12
 110.12056   6.249428058E-11
 110.247353   1.261598187E-10
 110.374146   1.925860998E-10
 110.500938   2.608617489E-10
 110.627731   3.299643614E-10
 110.754524   3.987709885E-10
 110.881317   4.660715702E-10
 111.008102   5.3058552E-10
 111.134895   5.909809309E-10
 111.261688   6.458962809E-10
 111.388481   6.939646635E-10
 111.515274   7.338395447E-10
 111.642067   7.64222019E-10
 111.76886   7.838886762E-10
 111.895653   7.917198008E-10
 112.022446   7.86727794E-10
 112.149239   7.680834302E-10
 112.276031   7.351416698E-10
 112.402824   6.874647518E-10
 112.529617   6.248427331E-10
 112.65641   5.473113629E-10
 112.783203   4.551652111E-10
 112.909996   3.489679101E-10
 113.036789   2.295575952E-10
 113.163582   9.804796558E-11
 113.290375   -4.417564925E-11
 113.417168   -1.954642698E-10
 113.543961   -3.539182281E-10
 113.670753   -5.174049522E-10
 113.797546   -6.835805255E-10
 113.924339   -8.499161375E-10
 114.051132   -1.013727657E-9
 114.177925   -1.172208663E-9
 114.304718   -1.322467358E-9
 114.431511   -1.461565757E-9
 114.558304   -1.586561105E-9
 114.685097   -1.694548613E-9
 114.811882   -1.782707426E-9
 114.938675   -1.848345255E-9
 115.065468   -1.888945445E-9
 115.192261   -1.90221261E-9
 115.319054   -1.886120149E-9
 115.445847   -1.838954322E-9
 115.572639   -1.75935766E-9
 115.699432   -1.646372261E-9
 115.826225   -1.499477986E-9
 115.953018   -1.318630316E-9
 116.079811   -1.104293434E-9
 116.206604   -8.574665977E-10
 116.333397   -5.797106684E-10
 116.46019   -2.731643245E-10
 116.586983   5.944465753E-11
 116.713776   4.147957533E-10
 116.840569   7.889793818E-10
 116.967361   1.177511311E-9
 117.094154   1.575354736E-9
 117.220947   1.97695571E-9
 117.34774   2.376286057E-9
 117.474533   2.766901819E-9
 117.601326   3.142009097E-9
 117.728119   3.494545764E-9
 117.854912   3.817271832E-9
 117.981705   4.102873596E-9
 118.108498   4.344077542E-9
 118.235291   4.533772024E-9
 118.362083   4.665139386E-9
 118.488876   4.731794068E-9
 118.615662   4.727925162E-9
 118.742455   4.648438967E-9
 118.869247   4.489105976E-9
 118.99604   4.246698992E-9
 119.122833   3.919126357E-9
 119.249626   3.50555851E-9
 119.376419   3.006537241E-9
 119.503212   2.424068946E-9
 119.630005   1.76170134E-9
 119.756798   1.02457276E-9
 119.883591   2.194383286E-10
 120.010384   -6.453327317E-10