 -4.5   1.678564633E-18
 -4.37320757   1.678577144E-18
 -4.24641466   1.678600202E-18
 -4.11962223   1.678631842E-18
 -3.99282932   1.678668444E-18
 -3.86603665   1.678706701E-18
 -3.73924398   1.678743097E-18
 -3.61245155   1.678775047E-18
 -3.48565888   1.678799966E-18
 -3.35886621   1.678817027E-18
 -3.23207355   1.678826229E-18
 -3.10528088   1.678829021E-18
 -2.97848821   1.678827677E-18
 -2.85169554   1.678825609E-18
 -2.72490287   1.678825402E-18
 -2.5981102   1.678829848E-18
 -2.47131753   1.678841118E-18
 -2.34452486   1.67886066E-18
 -2.21773219   1.678888268E-18
 -2.09093952   1.678922182E-18
 -1.96414697   1.678960956E-18
 -1.8373543   1.679002005E-18
 -1.71056163   1.679041916E-18
 -1.58376896   1.679077485E-18
 -1.45697629   1.679106643E-18
 -1.33018374   1.679127736E-18
 -1.20339108   1.679139007E-18
 -1.07659841   1.679142315E-18
 -0.949805737   1.67913818E-18
 -0.823013067   1.679129494E-18
 -0.696220458   1.679118431E-18
 -0.569427788   1.679109125E-18
 -0.442635119   1.679104472E-18
 -0.315842479   1.679105816E-18
 -0.189049825   1.679115639E-18
 -6.225717068E-2   1.679132906E-18
 6.453548372E-2   1.679158032E-18
 0.191328138   1.679189155E-18
 0.318120778   1.679224413E-18
 0.444913447   1.679259568E-18
 0.571706116   1.679293379E-18
 0.698498726   1.679322537E-18
 0.825291395   1.679345492E-18
 0.952084064   1.679361622E-18
 1.07887673   1.679370824E-18
 1.2056694   1.679372789E-18
 1.33246195   1.679369894E-18
 1.45925462   1.679364517E-18
 1.58604729   1.679359761E-18
 1.71283996   1.679358313E-18
 1.83963263   1.679362139E-18
 1.9664253   1.679372789E-18
 2.09321785   1.679390883E-18
 2.22001052   1.679415802E-18
 2.34680319   1.679446511E-18
 2.47359586   1.679479495E-18
 2.60038853   1.679513616E-18
 2.7271812   1.679545669E-18
 2.85397387   1.679573173E-18
 2.98076653   1.679594059E-18
 3.1075592   1.679607605E-18
 3.23435187   1.679613912E-18
 3.36114454   1.679613602E-18
 3.48793697   1.679608328E-18
 3.61472964   1.679600677E-18
 3.74152231   1.679592612E-18
 3.86831498   1.679587028E-18
 3.99510765   1.679586511E-18
 4.12190056   1.679592509E-18
 4.24869299   1.679605226E-18
 4.37548542   1.679625389E-18
 4.50227833   1.679650928E-18
 4.62907076   1.679680396E-18
 4.75586367   1.679711519E-18
 4.8826561   1.679741194E-18
 5.00944901   1.679767664E-18
 5.13624144   1.67978855E-18
 5.26303434   1.679802095E-18
 5.38982677   1.679807782E-18
 5.51661968   1.679805611E-18
 5.64341211   1.679796305E-18
 5.77020502   1.679781313E-18
 5.89699745   1.679762494E-18
 6.02379036   1.679742538E-18
 6.15058279   1.67972341E-18
 6.27737522   1.679708004E-18
 6.40416813   1.679697043E-18
 6.53096056   1.679692184E-18
 6.65775347   1.679693425E-18
 6.7845459   1.679700145E-18
 6.91133881   1.679709761E-18
 7.03813124   1.679720101E-18
 7.16492414   1.679728683E-18
 7.29171658   1.679733233E-18
 7.41850948   1.679731785E-18
 7.54530191   1.679723306E-18
 7.67209482   1.679708417E-18
 7.79888725   1.679688048E-18
 7.92567968   1.679663543E-18
 8.05247211   1.679637797E-18
 8.17926502   1.679612981E-18
 8.30605793   1.679591578E-18
 8.43285084   1.679576482E-18
 8.55964279   1.679568417E-18
 8.6864357   1.679568314E-18
 8.81322861   1.679576689E-18
 8.94002151   1.679590544E-18
 9.06681347   1.679608328E-18
 9.19360638   1.679627974E-18
 9.32039928   1.679645448E-18
 9.44719219   1.679659303E-18
 9.57398415   1.679667368E-18
 9.70077705   1.67966954E-18
 9.82756996   1.6796653E-18
 9.95436192   1.679655995E-18
 10.0811548   1.67964338E-18
 10.2079477   1.679629835E-18
 10.3347406   1.679617221E-18
 10.4615326   1.679607294E-18
 10.5883255   1.679600987E-18
 10.7151184   1.679599436E-18
 10.8419113   1.679602435E-18
 10.9687033   1.679609983E-18
 11.0954962   1.679620736E-18
 11.2222891   1.67963211E-18
 11.349082   1.67964307E-18
 11.4758739   1.679652272E-18
 11.6026669   1.679657752E-18
 11.7294598   1.67965889E-18
 11.8562517   1.679655374E-18
 11.9830446   1.679647102E-18
 12.1098375   1.679635108E-18
 12.2366304   1.679619392E-18
 12.3634224   1.679602125E-18
 12.4902153   1.679583927E-18
 12.6170082   1.679565935E-18
 12.7438011   1.679550219E-18
 12.8705931   1.67953626E-18
 12.997386   1.67952499E-18
 13.1241789   1.679515891E-18
 13.2509708   1.67950948E-18
 13.3777637   1.679505655E-18
 13.5045567   1.679503173E-18
 13.6313496   1.679501519E-18
 13.7581415   1.679498934E-18
 13.8849344   1.679495522E-18
 14.0117273   1.679490559E-18
 14.1385202   1.679481873E-18
 14.2653122   1.679469776E-18
 14.3921051   1.679455093E-18
 14.518898   1.679437619E-18
 14.6456909   1.679418077E-18
 14.7724829   1.679397914E-18
 14.8992758   1.679377545E-18
 15.0260687   1.67935852E-18
 15.1528606   1.679341976E-18
 15.2796535   1.679328845E-18
 15.4064465   1.679319022E-18
 15.5332394   1.679313128E-18
 15.6600313   1.679310647E-18
 15.7868242   1.679311784E-18
 15.9136171   1.679315093E-18
 16.0404091   1.679319746E-18
 16.167202   1.679323882E-18
 16.2939949   1.679325846E-18
 16.4207878   1.679323571E-18
 16.5475807   1.679315817E-18
 16.6743736   1.679302478E-18
 16.8011646   1.679283867E-18
 16.9279575   1.679260602E-18
 17.0547504   1.679235373E-18
 17.1815434   1.679210351E-18
 17.3083363   1.6791875E-18
 17.4351292   1.679169302E-18
 17.5619221   1.679157101E-18
 17.688715   1.679152242E-18
 17.815506   1.679154103E-18
 17.9422989   1.679162375E-18
 18.0690918   1.679173852E-18
 18.1958847   1.679185742E-18
 18.3226776   1.679196082E-18
 18.4494705   1.679201459E-18
 18.5762634   1.679200528E-18
 18.7030544   1.679191016E-18
 18.8298473   1.679172508E-18
 18.9566402   1.679145211E-18
 19.0834332   1.679112123E-18
 19.2102261   1.679075934E-18
 19.337019   1.679040055E-18
 19.4638119   1.679007485E-18
 19.5906048   1.678981429E-18
 19.7173958   1.678962817E-18
 19.8441887   1.678953408E-18
 19.9709816   1.678951754E-18
 20.0977745   1.678956717E-18
 20.2245674   1.678964575E-18
 20.3513603   1.678973364E-18
 20.4781532   1.678979464E-18
 20.6049442   1.678981429E-18
 20.7317371   1.678976983E-18
 20.85853   1.678965816E-18
 20.985323   1.678949065E-18
 21.1121159   1.678927042E-18
 21.2389088   1.678901709E-18
 21.3657017   1.678875446E-18
 21.4924946   1.678851665E-18
 21.6192856   1.678832743E-18
 21.7460785   1.678820646E-18
 21.8728714   1.678816406E-18
 21.9996643   1.678821266E-18
 22.1264572   1.67883264E-18
 22.2532501   1.678849287E-18
 22.380043   1.678867795E-18
 22.506834   1.678883925E-18
 22.6336269   1.678894058E-18
 22.7604198   1.678896333E-18
 22.8872128   1.678889198E-18
 23.0140057   1.678871207E-18
 23.1407986   1.678843703E-18
 23.2675915   1.678809582E-18
 23.3943844   1.678771222E-18
 23.5211754   1.678732137E-18
 23.6479683   1.678696258E-18
 23.7747612   1.678667617E-18
 23.9015541   1.678648075E-18
 24.028347   1.678638562E-18
 24.1551399   1.678638666E-18
 24.2819328   1.678647248E-18
 24.4087238   1.67866069E-18
 24.5355167   1.678674338E-18
 24.6623096   1.678684368E-18
 24.7891026   1.678687056E-18
 24.9158955   1.678679922E-18
 25.0426884   1.678662241E-18
 25.1694813   1.67863515E-18
 25.2962742   1.678600512E-18
 25.4230652   1.678562565E-18
 25.5498581   1.678524825E-18
 25.676651   1.678492255E-18
 25.8034439   1.678468163E-18
 25.9302368   1.678453584E-18
 26.0570297   1.678449655E-18
 26.1838226   1.678456376E-18
 26.3106136   1.678469714E-18
 26.4374065   1.678485844E-18
 26.5641994   1.678502284E-18
 26.6909924   1.678514589E-18
 26.8177853   1.678518518E-18
 26.9445782   1.678512417E-18
 27.0713711   1.678496287E-18
 27.198164   1.678469921E-18
 27.324955   1.67843549E-18
 27.4517479   1.678397543E-18
 27.5785408   1.678358665E-18
 27.7053337   1.678322993E-18
 27.8321266   1.678292698E-18
 27.9589195   1.678269743E-18
 28.0857124   1.678254027E-18
 28.2125034   1.678245652E-18
 28.3392963   1.678241619E-18
 28.4660892   1.678240895E-18
 28.5928822   1.678241102E-18
 28.7196751   1.678239241E-18
 28.846468   1.678234381E-18
 28.9732609   1.678224972E-18
 29.1000538   1.678211634E-18
 29.2268448   1.67819416E-18
 29.3536377   1.67817255E-18
 29.4804306   1.678147941E-18
 29.6072235   1.678122298E-18
 29.7340164   1.678096242E-18
 29.8608093   1.6780706E-18
 29.9876022   1.678046922E-18
 30.1143932   1.678025001E-18
 30.2411861   1.678005459E-18
 30.367979   1.677988502E-18
 30.494772   1.677972682E-18
 30.6215649   1.677958517E-18
 30.7483578   1.677945282E-18
 30.8751507   1.677931737E-18
 31.0019417   1.677917261E-18
 31.1287346   1.677902475E-18
 31.2555275   1.677887586E-18
 31.3823204   1.67787249E-18
 31.5091133   1.677857084E-18
 31.6359062   1.677841367E-18
 31.7626991   1.677825651E-18
 31.889492   1.677809521E-18
 32.0162849   1.67779277E-18
 32.1430779   1.677775917E-18
 32.2698708   1.67775958E-18
 32.3966637   1.677742726E-18
 32.5234528   1.677726803E-18
 32.6502457   1.677710776E-18
 32.7770386   1.67769568E-18
 32.9038315   1.677681101E-18
 33.0306244   1.677667246E-18
 33.1574173   1.677653907E-18
 33.2842102   1.677641396E-18
 33.4110031   1.677630126E-18
 33.537796   1.677620613E-18
 33.6645889   1.677613169E-18
 33.7913818   1.677607792E-18
 33.9181747   1.677604277E-18
 34.0449677   1.677602312E-18
 34.1717606   1.677601588E-18
 34.2985535   1.677601485E-18
 34.4253426   1.677602209E-18
 34.5521355   1.677603036E-18
 34.6789284   1.677604173E-18
 34.8057213   1.677604173E-18
 34.9325142   1.67760376E-18
 35.0593071   1.677601795E-18
 35.1861   1.677598279E-18
 35.3128929   1.677592903E-18
 35.4396858   1.677585148E-18
 35.5664787   1.677574808E-18
 35.6932716   1.67756116E-18
 35.8200645   1.677543789E-18
 35.9468575   1.677522282E-18
 36.0736504   1.677496329E-18
 36.2004433   1.677464586E-18
 36.3272324   1.677426123E-18
 36.4540253   1.677380628E-18
 36.5808182   1.677328102E-18
 36.7076111   1.677268234E-18
 36.834404   1.677203508E-18
 36.9611969   1.677136609E-18
 37.0879898   1.677069711E-18
 37.2147827   1.677006639E-18
 37.3415756   1.676950804E-18
 37.4683685   1.676904689E-18
 37.5951614   1.676870878E-18
 37.7219543   1.676851335E-18
 37.8487473   1.67684813E-18
 37.9755402   1.676862502E-18
 38.1023293   1.676895693E-18
 38.2291222   1.676949563E-18
 38.3559151   1.677025664E-18
 38.482708   1.677126063E-18
 38.6095009   1.677251381E-18
 38.7362938   1.677404512E-18
 38.8630867   1.677586906E-18
 38.9898796   1.677799284E-18
 39.1166725   1.678041131E-18
 39.2434654   1.678311309E-18
 39.3702583   1.678606819E-18
 39.4970512   1.678922596E-18
 39.6238441   1.67925202E-18
 39.7506371   1.679586718E-18
 39.87743   1.67991697E-18
 40.0042191   1.680233574E-18
 40.131012   1.680525775E-18
 40.2578049   1.680784683E-18
 40.3845978   1.681002748E-18
 40.5113907   1.681175422E-18
 40.6381836   1.681301153E-18
 40.7649765   1.681381493E-18
 40.8917694   1.681420578E-18
 41.0185623   1.681429056E-18
 41.1453552   1.681422439E-18
 41.2721481   1.681420474E-18
 41.398941   1.681448909E-18
 41.5257339   1.681537934E-18
 41.6525269   1.681721775E-18
 41.7793198   1.682039516E-18
 41.9061089   1.682530964E-18
 42.0329018   1.683235619E-18
 42.1596947   1.684191529E-18
 42.2864876   1.68543137E-18
 42.4132805   1.686981093E-18
 42.5400734   1.688855174E-18
 42.6668663   1.691054854E-18
 42.7936592   1.693565243E-18
 42.9204521   1.696351912E-18
 43.047245   1.699359333E-18
 43.1740379   1.702509547E-18
 43.3008308   1.705701948E-18
 43.4276237   1.708815455E-18
 43.5544167   1.711708933E-18
 43.6812096   1.714227285E-18
 43.8079987   1.71620528E-18
 43.9347916   1.717473451E-18
 44.0615845   1.717867603E-18
 44.1883774   1.717237085E-18
 44.3151703   1.715456578E-18
 44.4419632   1.712436439E-18
 44.5687561   1.70813603E-18
 44.695549   1.702575101E-18
 44.8223419   1.695845057E-18
 44.9491348   1.688118156E-18
 45.0759277   1.679655891E-18
 45.2027206   1.670811883E-18
 45.3295135   1.662031774E-18
 45.4563065   1.653846305E-18
 45.5830994   1.646861592E-18
 45.7098885   1.641738759E-18
 45.8366814   1.63917026E-18
 45.9634743   1.639850099E-18
 46.0902672   1.644435575E-18
 46.2170601   1.653503852E-18
 46.343853   1.667508847E-18
 46.4706459   1.686731491E-18
 46.5974388   1.711232787E-18
 46.7242317   1.740809664E-18
 46.8510246   1.774953612E-18
 46.9778175   1.812821113E-18
 47.1046104   1.853217512E-18
 47.2314034   1.894587503E-18
 47.3581963   1.93503374E-18
 47.4849892   1.972350132E-18
 47.6117783   2.004079126E-18
 47.7385712   2.027590701E-18
 47.8653641   2.040189902E-18
 47.992157   2.039243608E-18
 48.1189499   2.022328385E-18
 48.2457428   1.987394686E-18
 48.3725357   1.932943661E-18
 48.4993286   1.858203757E-18
 48.6261215   1.763305875E-18
 48.7529144   1.649438983E-18
 48.8797073   1.518984329E-18
 49.0065002   1.375604978E-18
 49.1332932   1.224288104E-18
 49.2600861   1.071328864E-18
 49.386879   9.242403313E-19
 49.5136681   7.915853764E-19
 49.640461   6.827240134E-19
 49.7672539   6.074777712E-19
 49.8940468   5.757086074E-19
 50.0208397   5.968253393E-19
 50.1476326   6.792239538E-19
 50.2744255   8.296871766E-19
 50.4012184   1.0527599E-18
 50.5280113   1.350134225E-18
 50.6548042   1.720070592E-18
 50.7815971   2.156899297E-18
 50.90839   2.650634719E-18
 51.035183   3.186743088E-18
 51.1619759   3.746102884E-18
 51.2887688   4.305185989E-18
 51.4155579   4.836498158E-18
 51.5423508   5.309283991E-18
 51.6691437   5.69052285E-18
 51.7959366   5.946191142E-18
 51.9227295   6.042787226E-18
 52.0495224   5.949082138E-18
 52.1763153   5.638032863E-18
 52.3031082   5.088804375E-18
 52.4299011   4.288803263E-18
 52.556694   3.235629463E-18
 52.6834869   1.938834014E-18
 52.8102798   4.213645374E-19
 52.9370728   -1.27942207E-18
 53.0638657   -3.111299667E-18
 53.1906586   -5.007372166E-18
 53.3174477   -6.887025957E-18
 53.4442406   -8.657699116E-18
 53.5710335   -1.021751856E-17
 53.6978264   -1.145879158E-17
 53.8246193   -1.227231213E-17
 53.9514122   -1.255241037E-17
 54.0782051   -1.220258329E-17
 54.204998   -1.114153886E-17
 54.3317909   -9.309406597E-18
 54.4585838   -6.673840007E-18
 54.5853767   -3.235699359E-18
 54.7121696   9.660261871E-19
 54.8389626   5.850408177E-18
 54.9657555   1.129222139E-17
 55.0925484   1.71213764E-17
 55.2193375   2.312440809E-17
 55.3461304   2.904825046E-17
 55.4729233   3.460647735E-17
 55.5997162   3.948796463E-17
 55.7265091   4.336801411E-17
 55.853302   4.592169602E-17
 55.9800949   4.683902939E-17
 56.1068878   4.58416481E-17
 56.2336807   4.270027421E-17
 56.3604736   3.725228072E-17
 56.4872665   2.941858915E-17
 56.6140594   1.92189228E-17
 56.7408524   6.78452918E-18
 56.8676453   -7.632597344E-18
 56.9944382   -2.365488398E-17
 57.1212273   -4.077956745E-17
 57.2480202   -5.838495535E-17
 57.3748131   -7.574308904E-17
 57.501606   -9.203897063E-17
 57.6283989   -1.06396371E-16
 57.7551918   -1.179099244E-16
 57.8819847   -1.256826428E-16
 58.0087776   -1.288679896E-16
 58.1355705   -1.267150436E-16
 58.2623634   -1.186150132E-16
 58.3891563   -1.041472338E-16
 58.5159492   -8.312225479E-17
 58.6427422   -5.561991556E-17
 58.7695351   -2.201978448E-17
 58.896328   1.69782543E-17
 59.0231171   6.034544619E-17
 59.14991   1.067295263E-16
 59.2767029   1.544754632E-16
 59.4034958   2.016625041E-16
 59.5302887   2.461575154E-16
 59.6570816   2.856848372E-16
 59.7838745   3.179103381E-16
 59.9106674   3.405387174E-16
 60.0374603   3.514201791E-16
 60.1642532   3.486631927E-16
 60.2910461   3.307491605E-16
 60.4178391   2.966432995E-16
 60.544632   2.458968145E-16
 60.6714249   1.787348442E-16
 60.7982178   9.612389951E-17
 60.9250069   -1.856941764E-19
 61.0517998   -1.076478423E-16
 61.1785927   -2.229425128E-16
 61.3053856   -3.420345511E-16
 61.4321785   -4.602710861E-16
 61.5589714   -5.725163453E-16
 61.6857643   -6.733234304E-16
 61.8125572   -7.571380288E-16
 61.9393501   -8.185291768E-16
 62.066143   -8.524394527E-16
 62.1929359   -8.544450679E-16
 62.3197289   -8.210160126E-16
 62.4465218   -7.497642364E-16
 62.5733147   -6.396674233E-16
 62.7001076   -4.912563454E-16
 62.8268967   -3.067529818E-16
 62.9536896   -9.014929306E-17
 63.0804825   1.527842296E-16
 63.2072754   4.145665912E-16
 63.3340683   6.861558737E-16
 63.4608612   9.571834411E-16
 63.5876541   1.216267209E-15
 63.714447   1.451402602E-15
 63.8412399   1.65041691E-15
 63.9680328   1.801477084E-15
 64.0948257   1.893631939E-15
 64.2216187   1.917366014E-15
 64.3484116   1.865147915E-15
 64.4752045   1.73194002E-15
 64.6019974   1.515652274E-15
 64.7287903   1.217506947E-15
 64.8555832   8.422953861E-16
 64.9823761   3.985025054E-16
 65.109169   -1.017168647E-16
 65.2359619   -6.427246828E-16
 65.3627548   -1.205752671E-15
 65.4895477   -1.769426098E-15
 65.616333   -2.310445841E-15
 65.7431259   -2.804414915E-15
 65.8699188   -3.226788741E-15
 65.9967117   -3.553912654E-15
 66.1235046   -3.764114468E-15
 66.2502975   -3.83880668E-15
 66.3770905   -3.763547803E-15
 66.5038834   -3.529017932E-15
 66.6306763   -3.131854348E-15
 66.7574692   -2.575299491E-15
 66.8842621   -1.869616437E-15
 67.011055   -1.032234584E-15
 67.1378479   -8.759517109E-17
 67.2646408   9.333231582E-16
 67.3914337   1.993800361E-15
 67.5182266   3.052492654E-15
 67.6450195   4.064839963E-15
 67.7718124   4.98473299E-15
 67.8986053   5.766383464E-15
 68.0253983   6.366337748E-15
 68.1521912   6.745545505E-15
 68.2789841   6.871412907E-15
 68.405777   6.719730482E-15
 68.5325699   6.27639979E-15
 68.6593628   5.538845427E-15
 68.7861557   4.517042902E-15
 68.9129486   3.234072378E-15
 69.0397415   1.726143032E-15
 69.1665344   4.203870508E-17
 69.2933273   -1.758030752E-15
 69.4201126   -3.604180248E-15
 69.5469055   -5.419162637E-15
 69.6736984   -7.121194029E-15
 69.8004913   -8.627209292E-15
 69.9272842   -9.85642774E-15
 70.0540771   -1.073411989E-14
 70.1808701   -1.119538778E-14
 70.307663   -1.118883174E-14
 70.4344559   -1.067990301E-14
 70.5612488   -9.653799671E-15
 70.6880417   -8.117699492E-15
 70.8148346   -6.102213817E-15
 70.9416275   -3.661923331E-15
 71.0684204   -8.748879963E-16
 71.1952133   2.15891207E-15
 71.3220062   5.320241047E-15
 71.4487991   8.474330856E-15
 71.575592   1.147561169E-14
 71.7023849   1.417329219E-14
 71.8291779   1.641763982E-14
 71.9559708   1.806673843E-14
 72.0827637   1.899345176E-14
 72.2095566   1.909232761E-14
 72.3363495   1.828612843E-14
 72.4631424   1.6531664E-14
 72.5899353   1.382463564E-14
 72.7167282   1.020319286E-14
 72.8435211   5.74993832E-15
 72.970314   5.921718507E-16
 73.0971069   -5.099769382E-15
 73.2238922   -1.111617834E-14
 73.3506851   -1.721364919E-14
 73.477478   -2.312268317E-14
 73.6042709   -2.855703819E-14
 73.7310638   -3.32246268E-14
 73.8578568   -3.683954658E-14
 73.9846497   -3.913489067E-14
 74.1114426   -3.987588864E-14
 74.2382355   -3.887275091E-14
 74.3650284   -3.599275419E-14
 74.4918213   -3.117098525E-14
 74.6186142   -2.441915688E-14
 74.7454071   -1.583201479E-14
 74.8722   -5.590842239E-15
 74.9989929   6.036248161E-15
 75.1257858   1.869761195E-14
 75.2525787   3.19650041E-14
 75.3793716   4.534420799E-14
 75.5061646   5.828926344E-14
 75.6329575   7.021989191E-14
 75.7597504   8.054183541E-14
 75.8865433   8.866940792E-14
 76.0133362   9.404957146E-14
 76.1401291   9.618675756E-14
 76.266922   9.466744473E-14
 76.3937149   8.918358402E-14
 76.5205078   7.955384263E-14
 76.6473007   6.57416355E-14
 76.7740936   4.78691285E-14
 76.9008865   2.62262085E-14
 77.0276718   1.273861002E-15
 77.1544647   -2.635873528E-14
 77.2812576   -5.588365599E-14
 77.4080505   -8.637040464E-14
 77.5348434   -1.167686959E-13
 77.6616364   -1.459374342E-13
 77.7884293   -1.726793892E-13
 77.9152222   -1.957805798E-13
 78.0420151   -2.140533166E-13
 78.168808   -2.26381644E-13
 78.2956009   -2.317675132E-13
 78.4223938   -2.293763866E-13
 78.5491867   -2.185802944E-13
 78.6759796   -1.9899673E-13
 78.8027725   -1.705217727E-13
 78.9295654   -1.333557288E-13
 79.0563583   -8.802015377E-14
 79.1831512   -3.536450985E-14
 79.3099442   2.343780992E-14
 79.4367371   8.690505862E-14
 79.56353   1.53274664E-13
 79.6903229   2.205420633E-13
 79.8171158   2.865107782E-13
 79.9439087   3.488525929E-13
 80.0707016   4.051761097E-13
 80.1974945   4.531024807E-13
 80.3242874   4.90345774E-13
 80.4510803   5.147958882E-13
 80.5778732   5.2460125E-13
 80.7046585   5.182483132E-13
 80.8314514   4.946356367E-13
 80.9582443   4.53138937E-13
 81.0850372   3.936654876E-13
 81.2118301   3.166942349E-13
 81.338623   2.233003956E-13
 81.465416   1.151624098E-13
 81.5922089   -5.450250863E-15
 81.7190018   -1.357086373E-13
 81.8457947   -2.722758542E-13
 81.9725876   -4.113778274E-13
 82.0993805   -5.488926913E-13
 82.2261734   -6.804561255E-13
 82.3529663   -8.015812948E-13
 82.4797592   -9.077901191E-13
 82.6065521   -9.947515901E-13
 82.733345   -1.058425049E-12
 82.8601379   -1.095202596E-12
 82.9869308   -1.102046731E-12
 83.1137238   -1.076619262E-12
 83.2405167   -1.017396128E-12
 83.3673096   -9.237645371E-13
 83.4941025   -7.96098376E-13
 83.6208954   -6.358079211E-13
 83.7476883   -4.453616566E-13
 83.8744812   -2.282774664E-13
 84.0012741   1.091817253E-14
 84.128067   2.667628759E-13
 84.2548599   5.329635388E-13
 84.3816528   8.025310559E-13
 84.5084381   1.067944561E-12
 84.635231   1.321338546E-12
 84.7620239   1.55471198E-12
 84.8888168   1.760152028E-12
 85.0156097   1.930067217E-12
 85.1424026   2.057423676E-12
 85.2691956   2.135978894E-12
 85.3959885   2.16050333E-12
 85.5227814   2.126984569E-12
 85.6495743   2.032809468E-12
 85.7763672   1.876911387E-12
 85.9031601   1.659884578E-12
 86.029953   1.384053787E-12
 86.1567459   1.05350082E-12
 86.2835388   6.740404675E-13
 86.4103317   2.531468145E-13
 86.5371246   -2.001700672E-13
 86.6639175   -6.755374797E-13
 86.7907104   -1.161439543E-12
 86.9175034   -1.645478242E-12
 87.0442963   -2.114671068E-12
 87.1710892   -2.555778722E-12
 87.2978821   -2.955653517E-12
 87.424675   -3.301600529E-12
 87.5514679   -3.581740807E-12
 87.6782608   -3.785367853E-12
 87.8050537   -3.903285681E-12
 87.9318466   -3.928118247E-12
 88.0586395   -3.854582886E-12
 88.1854324   -3.679714086E-12
 88.3122177   -3.403036533E-12
 88.4390106   -3.026671145E-12
 88.5658035   -2.555381037E-12
 88.6925964   -1.996543339E-12
 88.8193893   -1.360053129E-12
 88.9461823   -6.581553878E-13
 89.0729752   9.478947846E-14
 89.1997681   8.826019885E-13
 89.326561   1.687637009E-12
 89.4533539   2.491181957E-12
 89.5801468   3.273895694E-12
 89.7069397   4.01627169E-12
 89.8337326   4.69911306E-12
 89.9605255   5.304012004E-12
 90.0873184   5.813816442E-12
 90.2141113   6.213070423E-12
 90.3409042   6.488420912E-12
 90.4676971   6.628973846E-12
 90.5944901   6.626599009E-12
 90.721283   6.476163789E-12
 90.8480759   6.175699709E-12
 90.9748688   5.726493498E-12
 91.1016617   5.133102277E-12
 91.2284546   4.403291967E-12
 91.3552475   3.547902857E-12
 91.4820404   2.580649886E-12
 91.6088333   1.517856587E-12
 91.7356262   3.781412032E-13
 91.8624191   -8.179454835E-13
 91.989212   -2.048312258E-12
 92.1159973   -3.289744562E-12
 92.2427902   -4.518333624E-12
 92.3695831   -5.709906072E-12
 92.496376   -6.840446178E-12
 92.6231689   -7.886506552E-12
 92.7499619   -8.825590432E-12
 92.8767548   -9.636509472E-12
 93.0035477   -1.029970727E-11
 93.1303406   -1.079755643E-11
 93.2571335   -1.111461704E-11
 93.3839264   -1.123785873E-11
 93.5107193   -1.115686623E-11
 93.6375122   -1.086400934E-11
 93.7643051   -1.035459392E-11
 93.891098   -9.626995381E-12
 94.0178909   -8.682779322E-12
 94.1446838   -7.526805568E-12
 94.2714767   -6.167329234E-12
 94.3982697   -4.61608746E-12
 94.5250626   -2.888370966E-12
 94.6518555   -1.003085093E-12
 94.7786484   1.017221355E-12
 94.9054413   3.146351018E-12
 95.0322342   5.354501998E-12
 95.1590271   7.608363592E-12
 95.28582   9.871281743E-12
 95.4126129   1.210350049E-11
 95.5394058   1.42625009E-11
 95.6661987   1.630344817E-11
 95.7929916   1.817974243E-11
 95.9197769   1.984368919E-11
 96.0465698   2.124730947E-11
 96.1733627   2.234324531E-11
 96.3001556   2.308580237E-11
 96.4269485   2.343207052E-11
 96.5537415   2.334313645E-11
 96.6805344   2.27853552E-11
 96.8073273   2.173163732E-11
 96.9341202   2.0162743E-11
 97.0609131   1.80685189E-11
 97.187706   1.544903962E-11
 97.3144989   1.231563029E-11
 97.4412918   8.691687994E-12
 97.5680847   4.613301494E-12
 97.6948776   1.29596827E-13
 97.8216705   -4.697228717E-12
 97.9484634   -9.792189629E-12
 98.0752563   -1.506815159E-11
 98.2020493   -2.042685292E-11
 98.3288422   -2.576028106E-11
 98.4556351   -3.095242465E-11
 98.582428   -3.588137773E-11
 98.7092209   -4.042172846E-11
 98.8360138   -4.444724797E-11
 98.9628067   -4.783379248E-11
 99.0895996   -5.046234611E-11
 99.2163925   -5.222215022E-11
 99.3431854   -5.301385372E-11
 99.4699783   -5.275256273E-11
 99.5967712   -5.137073406E-11
 99.7235565   -4.882083279E-11
 99.8503494   -4.507767076E-11
 99.9771423   -4.014030081E-11
 100.103935   -3.403350518E-11
 100.230728   -2.680871497E-11
 100.357521   -1.854439692E-11
 100.484314   -9.345808849E-12
 100.611107   6.558189864E-13
 100.7379   1.130473666E-11
 100.864693   2.242271299E-11
 100.991486   3.381164446E-11
 101.118279   4.525665953E-11
 101.245071   5.652973228E-11
 101.371864   6.739363234E-11
 101.498657   7.7606227E-11
 101.62545   8.692502274E-11
 101.752243   9.511183507E-11
 101.879036   1.019375001E-10
 102.005829   1.071866415E-10
 102.132622   1.106621947E-10
 102.259415   1.121898616E-10
 102.386208   1.116222462E-10
 102.513   1.088426987E-10
 102.639793   1.037687158E-10
 102.766586   9.635498649E-11
 102.893379   8.659594569E-11
 103.020172   7.452782141E-11
 103.146965   6.023014726E-11
 103.273758   4.382675819E-11
 103.400551   2.548619996E-11
 103.527336   5.421561637E-12
 103.654129   -1.611028845E-11
 103.780922   -3.881011137E-11
 103.907715   -6.2338322E-11
 104.034508   -8.631769605E-11
 104.161301   -1.103367953E-10
 104.288094   -1.339540978E-10
 104.414886   -1.567029007E-10
 104.541679   -1.780969955E-10
 104.668472   -1.976371705E-10
 104.795265   -2.148185518E-10
 104.922058   -2.291387358E-10
 105.048851   -2.401067678E-10
 105.175644   -2.472527738E-10
 105.302437   -2.501384933E-10
 105.42923   -2.483681594E-10
 105.556023   -2.415999345E-10
 105.682816   -2.29557845E-10
 105.809608   -2.120432163E-10
 105.936401   -1.889465945E-10
 106.063194   -1.602586119E-10
 106.189987   -1.2608041E-10
 106.31678   -8.663267326E-11
 106.443573   -4.226323805E-11
 106.570366   6.547333856E-12
 106.697159   5.918242979E-11
 106.823952   1.148888276E-10
 106.950745   1.727792492E-10
 107.077538   2.31838132E-10
 107.20433   2.909312513E-10
 107.331116   3.488189737E-10
 107.457909   4.0417375E-10
 107.584702   4.556010569E-10
 107.711494   5.016647098E-10
 107.838287   5.409154236E-10
 107.96508   5.719227314E-10
 108.091873   5.933099567E-10
 108.218666   6.037906841E-10
 108.345459   6.022075616E-10
 108.472252   5.875709919E-10
 108.599045   5.590977126E-10
 108.725838   5.162483219E-10
 108.852631   4.587615565E-10
 108.979424   3.866858778E-10
 109.106216   3.00405617E-10
 109.233009   2.006616678E-10
 109.359802   8.85649748E-11
 109.486595   -3.439763405E-11
 109.613388   -1.663662402E-10
 109.740181   -3.051203457E-10
 109.866974   -4.481011395E-10
 109.993767   -5.924435387E-10
 110.12056   -7.350189901E-10
 110.247353   -8.724875822E-10
 110.374146   -1.001359773E-9
 110.500938   -1.118066972E-9
 110.627731   -1.21903887E-9
 110.754524   -1.300787478E-9
 110.881317   -1.359995117E-9
 111.008102   -1.393605897E-9
 111.134895   -1.398916094E-9
 111.261688   -1.373664738E-9
 111.388481   -1.31611877E-9
 111.515274   -1.225152535E-9
 111.642067   -1.100318281E-9
 111.76886   -9.419052205E-10
 111.895653   -7.509863287E-10
 112.022446   -5.294485406E-10
 112.149239   -2.800070731E-10
 112.276031   -6.200541382E-12
 112.402824   2.87633084E-10
 112.529617   5.964008176E-10
 112.65641   9.143190649E-10
 112.783203   1.234998548E-9
 112.909996   1.551548223E-9
 113.036789   1.856697573E-9
 113.163582   2.142934497E-9
 113.290375   2.402658295E-9
 113.417168   2.628342211E-9
 113.543961   2.812706068E-9
 113.670753   2.948892908E-9
 113.797546   3.030645734E-9
 113.924339   3.052484043E-9
 114.051132   3.009869465E-9
 114.177925   2.899364304E-9
 114.304718   2.71877143E-9
 114.431511   2.46725973E-9
 114.558304   2.145461808E-9
 114.685097   1.755549706E-9
 114.811882   1.301280528E-9
 114.938675   7.880107122E-10
 115.065468   2.226774876E-10
 115.192261   -3.862534736E-10
 115.319054   -1.028875762E-9
 115.445847   -1.693963525E-9
 115.572639   -2.369127339E-9
 115.699432   -3.041001673E-9
 115.826225   -3.695463047E-9
 115.953018   -4.317872282E-9
 116.079811   -4.893343064E-9
 116.206604   -5.40702727E-9
 116.333397   -5.844415618E-9
 116.46019   -6.191644086E-9
 116.586983   -6.435808331E-9
 116.713776   -6.565270994E-9
 116.840569   -6.569961464E-9
 116.967361   -6.441661871E-9
 117.094154   -6.17426954E-9
 117.220947   -5.764036359E-9
 117.34774   -5.209769061E-9
 117.474533   -4.513001528E-9
 117.601326   -3.678111371E-9
 117.728119   -2.712403191E-9
 117.854912   -1.626130675E-9
 117.981705   -4.324719194E-10
 118.108498   8.52552029E-10
 118.235291   2.210215566E-9
 118.362083   3.619282873E-9
 118.488876   5.056255414E-9
 118.615662   6.495675997E-9
 118.742455   7.910480271E-9
 118.869247   9.272397072E-9
 118.99604   1.055238918E-8
 119.122833   1.172113251E-8
 119.249626   1.274952321E-8
 119.376419   1.360920709E-8
 119.503212   1.427312313E-8
 119.630005   1.471605682E-8
 119.756798   1.491518731E-8
 119.883591   1.485062207E-8
 120.010384   1.450590847E-8
 120.137177   1.386852144E-8
 120.263969   1.293030216E-8
 120.390762   1.16878498E-8
 120.517555   1.014285811E-8
 120.644348   8.302375676E-9
 120.771141   6.17899909E-9
 120.897934   3.790985303E-9
 121.024727   1.162267171E-9
 121.15152   -1.677618044E-9
 121.278313   -4.693694322E-9
 121.405106   -7.845816441E-9
 121.531898   -1.108903724E-8
 121.658691   -1.437406638E-8
 121.785484   -1.764784763E-8
 121.912277   -2.085420014E-8
 122.03907   -2.393456455E-8