 -4.5   1.085839328E-17
 -4.37320757   1.085839246E-17
 -4.24641466   1.085839163E-17
 -4.11962223   1.085838997E-17
 -3.99282932   1.085838832E-17
 -3.86603665   1.085838832E-17
 -3.73924398   1.085838997E-17
 -3.61245155   1.08583908E-17
 -3.48565888   1.085839246E-17
 -3.35886621   1.085839411E-17
 -3.23207355   1.085839494E-17
 -3.10528088   1.085839577E-17
 -2.97848821   1.085839577E-17
 -2.85169554   1.085839659E-17
 -2.72490287   1.085839742E-17
 -2.5981102   1.085839907E-17
 -2.47131753   1.085840156E-17
 -2.34452486   1.085840404E-17
 -2.21773219   1.085840569E-17
 -2.09093952   1.085840735E-17
 -1.96414697   1.0858409E-17
 -1.8373543   1.085840817E-17
 -1.71056163   1.085840817E-17
 -1.58376896   1.085840983E-17
 -1.45697629   1.085841314E-17
 -1.33018374   1.085841893E-17
 -1.20339108   1.085842554E-17
 -1.07659841   1.085843299E-17
 -0.949805737   1.085844126E-17
 -0.823013067   1.08584487E-17
 -0.696220458   1.085845615E-17
 -0.569427788   1.085846359E-17
 -0.442635119   1.085847187E-17
 -0.315842479   1.085848014E-17
 -0.189049825   1.085848675E-17
 -6.225717068E-2   1.085849337E-17
 6.453548372E-2   1.085849834E-17
 0.191328138   1.085850164E-17
 0.318120778   1.085850495E-17
 0.444913447   1.085850743E-17
 0.571706116   1.085851157E-17
 0.698498726   1.085851653E-17
 0.825291395   1.085852232E-17
 0.952084064   1.085852977E-17
 1.07887673   1.085853804E-17
 1.2056694   1.085854631E-17
 1.33246195   1.085855541E-17
 1.45925462   1.085856368E-17
 1.58604729   1.085857195E-17
 1.71283996   1.085858105E-17
 1.83963263   1.08585885E-17
 1.9664253   1.085859512E-17
 2.09321785   1.085860091E-17
 2.22001052   1.085860587E-17
 2.34680319   1.085860918E-17
 2.47359586   1.085861249E-17
 2.60038853   1.085861662E-17
 2.7271812   1.085862076E-17
 2.85397387   1.085862738E-17
 2.98076653   1.085863647E-17
 3.1075592   1.085864806E-17
 3.23435187   1.085866212E-17
 3.36114454   1.085867949E-17
 3.48793697   1.085869769E-17
 3.61472964   1.085871506E-17
 3.74152231   1.085873243E-17
 3.86831498   1.085874814E-17
 3.99510765   1.085876386E-17
 4.12190056   1.085877958E-17
 4.24869299   1.085879364E-17
 4.37548542   1.085880853E-17
 4.50227833   1.085882176E-17
 4.62907076   1.085883252E-17
 4.75586367   1.085884244E-17
 4.8826561   1.085885071E-17
 5.00944901   1.085885899E-17
 5.13624144   1.085886891E-17
 5.26303434   1.085888132E-17
 5.38982677   1.085889538E-17
 5.51661968   1.085891027E-17
 5.64341211   1.085892599E-17
 5.77020502   1.085893922E-17
 5.89699745   1.085894915E-17
 6.02379036   1.085895494E-17
 6.15058279   1.085895825E-17
 6.27737522   1.085895908E-17
 6.40416813   1.085895908E-17
 6.53096056   1.085895908E-17
 6.65775347   1.085896073E-17
 6.7845459   1.085896238E-17
 6.91133881   1.085896156E-17
 7.03813124   1.085896073E-17
 7.16492414   1.08589599E-17
 7.29171658   1.085895825E-17
 7.41850948   1.085895825E-17
 7.54530191   1.085896073E-17
 7.67209482   1.085896735E-17
 7.79888725   1.085897562E-17
 7.92567968   1.085898637E-17
 8.05247211   1.085899713E-17
 8.17926502   1.08590054E-17
 8.30605793   1.085900953E-17
 8.43285084   1.085901201E-17
 8.55964279   1.085901201E-17
 8.6864357   1.085901367E-17
 8.81322861   1.085901698E-17
 8.94002151   1.085902525E-17
 9.06681347   1.085903518E-17
 9.19360638   1.085904841E-17
 9.32039928   1.085906247E-17
 9.44719219   1.085907653E-17
 9.57398415   1.085908977E-17
 9.70077705   1.085910383E-17
 9.82756996   1.085911955E-17
 9.95436192   1.085913857E-17
 10.0811548   1.085916173E-17
 10.2079477   1.085918655E-17
 10.3347406   1.085921219E-17
 10.4615326   1.085923701E-17
 10.5883255   1.085925851E-17
 10.7151184   1.085927754E-17
 10.8419113   1.085929574E-17
 10.9687033   1.085931394E-17
 11.0954962   1.085933544E-17
 11.2222891   1.085936108E-17
 11.349082   1.085939086E-17
 11.4758739   1.085942147E-17
 11.6026669   1.08594529E-17
 11.7294598   1.085948268E-17
 11.8562517   1.085950998E-17
 11.9830446   1.085953314E-17
 12.1098375   1.085955547E-17
 12.2366304   1.085957698E-17
 12.3634224   1.085960097E-17
 12.4902153   1.085962496E-17
 12.6170082   1.085964977E-17
 12.7438011   1.085967128E-17
 12.8705931   1.085968782E-17
 12.997386   1.08596994E-17
 13.1241789   1.085970519E-17
 13.2509708   1.085970933E-17
 13.3777637   1.085971264E-17
 13.5045567   1.085971843E-17
 13.6313496   1.085972918E-17
 13.7581415   1.08597449E-17
 13.8849344   1.085976227E-17
 14.0117273   1.085977964E-17
 14.1385202   1.085979618E-17
 14.2653122   1.085980942E-17
 14.3921051   1.085982182E-17
 14.518898   1.085983506E-17
 14.6456909   1.085985078E-17
 14.7724829   1.085987146E-17
 14.8992758   1.085989627E-17
 15.0260687   1.085992357E-17
 15.1528606   1.085994921E-17
 15.2796535   1.085997154E-17
 15.4064465   1.085998974E-17
 15.5332394   1.086000546E-17
 15.6600313   1.086002035E-17
 15.7868242   1.086003689E-17
 15.9136171   1.086005674E-17
 16.0404091   1.08600799E-17
 16.167202   1.086010472E-17
 16.2939949   1.086012954E-17
 16.4207878   1.086015104E-17
 16.5475807   1.086016924E-17
 16.6743736   1.086018496E-17
 16.8011646   1.086019819E-17
 16.9279575   1.086021308E-17
 17.0547504   1.086023128E-17
 17.1815434   1.086025361E-17
 17.3083363   1.086027843E-17
 17.4351292   1.086030242E-17
 17.5619221   1.08603231E-17
 17.688715   1.086033799E-17
 17.815506   1.086034543E-17
 17.9422989   1.086034957E-17
 18.0690918   1.086035287E-17
 18.1958847   1.086035866E-17
 18.3226776   1.086037107E-17
 18.4494705   1.086038844E-17
 18.5762634   1.086041078E-17
 18.7030544   1.086043394E-17
 18.8298473   1.086045544E-17
 18.9566402   1.086047447E-17
 19.0834332   1.086049019E-17
 19.2102261   1.086050673E-17
 19.337019   1.086052576E-17
 19.4638119   1.086054809E-17
 19.5906048   1.086057373E-17
 19.7173958   1.086059855E-17
 19.8441887   1.086062088E-17
 19.9709816   1.086063825E-17
 20.0977745   1.086064901E-17
 20.2245674   1.086065562E-17
 20.3513603   1.086066224E-17
 20.4781532   1.086066968E-17
 20.6049442   1.086068292E-17
 20.7317371   1.086070277E-17
 20.85853   1.086072759E-17
 20.985323   1.086075488E-17
 21.1121159   1.086078218E-17
 21.2389088   1.0860807E-17
 21.3657017   1.086083016E-17
 21.4924946   1.086085249E-17
 21.6192856   1.086087565E-17
 21.7460785   1.08609013E-17
 21.8728714   1.086093025E-17
 21.9996643   1.086096168E-17
 22.1264572   1.086099394E-17
 22.2532501   1.086102455E-17
 22.380043   1.086105101E-17
 22.506834   1.086107335E-17
 22.6336269   1.086109155E-17
 22.7604198   1.086111057E-17
 22.8872128   1.086113125E-17
 23.0140057   1.086115689E-17
 23.1407986   1.08611875E-17
 23.2675915   1.086122224E-17
 23.3943844   1.086125946E-17
 23.5211754   1.086129669E-17
 23.6479683   1.086133143E-17
 23.7747612   1.086136452E-17
 23.9015541   1.086139678E-17
 24.028347   1.086142986E-17
 24.1551399   1.086146626E-17
 24.2819328   1.086150762E-17
 24.4087238   1.086155146E-17
 24.5355167   1.086159695E-17
 24.6623096   1.086164079E-17
 24.7891026   1.086168215E-17
 24.9158955   1.08617202E-17
 25.0426884   1.086175743E-17
 25.1694813   1.086179796E-17
 25.2962742   1.086184263E-17
 25.4230652   1.086189226E-17
 25.5498581   1.086194933E-17
 25.676651   1.086200889E-17
 25.8034439   1.08620701E-17
 25.9302368   1.086212966E-17
 26.0570297   1.086218591E-17
 26.1838226   1.086223967E-17
 26.3106136   1.086229096E-17
 26.4374065   1.086234059E-17
 26.5641994   1.086239022E-17
 26.6909924   1.086243902E-17
 26.8177853   1.0862487E-17
 26.9445782   1.086253167E-17
 27.0713711   1.08625722E-17
 27.198164   1.086260942E-17
 27.324955   1.086264168E-17
 27.4517479   1.086267477E-17
 27.5785408   1.086270786E-17
 27.7053337   1.086274425E-17
 27.8321266   1.086278479E-17
 27.9589195   1.08628278E-17
 28.0857124   1.086287081E-17
 28.2125034   1.086291217E-17
 28.3392963   1.086294774E-17
 28.4660892   1.086297835E-17
 28.5928822   1.086300316E-17
 28.7196751   1.086302467E-17
 28.846468   1.086304535E-17
 28.9732609   1.086306768E-17
 29.1000538   1.08630925E-17
 29.2268448   1.086311814E-17
 29.3536377   1.086314461E-17
 29.4804306   1.086316942E-17
 29.6072235   1.086319341E-17
 29.7340164   1.086321823E-17
 29.8608093   1.08632447E-17
 29.9876022   1.086327613E-17
 30.1143932   1.086331335E-17
 30.2411861   1.086335637E-17
 30.367979   1.086340517E-17
 30.494772   1.086345563E-17
 30.6215649   1.086350609E-17
 30.7483578   1.086355241E-17
 30.8751507   1.086359625E-17
 31.0019417   1.086363595E-17
 31.1287346   1.086367566E-17
 31.2555275   1.086371785E-17
 31.3823204   1.086376251E-17
 31.5091133   1.086381049E-17
 31.6359062   1.086386012E-17
 31.7626991   1.086390975E-17
 31.889492   1.086395773E-17
 32.0162849   1.086400488E-17
 32.1430779   1.086404872E-17
 32.2698708   1.08640909E-17
 32.3966637   1.086413061E-17
 32.5234528   1.086416783E-17
 32.6502457   1.086420092E-17
 32.7770386   1.086422987E-17
 32.9038315   1.086425138E-17
 33.0306244   1.086426627E-17
 33.1574173   1.086427371E-17
 33.2842102   1.086427371E-17
 33.4110031   1.086426792E-17
 33.537796   1.086425882E-17
 33.6645889   1.086424724E-17
 33.7913818   1.086423649E-17
 33.9181747   1.086422408E-17
 34.0449677   1.08642125E-17
 34.1717606   1.086420175E-17
 34.2985535   1.086419017E-17
 34.4253426   1.086417858E-17
 34.5521355   1.086416535E-17
 34.6789284   1.086415377E-17
 34.8057213   1.086414467E-17
 34.9325142   1.086413888E-17
 35.0593071   1.086413888E-17
 35.1861   1.08641455E-17
 35.3128929   1.086415873E-17
 35.4396858   1.086417776E-17
 35.5664787   1.086420257E-17
 35.6932716   1.086423483E-17
 35.8200645   1.086427288E-17
 35.9468575   1.086431921E-17
 36.0736504   1.086437463E-17
 36.2004433   1.086443915E-17
 36.3272324   1.086451111E-17
 36.4540253   1.086458969E-17
 36.5808182   1.08646691E-17
 36.7076111   1.086474769E-17
 36.834404   1.086481965E-17
 36.9611969   1.086488252E-17
 37.0879898   1.086493546E-17
 37.2147827   1.086497764E-17
 37.3415756   1.086500742E-17
 37.4683685   1.086502562E-17
 37.5951614   1.086503141E-17
 37.7219543   1.086502562E-17
 37.8487473   1.086500742E-17
 37.9755402   1.086498012E-17
 38.1023293   1.08649429E-17
 38.2291222   1.086489906E-17
 38.3559151   1.086485191E-17
 38.482708   1.086480559E-17
 38.6095009   1.086476175E-17
 38.7362938   1.086472287E-17
 38.8630867   1.086468647E-17
 38.9898796   1.086465008E-17
 39.1166725   1.086460955E-17
 39.2434654   1.086455826E-17
 39.3702583   1.086449209E-17
 39.4970512   1.086440441E-17
 39.6238441   1.086428943E-17
 39.7506371   1.086413805E-17
 39.87743   1.086394036E-17
 40.0042191   1.086368641E-17
 40.131012   1.086336381E-17
 40.2578049   1.086295849E-17
 40.3845978   1.086246218E-17
 40.5113907   1.086186661E-17
 40.6381836   1.086117013E-17
 40.7649765   1.086037355E-17
 40.8917694   1.085948599E-17
 41.0185623   1.085851901E-17
 41.1453552   1.085749248E-17
 41.2721481   1.085642873E-17
 41.398941   1.085535919E-17
 41.5257339   1.08543219E-17
 41.6525269   1.085336237E-17
 41.7793198   1.085253023E-17
 41.9061089   1.085187924E-17
 42.0329018   1.085146068E-17
 42.1596947   1.085132172E-17
 42.2864876   1.085149791E-17
 42.4132805   1.085201407E-17
 42.5400734   1.085287599E-17
 42.6668663   1.085407375E-17
 42.7936592   1.085557177E-17
 42.9204521   1.085731216E-17
 43.047245   1.085920971E-17
 43.1740379   1.08611511E-17
 43.3008308   1.086299654E-17
 43.4276237   1.086458059E-17
 43.5544167   1.08657221E-17
 43.6812096   1.086622586E-17
 43.8079987   1.08659016E-17
 43.9347916   1.08645715E-17
 44.0615845   1.086208168E-17
 44.1883774   1.085831966E-17
 44.3151703   1.085322258E-17
 44.4419632   1.084679456E-17
 44.5687561   1.083911667E-17
 44.695549   1.083035682E-17
 44.8223419   1.082077973E-17
 44.9491348   1.081075016E-17
 45.0759277   1.080072804E-17
 45.2027206   1.079126179E-17
 45.3295135   1.078297426E-17
 45.4563065   1.077653549E-17
 45.5830994   1.077263864E-17
 45.7098885   1.077195705E-17
 45.8366814   1.077510695E-17
 45.9634743   1.078260286E-17
 46.0902672   1.079480708E-17
 46.2170601   1.081188671E-17
 46.343853   1.083376481E-17
 46.4706459   1.086008239E-17
 46.5974388   1.089016777E-17
 46.7242317   1.092301263E-17
 46.8510246   1.095727776E-17
 46.9778175   1.09912997E-17
 47.1046104   1.102313375E-17
 47.2314034   1.105060607E-17
 47.3581963   1.107140139E-17
 47.4849892   1.108315894E-17
 47.6117783   1.108359734E-17
 47.7385712   1.107065196E-17
 47.8653641   1.104261964E-17
 47.992157   1.099832246E-17
 48.1189499   1.093725007E-17
 48.2457428   1.085971098E-17
 48.3725357   1.076694516E-17
 48.4993286   1.066122238E-17
 48.6261215   1.054588693E-17
 48.7529144   1.042535679E-17
 48.8797073   1.030507067E-17
 49.0065002   1.019136063E-17
 49.1332932   1.009127095E-17
 49.2600861   1.001229422E-17
 49.386879   9.96205789E-18
 49.5136681   9.947945362E-18
 49.640461   9.976668381E-18
 49.7672539   1.005381125E-17
 49.8940468   1.018336096E-17
 50.0208397   1.036724239E-17
 50.1476326   1.060489551E-17
 50.2744255   1.089291567E-17
 50.4012184   1.122477557E-17
 50.5280113   1.159068056E-17
 50.6548042   1.197756038E-17
 50.7815971   1.236922378E-17
 50.90839   1.274670517E-17
 51.035183   1.30887973E-17
 51.1619759   1.337277667E-17
 51.2887688   1.357531846E-17
 51.4155579   1.367357511E-17
 51.5423508   1.364638982E-17
 51.6691437   1.347560846E-17
 51.7959366   1.314743034E-17
 51.9227295   1.265373586E-17
 52.0495224   1.199333223E-17
 52.1763153   1.117302218E-17
 52.3031082   1.020844439E-17
 52.4299011   9.124592114E-18
 52.556694   7.955945554E-18
 52.6834869   6.746169093E-18
 52.8102798   5.547303971E-18
 52.9370728   4.418450176E-18
 53.0638657   3.423919345E-18
 53.1906586   2.630873374E-18
 53.3174477   2.106501457E-18
 53.4442406   1.91480297E-18
 53.5710335   2.113086228E-18
 53.6978264   2.748305104E-18
 53.8246193   3.853398136E-18
 53.9514122   5.443793071E-18
 54.0782051   7.514275775E-18
 54.204998   1.003641316E-17
 54.3317909   1.295672881E-17
 54.4585838   1.619581093E-17
 54.5853767   1.96485174E-17
 54.7121696   2.318542093E-17
 54.8389626   2.665556106E-17
 54.9657555   2.98905751E-17
 55.0925484   3.271015257E-17
 55.2193375   3.492878332E-17
 55.3461304   3.636356449E-17
 55.4729233   3.684295536E-17
 55.5997162   3.62160484E-17
 55.7265091   3.436215136E-17
 55.853302   3.120014759E-17
 55.9800949   2.669727578E-17
 56.1068878   2.087679127E-17
 56.2336807   1.382407814E-17
 56.3604736   5.690692422E-18
 56.4872665   -3.304050121E-18
 56.6140594   -1.287434659E-17
 56.7408524   -2.267230756E-17
 56.8676453   -3.229567221E-17
 56.9944382   -4.129887805E-17
 57.1212273   -4.920740962E-17
 57.2480202   -5.553516594E-17
 57.3748131   -5.980442375E-17
 57.501606   -6.156783385E-17
 57.6283989   -6.043173106E-17
 57.7551918   -5.607984121E-17
 57.8819847   -4.829644884E-17
 58.0087776   -3.698790387E-17
 58.1355705   -2.220135393E-17
 58.2623634   -4.139563751E-18
 58.3891563   1.682926088E-17
 58.5159492   4.016767217E-17
 58.6427422   6.517200536E-17
 58.7695351   9.098289259E-17
 58.896328   1.16603707E-16
 59.0231171   1.409269992E-16
 59.14991   1.627686437E-16
 59.2767029   1.809092572E-16
 59.4034958   1.94141725E-16
 59.5302887   2.013236644E-16
 59.6570816   2.014331566E-16
 59.7838745   1.936255775E-16
 59.9106674   1.772893957E-16
 60.0374603   1.520985035E-16
 60.1642532   1.180583272E-16
 60.2910461   7.554328191E-17
 60.4178391   2.532297805E-17
 60.544632   -3.142524329E-17
 60.6714249   -9.311929498E-17
 60.7982178   -1.577924046E-16
 60.9250069   -2.231314805E-16
 61.0517998   -2.865339348E-16
 61.1785927   -3.451828931E-16
 61.3053856   -3.961390453E-16
 61.4321785   -4.364483639E-16
 61.5589714   -4.632612183E-16
 61.6857643   -4.739608855E-16
 61.8125572   -4.662960314E-16
 61.9393501   -4.385128743E-16
 62.066143   -3.89481181E-16
 62.1929359   -3.188081136E-16
 62.3197289   -2.269346055E-16
 62.4465218   -1.152081408E-16
 62.5733147   1.407376013E-17
 62.7001076   1.576539014E-16
 62.8268967   3.113435828E-16
 62.9536896   4.700917449E-16
 63.0804825   6.280961062E-16
 63.2072754   7.789569093E-16
 63.3340683   9.158704678E-16
 63.4608612   1.031860407E-15
 63.5876541   1.120039395E-15
 63.714447   1.173895338E-15
 63.8412399   1.18759239E-15
 63.9680328   1.156276841E-15
 64.0948257   1.076374953E-15
 64.2216187   9.458706808E-16
 64.3484116   7.645501494E-16
 64.4752045   5.341989571E-16
 64.6019974   2.587404545E-16
 64.7287903   -5.569839183E-17
 64.8555832   -4.008015381E-16
 64.9823761   -7.661685647E-16
 65.109169   -1.139512895E-15
 65.2359619   -1.506956528E-15
 65.3627548   -1.853418415E-15
 65.4895477   -2.163091119E-15
 65.616333   -2.419994941E-15
 65.7431259   -2.608595721E-15
 65.8699188   -2.71446891E-15
 65.9967117   -2.724984401E-15
 66.1235046   -2.629993467E-15
 66.2502975   -2.422480983E-15
 66.3770905   -2.099163637E-15
 66.5038834   -1.660994128E-15
 66.6306763   -1.113551758E-15
 66.7574692   -4.672836719E-16
 66.8842621   2.62421792E-16
 67.011055   1.055353183E-15
 67.1378479   1.88679723E-15
 67.2646408   2.728074377E-15
 67.3914337   3.54728208E-15
 67.5182266   4.310244043E-15
 67.6450195   4.981641744E-15
 67.7718124   5.526303834E-15
 67.8986053   5.910614964E-15
 68.0253983   6.10400275E-15
 68.1521912   6.0804438E-15
 68.2789841   5.819936699E-15
 68.405777   5.309875058E-15
 68.5325699   4.546260033E-15
 68.6593628   3.5346831E-15
 68.7861557   2.291017658E-15
 68.9129486   8.417677375E-16
 69.0397415   -7.759765709E-16
 69.1665344   -2.515011709E-15
 69.2933273   -4.318942224E-15
 69.4201126   -6.123559894E-15
 69.5469055   -7.85866157E-15
 69.6736984   -9.450279677E-15
 69.8004913   -1.082326842E-14
 69.9272842   -1.190417817E-14
 70.0540771   -1.262432982E-14
 70.1808701   -1.292297585E-14
 70.307663   -1.275043269E-14
 70.4344559   -1.207105383E-14
 70.5612488   -1.086591737E-14
 70.6880417   -9.135077541E-15
 70.8148346   -6.899253609E-15
 70.9416275   -4.200851432E-15
 71.0684204   -1.104194585E-15
 71.1952133   2.30509704E-15
 71.3220062   5.921646298E-15
 71.4487991   9.62277709E-15
 71.575592   1.327189498E-14
 71.7023849   1.67227089E-14
 71.8291779   1.98242166E-14
 71.9559708   2.242630012E-14
 72.0827637   2.438578378E-14
 72.2095566   2.557270225E-14
 72.3363495   2.587657871E-14
 72.4631424   2.5212471E-14
 72.5899353   2.352645022E-14
 72.7167282   2.080033228E-14
 72.8435211   1.705533704E-14
 72.970314   1.235446681E-14
 73.0971069   6.80340209E-15
 73.2238922   5.497461939E-16
 73.3506851   -6.219479599E-15
 73.477478   -1.328213645E-14
 73.6042709   -2.038701747E-14
 73.7310638   -2.726157414E-14
 73.8578568   -3.362107549E-14
 73.9846497   -3.91790177E-14
 74.1114426   -4.365840236E-14
 74.2382355   -4.680350684E-14
 74.3650284   -4.839170717E-14
 74.4918213   -4.824486554E-14
 74.6186142   -4.623980642E-14
 74.7454071   -4.231733914E-14
 74.8722   -3.648937638E-14
 74.9989929   -2.88437419E-14
 75.1257858   -1.954621361E-14
 75.2525787   -8.839585016E-15
 75.3793716   2.960442408E-15
 75.5061646   1.54726509E-14
 75.6329575   2.826086973E-14
 75.7597504   4.084751675E-14
 75.8865433   5.272979319E-14
 76.0133362   6.339803763E-14
 76.1401291   7.23556821E-14
 76.266922   7.914001621E-14
 76.3937149   8.334307501E-14
 76.5205078   8.463166284E-14
 76.6473007   8.276577801E-14
 76.7740936   7.761442856E-14
 76.9008865   6.916813449E-14
 77.0276718   5.754723548E-14
 77.1544647   4.300554325E-14
 77.2812576   2.592871528E-14
 77.4080505   6.82718254E-15
 77.5348434   -1.367652177E-14
 77.6616364   -3.486579379E-14
 77.7884293   -5.59530246E-14
 77.9152222   -7.610704195E-14
 78.0420151   -9.448404515E-14
 78.168808   -1.102610435E-13
 78.2956009   -1.226704285E-13
 78.4223938   -1.310345333E-13
 78.5491867   -1.347984766E-13
 78.6759796   -1.335600196E-13
 78.8027725   -1.270949085E-13
 78.9295654   -1.153764177E-13
 79.0563583   -9.858784524E-14
 79.1831512   -7.712702547E-14
 79.3099442   -5.160229408E-14
 79.4367371   -2.281936575E-14
 79.56353   8.240688676E-15
 79.6903229   4.045204384E-14
 79.8171158   7.258255818E-14
 79.9439087   1.03338914E-13
 80.0707016   1.314167145E-13
 80.1974945   1.555540771E-13
 80.3242874   1.745863653E-13
 80.4510803   1.875000535E-13
 80.5778732   1.934830063E-13
 80.7046585   1.919693246E-13
 80.8314514   1.826761534E-13
 80.9582443   1.656305166E-13
 81.0850372   1.411846578E-13
 81.2118301   1.100182567E-13
 81.338623   7.312690899E-14
 81.465416   3.179663767E-14
 81.5922089   -1.243567525E-14
 81.7190018   -5.783457616E-14
 81.8457947   -1.025297401E-13
 81.9725876   -1.445889442E-13
 82.0993805   -1.820978535E-13
 82.2261734   -2.132431737E-13
 82.3529663   -2.363963517E-13
 82.4797592   -2.501937188E-13
 82.6065521   -2.536096062E-13
 82.733345   -2.460190526E-13
 82.8601379   -2.272468102E-13
 82.9869308   -1.975990308E-13
 83.1137238   -1.57876262E-13
 83.2405167   -1.093656144E-13
 83.3673096   -5.381123403E-14
 83.4941025   6.63678478E-15
 83.6208954   6.949415408E-14
 83.7476883   1.320326633E-13
 83.8744812   1.913864304E-13
 84.0012741   2.446703593E-13
 84.128067   2.891060872E-13
 84.2548599   3.221510244E-13
 84.3816528   3.416240001E-13
 84.5084381   3.458235217E-13
 84.635231   3.336311804E-13
 84.7620239   3.045964902E-13
 84.8888168   2.589971152E-13
 85.0156097   1.978716805E-13
 85.1424026   1.230205851E-13
 85.2691956   3.697464156E-14
 85.3959885   -5.70703356E-14
 85.5227814   -1.553519412E-13
 85.6495743   -2.536698065E-13
 85.7763672   -3.475407082E-13
 85.9031601   -4.323765738E-13
 86.029953   -5.036767444E-13
 86.1567459   -5.572290676E-13
 86.2835388   -5.893108809E-13
 86.4103317   -5.968816478E-13
 86.5371246   -5.777578936E-13
 86.6639175   -5.307630962E-13
 86.7907104   -4.558436961E-13
 86.9175034   -3.541440687E-13
 87.0442963   -2.280367464E-13
 87.1710892   -8.110121597E-14
 87.2978821   8.19476526E-14
 87.424675   2.553857462E-13
 87.5514679   4.326533164E-13
 87.6782608   6.065764752E-13
 87.8050537   7.696261163E-13
 87.9318466   9.142081623E-13
 88.0586395   1.032973403E-12
 88.1854324   1.119137335E-12
 88.3122177   1.166793767E-12
 88.4390106   1.171213192E-12
 88.5658035   1.129109068E-12
 88.6925964   1.038860512E-12
 88.8193893   9.006812765E-13
 88.9461823   7.167220376E-13
 89.0729752   4.911010292E-13
 89.1997681   2.298559563E-13
 89.326561   -5.918438753E-14
 89.4533539   -3.666090055E-13
 89.5801468   -6.817081621E-13
 89.7069397   -9.928250713E-13
 89.8337326   -1.287766985E-12
 89.9605255   -1.554257916E-12
 90.0873184   -1.780420538E-12
 90.2141113   -1.955267762E-12
 90.3409042   -2.069184017E-12
 90.4676971   -2.114378768E-12
 90.5944901   -2.085289406E-12
 90.721283   -1.978917247E-12
 90.8480759   -1.795078084E-12
 90.9748688   -1.536554196E-12
 91.1016617   -1.209134355E-12
 91.2284546   -8.215374995E-13
 91.3552475   -3.852147822E-13
 91.4820404   8.596504856E-14
 91.6088333   5.761442213E-13
 91.7356262   1.067999638E-12
 91.8624191   1.543354095E-12
 91.989212   1.9838495E-12
 92.1159973   2.371655823E-12
 92.2427902   2.690195722E-12
 92.3695831   2.924851984E-12
 92.496376   3.063628995E-12
 92.6231689   3.097739079E-12
 92.7499619   3.022088222E-12
 92.8767548   2.835635589E-12
 93.0035477   2.541607766E-12
 93.1303406   2.147551885E-12
 93.2571335   1.665216034E-12
 93.3839264   1.110259671E-12
 93.5107193   5.017925637E-13
 93.6375122   -1.382463751E-13
 93.7643051   -7.858490334E-13
 93.891098   -1.415817008E-12
 94.0178909   -2.002727845E-12
 94.1446838   -2.521951181E-12
 94.2714767   -2.950677029E-12
 94.3982697   -3.268920941E-12
 94.5250626   -3.460453278E-12
 94.6518555   -3.513622553E-12
 94.7786484   -3.422027635E-12
 94.9054413   -3.185010632E-12
 95.0322342   -2.807934007E-12
 95.1590271   -2.302230455E-12
 95.28582   -1.685209155E-12
 95.4126129   -9.796114657E-13
 95.5394058   -2.12930422E-13
 95.6661987   5.835007499E-13
 95.7929916   1.375612515E-12
 95.9197769   2.127864942E-12
 96.0465698   2.804642803E-12
 96.1733627   3.371711113E-12
 96.3001556   3.797692629E-12
 96.4269485   4.055495956E-12
 96.5537415   4.123642833E-12
 96.6805344   3.987444489E-12
 96.8073273   3.639949887E-12
 96.9341202   3.08264937E-12
 97.0609131   2.32586758E-12
 97.187706   1.38883165E-12
 97.3144989   2.993910187E-13
 97.4412918   -9.066179881E-13
 97.5680847   -2.186341169E-12
 97.6948776   -3.491201469E-12
 97.8216705   -4.768483351E-12
 97.9484634   -5.963148378E-12
 98.0752563   -7.019820922E-12
 98.2020493   -7.884900198E-12
 98.3288422   -8.508684209E-12
 98.4556351   -8.847460958E-12
 98.582428   -8.865465653E-12
 98.7092209   -8.536631471E-12
 98.8360138   -7.846054535E-12
 98.9628067   -6.791113245E-12
 99.0895996   -5.382189486E-12
 99.2163925   -3.642933611E-12
 99.3431854   -1.610064946E-12
 99.4699783   6.67312722E-13
 99.5967712   3.128867174E-12
 99.7235565   5.704644222E-12
 99.8503494   8.317069256E-12
 99.9771423   1.0883296E-11
 100.103935   1.331780779E-11
 100.230728   1.553521201E-11
 100.357521   1.745309799E-11
 100.484314   1.899488726E-11
 100.611107   2.009254395E-11
 100.7379   2.068905637E-11
 100.864693   2.074061062E-11
 100.991486   2.021831834E-11
 101.118279   1.910948656E-11
 101.245071   1.741835495E-11
 101.371864   1.516624673E-11
 101.498657   1.239112632E-11
 101.62545   9.146602746E-12
 101.752243   5.500384436E-12
 101.879036   1.532224651E-12
 102.005829   -2.668511028E-12
 102.132622   -7.005639558E-12
 102.259415   -1.137914329E-11
 102.386208   -1.568824931E-11
 102.513   -1.983448648E-11
 102.639793   -2.372462296E-11
 102.766586   -2.727328779E-11
 102.893379   -3.040525817E-11
 103.020172   -3.305725138E-11
 103.146965   -3.517917901E-11
 103.273758   -3.673481658E-11
 103.400551   -3.770181389E-11
 103.527336   -3.807112611E-11
 103.654129   -3.78458237E-11
 103.780922   -3.703940973E-11
 103.907715   -3.567364459E-11
 104.034508   -3.377611732E-11
 104.161301   -3.137752211E-11
 104.288094   -2.850899551E-11
 104.414886   -2.519948139E-11
 104.541679   -2.147338383E-11
 104.668472   -1.734867111E-11
 104.795265   -1.283550263E-11
 104.922058   -7.935620043E-12
 105.048851   -2.64248237E-12
 105.175644   3.05775804E-12
 105.302437   9.184288746E-12
 105.42923   1.575884388E-11
 105.556023   2.280207793E-11
 105.682816   3.032916279E-11
 105.809608   3.834482731E-11
 105.936401   4.683800223E-11
 106.063194   5.577620657E-11
 106.189987   6.510004341E-11
 106.31678   7.471800262E-11
 106.443573   8.450190547E-11
 106.570366   9.428326869E-11
 106.697159   1.038508793E-10
 106.823952   1.129498092E-10
 106.950745   1.212822481E-10
 107.077538   1.285101053E-10
 107.20433   1.342598116E-10
 107.331116   1.381291886E-10
 107.457909   1.396965738E-10
 107.584702   1.385317971E-10
 107.711494   1.342094491E-10
 107.838287   1.263236321E-10
 107.96508   1.145043158E-10
 108.091873   9.843455911E-11
 108.218666   7.786846168E-11
 108.345459   5.264906219E-11
 108.472252   2.272577786E-11
 108.599045   -1.182919301E-11
 108.725838   -5.080640769E-11
 108.852631   -9.384690941E-11
 108.979424   -1.40433068E-10
 109.106216   -1.898829843E-10
 109.233009   -2.413490241E-10
 109.359802   -2.938209676E-10
 109.486595   -3.461342324E-10
 109.613388   -3.969828632E-10
 109.740181   -4.449384472E-10
 109.866974   -4.884740945E-10
 109.993767   -5.259934155E-10
 110.12056   -5.558649652E-10
 110.247353   -5.764603794E-10
 110.374146   -5.861969798E-10
 110.500938   -5.835831818E-10
 110.627731   -5.672659009E-10
 110.754524   -5.360791255E-10
 110.881317   -4.890928773E-10
 111.008102   -4.256603958E-10
 111.134895   -3.45462714E-10
 111.261688   -2.485497919E-10
 111.388481   -1.353757939E-10
 111.515274   -6.828411534E-12
 111.642067   1.357505358E-10
 111.76886   2.905527208E-10
 111.895653   4.553014354E-10
 112.022446   6.272610209E-10
 112.149239   8.032572385E-10
 112.276031   9.797105349E-10
 112.402824   1.152681617E-9
 112.529617   1.317928988E-9
 112.65641   1.470979449E-9
 112.783203   1.607208699E-9
 112.909996   1.721933929E-9
 113.036789   1.810514294E-9
 113.163582   1.868460497E-9
 113.290375   1.891548473E-9
 113.417168   1.87593785E-9
 113.543961   1.818291961E-9
 113.670753   1.715895204E-9
 113.797546   1.566768382E-9
 113.924339   1.369775182E-9
 114.051132   1.124719762E-9
 114.177925   8.324313461E-10
 114.304718   4.94833341E-10
 114.431511   1.149942017E-10
 114.558304   -3.028430284E-10
 114.685097   -7.532536817E-10
 114.811882   -1.229649826E-9
 114.938675   -1.72432435E-9
 115.065468   -2.228524254E-9
 115.192261   -2.732549742E-9
 115.319054   -3.225883338E-9
 115.445847   -3.697344653E-9
 115.572639   -4.135270792E-9
 115.699432   -4.527721753E-9
 115.826225   -4.862706682E-9
 115.953018   -5.128427905E-9
 116.079811   -5.313540274E-9
 116.206604   -5.407418069E-9
 116.333397   -5.400429881E-9
 116.46019   -5.284210847E-9
 116.586983   -5.051929097E-9
 116.713776   -4.698542888E-9
 116.840569   -4.221035965E-9
 116.967361   -3.618633171E-9
 117.094154   -2.892982076E-9
 117.220947   -2.048304193E-9
 117.34774   -1.091502333E-9
 117.474533   -3.222233591E-11
 117.601326   1.117133608E-9
 117.728119   2.341447258E-9
 117.854912   3.622982137E-9
 117.981705   4.941536957E-9
 118.108498   6.274658126E-9
 118.235291   7.597910745E-9
 118.362083   8.88520546E-9
 118.488876   1.010918282E-8
 118.615662   1.12416414E-8
 118.742455   1.225401469E-8
 118.869247   1.311788989E-8
 118.99604   1.380555226E-8
 119.122833   1.429055541E-8
 119.249626   1.454830922E-8
 119.376419   1.455666165E-8
 119.503212   1.429647956E-8
 119.630005   1.375221537E-8
 119.756798   1.291243201E-8
 119.883591   1.177029141E-8
 120.010384   1.032399055E-8
 120.137177   8.577130117E-9
 120.263969   6.539005781E-9
 120.390762   4.224809835E-9
 120.517555   1.655741211E-9
 120.644348   -1.140991301E-9
 120.771141   -4.132276743E-9
 120.897934   -7.279320258E-9
 121.024727   -1.053798471E-8
 121.15152   -1.385924353E-8
 121.278313   -1.718975717E-8
 121.405106   -2.047254988E-8
 121.531898   -2.364780549E-8
 121.658691   -2.66537441E-8
 121.785484   -2.942759636E-8
 121.912277   -3.190664799E-8