  -4.50000000         0.00000000    
  -4.37500000         0.00000000    
  -4.25000000         0.00000000    
  -4.12500000         0.00000000    
  -4.00000000         0.00000000    
  -3.87500000         0.00000000    
  -3.75000000         0.00000000    
  -3.62500000         0.00000000    
  -3.50000000         0.00000000    
  -3.37500000         0.00000000    
  -3.25000000         0.00000000    
  -3.12500000         0.00000000    
  -3.00000000         0.00000000    
  -2.87500000         0.00000000    
  -2.75000000         0.00000000    
  -2.62500000         0.00000000    
  -2.50000000         0.00000000    
  -2.37500000         0.00000000    
  -2.25000000         0.00000000    
  -2.12500000         0.00000000    
  -2.00000000         0.00000000    
  -1.87500000         0.00000000    
  -1.75000000         0.00000000    
  -1.62500000         0.00000000    
  -1.50000000         0.00000000    
  -1.37500000         0.00000000    
  -1.25000000         0.00000000    
  -1.12500000         0.00000000    
  -1.00000000         0.00000000    
 -0.875000000         0.00000000    
 -0.750000000         0.00000000    
 -0.625000000         0.00000000    
 -0.500000000         0.00000000    
 -0.375000000         0.00000000    
 -0.250000000         0.00000000    
 -0.125000000         0.00000000    
   0.00000000         0.00000000    
  0.125000000         0.00000000    
  0.250000000         0.00000000    
  0.375000000         0.00000000    
  0.500000000         0.00000000    
  0.625000000         0.00000000    
  0.750000000         0.00000000    
  0.875000000         0.00000000    
   1.00000000         0.00000000    
   1.12500000         0.00000000    
   1.25000000         0.00000000    
   1.37500000         0.00000000    
   1.50000000         0.00000000    
   1.62500000         0.00000000    
   1.75000000         0.00000000    
   1.87500000         0.00000000    
   2.00000000         0.00000000    
   2.12500000         0.00000000    
   2.25000000         0.00000000    
   2.37500000         0.00000000    
   2.50000000         0.00000000    
   2.62500000         0.00000000    
   2.75000000         0.00000000    
   2.87500000         0.00000000    
   3.00000000         0.00000000    
   3.12500000         0.00000000    
   3.25000000         0.00000000    
   3.37500000         0.00000000    
   3.50000000         0.00000000    
   3.62500000         0.00000000    
   3.75000000         0.00000000    
   3.87500000         0.00000000    
   4.00000000         0.00000000    
   4.12500000         0.00000000    
   4.25000000         0.00000000    
   4.37500000         0.00000000    
   4.50000000         0.00000000    
   4.62500000         0.00000000    
   4.75000000         0.00000000    
   4.87500000         0.00000000    
   5.00000000         0.00000000    
   5.12500000         0.00000000    
   5.25000000         0.00000000    
   5.37500000         0.00000000    
   5.50000000         0.00000000    
   5.62500000         0.00000000    
   5.75000000         0.00000000    
   5.87500000         0.00000000    
   6.00000000         0.00000000    
   6.12500000         0.00000000    
   6.25000000         0.00000000    
   6.37500000         0.00000000    
   6.50000000         0.00000000    
   6.62500000         0.00000000    
   6.75000000         0.00000000    
   6.87500000         0.00000000    
   7.00000000         0.00000000    
   7.12500000         0.00000000    
   7.25000000         0.00000000    
   7.37500000         0.00000000    
   7.50000000         0.00000000    
   7.62500000         0.00000000    
   7.75000000         0.00000000    
   7.87500000         0.00000000    
   8.00000000         0.00000000    
   8.12500000         0.00000000    
   8.25000000         0.00000000    
   8.37500000         0.00000000    
   8.50000000         0.00000000    
   8.62500000         0.00000000    
   8.75000000         0.00000000    
   8.87500000         0.00000000    
   9.00000000         0.00000000    
   9.12500000         0.00000000    
   9.25000000         0.00000000    
   9.37500000         0.00000000    
   9.50000000         0.00000000    
   9.62500000         0.00000000    
   9.75000000         0.00000000    
   9.87500000         0.00000000    
   10.0000000         0.00000000    
   10.1250000         0.00000000    
   10.2500000         0.00000000    
   10.3750000         0.00000000    
   10.5000000         0.00000000    
   10.6250000         0.00000000    
   10.7500000         0.00000000    
   10.8750000         0.00000000    
   11.0000000         0.00000000    
   11.1250000         0.00000000    
   11.2500000         0.00000000    
   11.3750000         0.00000000    
   11.5000000         0.00000000    
   11.6250000         0.00000000    
   11.7500000         0.00000000    
   11.8750000         0.00000000    
   12.0000000         0.00000000    
   12.1250000         0.00000000    
   12.2500000         0.00000000    
   12.3750000         0.00000000    
   12.5000000         0.00000000    
   12.6250000         0.00000000    
   12.7500000         0.00000000    
   12.8750000         0.00000000    
   13.0000000         0.00000000    
   13.1250000         0.00000000    
   13.2500000         0.00000000    
   13.3750000         0.00000000    
   13.5000000         0.00000000    
   13.6250000         0.00000000    
   13.7500000         0.00000000    
   13.8750000         0.00000000    
   14.0000000         0.00000000    
   14.1250000         0.00000000    
   14.2500000         0.00000000    
   14.3750000         0.00000000    
   14.5000000         0.00000000    
   14.6250000         0.00000000    
   14.7500000         0.00000000    
   14.8750000         0.00000000    
   15.0000000         0.00000000    
   15.1250000         0.00000000    
   15.2500000         0.00000000    
   15.3750000         0.00000000    
   15.5000000         0.00000000    
   15.6250000         0.00000000    
   15.7500000         0.00000000    
   15.8750000         0.00000000    
   16.0000000         0.00000000    
   16.1250000         0.00000000    
   16.2500000         0.00000000    
   16.3750000         0.00000000    
   16.5000000         0.00000000    
   16.6250000         0.00000000    
   16.7500000         0.00000000    
   16.8750000         0.00000000    
   17.0000000         0.00000000    
   17.1250000         0.00000000    
   17.2500000         0.00000000    
   17.3750000         0.00000000    
   17.5000000         0.00000000    
   17.6250000         0.00000000    
   17.7500000         0.00000000    
   17.8750000         0.00000000    
   18.0000000         0.00000000    
   18.1250000         0.00000000    
   18.2500000         0.00000000    
   18.3750000         0.00000000    
   18.5000000         0.00000000    
   18.6250000         0.00000000    
   18.7500000         0.00000000    
   18.8750000         0.00000000    
   19.0000000         0.00000000    
   19.1250000         6.08127481E-35
   19.2500000         1.77694717E-34
   19.3750000         2.94576657E-34
   19.5000000         4.13862679E-34
   19.6250000         5.29898527E-34
   19.7500000         7.41913994E-34
   19.8750000         6.82718992E-34
   20.0000000        -1.04908049E-34
   20.1250000        -1.89934724E-33
   20.2500000        -3.93341789E-33
   20.3750000        -5.11128086E-33
   20.5000000        -5.01592513E-33
   20.6250000        -2.92578303E-33
   20.7500000         1.22160826E-33
   20.8750000         5.87760216E-33
   21.0000000         1.07266739E-32
   21.1250000         1.53645766E-32
   21.2500000         1.89412019E-32
   21.3750000         1.88496279E-32
   21.5000000         1.64053931E-32
   21.6250000         9.10057661E-33
   21.7500000         5.22792774E-33
   21.8750000         8.21247961E-33
   22.0000000         1.72182269E-32
   22.1250000         3.16149852E-32
   22.2500000         4.45325191E-32
   22.3750000         5.44601125E-32
   22.5000000         5.33525571E-31
   22.6250000         1.51747650E-30
   22.7500000         3.24320509E-30
   22.8750000         5.59413586E-30
   23.0000000         8.45233702E-30
   23.1250000         1.18745460E-29
   23.2500000         1.45319765E-29
   23.3750000         1.57036295E-29
   23.5000000         1.49083589E-29
   23.6250000         1.25484455E-29
   23.7500000         8.40680533E-30
   23.8750000         3.06193558E-30
   24.0000000        -4.39019267E-30
   24.1250000        -1.77942671E-29
   24.2500000        -3.50235115E-29
   24.3750000        -5.97570682E-29
   24.5000000        -8.63323616E-29
   24.6250000        -9.94971581E-29
   24.7500000        -1.04489981E-28
   24.8750000        -1.02243673E-28
   25.0000000        -9.08070492E-29
   25.1250000        -7.25155235E-29
   25.2500000        -4.62350900E-29
   25.3750000        -1.91151782E-29
   25.5000000         8.39066137E-30
   25.6250000         2.52001117E-29
   25.7500000         2.08213550E-29
   25.8750000        -5.25144145E-30
   26.0000000        -5.45387911E-29
   26.1250000        -1.16233977E-28
   26.2500000        -1.76038880E-28
   26.3750000        -2.20680396E-28
   26.5000000        -2.42570684E-28
   26.6250000        -2.38134352E-28
   26.7500000        -1.99888754E-28
   26.8750000        -1.35985640E-28
   27.0000000        -3.50229879E-29
   27.1250000         1.08958596E-28
   27.2500000         3.04804414E-28
   27.3750000         5.61705557E-28
   27.5000000         8.87660822E-28
   27.6250000         1.29263834E-27
   27.7500000         1.79798348E-27
   27.8750000         2.41912902E-27
   28.0000000         3.16096661E-27
   28.1250000         4.00608797E-27
   28.2500000         4.92757496E-27
   28.3750000         5.86092722E-27
   28.5000000         6.71441502E-27
   28.6250000         7.36054988E-27
   28.7500000         7.63508040E-27
   28.8750000         7.34278818E-27
   29.0000000         6.26202293E-27
   29.1250000         4.16503343E-27
   29.2500000         8.35334654E-28
   29.3750000        -3.91409863E-27
   29.5000000        -1.02138644E-26
   29.6250000        -1.81039341E-26
   29.7500000        -2.75015431E-26
   29.8750000        -3.81715186E-26
   30.0000000        -4.96914578E-26
   30.1250000        -6.14237423E-26
   30.2500000        -7.24900001E-26
   30.3750000        -8.17555967E-26
   30.5000000        -8.78487029E-26
   30.6250000        -8.91786484E-26
   30.7500000        -8.39936752E-26
   30.8750000        -7.04705655E-26
   31.0000000        -4.68389429E-26
   31.1250000        -1.15409472E-26
   31.2500000         3.65746761E-26
   31.3750000         9.80331992E-26
   31.5000000         1.72498883E-25
   31.6250000         2.58527468E-25
   31.7500000         3.53336149E-25
   31.8750000         4.52605296E-25
   32.0000000         5.50337816E-25
   32.1250000         6.38805657E-25
   32.2500000         7.08610381E-25
   32.3750000         7.48886316E-25
   32.5000000         7.47675956E-25
   32.6250000         6.92486311E-25
   32.7500000         5.71048718E-25
   32.8750000         3.72273692E-25
   33.0000000         8.73904117E-26
   33.1250000        -2.88772099E-25
   33.2500000        -7.56397307E-25
   33.3750000        -1.30927392E-24
   33.5000000        -1.93345390E-24
   33.6250000        -2.60609311E-24
   33.7500000        -3.29459770E-24
   33.8750000        -3.95622776E-24
   34.0000000        -4.53829943E-24
   34.1250000        -4.97912437E-24
   34.2500000        -5.20982438E-24
   34.3750000        -5.15710599E-24
   34.5000000        -4.74706082E-24
   34.6250000        -3.90998710E-24
   34.7500000        -2.58616373E-24
   34.8750000        -7.32425648E-25
   35.0000000         1.67069755E-24
   35.1250000         4.61161814E-24
   35.2500000         8.04053577E-24
   35.3750000         1.18630102E-23
   35.5000000         1.59348688E-23
   35.6250000         2.00590936E-23
   35.7500000         2.39853852E-23
   35.8750000         2.74130458E-23
   36.0000000         2.99978243E-23
   36.1250000         3.13631595E-23
   36.2500000         3.11162177E-23
   36.3750000         2.88687466E-23
   36.5000000         2.42626067E-23
   36.6250000         1.69994461E-23
   36.7500000         6.87356358E-24
   36.8750000        -6.19327203E-24
   37.0000000        -2.21168435E-23
   37.1250000        -4.06174414E-23
   37.2500000        -6.11912084E-23
   37.3750000        -8.30886870E-23
   37.5000000        -1.05303414E-22
   37.6250000        -1.26573553E-22
   37.7500000        -1.45399396E-22
   37.8750000        -1.60079138E-22
   38.0000000        -1.68764699E-22
   38.1250000        -1.69538881E-22
   38.2500000        -1.60513820E-22
   38.3750000        -1.39949188E-22
   38.5000000        -1.06388155E-22
   38.6250000        -5.88061852E-23
   38.7500000         3.23279025E-24
   38.8750000         7.94206668E-23
   39.0000000         1.68558964E-22
   39.1250000         2.68432604E-22
   39.2500000         3.75715239E-22
   39.3750000         4.85918274E-22
   39.5000000         5.93395865E-22
   39.6250000         6.91417070E-22
   39.7500000         7.72315173E-22
   39.8750000         8.27722137E-22
   40.0000000         8.48891882E-22
   40.1250000         8.27113768E-22
   40.2500000         7.54209994E-22
   40.3750000         6.23108330E-22
   40.5000000         4.28471934E-22
   40.6250000         1.67363960E-22
   40.7500000        -1.60083771E-22
   40.8750000        -5.50033455E-22
   41.0000000        -9.94377321E-22
   41.1250000        -1.48029332E-21
   41.2500000        -1.98996896E-21
   41.3750000        -2.50054235E-21
   41.5000000        -2.98430751E-21
   41.6250000        -3.40922772E-21
   41.7500000        -3.73978735E-21
   41.8750000        -3.93820932E-21
   42.0000000        -3.96603781E-21
   42.1250000        -3.78608321E-21
   42.2500000        -3.36468962E-21
   42.3750000        -2.67426805E-21
   42.5000000        -1.69601550E-21
   42.6250000        -4.22707342E-22
   42.7500000         1.13857049E-21
   42.8750000         2.96390890E-21
   43.0000000         5.01045794E-21
   43.1250000         7.21489952E-21
   43.2500000         9.49270371E-21
   43.3750000         1.17383642E-20
   43.5000000         1.38267973E-20
   43.6250000         1.56160504E-20
   43.7500000         1.69514462E-20
   43.8750000         1.76712145E-20
   44.0000000         1.76135995E-20
   44.1250000         1.66253755E-20
   44.2500000         1.45715749E-20
   44.3750000         1.13461602E-20
   44.5000000         6.88327765E-21
   44.6250000         1.16857568E-21
   44.7500000        -5.74995943E-21
   44.8750000        -1.37523284E-20
   45.0000000        -2.26387362E-20
   45.1250000        -3.21244509E-20
   45.2500000        -4.18381298E-20
   45.3750000        -5.13243178E-20
   45.5000000        -6.00507986E-20
   45.6250000        -6.74213333E-20
   45.7500000        -7.27941816E-20
   45.8750000        -7.55065327E-20
   46.0000000        -7.49045778E-20
   46.1250000        -7.03789628E-20
   46.2500000        -6.14045508E-20
   46.3750000        -4.75833999E-20
   46.5000000        -2.86892377E-20
   46.6250000        -4.71150404E-21
   46.7500000         2.41035325E-20
   46.8750000         5.72171105E-20
   47.0000000         9.37707129E-20
   47.1250000         1.32570221E-19
   47.2500000         1.72084147E-19
   47.3750000         2.10459072E-19
   47.5000000         2.45554097E-19
   47.6250000         2.74996582E-19
   47.7500000         2.96259648E-19
   47.8750000         3.06761843E-19
   48.0000000         3.03987686E-19
   48.1250000         2.85626551E-19
   48.2500000         2.49726525E-19
   48.3750000         1.94857451E-19
   48.5000000         1.20276972E-19
   48.6250000         2.60915513E-20
   48.7500000        -8.65968598E-20
   48.8750000        -2.15568114E-19
   49.0000000        -3.57395998E-19
   49.1250000        -5.07405202E-19
   49.2500000        -6.59683828E-19
   49.3750000        -8.07159688E-19
   49.5000000        -9.41748746E-19
   49.6250000        -1.05457887E-18
   49.7500000        -1.13629273E-18
   49.8750000        -1.17742688E-18
   50.0000000        -1.16886059E-18
   50.1250000        -1.10232570E-18
   50.2500000        -9.70959699E-19
   50.3750000        -7.69884138E-19
   50.5000000        -4.96781825E-19
   50.6250000        -1.52444837E-19
   50.7500000         2.58738554E-19
   50.8750000         7.28393534E-19
   51.0000000         1.24389932E-18
   51.1250000         1.78829500E-18
   51.2500000         2.34038367E-18
   51.3750000         2.87506061E-18
   51.5000000         3.36388547E-18
   51.6250000         3.77591199E-18
   51.7500000         4.07877425E-18
   51.8750000         4.24001491E-18
   52.0000000         4.22863704E-18
   52.1250000         4.01682793E-18
   52.2500000         3.58180744E-18
   52.3750000         2.90772659E-18
   52.5000000         1.98752745E-18
   52.6250000         8.24680201E-19
   52.7500000        -5.65321649E-19
   52.8750000        -2.15380254E-18
   53.0000000        -3.89820568E-18
   53.1250000        -5.74194412E-18
   53.2500000        -7.61489981E-18
   53.3750000        -9.43464753E-18
   53.5000000        -1.11084508E-17
   53.6250000        -1.25360446E-17
   53.7500000        -1.36132091E-17
   53.8750000        -1.42360546E-17
   54.0000000        -1.43059448E-17
   54.1250000        -1.37348924E-17
   54.2500000        -1.24512735E-17
   54.3750000        -1.04055979E-17
   54.5000000        -7.57609843E-18
   54.6250000        -3.97383811E-18
   54.7500000         3.52982162E-19
   54.8750000         5.31581500E-18
   55.0000000         1.07839876E-17
   55.1250000         1.65846189E-17
   55.2500000         2.25044991E-17
   55.3750000         2.82940900E-17
   55.5000000         3.36737948E-17
   55.6250000         3.83424750E-17
   55.7500000         4.19881941E-17
   55.8750000         4.43009051E-17
   56.0000000         4.49868628E-17
   56.1250000         4.37842415E-17
   56.2500000         4.04794597E-17
   56.3750000         3.49235059E-17
   56.5000000         2.70475487E-17
   56.6250000         1.68770024E-17
   56.7500000         4.54317247E-18
   56.8750000        -9.70832520E-18
   57.0000000        -2.55132346E-17
   57.1250000        -4.23891087E-17
   57.2500000        -5.97412007E-17
   57.3750000        -7.68741824E-17
   57.5000000        -9.30099086E-17
   57.6250000        -1.07311246E-16
   57.7500000        -1.18911607E-16
   57.8750000        -1.26949645E-16
   58.0000000        -1.30608113E-16
   58.1250000        -1.29155624E-16
   58.2500000        -1.21990029E-16
   58.3750000        -1.08681302E-16
   58.5000000        -8.90122506E-17
   58.6250000        -6.30147316E-17
   58.7500000        -3.09993644E-17
   58.8750000         6.42350248E-18
   59.0000000         4.83335198E-17
   59.1250000         9.35025046E-17
   59.2500000         1.40410455E-16
   59.3750000         1.87276364E-16
   59.5000000         2.32104233E-16
   59.6250000         2.72743921E-16
   59.7500000         3.06966143E-16
   59.8750000         3.32549423E-16
   60.0000000         3.47377264E-16
   60.1250000         3.49541725E-16
   60.2500000         3.37450038E-16
   60.3750000         3.09929700E-16
   60.5000000         2.66327276E-16
   60.6250000         2.06595730E-16
   60.7500000         1.31365678E-16
   60.8750000         4.19947487E-17
   61.0000000        -5.94086013E-17
   61.1250000        -1.69991426E-16
   61.2500000        -2.86195254E-16
   61.3750000        -4.03829919E-16
   61.5000000        -5.18182517E-16
   61.6250000        -6.24160950E-16
   61.7500000        -7.16468906E-16
   61.8750000        -7.89808619E-16
   62.0000000        -8.39104878E-16
   62.1250000        -8.59743630E-16
   62.2500000        -8.47815447E-16
   62.3750000        -8.00354550E-16
   62.5000000        -7.15562158E-16
   62.6250000        -5.93003002E-16
   62.7500000        -4.33764090E-16
   62.8750000        -2.40564001E-16
   63.0000000        -1.78046094E-17
   63.1250000         2.28444177E-16
   63.2500000         4.90532026E-16
   63.3750000         7.59391401E-16
   63.5000000         1.02477752E-15
   63.6250000         1.27558101E-15
   63.7500000         1.50020917E-15
   63.8750000         1.68702260E-15
   64.0000000         1.82481750E-15
   64.1250000         1.90333449E-15
   64.2500000         1.91377692E-15
   64.3750000         1.84931454E-15
   64.5000000         1.70555336E-15
   64.6250000         1.48094446E-15
   64.7500000         1.17711195E-15
   64.8750000         7.99076006E-16
   65.0000000         3.55353191E-16
   65.1250000        -1.42081227E-16
   65.2500000        -6.77981476E-16
   65.3750000        -1.23417232E-15
   65.5000000        -1.79004701E-15
   65.6250000        -2.32320957E-15
   65.7500000        -2.81024970E-15
   65.8750000        -3.22763027E-15
   66.0000000        -3.55265566E-15
   66.1250000        -3.76448886E-15
   66.2500000        -3.84517679E-15
   66.3750000        -3.78064643E-15
   66.5000000        -3.56161430E-15
   66.6250000        -3.18437865E-15
   66.7500000        -2.65143759E-15
   66.8750000        -1.97189842E-15
   67.0000000        -1.16164248E-15
   67.1250000        -2.43215955E-16
   67.2500000         7.54569295E-16
   67.3750000         1.79733467E-15
   67.5000000         2.84612557E-15
   67.6250000         3.85867850E-15
   67.7500000         4.79092973E-15
   67.8750000         5.59872812E-15
   68.0000000         6.23968006E-15
   68.1250000         6.67508168E-15
   68.2500000         6.87183600E-15
   68.3750000         6.80429740E-15
   68.5000000         6.45593562E-15
   68.6250000         5.82075027E-15
   68.7500000         4.90434914E-15
   68.8750000         3.72461055E-15
   69.0000000         2.31188199E-15
   69.1250000         7.08653333E-16
   69.2500000        -1.03130941E-15
   69.3750000        -2.84438344E-15
   69.5000000        -4.65904628E-15
   69.6250000        -6.39832044E-15
   69.7500000        -7.98265110E-15
   69.8750000        -9.33311723E-15
   70.0000000        -1.03748746E-14
   70.1250000        -1.10406899E-14
   70.2500000        -1.12744337E-14
   70.3750000        -1.10343719E-14
   70.5000000        -1.02960988E-14
   70.6250000        -9.05495500E-15
   70.7500000        -7.32779722E-15
   70.8750000        -5.15397695E-15
   71.0000000        -2.59543537E-15
   71.1250000         2.64167897E-16
   71.2500000         3.32132842E-15
   71.3750000         6.45557182E-15
   71.5000000         9.53329145E-15
   71.6250000         1.24124589E-14
   71.7500000         1.49480800E-14
   71.8750000         1.69982182E-14
   72.0000000         1.84303832E-14
   72.1250000         1.91280317E-14
   72.2500000         1.89969415E-14
   72.3750000         1.79711372E-14
   72.5000000         1.60181164E-14
   72.6250000         1.31430850E-14
   72.7500000         9.39196061E-15
   72.8750000         4.85288299E-15
   73.0000000        -3.43908188E-16
   73.1250000        -6.02798790E-15
   73.2500000        -1.19924949E-14
   73.3750000        -1.79997229E-14
   73.5000000        -2.37884663E-14
   73.6250000        -2.90829508E-14
   73.7500000        -3.36031319E-14
   73.8750000        -3.70760212E-14
   74.0000000        -3.92476748E-14
   74.1250000        -3.98954077E-14
   74.2500000        -3.88397674E-14
   74.3750000        -3.59557524E-14
   74.5000000        -3.11827319E-14
   74.6250000        -2.45326559E-14
   74.7500000        -1.60959672E-14
   74.8750000        -6.04490950E-15
   75.0000000         5.36615997E-15
   75.1250000         1.78037228E-14
   75.2500000         3.08614049E-14
   75.3750000         4.40696741E-14
   75.5000000         5.69088369E-14
   75.6250000         6.88250794E-14
   75.7500000         7.92491073E-14
   75.8750000         8.76169593E-14
   76.0000000         9.33923552E-14
   76.1250000         9.60897282E-14
   76.2500000         9.52972307E-14
   76.3750000         9.06988514E-14
   76.5000000         8.20946433E-14
   76.6250000         6.94181989E-14
   76.7500000         5.27506099E-14
   76.8750000         3.23299635E-14
   77.0000000         8.55579849E-15
   77.1250000        -1.80120252E-14
   77.2500000        -4.66604531E-14
   77.3750000        -7.65365148E-14
   77.5000000        -1.06666737E-13
   77.6250000        -1.35982358E-13
   77.7500000        -1.63349992E-13
   77.8750000        -1.87606929E-13
   78.0000000        -2.07600159E-13
   78.1250000        -2.22228065E-13
   78.2500000        -2.30483330E-13
   78.3750000        -2.31495839E-13
   78.5000000        -2.24574008E-13
   78.6250000        -2.09242820E-13
   78.7500000        -1.85277317E-13
   78.8750000        -1.52729893E-13
   79.0000000        -1.11949898E-13
   79.1250000        -6.35948000E-14
   79.2500000        -8.63147918E-15
   79.3750000         5.16727808E-14
   79.5000000         1.15769983E-13
   79.6250000         1.81861999E-13
   79.7500000         2.47941560E-13
   79.8750000         3.11842972E-13
   80.0000000         3.71301676E-13
   80.1250000         4.24021143E-13
   80.2500000         4.67745309E-13
   80.3750000         5.00334583E-13
   80.5000000         5.19843175E-13
   80.6250000         5.24595612E-13
   80.7500000         5.13259411E-13
   80.8750000         4.84911482E-13
   81.0000000         4.39096350E-13
   81.1250000         3.75872646E-13
   81.2500000         2.95847114E-13
   81.3750000         2.00193228E-13
   81.5000000         9.06532268E-14
   81.6250000        -3.04772178E-14
   81.7500000        -1.60382653E-13
   81.8750000        -2.95779541E-13
   82.0000000        -4.32985516E-13
   82.1250000        -5.68005387E-13
   82.2500000        -6.96631771E-13
   82.3750000        -8.14558273E-13
   82.5000000        -9.17502944E-13
   82.6250000        -1.00133823E-12
   82.7500000        -1.06222398E-12
   82.8750000        -1.09673978E-12
   83.0000000        -1.10201312E-12
   83.1250000        -1.07583864E-12
   83.2500000        -1.01678366E-12
   83.3750000        -9.24279316E-13
   83.5000000        -7.98688698E-13
   83.6250000        -6.41354428E-13
   83.7500000        -4.54618250E-13
   83.8750000        -2.41813866E-13
   84.0000000        -7.22999118E-15
   84.1250000         2.43955870E-13
   84.2500000         5.05773158E-13
   84.3750000         7.71582234E-13
   84.5000000         1.03422370E-12
   84.6250000         1.28619164E-12
   84.7500000         1.51982550E-12
   84.8750000         1.72751624E-12
   85.0000000         1.90192328E-12
   85.1250000         2.03619413E-12
   85.2500000         2.12418234E-12
   85.3750000         2.16065685E-12
   85.5000000         2.14149705E-12
   85.6250000         2.06386470E-12
   85.7500000         1.92635252E-12
   85.8750000         1.72909625E-12
   86.0000000         1.47385283E-12
   86.1250000         1.16403545E-12
   86.2500000         8.04705965E-13
   86.3750000         4.02520573E-13
   86.5000000        -3.43699983E-14
   86.6250000        -4.96466420E-13
   86.7500000        -9.73109831E-13
   86.8750000        -1.45271122E-12
   87.0000000        -1.92301643E-12
   87.1250000        -2.37140082E-12
   87.2500000        -2.78518614E-12
   87.3750000        -3.15197282E-12
   87.5000000        -3.45997948E-12
   87.6250000        -3.69837711E-12
   87.7500000        -3.85761431E-12
   87.8750000        -3.92971940E-12
   88.0000000        -3.90857225E-12
   88.1250000        -3.79013791E-12
   88.2500000        -3.57265237E-12
   88.3750000        -3.25675771E-12
   88.5000000        -2.84557512E-12
   88.6250000        -2.34471925E-12
   88.7500000        -1.76224595E-12
   88.8750000        -1.10853481E-12
   89.0000000        -3.96110038E-13
   89.1250000         3.60600222E-13
   89.2500000         1.14556032E-12
   89.3750000         1.94147021E-12
   89.5000000         2.73015117E-12
   89.6250000         3.49296178E-12
   89.7500000         4.21123292E-12
   89.8750000         4.86671424E-12
   90.0000000         5.44201923E-12
   90.1250000         5.92105271E-12
   90.2500000         6.28941820E-12
   90.3750000         6.53478270E-12
   90.5000000         6.64720622E-12
   90.6250000         6.61940468E-12
   90.7500000         6.44696579E-12
   90.8750000         6.12848704E-12
   91.0000000         5.66565284E-12
   91.1250000         5.06323802E-12
   91.2500000         4.32904320E-12
   91.3750000         3.47376121E-12
   91.5000000         2.51078628E-12
   91.6250000         1.45596274E-12
   91.7500000         3.27286212E-13
   91.8750000        -8.55432099E-13
   92.0000000        -2.07093522E-12
   92.1250000        -3.29690984E-12
   92.2500000        -4.51038469E-12
   92.3750000        -5.68813529E-12
   92.5000000        -6.80708051E-12
   92.6250000        -7.84466155E-12
   92.7500000        -8.77920306E-12
   92.8750000        -9.59025394E-12
   93.0000000        -1.02588892E-11
   93.1250000        -1.07679933E-11
   93.2500000        -1.11024983E-11
   93.3750000        -1.12496080E-11
   93.5000000        -1.11989871E-11
   93.6250000        -1.09429210E-11
   93.7500000        -1.04764660E-11
   93.8750000        -9.79757421E-12
   94.0000000        -8.90720397E-12
   94.1250000        -7.80942238E-12
   94.2500000        -6.51150227E-12
   94.3750000        -5.02399424E-12
   94.5000000        -3.36080165E-12
   94.6250000        -1.53923629E-12
   94.7500000         4.19952511E-13
   94.8750000         2.49256497E-12
   95.0000000         4.65098619E-12
   95.1250000         6.86425959E-12
   95.2500000         9.09822218E-12
   95.3750000         1.13157105E-11
   95.5000000         1.34768481E-11
   95.6250000         1.55394135E-11
   95.7500000         1.74593378E-11
   95.8750000         1.91912718E-11
   96.0000000         2.06892923E-11
   96.1250000         2.19077083E-11
   96.2500000         2.28019739E-11
   96.3750000         2.33296975E-11
   96.5000000         2.34517440E-11
   96.6250000         2.31333754E-11