  -4.50000000         0.00000000    
  -4.37320757         0.00000000    
  -4.24641466         0.00000000    
  -4.11962223         0.00000000    
  -3.99282932         0.00000000    
  -3.86603665         0.00000000    
  -3.73924398         0.00000000    
  -3.61245155         0.00000000    
  -3.48565888         0.00000000    
  -3.35886621         0.00000000    
  -3.23207355         0.00000000    
  -3.10528088         0.00000000    
  -2.97848821         0.00000000    
  -2.85169554         0.00000000    
  -2.72490287         0.00000000    
  -2.59811020         0.00000000    
  -2.47131753         0.00000000    
  -2.34452486         0.00000000    
  -2.21773219         0.00000000    
  -2.09093952         0.00000000    
  -1.96414697         0.00000000    
  -1.83735430         0.00000000    
  -1.71056163         0.00000000    
  -1.58376896         0.00000000    
  -1.45697629         0.00000000    
  -1.33018374         0.00000000    
  -1.20339108         0.00000000    
  -1.07659841         0.00000000    
 -0.949805737         0.00000000    
 -0.823013067         0.00000000    
 -0.696220458         0.00000000    
 -0.569427788         0.00000000    
 -0.442635119         0.00000000    
 -0.315842479         0.00000000    
 -0.189049825         0.00000000    
  -6.22571707E-02     0.00000000    
   6.45354837E-02     0.00000000    
  0.191328138         0.00000000    
  0.318120778         0.00000000    
  0.444913447         0.00000000    
  0.571706116         0.00000000    
  0.698498726         0.00000000    
  0.825291395         0.00000000    
  0.952084064         0.00000000    
   1.07887673         0.00000000    
   1.20566940         0.00000000    
   1.33246195         0.00000000    
   1.45925462         0.00000000    
   1.58604729         0.00000000    
   1.71283996         0.00000000    
   1.83963263         0.00000000    
   1.96642530         0.00000000    
   2.09321785         0.00000000    
   2.22001052         0.00000000    
   2.34680319         0.00000000    
   2.47359586         0.00000000    
   2.60038853         0.00000000    
   2.72718120         0.00000000    
   2.85397387         0.00000000    
   2.98076653         0.00000000    
   3.10755920         0.00000000    
   3.23435187         0.00000000    
   3.36114454         0.00000000    
   3.48793697         0.00000000    
   3.61472964         0.00000000    
   3.74152231         0.00000000    
   3.86831498         0.00000000    
   3.99510765         0.00000000    
   4.12190056         0.00000000    
   4.24869299         0.00000000    
   4.37548542         0.00000000    
   4.50227833         0.00000000    
   4.62907076         0.00000000    
   4.75586367         0.00000000    
   4.88265610         0.00000000    
   5.00944901         0.00000000    
   5.13624144         0.00000000    
   5.26303434         0.00000000    
   5.38982677         0.00000000    
   5.51661968         0.00000000    
   5.64341211         0.00000000    
   5.77020502         0.00000000    
   5.89699745         0.00000000    
   6.02379036         0.00000000    
   6.15058279         0.00000000    
   6.27737522         0.00000000    
   6.40416813         0.00000000    
   6.53096056         0.00000000    
   6.65775347         0.00000000    
   6.78454590         0.00000000    
   6.91133881         0.00000000    
   7.03813124         0.00000000    
   7.16492414         0.00000000    
   7.29171658         0.00000000    
   7.41850948         0.00000000    
   7.54530191         0.00000000    
   7.67209482         0.00000000    
   7.79888725         0.00000000    
   7.92567968         0.00000000    
   8.05247211         0.00000000    
   8.17926502         0.00000000    
   8.30605793         0.00000000    
   8.43285084         0.00000000    
   8.55964279         0.00000000    
   8.68643570         0.00000000    
   8.81322861         0.00000000    
   8.94002151         0.00000000    
   9.06681347         0.00000000    
   9.19360638         0.00000000    
   9.32039928         0.00000000    
   9.44719219         0.00000000    
   9.57398415         0.00000000    
   9.70077705         0.00000000    
   9.82756996         0.00000000    
   9.95436192         0.00000000    
   10.0811548         0.00000000    
   10.2079477         0.00000000    
   10.3347406         0.00000000    
   10.4615326         0.00000000    
   10.5883255         0.00000000    
   10.7151184         0.00000000    
   10.8419113         0.00000000    
   10.9687033         0.00000000    
   11.0954962         0.00000000    
   11.2222891         0.00000000    
   11.3490820         0.00000000    
   11.4758739         0.00000000    
   11.6026669         0.00000000    
   11.7294598         0.00000000    
   11.8562517         0.00000000    
   11.9830446         0.00000000    
   12.1098375         0.00000000    
   12.2366304         0.00000000    
   12.3634224         0.00000000    
   12.4902153         0.00000000    
   12.6170082         0.00000000    
   12.7438011         0.00000000    
   12.8705931         0.00000000    
   12.9973860         0.00000000    
   13.1241789         0.00000000    
   13.2509708         0.00000000    
   13.3777637         0.00000000    
   13.5045567         0.00000000    
   13.6313496         0.00000000    
   13.7581415         0.00000000    
   13.8849344         0.00000000    
   14.0117273         0.00000000    
   14.1385202         0.00000000    
   14.2653122         0.00000000    
   14.3921051         0.00000000    
   14.5188980         0.00000000    
   14.6456909         0.00000000    
   14.7724829         0.00000000    
   14.8992758         0.00000000    
   15.0260687         0.00000000    
   15.1528606         0.00000000    
   15.2796535         0.00000000    
   15.4064465         0.00000000    
   15.5332394         0.00000000    
   15.6600313         0.00000000    
   15.7868242         0.00000000    
   15.9136171         0.00000000    
   16.0404091         0.00000000    
   16.1672020         0.00000000    
   16.2939949         0.00000000    
   16.4207878         0.00000000    
   16.5475807         0.00000000    
   16.6743736         0.00000000    
   16.8011646         0.00000000    
   16.9279575         0.00000000    
   17.0547504         0.00000000    
   17.1815434         0.00000000    
   17.3083363         0.00000000    
   17.4351292         0.00000000    
   17.5619221         0.00000000    
   17.6887150         0.00000000    
   17.8155060         0.00000000    
   17.9422989         0.00000000    
   18.0690918         0.00000000    
   18.1958847         0.00000000    
   18.3226776         0.00000000    
   18.4494705         0.00000000    
   18.5762634         0.00000000    
   18.7030544         0.00000000    
   18.8298473         0.00000000    
   18.9566402         0.00000000    
   19.0834332         4.72252301E-35
   19.2102261         1.47365872E-34
   19.3370190         2.47506512E-34
   19.4638119         3.47647151E-34
   19.5906048         3.06296060E-34
   19.7173958         2.25643533E-34
   19.8441887         2.29096318E-34
   19.9709816         2.74585952E-34
   20.0977745         3.11470233E-34
   20.2245674        -2.32847408E-35
   20.3513603        -8.22175830E-34
   20.4781532        -1.98580338E-33
   20.6049442        -7.39521716E-33
   20.7317371        -1.57880984E-32
   20.8585300        -2.25943415E-32
   20.9853230        -2.72040720E-32
   21.1121159        -2.34799237E-32
   21.2389088        -1.33245650E-32
   21.3657017         1.60616150E-33
   21.4924946         1.90911758E-32
   21.6192856         3.39354287E-32
   21.7460785         4.79786659E-32
   21.8728714         5.38746341E-32
   21.9996643         4.75683537E-32
   22.1264572         3.80049431E-32
   22.2532501         2.04009454E-32
   22.3800430        -1.07731605E-33
   22.5068340        -2.01904297E-31
   22.6336269        -1.97909168E-31
   22.7604198         2.08398903E-31
   22.8872128         1.49044483E-30
   23.0140057         3.22748280E-30
   23.1407986         5.06988268E-30
   23.2675915         6.08452728E-30
   23.3943844         6.43977860E-30
   23.5211754         6.31158614E-30
   23.6479683         5.11278804E-30
   23.7747612         3.03286834E-30
   23.9015541         1.32506895E-30
   24.0283470        -9.59221070E-31
   24.1551399        -9.62128396E-30
   24.2819328        -2.22715983E-29
   24.4087238        -3.94580705E-29
   24.5355167        -6.18434642E-29
   24.6623096        -8.26028224E-29
   24.7891026        -1.02966787E-28
   24.9158955        -1.12280440E-28
   25.0426884        -1.15284746E-28
   25.1694813        -1.09880214E-28
   25.2962742        -8.24675438E-29
   25.4230652        -3.56199720E-29
   25.5498581         2.53287804E-29
   25.6766510         9.16765283E-29
   25.8034439         1.57612702E-28
   25.9302368         2.13996817E-28
   26.0570297         2.72228874E-28
   26.1838226         3.18412938E-28
   26.3106136         3.51657715E-28
   26.4374065         3.70956472E-28
   26.5641994         3.72291358E-28
   26.6909924         3.51998653E-28
   26.8177853         2.98992487E-28
   26.9445782         2.19615043E-28
   27.0713711         1.05935921E-28
   27.1981640        -4.44134160E-29
   27.3249550        -2.37396505E-28
   27.4517479        -4.69177575E-28
   27.5785408        -7.46141372E-28
   27.7053337        -1.06493670E-27
   27.8321266        -1.41069477E-27
   27.9589195        -1.75368286E-27
   28.0857124        -2.05807262E-27
   28.2125034        -2.27160355E-27
   28.3392963        -2.33128581E-27
   28.4660892        -2.18088301E-27
   28.5928822        -1.75822594E-27
   28.7196751        -1.01409052E-27
   28.8464680         9.23138185E-29
   28.9732609         1.57856277E-27
   29.1000538         3.44059334E-27
   29.2268448         5.63351149E-27
   29.3536377         8.05734517E-27
   29.4804306         1.05618507E-26
   29.6072235         1.29397239E-26
   29.7340164         1.49255811E-26
   29.8608093         1.62012771E-26
   29.9876022         1.64116764E-26
   30.1143932         1.51782693E-26
   30.2411861         1.21397612E-26
   30.3679790         6.98364693E-27
   30.4947720        -5.13369001E-28
   30.6215649        -1.04327432E-26
   30.7483578        -2.26656209E-26
   30.8751507        -3.68620680E-26
   31.0019417        -5.23894237E-26
   31.1287346        -6.83003722E-26
   31.2555275        -8.33203270E-26
   31.3823204        -9.58603373E-26
   31.5091133        -1.04058395E-25
   31.6359062        -1.05854582E-25
   31.7626991        -9.91074798E-26
   31.8894920        -8.17493351E-26
   32.0162849        -5.19807321E-26
   32.1430779        -8.49754111E-27
   32.2698708         4.92594177E-26
   32.3966637         1.20843075E-25
   32.5234528         2.04547097E-25
   32.6502457         2.97179212E-25
   32.7770386         3.93889615E-25
   32.9038315         4.88084463E-25
   33.0306244         5.71456707E-25
   33.1574173         6.34160795E-25
   33.2842102         6.65162190E-25
   33.4110031         6.52774116E-25
   33.5377960         5.85395386E-25
   33.6645889         4.52443185E-25
   33.7913818         2.45458040E-25
   33.9181747        -4.06563503E-26
   34.0449677        -4.06324133E-25
   34.1717606        -8.46000566E-25
   34.2985535        -1.34698936E-24
   34.4253426        -1.88849258E-24
   34.5521355        -2.44102693E-24
   34.6789284        -2.96634400E-24
   34.8057213        -3.41798402E-24
   34.9325142        -3.74258254E-24
   35.0593071        -3.88203027E-24
   35.1861000        -3.77652091E-24
   35.3128929        -3.36848655E-24
   35.4396858        -2.60735726E-24
   35.5664787        -1.45499280E-24
   35.6932716         1.08441344E-25
   35.8200645         2.07847375E-24
   35.9468575         4.42060020E-24
   36.0736504         7.06532620E-24
   36.2004433         9.90447210E-24
   36.3272324         1.27893412E-23
   36.4540253         1.55313128E-23
   36.5808182         1.79053566E-23
   36.7076111         1.96569260E-23
   36.8344040         2.05125087E-23
   36.9611969         2.01939777E-23
   37.0879898         1.84365171E-23
   37.2147827         1.50097748E-23
   37.3415756         9.74152657E-24
   37.4683685         2.54266219E-24
   37.5951614        -6.56777467E-24
   37.7219543        -1.74392691E-23
   37.8487473        -2.97701938E-23
   37.9755402        -4.30938841E-23
   38.1023293        -5.67727227E-23
   38.2291222        -7.00021410E-23
   38.3559151        -8.18267179E-23
   38.4827080        -9.11694815E-23
   38.6095009        -9.68753062E-23
   38.7362938        -9.77688016E-23
   38.8630867        -9.27254876E-23
   38.9898796        -8.07545865E-23
   39.1166725        -6.10904866E-23
   39.2434654        -3.32882042E-23
   39.3702583         2.68182041E-24
   39.4970512         4.63464933E-23
   39.6238441         9.66566844E-23
   39.7506371         1.51936239E-22
   39.8774300         2.09859569E-22
   40.0042191         2.67466206E-22
   40.1310120         3.21217168E-22
   40.2578049         3.67098429E-22
   40.3845978         4.00773298E-22
   40.5113907         4.17783992E-22
   40.6381836         4.13798111E-22
   40.7649765         3.84893465E-22
   40.8917694         3.27870787E-22
   41.0185623         2.40579302E-22
   41.1453552         1.22238743E-22
   41.2721481        -2.62640257E-23
   41.3989410        -2.02124440E-22
   41.5257339        -4.00441144E-22
   41.6525269        -6.14128846E-22
   41.7793198        -8.33946893E-22
   41.9061089        -1.04865822E-21
   42.0329018        -1.24533526E-21
   42.1596947        -1.40981121E-21
   42.2864876        -1.52728429E-21
   42.4132805        -1.58305274E-21
   42.5400734        -1.56336368E-21
   42.6668663        -1.45634457E-21
   42.7936592        -1.25296981E-21
   42.9204521        -9.48018452E-22
   43.0472450        -5.40958450E-22
   43.1740379        -3.66984940E-23
   43.3008308         5.53857298E-22
   43.4276237         1.21351061E-21
   43.5544167         1.91877973E-21
   43.6812096         2.64026782E-21
   43.8079987         3.34340911E-21
   43.9347916         3.98960761E-21
   44.0615845         4.53775371E-21
   44.1883774         4.94607437E-21
   44.3151703         5.17426434E-21
   44.4419632         5.18579398E-21
   44.5687561         4.95031004E-21
   44.6955490         4.44596776E-21
   44.8223419         3.66157637E-21
   44.9491348         2.59840291E-21
   45.0759277         1.27149090E-21
   45.2027206        -2.89636176E-22
   45.3295135        -2.04099102E-21
   45.4563065        -3.92493404E-21
   45.5830994        -5.87181549E-21
   45.7098885        -7.80240294E-21
   45.8366814        -9.63105936E-21
   45.9634743        -1.12695377E-20
   46.0902672        -1.26311635E-20
   46.2170601        -1.36352210E-20
   46.3438530        -1.42112925E-20
   46.4706459        -1.43031823E-20
   46.5974388        -1.38722405E-20
   46.7242317        -1.28997185E-20
   46.8510246        -1.13879861E-20
   46.9778175        -9.36041378E-21
   47.1046104        -6.85978782E-21
   47.2314034        -3.94540959E-21
   47.3581963        -6.88781492E-22
   47.4849892         2.83155717E-21
   47.6117783         6.53593247E-21
   47.7385712         1.03496095E-20
   47.8653641         1.42082794E-20
   47.9921570         1.80625372E-20
   48.1189499         2.18806737E-20
   48.2457428         2.56488707E-20
   48.3725357         2.93688021E-20
   48.4993286         3.30517107E-20
   48.6261215         3.67092545E-20
   48.7529144         4.03409716E-20
   48.8797073         4.39190480E-20
   49.0065002         4.73710633E-20
   49.1332932         5.05620127E-20
   49.2600861         5.32769810E-20
   49.3868790         5.52066092E-20
   49.5136681         5.59368546E-20
   49.6404610         5.49459698E-20
   49.7672539         5.16106580E-20
   49.8940468         4.52227137E-20
   50.0208397         3.50188076E-20
   50.1476326         2.02240781E-20
   50.2744255         1.09171067E-22
   50.4012184        -2.59388540E-20
   50.5280113        -5.83344505E-20
   50.6548042        -9.72029114E-20
   50.7815971        -1.42285599E-19
   50.9083900        -1.92846846E-19
   51.0351830        -2.47589323E-19
   51.1619759        -3.04584549E-19
   51.2887688        -3.61229205E-19
   51.4155579        -4.14233698E-19
   51.5423508        -4.59652738E-19
   51.6691437        -4.92963818E-19
   51.7959366        -5.09202821E-19
   51.9227295        -5.03155820E-19
   52.0495224        -4.69613130E-19
   52.1763153        -4.03678485E-19
   52.3031082        -3.01131147E-19
   52.4299011        -1.58825476E-19
   52.5566940         2.48835929E-20
   52.6834869         2.49712023E-19
   52.8102798         5.13037940E-19
   52.9370728         8.09540469E-19
   53.0638657         1.13092030E-18
   53.1906586         1.46572662E-18
   53.3174477         1.79933104E-18
   53.4442406         2.11407037E-18
   53.5710335         2.38958975E-18
   53.6978264         2.60339960E-18
   53.8246193         2.73165892E-18
   53.9514122         2.75018921E-18
   54.0782051         2.63569687E-18
   54.2049980         2.36718081E-18
   54.3317909         1.92748675E-18
   54.4585838         1.30494597E-18
   54.5853767         4.95027478E-19
   54.7121696        -4.98083704E-19
   54.8389626        -1.66007425E-18
   54.9657555        -2.96537301E-18
   55.0925484        -4.37639052E-18
   55.2193375        -5.84326630E-18
   55.3461304        -7.30418927E-18
   55.4729233        -8.68639236E-18
   55.5997162        -9.90788914E-18
   55.7265091        -1.08799711E-17
   55.8533020        -1.15104854E-17
   55.9800949        -1.17078383E-17
   56.1068878        -1.13856473E-17
   56.2336807        -1.04679078E-17
   56.3604736        -8.89451100E-18
   56.4872665        -6.62688014E-18
   56.6140594        -3.65345245E-18
   56.7408524         5.27349814E-21
   56.8676453         4.29245402E-18
   56.9944382         9.11172615E-18
   57.1212273         1.43254513E-17
   57.2480202         1.97546926E-17
   57.3748131         2.51812076E-17
   57.5016060         3.03516588E-17
   57.6283989         3.49841647E-17
   57.7551918         3.87772510E-17
   57.8819847         4.14211089E-17
   58.0087776         4.26109255E-17
   58.1355705         4.20620944E-17
   58.2623634         3.95266039E-17
   58.3891563         3.48102616E-17
   58.5159492         2.77898441E-17
   58.6427422         1.84294484E-17
   58.7695351         6.79512536E-18
   58.8963280        -6.93315699E-18
   59.0231171        -2.24531196E-17
   59.1499100        -3.93363193E-17
   59.2767029        -5.70295835E-17
   59.4034958        -7.48624461E-17
   59.5302887        -9.20610663E-17
   59.6570816        -1.07768842E-16
   59.7838745        -1.21073698E-16
   59.9106674        -1.31041688E-16
   60.0374603        -1.36756130E-16
   60.1642532        -1.37361401E-16
   60.2910461        -1.32109730E-16
   60.4178391        -1.20409505E-16
   60.5446320        -1.01872831E-16
   60.6714249        -7.63602717E-17
   60.7982178        -4.40201898E-17
   60.9250069        -5.32037276E-18
   61.0517998         3.89306203E-17
   61.1785927         8.75745776E-17
   61.3053856         1.39109306E-16
   61.4321785         1.91710158E-16
   61.5589714         2.43268895E-16
   61.6857643         2.91449717E-16
   61.8125572         3.33762560E-16
   61.9393501         3.67652268E-16
   62.0661430         3.90601382E-16
   62.1929359         4.00244270E-16
   62.3197289         3.94488019E-16
   62.4465218         3.71636447E-16
   62.5733147         3.30511118E-16
   62.7001076         2.70564796E-16
   62.8268967         1.91980401E-16
   62.9536896         9.57501992E-17
   63.0804825        -1.62709206E-17
   63.2072754        -1.41343303E-16
   63.3340683        -2.75855893E-16
   63.4608612        -4.15378869E-16
   63.5876541        -5.54757029E-16
   63.7144470        -6.88245028E-16
   63.8412399        -8.09683347E-16
   63.9680328        -9.12710823E-16
   64.0948257        -9.91009702E-16
   64.2216187        -1.03857558E-15
   64.3484116        -1.05000332E-15
   64.4752045        -1.02077867E-15
   64.6019974        -9.47563158E-16
   64.7287903        -8.28459632E-16
   64.8555832        -6.63245432E-16
   64.9823761        -4.53558721E-16
   65.1091690        -2.03026677E-16
   65.2359619         8.26771191E-17
   65.3627548         3.95854972E-16
   65.4895477         7.26894188E-16
   65.6163330         1.06446789E-15
   65.7431259         1.39582739E-15
   65.8699188         1.70718156E-15
   65.9967117         1.98415986E-15
   66.1235046         2.21234206E-15
   66.2502975         2.37784341E-15
   66.3770905         2.46793277E-15
   66.5038834         2.47166289E-15
   66.6306763         2.38048678E-15
   66.7574692         2.18883224E-15
   66.8842621         1.89460751E-15
   67.0110550         1.49961085E-15
   67.1378479         1.00981659E-15
   67.2646408         4.35515595E-16
   67.3914337        -2.08710056E-16
   67.5182266        -9.04189036E-16
   67.6450195        -1.62855086E-15
   67.7718124        -2.35630145E-15
   67.8986053        -3.05957681E-15
   68.0253983        -3.70906156E-15
   68.1521912        -4.27504220E-15
   68.2789841        -4.72856990E-15
   68.4057770        -5.04268995E-15
   68.5325699        -5.19368967E-15
   68.6593628        -5.16232234E-15
   68.7861557        -4.93494439E-15
   68.9129486        -4.50451994E-15
   69.0397415        -3.87143142E-15
   69.1665344        -3.04405832E-15
   69.2933273        -2.03906771E-15
   69.4201126        -8.81391621E-16
   69.5469055         3.96136292E-16
   69.6736984         1.75349976E-15
   69.8004913         3.14456577E-15
   69.9272842         4.51848455E-15
   70.0540771         5.82139021E-15
   70.1808701         6.99835519E-15
   70.3076630         7.99552939E-15
   70.4344559         8.76239744E-15
   70.5612488         9.25406873E-15
   70.6880417         9.43348810E-15
   70.8148346         9.27349712E-15
   70.9416275         8.75862561E-15
   71.0684204         7.88652557E-15
   71.1952133         6.66895890E-15
   71.3220062         5.13227088E-15
   71.4487991         3.31728257E-15
   71.5755920         1.27856871E-15
   71.7023849        -9.16891037E-16
   71.8291779        -3.19167923E-15
   71.9559708        -5.46048048E-15
   72.0827637        -7.63313481E-15
   72.2095566        -9.61810401E-15
   72.3363495        -1.13262357E-14
   72.4631424        -1.26746783E-14
   72.5899353        -1.35907961E-14
   72.7167282        -1.40159152E-14
   72.8435211        -1.39087121E-14
   72.9703140        -1.32480917E-14
   73.0971069        -1.20353810E-14
   73.2238922        -1.02956931E-14
   73.3506851        -8.07834634E-15
   73.4774780        -5.45625336E-15
   73.6042709        -2.52421769E-15
   73.7310638         6.03839253E-16
   73.8578568         3.79870983E-15
   73.9846497         6.92067084E-15
   74.1114426         9.82507651E-15
   74.2382355         1.23685581E-14
   74.3650284         1.44156351E-14
   74.4918213         1.58454437E-14
   74.6186142         1.65583150E-14
   74.7454071         1.64818839E-14
   74.8722000         1.55764107E-14
   74.9989929         1.38390615E-14
   75.1257858         1.13068107E-14
   75.2525787         8.05778038E-15
   75.3793716         4.21079814E-15
   75.5061646        -7.69249448E-17
   75.6329575        -4.61406883E-15
   75.7597504        -9.18138144E-15
   75.8865433        -1.35396412E-14
   76.0133362        -1.74392124E-14
   76.1401291        -2.06308783E-14
   76.2669220        -2.28775857E-14
   76.3937149        -2.39666685E-14
   76.5205078        -2.37220250E-14
   76.6473007        -2.20157551E-14
   76.7740936        -1.87786069E-14
   76.9008865        -1.40087687E-14
   77.0276718        -7.77842468E-15
   77.1544647        -2.37595812E-16
   77.2812576         8.38513744E-15
   77.4080505         1.77853083E-14
   77.5348434         2.75888473E-14
   77.6616364         3.73620033E-14
   77.7884293         4.66248134E-14
   77.9152222         5.48678195E-14
   78.0420151         6.15716381E-14
   78.1688080         6.62288421E-14
   78.2956009         6.83672682E-14
   78.4223938         6.75741269E-14
   78.5491867         6.35197732E-14
   78.6759796         5.59802313E-14
   78.8027725         4.48573877E-14
   78.9295654         3.01957420E-14
   79.0563583         1.21949180E-14
   79.1831512        -8.78315060E-15
   79.3099442        -3.22130391E-14
   79.4367371        -5.74112359E-14
   79.5635300        -8.35483958E-14
   79.6903229        -1.09668635E-13
   79.8171158        -1.34715752E-13
   79.9439087        -1.57565570E-13
   80.0707016        -1.77064242E-13
   80.1974945        -1.92070752E-13
   80.3242874        -2.01502985E-13
   80.4510803        -2.04385310E-13
   80.5778732        -1.99896374E-13
   80.7046585        -1.87414808E-13
   80.8314514        -1.66561399E-13
   80.9582443        -1.37235438E-13
   81.0850372        -9.96435329E-14
   81.2118301        -5.43191590E-14
   81.3386230        -2.13168123E-15
   81.4654160         5.57167397E-14
   81.5922089         1.17706802E-13
   81.7190018         1.82030796E-13
   81.8457947         2.46634093E-13
   81.9725876         3.09269564E-13
   82.0993805         3.67562399E-13
   82.2261734         4.19085448E-13
   82.3529663         4.61441540E-13
   82.4797592         4.92351331E-13
   82.6065521         5.09743343E-13
   82.7333450         5.11842738E-13
   82.8601379         4.97256479E-13
   82.9869308         4.65050849E-13
   83.1137238         4.14817947E-13
   83.2405167         3.46728343E-13
   83.3673096         2.61567325E-13
   83.4941025         1.60751634E-13
   83.6208954         4.63256989E-14
   83.7476883        -7.90646099E-14
   83.8744812        -2.12220161E-13
   84.0012741        -3.49459421E-13
   84.1280670        -4.86709956E-13
   84.2548599        -6.19618939E-13
   84.3816528        -7.43680237E-13
   84.5084381        -8.54373755E-13
   84.6352310        -9.47313517E-13
   84.7620239        -1.01839977E-12
   84.8888168        -1.06397009E-12
   85.0156097        -1.08094339E-12
   85.1424026        -1.06695317E-12
   85.2691956        -1.02046334E-12
   85.3959885        -9.40862080E-13
   85.5227814        -8.28531091E-13
   85.6495743        -6.84883465E-13
   85.7763672        -5.12371070E-13
   85.9031601        -3.14457092E-13
   86.0299530        -9.55548778E-14
   86.1567459         1.39067767E-13
   86.2835388         3.83415305E-13
   86.4103317         6.30920663E-13
   86.5371246         8.74625893E-13
   86.6639175         1.10738274E-12
   86.7907104         1.32206550E-12
   86.9175034         1.51179275E-12
   87.0442963         1.67014601E-12
   87.1710892         1.79138236E-12
   87.2978821         1.87063125E-12
   87.4246750         1.90406870E-12
   87.5514679         1.88906161E-12
   87.6782608         1.82427988E-12
   87.8050537         1.70976644E-12
   87.9318466         1.54696698E-12
   88.0586395         1.33871397E-12
   88.1854324         1.08916641E-12
   88.3122177         8.03705952E-13
   88.4390106         4.88791841E-13
   88.5658035         1.51780457E-13
   88.6925964        -1.99286266E-13
   88.8193893        -5.55915557E-13
   88.9461823        -9.09414091E-13
   89.0729752        -1.25114448E-12
   89.1997681        -1.57277967E-12
   89.3265610        -1.86654490E-12
   89.4533539        -2.12544067E-12
   89.5801468        -2.34343447E-12
   89.7069397        -2.51561836E-12
   89.8337326        -2.63832359E-12
   89.9605255        -2.70919094E-12
   90.0873184        -2.72718935E-12
   90.2141113        -2.69258899E-12
   90.3409042        -2.60688454E-12
   90.4676971        -2.47267636E-12
   90.5944901        -2.29351173E-12
   90.7212830        -2.07369755E-12
   90.8480759        -1.81808952E-12
   90.9748688        -1.53187001E-12
   91.1016617        -1.22032408E-12
   91.2284546        -8.88626520E-13
   91.3552475        -5.41649408E-13
   91.4820404        -1.83800796E-13
   91.6088333         1.81097013E-13
   91.7356262         5.49880183E-13
   91.8624191         9.20062420E-13
   91.9892120         1.28980062E-12
   92.1159973         1.65780107E-12
   92.2427902         2.02317373E-12
   92.3695831         2.38523459E-12
   92.4963760         2.74327414E-12
   92.6231689         3.09629145E-12
   92.7499619         3.44271356E-12
   92.8767548         3.78011641E-12
   93.0035477         4.10496160E-12
   93.1303406         4.41236414E-12
   93.2571335         4.69591727E-12
   93.3839264         4.94757620E-12
   93.5107193         5.15763300E-12
   93.6375122         5.31477987E-12
   93.7643051         5.40628046E-12
   93.8910980         5.41825005E-12
   94.0178909         5.33604454E-12
   94.1446838         5.14476049E-12
   94.2714767         4.82982881E-12
   94.3982697         4.37769916E-12
   94.5250626         3.77658191E-12
   94.6518555         3.01724075E-12
   94.7786484         2.09378868E-12
   94.9054413         1.00447439E-12
   95.0322342        -2.47586484E-13
   95.1590271        -1.65376458E-12
   95.2858200        -3.19939691E-12
   95.4126129        -4.86341739E-12
   95.5394058        -6.61817606E-12
   95.6661987        -8.42947673E-12
   95.7929916        -1.02568423E-11
   95.9197769        -1.20540401E-11
   96.0465698        -1.37698594E-11
   96.1733627        -1.53491473E-11
   96.3001556        -1.67340915E-11
   96.4269485        -1.78657280E-11
   96.5537415        -1.86856381E-11
   96.6805344        -1.91378111E-11
   96.8073273        -1.91705974E-11
   96.9341202        -1.87387345E-11
   97.0609131        -1.78053371E-11
   97.1877060        -1.63438221E-11
   97.3144989        -1.43396857E-11
   97.4412918        -1.17920604E-11
   97.5680847        -8.71498186E-12
   97.6948776        -5.13831816E-12
   97.8216705        -1.10828100E-12
   97.9484634         3.31249915E-12
   98.0752563         8.04539942E-12