 -4.5   1.678564633E-18
 -4.37296724   1.678577041E-18
 -4.24593449   1.678600305E-18
 -4.11890221   1.678632152E-18
 -3.99186945   1.678668858E-18
 -3.86483669   1.678707322E-18
 -3.73780417   1.678743925E-18
 -3.61077142   1.678775461E-18
 -3.4837389   1.678799966E-18
 -3.35670614   1.678816613E-18
 -3.22967362   1.678825505E-18
 -3.10264087   1.678828297E-18
 -2.97560835   1.678827366E-18
 -2.84857559   1.678825299E-18
 -2.72154307   1.678825195E-18
 -2.59451032   1.678829745E-18
 -2.46747756   1.678841532E-18
 -2.34044504   1.678861798E-18
 -2.21341228   1.678889612E-18
 -2.08637977   1.678924664E-18
 -1.95934713   1.678964265E-18
 -1.83231449   1.67900552E-18
 -1.70528185   1.679045225E-18
 -1.57824922   1.679080174E-18
 -1.45121646   1.679108918E-18
 -1.32418382   1.67912877E-18
 -1.19715118   1.679139317E-18
 -1.07011855   1.679141282E-18
 -0.943085909   1.679136629E-18
 -0.816053271   1.67912753E-18
 -0.689020634   1.67911781E-18
 -0.561987996   1.679109125E-18
 -0.434955359   1.679105092E-18
 -0.307922721   1.679107677E-18
 -0.180890068   1.679117707E-18
 -5.385742337E-2   1.679136008E-18
 7.317522168E-2   1.679161341E-18
 0.200207874   1.679192153E-18
 0.327240527   1.679226895E-18
 0.454273164   1.67926174E-18
 0.581305802   1.679294724E-18
 0.708338439   1.679322951E-18
 0.835371077   1.679344768E-18
 0.962403715   1.679359554E-18
 1.08943641   1.679367722E-18
 1.21646905   1.679369583E-18
 1.34350169   1.679367102E-18
 1.47053432   1.679362449E-18
 1.59756696   1.679358313E-18
 1.7245996   1.679358003E-18
 1.85163224   1.679362863E-18
 1.97866488   1.67937527E-18
 2.10569763   1.679394295E-18
 2.23273015   1.679420352E-18
 2.35976291   1.679451578E-18
 2.48679543   1.679485389E-18
 2.61382818   1.67951951E-18
 2.7408607   1.679551046E-18
 2.86789346   1.679577309E-18
 2.99492598   1.679596231E-18
 3.12195873   1.679608639E-18
 3.24899125   1.679613808E-18
 3.37602401   1.679612568E-18
 3.50305653   1.679606984E-18
 3.63008928   1.679599126E-18
 3.75712204   1.679592715E-18
 3.88415456   1.679588786E-18
 4.01118708   1.679589924E-18
 4.13821983   1.679597368E-18
 4.26525259   1.67961143E-18
 4.39228535   1.679632213E-18
 4.51931763   1.679657546E-18
 4.64635038   1.67968567E-18
 4.77338314   1.679715655E-18
 4.9004159   1.679743676E-18
 5.02744818   1.679768078E-18
 5.15448093   1.679786999E-18
 5.28151369   1.67979889E-18
 5.40854645   1.679803129E-18
 5.53557873   1.679800131E-18
 5.66261148   1.679789998E-18
 5.78964424   1.679774592E-18
 5.916677   1.679756807E-18
 6.04370975   1.679738403E-18
 6.17074203   1.679721549E-18
 6.29777479   1.679708521E-18
 6.42480755   1.679699732E-18
 6.55184031   1.679695906E-18
 6.67887259   1.679697457E-18
 6.80590534   1.679702834E-18
 6.9329381   1.679710795E-18
 7.05997086   1.679719067E-18
 7.18700314   1.679725788E-18
 7.31403589   1.679728993E-18
 7.44106865   1.679726925E-18
 7.56810141   1.679718964E-18
 7.69513416   1.679705212E-18
 7.82216644   1.67968629E-18
 7.9491992   1.679662922E-18
 8.07623196   1.679638003E-18
 8.20326424   1.679614222E-18
 8.33029747   1.679593749E-18
 8.45732975   1.679578757E-18
 8.58436203   1.679570795E-18
 8.71139526   1.679570692E-18
 8.83842754   1.67957824E-18
 8.96546078   1.679592819E-18
 9.09249306   1.679610396E-18
 9.21952534   1.679629835E-18
 9.34655857   1.679648033E-18
 9.47359085   1.679662302E-18
 9.60062313   1.679671194E-18
 9.72765636   1.679673469E-18
 9.85468864   1.679669643E-18
 9.98172188   1.679660234E-18
 10.1087542   1.679646896E-18
 10.2357864   1.67963211E-18
 10.3628197   1.679617634E-18
 10.489852   1.679605743E-18
 10.6168852   1.679598195E-18
 10.7439175   1.679595197E-18
 10.8709497   1.679597782E-18
 10.997983   1.679605123E-18
 11.1250153   1.679615876E-18
 11.2520475   1.679628491E-18
 11.3790808   1.679640795E-18
 11.5061131   1.679651549E-18
 11.6331463   1.679657856E-18
 11.7601786   1.67965951E-18
 11.8872108   1.679655891E-18
 12.0142441   1.679646379E-18
 12.1412764   1.679632317E-18
 12.2683096   1.679614946E-18
 12.3953419   1.67959561E-18
 12.5223742   1.679575965E-18
 12.6494074   1.679557353E-18
 12.7764397   1.6795405E-18
 12.9034719   1.679527368E-18
 13.0305052   1.679517442E-18
 13.1575375   1.679510721E-18
 13.2845707   1.679507102E-18
 13.411603   1.679505965E-18
 13.5386353   1.679505551E-18
 13.6656685   1.679505448E-18
 13.7927008   1.67950307E-18
 13.919734   1.679498003E-18
 14.0467663   1.679489731E-18
 14.1737986   1.679477841E-18
 14.3008318   1.679462745E-18
 14.4278641   1.679444857E-18
 14.5548964   1.679425728E-18
 14.6819296   1.679405876E-18
 14.8089619   1.679386747E-18
 14.9359951   1.679369066E-18
 15.0630274   1.67935366E-18
 15.1900597   1.679340632E-18
 15.3170929   1.679330706E-18
 15.4441252   1.679324295E-18
 15.5711575   1.679320263E-18
 15.6981907   1.679319022E-18
 15.825223   1.679319125E-18
 15.9522562   1.679320159E-18
 16.0792885   1.6793214E-18
 16.2063217   1.679320676E-18
 16.333353   1.679316747E-18
 16.4603863   1.679309716E-18
 16.5874195   1.679298342E-18
 16.7144508   1.679282833E-18
 16.8414841   1.679263497E-18
 16.9685173   1.679241267E-18
 17.0955505   1.67921945E-18
 17.2225819   1.679198667E-18
 17.3496151   1.679180573E-18
 17.4766483   1.679167234E-18
 17.6036797   1.6791601E-18
 17.7307129   1.679159169E-18
 17.8577461   1.679163512E-18
 17.9847775   1.679172301E-18
 18.1118107   1.679183468E-18
 18.2388439   1.679194428E-18
 18.3658752   1.679202389E-18
 18.4929085   1.679205078E-18
 18.6199417   1.679201045E-18
 18.7469749   1.679187707E-18
 18.8740063   1.67916589E-18
 19.0010395   1.679137042E-18
 19.1280727   1.679102611E-18
 19.2551041   1.679066732E-18
 19.3821373   1.679032197E-18
 19.5091705   1.679002108E-18
 19.6362019   1.678978327E-18
 19.7632351   1.678962507E-18
 19.8902683   1.678954649E-18
 20.0172997   1.678954752E-18
 20.1443329   1.678959922E-18
 20.2713661   1.678968608E-18
 20.3983994   1.678976879E-18
 20.5254307   1.678982876E-18
 20.6524639   1.678983807E-18
 20.7794971   1.678978224E-18
 20.9065285   1.678965195E-18
 21.0335617   1.678944516E-18
 21.1605949   1.678919184E-18
 21.2876263   1.678890232E-18
 21.4146595   1.678861074E-18
 21.5416927   1.678835431E-18
 21.6687241   1.678816406E-18
 21.7957573   1.678806273E-18
 21.9227905   1.67880617E-18
 22.0498238   1.678815476E-18
 22.1768551   1.678831192E-18
 22.3038883   1.678851355E-18
 22.4309216   1.678871931E-18
 22.5579529   1.678888991E-18
 22.6849861   1.678898194E-18
 22.8120193   1.678897884E-18
 22.9390507   1.678885993E-18
 23.0660839   1.678863866E-18
 23.1931171   1.67883233E-18
 23.3201485   1.678793762E-18
 23.4471817   1.678753024E-18
 23.5742149   1.678713939E-18
 23.7012463   1.678680128E-18
 23.8282795   1.678655416E-18
 23.9553127   1.678640941E-18
 24.082346   1.678637632E-18
 24.2093773   1.678644146E-18
 24.3364105   1.678657484E-18
 24.4634438   1.678673511E-18
 24.5904751   1.678687883E-18
 24.7175083   1.678696155E-18
 24.8445415   1.678695224E-18
 24.9715729   1.678682817E-18
 25.0986061   1.678659449E-18
 25.2256393   1.678627706E-18
 25.3526707   1.678590689E-18
 25.4797039   1.678551605E-18
 25.6067371   1.678515519E-18
 25.7337704   1.678485534E-18
 25.8608017   1.678465475E-18
 25.9878349   1.678455239E-18
 26.1148682   1.678455239E-18
 26.2418995   1.6784632E-18
 26.3689327   1.678476022E-18
 26.495966   1.678489877E-18
 26.6229973   1.678501354E-18
 26.7500305   1.678507351E-18
 26.8770638   1.678504869E-18
 27.0040951   1.678492772E-18
 27.1311283   1.678471058E-18
 27.2581615   1.678441487E-18
 27.3851948   1.678406849E-18
 27.5122261   1.678370453E-18
 27.6392593   1.678335297E-18
 27.7662926   1.678304382E-18
 27.8933239   1.678279153E-18
 28.0203571   1.678260851E-18
 28.1473904   1.678248754E-18
 28.2744217   1.678241516E-18
 28.4014549   1.678238207E-18
 28.5284882   1.678236036E-18
 28.6555195   1.678233968E-18
 28.7825527   1.678230969E-18
 28.909586   1.678225903E-18
 29.0366192   1.678218045E-18
 29.1636505   1.678206361E-18
 29.2906837   1.678191058E-18
 29.417717   1.678172033E-18
 29.5447483   1.678148975E-18
 29.6717815   1.678123953E-18
 29.7988148   1.678097173E-18
 29.9258461   1.678070186E-18
 30.0528793   1.678043716E-18
 30.1799126   1.678019004E-18
 30.3069439   1.677996877E-18
 30.4339771   1.677977335E-18
 30.5610104   1.677960274E-18
 30.6880436   1.677945799E-18
 30.8150749   1.677932977E-18
 30.9421082   1.6779215E-18
 31.0691414   1.67791085E-18
 31.1961727   1.677899994E-18
 31.3232059   1.677887793E-18
 31.4502392   1.677874248E-18
 31.5772705   1.677859255E-18
 31.7043037   1.677841574E-18
 31.831337   1.677821515E-18
 31.9583683   1.677799905E-18
 32.0854034   1.677777571E-18
 32.2124329   1.677755651E-18
 32.3394661   1.677734971E-18
 32.4664993   1.677716256E-18
 32.5935326   1.677700746E-18
 32.7205658   1.677687718E-18
 32.847599   1.677676965E-18
 32.9746284   1.677667866E-18
 33.1016617   1.677659698E-18
 33.2286949   1.677650599E-18
 33.3557281   1.677641189E-18
 33.4827614   1.677632194E-18
 33.6097946   1.677623819E-18
 33.7368279   1.677615857E-18
 33.8638573   1.677609343E-18
 33.9908905   1.677605311E-18
 34.1179237   1.677603346E-18
 34.244957   1.677603966E-18
 34.3719902   1.677606758E-18
 34.4990234   1.677611721E-18
 34.6260529   1.677617201E-18
 34.7530861   1.677622991E-18
 34.8801193   1.677627748E-18
 35.0071526   1.67763054E-18
 35.1341858   1.677629919E-18
 35.261219   1.677625266E-18
 35.3882523   1.677615443E-18
 35.5152817   1.677601071E-18
 35.6423149   1.677582356E-18
 35.7693481   1.677559505E-18
 35.8963814   1.677532519E-18
 36.0234146   1.67750181E-18
 36.1504478   1.677466965E-18
 36.2774773   1.677427156E-18
 36.4045105   1.677381868E-18
 36.5315437   1.677331307E-18
 36.658577   1.677275782E-18
 36.7856102   1.677215605E-18
 36.9126434   1.677153153E-18
 37.0396767   1.677089563E-18
 37.1667061   1.677028145E-18
 37.2937393   1.676971483E-18
 37.4207726   1.67692237E-18
 37.5478058   1.676883078E-18
 37.674839   1.676855988E-18
 37.8018723   1.67684327E-18
 37.9289017   1.67684782E-18
 38.0559349   1.676870878E-18
 38.1829681   1.676915338E-18
 38.3100014   1.676983374E-18
 38.4370346   1.677076225E-18
 38.5640678   1.677195753E-18
 38.6911011   1.677342991E-18
 38.8181305   1.677519387E-18
 38.9451637   1.677726079E-18
 39.072197   1.677962136E-18
 39.1992302   1.678226523E-18
 39.3262634   1.67851583E-18
 39.4532967   1.678825816E-18
 39.5803261   1.679151104E-18
 39.7073593   1.679483321E-18
 39.8343925   1.679813986E-18
 39.9614258   1.680133381E-18
 40.088459   1.68043189E-18
 40.2154922   1.68070062E-18
 40.3425255   1.680932231E-18
 40.4695549   1.681120621E-18
 40.5965881   1.681263207E-18
 40.7236214   1.681360194E-18
 40.8506546   1.68141365E-18
 40.9776878   1.681433502E-18
 41.1047211   1.681431745E-18
 41.2317505   1.681426471E-18
 41.3587837   1.681441154E-18
 41.485817   1.681504743E-18
 41.6128502   1.681651981E-18
 41.7398834   1.681919781E-18
 41.8669167   1.682349812E-18
 41.9939499   1.682983122E-18
 42.1209793   1.683859623E-18
 42.2480125   1.685013643E-18
 42.3750458   1.686472893E-18
 42.502079   1.688255985E-18
 42.6291122   1.690368397E-18
 42.7561455   1.692798757E-18
 42.8831749   1.695517803E-18
 43.0102081   1.698475698E-18
 43.1372414   1.701600166E-18
 43.2642746   1.704798253E-18
 43.3913078   1.707953326E-18
 43.5183411   1.710929522E-18
 43.6453743   1.713575466E-18
 43.7724037   1.715725309E-18
 43.899437   1.717210098E-18
 44.0264702   1.717861606E-18
 44.1535034   1.717523806E-18
 44.2805367   1.716062281E-18
 44.4075699   1.713375909E-18
 44.5345993   1.709409991E-18
 44.6616325   1.704165666E-18
 44.7886658   1.697715105E-18
 44.915699   1.690210095E-18
 45.0427322   1.681889692E-18
 45.1697655   1.673085285E-18
 45.2967987   1.664221838E-18
 45.4238281   1.655810963E-18
 45.5508614   1.648444712E-18
 45.6778946   1.642774803E-18
 45.8049278   1.639492757E-18
 45.9319611   1.639299093E-18
 46.0589943   1.642867447E-18
 46.1860237   1.650803418E-18
 46.3130569   1.663600212E-18
 46.4400902   1.681588392E-18
 46.5671234   1.704887795E-18
 46.6941566   1.733362247E-18
 46.8211899   1.766576961E-18
 46.9482231   1.803764313E-18
 47.0752525   1.843804611E-18
 47.2022858   1.885214926E-18
 47.329319   1.926162228E-18
 47.4563522   1.964490262E-18
 47.5833855   1.997776217E-18
 47.7104187   2.02340496E-18
 47.8374481   2.038668924E-18
 47.9644814   2.040892799E-18
 48.0915146   2.027579534E-18
 48.2185478   1.996573289E-18
 48.3455811   1.946232525E-18
 48.4726143   1.875612187E-18
 48.5996475   1.78463969E-18
 48.7266769   1.674277563E-18
 48.8537102   1.546664584E-18
 48.9807434   1.405216389E-18
 49.1077766   1.25467872E-18
 49.2348099   1.101125978E-18
 49.3618431   9.518826394E-19
 49.4888725   8.153734365E-19
 49.6159058   7.008833162E-19
 49.742939   6.182352551E-19
 49.8699722   5.773815801E-19
 49.9970055   5.879179483E-19
 50.1240387   6.585288771E-19
 50.2510719   7.963876769E-19
 50.3781013   1.006529706E-18
 50.5051346   1.291223353E-18
 50.6321678   1.64937922E-18
 50.759201   2.07602833E-18
 50.8862343   2.561908638E-18
 51.0132675   3.093202403E-18
 51.1402969   3.651456879E-18
 51.2673302   4.213732073E-18
 51.3943634   4.752993448E-18
 51.5213966   5.238781733E-18
 51.6484299   5.638168521E-18
 51.7754631   5.916987117E-18
 51.9024925   6.041333043E-18
 52.0295258   5.979297392E-18
 52.156559   5.702878033E-18
 52.2835922   5.190009509E-18
 52.4106255   4.426621066E-18
 52.5376587   3.408626223E-18
 52.6646919   2.143736372E-18
 52.7917213   6.52975962E-19
 52.9187546   -1.028224379E-18
 53.0457878   -2.849473428E-18
 53.172821   -4.745518631E-18
 53.2998543   -6.637094576E-18
 53.4268875   -8.432595147E-18
 53.5539169   -1.003060966E-17
 53.6809502   -1.132333414E-17
 53.8079834   -1.220081974E-17
 53.9350166   -1.255597635E-17
 54.0620499   -1.229018998E-17
 54.1890831   -1.131939097E-17
 54.3161163   -9.580317346E-18
 54.4431458   -7.036706357E-18
 54.570179   -3.685106586E-18
 54.6972122   4.400408539E-19
 54.8242455   5.262402702E-18
 54.9512787   1.066118515E-17
 55.0783119   1.647033563E-17
 55.2053413   2.247979782E-17
 55.3323746   2.843907165E-17
 55.4594078   3.406320829E-17
 55.586441   3.904133011E-17
 55.7134743   4.304759743E-17
 55.8405075   4.575444672E-17
 55.9675407   4.684777766E-17
 56.0945702   4.60436423E-17
 56.2216034   4.310584087E-17
 56.3486366   3.786369954E-17
 56.4756699   3.022922615E-17
 56.6027031   2.021270255E-17
 56.7297363   7.935818596E-18
 56.8567657   -6.358675508E-18
 56.983799   -2.230166613E-17
 57.1108322   -3.93975968E-17
 57.2378654   -5.703028497E-17
 57.3648987   -7.447516013E-17
 57.4919319   -9.091816075E-17
 57.6189651   -1.054813438E-16
 57.7459946   -1.172547577E-16
 57.8730278   -1.253340358E-16
 58.000061   -1.288625633E-16
 58.1270943   -1.270769252E-16
 58.2541275   -1.193538244E-16
 58.3811607   -1.052566551E-16
 58.5081902   -8.457928381E-17
 58.6352234   -5.738485429E-17
 58.7622566   -2.403706293E-17
 58.8892899   1.477840386E-17
 59.0163231   5.804451428E-17
 59.1433563   1.04417477E-16
 59.2703896   1.522468798E-16
 59.397419   1.996121417E-16
 59.5244522   2.443758874E-16
 59.6514854   2.842532457E-16
 59.7785187   3.168967043E-16
 59.9055519   3.399934399E-16
 60.0325851   3.513728246E-16
 60.1596146   3.491202729E-16
 60.2866478   3.316929141E-16
 60.413681   2.980317453E-16
 60.5407143   2.476654193E-16
 60.6677475   1.807993017E-16
 60.7947807   9.838454442E-17
 60.921814   2.161480223E-18
 61.0488434   -1.053273492E-16
 61.1758766   -2.207583854E-16
 61.3029099   -3.400857665E-16
 61.4299431   -4.58638536E-16
 61.5569763   -5.712566485E-16
 61.6840096   -6.724634802E-16
 61.811039   -7.566712607E-16
 61.9380722   -8.184138215E-16
 62.0651054   -8.525989596E-16
 62.1921387   -8.547712285E-16
 62.3191719   -8.213747311E-16
 62.4462051   -7.500035761E-16
 62.5732384   -6.396280363E-16
 62.7002678   -4.907838069E-16
 62.827301   -3.057114225E-16
 62.9543343   -8.84355535E-17
 63.0813675   1.552267418E-16
 63.2084007   4.177351561E-16
 63.335434   6.899783216E-16
 63.4624634   9.615105089E-16
 63.5894966   1.220869668E-15
 63.7165298   1.45597245E-15
 63.8435631   1.654575101E-15
 63.9705963   1.804786441E-15
 64.0976257   1.895614631E-15
 64.2246628   1.917529491E-15
 64.3516922   1.86301191E-15
 64.4787292   1.72707138E-15
 64.6057587   1.507698635E-15
 64.7327881   1.206233045E-15
 64.8598251   8.276175757E-16
 64.9868546   3.805197842E-16
 65.1138916   -1.22697884E-16
 65.240921   -6.661724607E-16
 65.3679581   -1.230904679E-15
 65.4949875   -1.79529332E-15
 65.6220169   -2.335831207E-15
 65.749054   -2.827946338E-15
 65.8760834   -3.246966549E-15
 66.0031204   -3.569170258E-15
 66.1301498   -3.772892694E-15
 66.2571869   -3.839634655E-15
 66.3842163   -3.755134224E-15
 66.5112457   -3.510343185E-15
 66.6382828   -3.102261769E-15
 66.7653122   -2.534580076E-15
 66.8923492   -1.818082318E-15
 67.0193787   -9.707741906E-16
 67.1464081   -1.77064214E-17
 67.2734451   1.009524995E-15
 67.4004745   2.073608229E-15
 67.5275116   3.132663264E-15
 67.654541   4.141685333E-15
 67.7815781   5.05424602E-15
 67.9086075   5.824394633E-15
 68.0356369   6.40869956E-15
 68.162674   6.768337891E-15
 68.2897034   6.871164302E-15
 68.4167404   6.693643137E-15
 68.5437698   6.222566611E-15
 68.6708069   5.456453686E-15
 68.7978363   4.406541101E-15
 68.9248657   3.097302391E-15
 69.0519028   1.566414324E-15
 69.1789322   -1.35856607E-16
 69.3059692   -1.94787847E-15
 69.4329987   -3.7984769E-15
 69.5600357   -5.609329156E-15
 69.6870651   -7.297864773E-15
 69.8140945   -8.780593406E-15
 69.9411316   -9.976734371E-15
 70.068161   -1.081202151E-14
 70.1951981   -1.122252756E-14
 70.3222275   -1.11583394E-14
 70.4492569   -1.058689032E-14
 70.5762939   -9.495819556E-15
 70.7033234   -7.895138197E-15
 70.8303604   -5.818596269E-15
 70.9573898   -3.324095675E-15
 71.0844269   -4.930682548E-16
 71.2114563   2.571246227E-15
 71.3384857   5.746623033E-15
 71.4655228   8.895756852E-15
 71.5925522   1.187115744E-14
 71.7195892   1.45208891E-14
 71.8466187   1.669499567E-14
 71.9736557   1.825236739E-14
 72.1006851   1.90677789E-14
 72.2277145   1.903883409E-14
 72.3547516   1.809246959E-14
 72.481781   1.619072647E-14
 72.6088181   1.333546819E-14
 72.7358475   9.57174166E-15
 72.8628845   4.989562772E-15
 72.9899139   -2.761350172E-16
 73.1169434   -6.047480242E-15
 73.2439804   -1.210769478E-14
 73.3710098   -1.820712736E-14
 73.4980469   -2.407124149E-14
 73.6250763   -2.941032224E-14
 73.7521057   -3.393068636E-14
 73.8791428   -3.734702096E-14
 74.0061722   -3.939538718E-14
 74.1332092   -3.984647966E-14
 74.2602386   -3.85185014E-14
 74.3872757   -3.528919168E-14
 74.5143051   -3.010634954E-14
 74.6413345   -2.299635159E-14
 74.7683716   -1.407013713E-14
 74.895401   -3.526170843E-15
 75.022438   8.349918657E-15
 75.1494675   2.118932369E-14
 75.2765045   3.454776002E-14
 75.4035339   4.791693165E-14
 75.5305634   6.073947904E-14
 75.6576004   7.242726655E-14
 75.7846298   8.238231603E-14
 75.9116669   9.001999179E-14
 76.0386963   9.479352389E-14
 76.1657333   9.621909389E-14
 76.2927628   9.390050044E-14
 76.4197922   8.755242218E-14
 76.5468292   7.702132253E-14
 76.6738586   6.230286469E-14
 76.8008957   4.355504401E-14
 76.9279251   2.110613828E-14
 77.0549545   -4.543242054E-15
 77.1819916   -3.272445384E-14
 77.309021   -6.26118352E-14
 77.436058   -9.32405127E-14
 77.5630875   -1.235308513E-13
 77.6901245   -1.523190482E-13
 77.8171539   -1.78393338E-13
 77.9441833   -2.005345895E-13
 78.0712204   -2.175605887E-13
 78.1982498   -2.283721443E-13
 78.3252869   -2.319997493E-13
 78.4523163   -2.276491983E-13
 78.5793533   -2.147441567E-13
 78.7063828   -1.929643104E-13
 78.8334122   -1.62277025E-13
 78.9604492   -1.229613742E-13
 79.0874786   -7.562270851E-14
 79.2145157   -2.11969724E-14
 79.3415451   3.905622164E-14
 79.4685822   1.03572397E-13
 79.5956116   1.705127874E-13
 79.722641   2.378066006E-13
 79.849678   3.032041848E-13
 79.9767075   3.643402312E-13
 80.1037445   4.188048291E-13
 80.2307739   4.642218142E-13
 80.3578033   4.983303267E-13
 80.4848404   5.190689458E-13
 80.6118698   5.246587127E-13
 80.7389069   5.136821415E-13
 80.8659363   4.851554813E-13
 80.9929733   4.38592603E-13
 81.1200027   3.740551705E-13
 81.2470322   2.921898021E-13
 81.3740692   1.942476941E-13
 81.5010986   8.208647114E-14
 81.6281357   -4.184751029E-14
 81.7551651   -1.745568073E-13
 81.8822021   -3.125505768E-13
 82.0092316   -4.519215134E-13
 82.136261   -5.884409171E-13
 82.263298   -7.176698472E-13
 82.3903275   -8.35083413E-13
 82.5173645   -9.362064075E-13
 82.6443939   -1.016754281E-12
 82.771431   -1.072778476E-12
 82.8984604   -1.100809114E-12
 83.0254898   -1.097991489E-12
 83.1525269   -1.062212709E-12
 83.2795563   -9.922123886E-13
 83.4065933   -8.876744825E-13
 83.5336227   -7.492960245E-13
 83.6606522   -5.78828218E-13
 83.7876892   -3.790893923E-13
 83.9147186   -1.539459071E-13
 84.0417557   9.173917051E-14
 84.1687851   3.521902279E-13
 84.2958221   6.208347638E-13
 84.4228516   8.904499317E-13
 84.549881   1.153335457E-12
 84.676918   1.401511285E-12
 84.8039474   1.626933289E-12
 84.9309845   1.821723761E-12
 85.0580139   1.978407672E-12
 85.185051   2.09015227E-12
 85.3120804   2.15099878E-12
 85.4391098   2.156081303E-12
 85.5661469   2.101826742E-12
 85.6931763   1.986125457E-12
 85.8202133   1.808471992E-12
 85.9472427   1.570062656E-12
 86.0742722   1.273853419E-12
 86.2013092   9.245672804E-13
 86.3283386   5.286535099E-13
 86.4553757   9.419529501E-14
 86.5824051   -3.692329645E-13
 86.7094421   -8.507576696E-13
 86.8364716   -1.338443462E-12
 86.963501   -1.819570319E-12
 87.090538   -2.280946916E-12
 87.2175674   -2.709249275E-12
 87.3446045   -3.091378499E-12
 87.4716339   -3.414827449E-12
 87.598671   -3.668046335E-12
 87.7257004   -3.840795737E-12
 87.8527298   -3.9244814E-12
 87.9797668   -3.912449358E-12
 88.1067963   -3.80024831E-12
 88.2338333   -3.585834971E-12
 88.3608627   -3.2697226E-12
 88.4878998   -2.855068395E-12
 88.6149292   -2.347688233E-12
 88.7419586   -1.756003437E-12
 88.8689957   -1.090914034E-12
 88.9960251   -3.656040585E-13
 89.1230621   4.047217748E-13
 89.2500916   1.203160618E-12
 89.377121   2.011487548E-12
 89.504158   2.810574906E-12
 89.6311874   3.580847207E-12
 89.7582245   4.302752599E-12
 89.8852539   4.957250322E-12
 90.012291   5.526286893E-12
 90.1393204   5.993259708E-12
 90.2663498   6.343448336E-12
 90.3933868   6.564407004E-12
 90.5204163   6.646301565E-12
 90.6474533   6.582189654E-12
 90.7744827   6.368227126E-12
 90.9015198   6.00380726E-12
 91.0285492   5.491618011E-12
 91.1555786   4.837625092E-12
 91.2826157   4.05097917E-12
 91.4096451   3.143849764E-12
 91.5366821   2.131194743E-12
 91.6637115   1.03046998E-12
 91.7907486   -1.387099257E-13
 91.917778   -1.354952608E-12
 92.0448074   -2.595494566E-12
 92.1718445   -3.836630666E-12
 92.2988739   -5.05414547E-12
 92.4259109   -6.223750248E-12
 92.5529404   -7.32149931E-12
 92.6799698   -8.324193765E-12
 92.8070068   -9.209757956E-12
 92.9340363   -9.957586838E-12
 93.0610733   -1.054885693E-11
 93.1881027   -1.096680906E-11
 93.3151398   -1.119699299E-11
 93.4421692   -1.122748422E-11
 93.5691986   -1.104907572E-11
 93.6962357   -1.065543487E-11
 93.8232651   -1.004325269E-11
 93.9503021   -9.21237045E-12
 94.0773315   -8.165895911E-12
 94.2043686   -6.910302625E-12
 94.331398   -5.455529258E-12
 94.4584274   -3.81505938E-12
 94.5854645   -2.005988908E-12
 94.7124939   -4.907557786E-14
 94.8395309   2.03124453E-12
 94.9665604   4.206873131E-12
 95.0935974   6.446115777E-12
 95.2206268   8.713813525E-12
 95.3476563   1.097154399E-11
 95.4746933   1.317791015E-11
 95.6017227   1.528893852E-11
 95.7287598   1.725857304E-11
 95.8557892   1.903930139E-11
 95.9828186   2.058289129E-11
 96.1098557   2.184126491E-11
 96.2368851   2.276747887E-11
 96.3639221   2.33168207E-11
 96.4909515   2.344799008E-11
 96.6179886   2.312435486E-11
 96.745018   2.231525208E-11
 96.8720474   2.099729592E-11
 96.9990845   1.915564929E-11
 97.1261139   1.678524507E-11
 97.2531509   1.389187029E-11
 97.3801804   1.049310552E-11
 97.5072174   6.619056431E-12
 97.6342468   2.312832651E-12
 97.7612762   -2.369258869E-12
 97.8883133   -7.357838297E-12
 98.0153427   -1.257093214E-11
 98.1423798   -1.791482067E-11
 98.2694092   -2.32852574E-11
 98.3964462   -2.856906725E-11
 98.5234756   -3.36460998E-11
 98.6505051   -3.839151219E-11
 98.7775421   -4.267836778E-11
 98.9045715   -4.63804585E-11
 99.0316086   -4.937531287E-11
 99.158638   -5.154735319E-11
 99.2856674   -5.279104237E-11
 99.4127045   -5.301405495E-11
 99.5397339   -5.214024004E-11
 99.6667709   -5.011246973E-11
 99.7938004   -4.689510238E-11
 99.9208374   -4.24761476E-11
 100.047867   -3.686892111E-11
 100.174896   -3.011326258E-11
 100.301933   -2.227615141E-11
 100.428963   -1.345174926E-11
 100.556   -3.760825852E-12
 100.683029   6.650431941E-12
 100.810066   1.761223459E-11
 100.937096   2.893354827E-11
 101.064125   4.040505777E-11
 101.191162   5.18026004E-11
 101.318192   6.289097021E-11
 101.445229   7.342819408E-11
 101.572258   8.316995703E-11
 101.699295   9.187432065E-11
 101.826324   9.930644501E-11
 101.953354   1.052433973E-10
 102.080391   1.094788218E-10
 102.20742   1.118274917E-10
 102.334457   1.121296181E-10
 102.461487   1.10254833E-10
 102.588516   1.061058463E-10
 102.715553   9.962165815E-11
 102.842583   9.078032076E-11
 102.96962   7.960126308E-11
 103.096649   6.614696291E-11
 103.223686   5.052423757E-11
 103.350716   3.288484762E-11
 103.477745   1.34255931E-11
 103.604782   -7.612251107E-12
 103.731812   -2.994407847E-11
 103.858849   -5.324375316E-11
 103.985878   -7.714608813E-11
 104.112915   -1.012499945E-10
 104.239944   -1.251223569E-10
 104.366974   -1.48302759E-10
 104.494011   -1.703087948E-10
 104.62104   -1.906424324E-10
 104.748077   -2.087970491E-10
 104.875107   -2.242653285E-10
 105.002144   -2.365480312E-10
 105.129173   -2.451634729E-10
 105.256203   -2.496579055E-10
 105.38324   -2.496162721E-10
 105.510269   -2.446737257E-10
 105.637306   -2.345273142E-10
 105.764336   -2.189479292E-10
 105.891365   -1.977921438E-10
 106.018402   -1.710135644E-10
 106.145432   -1.386735726E-10
 106.272469   -1.009510184E-10
 106.399498   -5.815043932E-11
 106.526535   -1.070839771E-11
 106.653564   4.080220189E-11
 106.780594   9.567072135E-11
 106.907631   1.530500726E-10
 107.03466   2.119615039E-10
 107.161697   2.713029523E-10
 107.288727   3.298612494E-10
 107.415764   3.863281361E-10
 107.542793   4.393205244E-10
 107.669823   4.874043946E-10
 107.79686   5.291226901E-10
 107.923889   5.630265698E-10
 108.050926   5.877096032E-10
 108.177956   6.018442411E-10
 108.304985   6.04220507E-10
 108.432022   5.937848546E-10
 108.559052   5.696796923E-10
 108.686089   5.312813522E-10
 108.813118   4.782360064E-10
 108.940155   4.104928064E-10
 109.067184   3.283315564E-10
 109.194214   2.323858328E-10
 109.321251   1.236588193E-10
 109.44828   3.531744558E-12
 109.575317   -1.262365351E-10
 109.702347   -2.635188456E-10
 109.829384   -4.058391956E-10
 109.956413   -5.504025014E-10
 110.083443   -6.941341946E-10
 110.21048   -8.337305291E-10
 110.337509   -9.657180611E-10
 110.464546   -1.086521983E-9
 110.591576   -1.192542953E-9
 110.718613   -1.280240025E-9
 110.845642   -1.346218581E-9
 110.972672   -1.38732148E-9
 111.099709   -1.400721539E-9
 111.226738   -1.384012571E-9
 111.353775   -1.33529765E-9
 111.480804   -1.253270709E-9
 111.607834   -1.137290595E-9
 111.734871   -9.874443485E-10
 111.8619   -8.045974997E-10
 111.988937   -5.904293165E-10
 112.115967   -3.474519561E-10
 112.243004   -7.901031912E-11
 112.370033   2.107368169E-10
 112.497063   5.168561135E-10
 112.6241   8.336999979E-10
 112.751129   1.154986995E-9
 112.878166   1.473901334E-9
 113.005196   1.783212467E-9
 113.132233   2.075410954E-9
 113.259262   2.34285813E-9
 113.386292   2.577949409E-9
 113.513329   2.773286045E-9
 113.640358   2.921852094E-9
 113.767395   3.017194494E-9
 113.894424   3.053600039E-9
 114.021461   3.026267237E-9
 114.148491   2.931467735E-9
 114.27552   2.766691987E-9
 114.402557   2.530780474E-9
 114.529587   2.224027629E-9
 114.656624   1.848265319E-9
 114.783653   1.406914696E-9
 114.910683   9.050079575E-10
 115.03772   3.491781031E-10
 115.164749   -2.523875275E-10
 115.291786   -8.900273851E-10
 115.418816   -1.55272184E-9
 115.545853   -2.228242479E-9
 115.672882   -2.903334462E-9
 115.799911   -3.563930706E-9
 115.926949   -4.195392922E-9
 116.053978   -4.782776397E-9
 116.181015   -5.311114659E-9
 116.308044   -5.765720346E-9
 116.435081   -6.1324954E-9
 116.562111   -6.398245489E-9
 116.68914   -6.550992637E-9
 116.816177   -6.580281653E-9
 116.943207   -6.477468339E-9
 117.070244   -6.235993055E-9
 117.197273   -5.851625406E-9
 117.32431   -5.322675634E-9
 117.45134   -4.650171359E-9
 117.578369   -3.837991258E-9
 117.705406   -2.892948991E-9
 117.832436   -1.82483062E-9
 117.959473   -6.463790614E-10
 118.086502   6.267810715E-10
 118.213531   1.976272257E-9
 118.340569   3.381148028E-9
 118.467598   4.818136556E-9
 118.594635   6.261938967E-9
 118.721664   7.68557129E-9
 118.848701   9.060767248E-9
 118.975731   1.035841368E-8
 119.10276   1.154902751E-8
 119.229797   1.260326599E-8
 119.356827   1.349245782E-8
 119.483864   1.418914763E-8
 119.610893   1.46676582E-8
 119.73793   1.49046393E-8
 119.86496   1.487961576E-8
 119.991989   1.457550081E-8
 120.119026   1.397910054E-8
 120.246056   1.308155984E-8
 120.373093   1.187876464E-8
 120.500122   1.037169195E-8
 120.627159   8.566683363E-9
 120.754189   6.475652459E-9
 120.881218   4.116201602E-9
 121.008255   1.511658354E-9
 121.135284   -1.308986808E-9
 121.262321   -4.311235813E-9
 121.389351   -7.455343898E-9
 121.51638   -1.069667199E-8
 121.643417   -1.398615002E-8
 121.770447   -1.727082477E-8
 121.897484   -2.049452519E-8
 122.024513   -2.359858797E-8
 122.15155   -2.652268094E-8