  -2.09999990         0.00000000    
  -1.93499994         0.00000000    
  -1.76999998         0.00000000    
  -1.60500002        -6.64540080E-15
  -1.44000006        -1.38268904E-14
  -1.27499998         1.29829551E-13
  -1.11000001         1.10432822E-12
 -0.944999993         4.94162393E-12
 -0.779999971         1.65887651E-11
 -0.615000010         4.67207835E-11
 -0.449999988         1.16524512E-10
 -0.284999996         2.65116040E-10
 -0.119999997         5.59534419E-10
   4.50000018E-02     1.10544096E-09
  0.209999993         2.05348982E-09
  0.375000000         3.59222385E-09
  0.540000021         5.91490901E-09
  0.704999983         9.14783715E-09
  0.870000005         1.32345663E-08
   1.03499997         1.77864585E-08
   1.20000005         2.19335146E-08
   1.36500001         2.42350566E-08
   1.52999997         2.27266668E-08
   1.69500005         1.51753721E-08
   1.86000001        -4.19997231E-10
   2.02500010        -2.51120724E-08
   2.19000006        -5.81845256E-08
   2.35500002        -9.64186881E-08
   2.51999998        -1.33681382E-07
   2.68499994        -1.61053322E-07
   2.84999990        -1.67634866E-07
   3.01500010        -1.42028057E-07
   3.18000007        -7.43313038E-08
   3.34500003         4.16644319E-08
   3.50999999         2.06479612E-07
   3.67499995         4.13562987E-07
   3.83999991         6.48857451E-07
   4.00500011         8.91501884E-07
   4.17000008         1.11566271E-06
   4.33500004         1.29328873E-06
   4.50000000         1.39741314E-06
   4.66499996         1.40552322E-06
   4.82999992         1.30250055E-06
   4.99499989         1.08271638E-06
   5.15999985         7.51033326E-07
   5.32499981         3.22678318E-07
   5.48999977        -1.77837379E-07
   5.65500021        -7.18439765E-07
   5.82000017        -1.26151974E-06
   5.98500013        -1.76604192E-06
   6.15000010        -2.18970376E-06
   6.31500006        -2.49132745E-06
   6.48000002        -2.63377683E-06
   6.64499998        -2.58763544E-06
   6.80999994        -2.33560672E-06
   6.97499990        -1.87718626E-06
   7.13999987        -1.23270593E-06
   7.30499983        -4.45552246E-07
   7.46999979         4.18637853E-07
   7.63500023         1.27661576E-06
   7.80000019         2.03606533E-06
   7.96500015         2.60718775E-06
   8.13000011         2.91556398E-06
   8.29500008         2.91395054E-06
   8.46000004         2.59059470E-06
   8.62500000         1.97217832E-06
   8.78999996         1.12054749E-06
   8.95499992         1.23687400E-07
   9.11999989        -9.17343073E-07
   9.28499985        -1.90292837E-06
   9.44999981        -2.74801073E-06
   9.61499977        -3.39135295E-06
   9.77999973        -3.79945936E-06
   9.94499969        -3.96490987E-06
   10.1099997        -3.90009109E-06
   10.2749996        -3.62821424E-06
   10.4399996        -3.17391277E-06
   10.6049995        -2.55559371E-06
   10.7700005        -1.78112100E-06
   10.9350004        -8.47586875E-07
   11.1000004         2.54967148E-07
   11.2650003         1.53676183E-06
   11.4300003         2.99977114E-06
   11.5950003         4.62899652E-06
   11.7600002         6.38491929E-06
   11.9250002         8.19822526E-06
   12.0900002         9.96756717E-06
   12.2550001         1.15608700E-05
   12.4200001         1.28205238E-05
   12.5850000         1.35728005E-05
   12.7500000         1.36417257E-05
   12.9150000         1.28673873E-05
   13.0799999         1.11280378E-05
   13.2449999         8.36436902E-06
   13.4099998         4.60310730E-06
   13.5749998        -2.40873224E-08
   13.7399998        -5.27106204E-06
   13.9049997        -1.07813539E-05
   14.0699997        -1.61091139E-05
   14.2349997        -2.07572975E-05
   14.3999996        -2.42304777E-05
   14.5649996        -2.60963952E-05
   14.7299995        -2.60478009E-05
   14.8950005        -2.39549026E-05
   15.0600004        -1.98993021E-05
   15.2250004        -1.41824521E-05
   15.3900003        -7.30541387E-06
   15.5550003         7.89694568E-08
   15.7200003         7.23604444E-06
   15.8850002         1.34325110E-05
   16.0499992         1.80218012E-05
   16.2150002         2.05203669E-05
   16.3799992         2.06650311E-05
   16.5450001         1.84443288E-05
   16.7099991         1.41005348E-05
   16.8750000         8.10297570E-06
   17.0400009         1.09680491E-06
   17.2049999        -6.16584384E-06
   17.3700008        -1.29038708E-05
   17.5349998        -1.83855464E-05
   17.7000008        -2.19990598E-05
   17.8649998        -2.33087630E-05
   18.0300007        -2.20925594E-05
   18.1949997        -1.83582561E-05
   18.3600006        -1.23386244E-05
   18.5249996        -4.46683407E-06
   18.6900005         4.66471784E-06
   18.8549995         1.43581674E-05
   19.0200005         2.38717203E-05
   19.1849995         3.24837456E-05
   19.3500004         3.95539100E-05
   19.5149994         4.45758269E-05
   19.6800003         4.72161882E-05
   19.8449993         4.73363143E-05
   20.0100002         4.49937907E-05
   20.1749992         4.04240236E-05
   20.3400002         3.40041915E-05
   20.5049992         2.62042631E-05
   20.6700001         1.75317127E-05
   20.8349991         8.47710180E-06
   21.0000000        -5.32824231E-07
   21.1650009        -9.16923909E-06
   21.3299999        -1.72197761E-05
   21.4950008        -2.45910760E-05
   21.6599998        -3.12972261E-05
   21.8250008        -3.74375959E-05
   21.9899998        -4.31685476E-05
   22.1550007        -4.86736753E-05
   22.3199997        -5.41368208E-05
   22.4850006        -5.97212129E-05
   22.6499996        -6.55567492E-05
   22.8150005        -7.17358926E-05
   22.9799995        -7.83169962E-05
   23.1450005        -8.53326928E-05
   23.3099995        -9.27998117E-05
   23.4750004        -1.00727608E-04
   23.6399994        -1.09121494E-04
   23.8050003        -1.17980991E-04
   23.9699993        -1.27292180E-04
   24.1350002        -1.37016366E-04
   24.2999992        -1.47077473E-04
   24.4650002        -1.57350878E-04
   24.6299992        -1.67655919E-04
   24.7950001        -1.77753405E-04
   24.9599991        -1.87349287E-04
   25.1250000        -1.96104593E-04
   25.2900009        -2.03651973E-04
   25.4549999        -2.09618869E-04
   25.6200008        -2.13656400E-04
   25.7849998        -2.15472523E-04
   25.9500008        -2.14866042E-04
   26.1149998        -2.11756895E-04
   26.2800007        -2.06207027E-04
   26.4449997        -1.98426656E-04
   26.6100006        -1.88761944E-04
   26.7749996        -1.77663169E-04
   26.9400005        -1.65635967E-04
   27.1049995        -1.53181711E-04
   27.2700005        -1.40735996E-04
   27.4349995        -1.28615240E-04
   27.6000004        -1.16980882E-04
   27.7649994        -1.05828003E-04
   27.9300003        -9.50014364E-05
   28.0949993        -8.42375302E-05
   28.2600002        -7.32251065E-05
   28.4249992        -6.16755715E-05
   28.5900002        -4.93898624E-05
   28.7549992        -3.63103682E-05
   28.9200001        -2.25482327E-05
   29.0849991        -8.38089727E-06
   29.2500000         5.77961555E-06
   29.4150009         1.94416116E-05
   29.5799999         3.21012631E-05
   29.7450008         4.33099558E-05
   29.9099998         5.27291959E-05
   30.0750008         6.01640313E-05
   30.2399998         6.55711410E-05
   30.4050007         6.90433808E-05
   30.5699997         7.07775980E-05
   30.7350006         7.10350505E-05
   30.8999996         7.01039826E-05
   31.0650005         6.82712998E-05
   31.2299995         6.58064018E-05
   31.3950005         6.29558272E-05
   31.5599995         5.99442974E-05
   31.7250004         5.69765034E-05
   31.8899994         5.42348425E-05
   32.0550003         5.18706765E-05
   32.2200012         4.99896996E-05
   32.3849983         4.86346471E-05
   32.5499992         4.77699577E-05
   32.7150002         4.72730280E-05
   32.8800011         4.69355764E-05
   33.0449982         4.64767763E-05
   33.2099991         4.55674854E-05
   33.3750000         4.38632123E-05
   33.5400009         4.10415741E-05
   33.7050018         3.68390938E-05
   33.8699989         3.10816722E-05
   34.0349998         2.37035838E-05
   34.2000008         1.47510864E-05
   34.3650017         4.36940900E-06
   34.5299988        -7.22516779E-06
   34.6949997        -1.97830777E-05
   34.8600006        -3.30615730E-05
   35.0250015        -4.68587932E-05
   35.1899986        -6.10342940E-05
   35.3549995        -7.55116926E-05
   35.5200005        -9.02629617E-05
   35.6850014        -1.05278392E-04
   35.8499985        -1.20529294E-04
   36.0149994        -1.35932394E-04
   36.1800003        -1.51323780E-04
   36.3450012        -1.66448473E-04
   36.5099983        -1.80967720E-04
   36.6749992        -1.94482476E-04
   36.8400002        -2.06567944E-04
   37.0050011        -2.16812899E-04
   37.1699982        -2.24855365E-04
   37.3349991        -2.30408856E-04
   37.5000000        -2.33274084E-04
   37.6650009        -2.33335479E-04
   37.8300018        -2.30544523E-04
   37.9949989        -2.24895281E-04
   38.1599998        -2.16399421E-04
   38.3250008        -2.05068340E-04
   38.4900017        -1.90908569E-04
   38.6549988        -1.73933222E-04
   38.8199997        -1.54188252E-04
   38.9850006        -1.31788096E-04
   39.1500015        -1.06952502E-04
   39.3149986        -8.00349153E-05
   39.4799995        -5.15347274E-05
   39.6450005        -2.20884231E-05
   39.8100014         7.56040481E-06
   39.9749985         3.66079548E-05
   40.1399994         6.42461091E-05
   40.3050003         8.97181162E-05
   40.4700012         1.12365531E-04
   40.6349983         1.31660345E-04
   40.7999992         1.47220184E-04
   40.9650002         1.58808107E-04
   41.1300011         1.66321915E-04
   41.2949982         1.69778214E-04
   41.4599991         1.69297244E-04
   41.6250000         1.65091304E-04
   41.7900009         1.57457311E-04
   41.9550018         1.46771054E-04
   42.1199989         1.33479174E-04
   42.2849998         1.18084681E-04
   42.4500008         1.01123573E-04
   42.6150017         8.31330035E-05
   42.7799988         6.46149347E-05
   42.9449997         4.60016090E-05
   43.1100006         2.76307437E-05
   43.2750015         9.73695933E-06
   43.4399986        -7.53659924E-06
   43.6049995        -2.41072939E-05
   43.7700005        -3.99080855E-05
   43.9350014        -5.48381686E-05
   44.0999985        -6.87205902E-05
   44.2649994        -8.12778453E-05
   44.4300003        -9.21330211E-05
   44.5950012        -1.00839083E-04
   44.7599983        -1.06932319E-04
   44.9249992        -1.10000728E-04
   45.0900002        -1.09754066E-04
   45.2550011        -1.06081534E-04
   45.4199982        -9.90855115E-05
   45.5849991        -8.90846350E-05
   45.7500000        -7.65862060E-05
   45.9150009        -6.22345324E-05
   46.0800018        -4.67465907E-05
   46.2449989        -3.08486706E-05
   46.4099998        -1.52262191E-05
   46.5750008        -4.94882158E-07
   46.7400017         1.28053998E-05
   46.9049988         2.41982434E-05
   47.0699997         3.32506133E-05
   47.2350006         3.95572206E-05
   47.4000015         4.27410414E-05
   47.5649986         4.24767604E-05
   47.7299995         3.85369131E-05
   47.8950005         3.08521048E-05
   48.0600014         1.95702487E-05
   48.2249985         5.09602614E-06
   48.3899994        -1.19064034E-05
   48.5550003        -3.05581561E-05
   48.7200012        -4.98578338E-05
   48.8849983        -6.88089858E-05
   49.0499992        -8.65599941E-05
   49.2150002        -1.02527396E-04
   49.3800011        -1.16474184E-04
   49.5449982        -1.28522166E-04
   49.7099991        -1.39090916E-04
   49.8750000        -1.48771855E-04
   50.0400009        -1.58161245E-04
   50.2050018        -1.67686725E-04
   50.3699989        -1.77465015E-04
   50.5349998        -1.87224141E-04
   50.7000008        -1.96311143E-04
   50.8650017        -2.03789052E-04
   51.0299988        -2.08607846E-04
   51.1949997        -2.09817546E-04
   51.3600006        -2.06780649E-04
   51.5250015        -1.99338188E-04
   51.6899986        -1.87891303E-04
   51.8549995        -1.73375360E-04
   52.0200005        -1.57125498E-04
   52.1850014        -1.40655698E-04
   52.3499985        -1.25392922E-04
   52.5149994        -1.12419562E-04
   52.6800003        -1.02277241E-04
   52.8450012        -9.48735906E-05
   53.0099983        -8.95123740E-05
   53.1749992        -8.50412180E-05
   53.3400002        -8.00864873E-05
   53.5050011        -7.33265042E-05
   53.6699982        -6.37469057E-05
   53.8349991        -5.08268568E-05
   54.0000000        -3.46206725E-05
   54.1650009        -1.57224422E-05
   54.3300018         4.87341595E-06
   54.4949989         2.59809640E-05
   54.6599998         4.64522163E-05
   54.8250008         6.53758616E-05
   54.9900017         8.22022994E-05
   55.1549988         9.67704837E-05
   55.3199997         1.09236113E-04
   55.4850006         1.19924523E-04
   55.6500015         1.29150154E-04
   55.8149986         1.37052572E-04
   55.9799995         1.43494442E-04
   56.1450005         1.48050647E-04
   56.3100014         1.50094085E-04
   56.4749985         1.48957493E-04
   56.6399994         1.44130609E-04
   56.8050003         1.35441020E-04
   56.9700012         1.23170743E-04
   57.1349983         1.08075263E-04
   57.2999992         9.12963660E-05
   57.4650002         7.41857293E-05
   57.6300011         5.80786254E-05
   57.7949982         4.40688818E-05
   57.9599991         3.28354508E-05
   58.1250000         2.45577157E-05
   58.2900009         1.89342754E-05
   58.4550018         1.52944085E-05
   58.6199989         1.27694584E-05
   58.7849998         1.04783176E-05
   58.9500008         7.68110658E-06
   59.1150017         3.86710099E-06
   59.2799988        -1.23559425E-06
   59.4449997        -7.71730265E-06
   59.6100006        -1.55799735E-05
   59.7750015        -2.48260803E-05
   59.9399986        -3.55064876E-05
   60.1049995        -4.77061949E-05
   60.2700005        -6.14695891E-05
   60.4350014        -7.66892335E-05
   60.5999985        -9.29976013E-05
   60.7649994        -1.09704051E-04
   60.9300003        -1.25809514E-04
   61.0950012        -1.40110162E-04
   61.2599983        -1.51376065E-04
   61.4249992        -1.58567971E-04
   61.5900002        -1.61041127E-04
   61.7550011        -1.58685216E-04
   61.9199982        -1.51961547E-04
   62.0849991        -1.41822966E-04
   62.2500000        -1.29530352E-04
   62.4150009        -1.16405688E-04
   62.5800018        -1.03579157E-04
   62.7449989        -9.17908255E-05
   62.9099998        -8.12951039E-05
   63.0750008        -7.18912706E-05
   63.2400017        -6.30709765E-05
   63.4049988        -5.42428024E-05
   63.5699997        -4.49731670E-05
   63.7350006        -3.51772978E-05
   63.9000015        -2.52067621E-05
   64.0650024        -1.58073490E-05
   64.2300034        -7.95584856E-06
   64.3949966        -2.61709010E-06
   64.5599976        -4.84309567E-07
   64.7249985        -1.77101629E-06
   64.8899994        -6.10944790E-06
   65.0550003        -1.25838224E-05
   65.2200012        -1.98927846E-05
   65.3850021        -2.66038933E-05
   65.5500031        -3.14411773E-05
   65.7149963        -3.35396799E-05
   65.8799973        -3.26095360E-05
   66.0449982        -2.89738273E-05
   66.2099991        -2.34736162E-05
   66.3750000        -1.72634063E-05
   66.5400009        -1.15444336E-05
   66.7050018        -7.29582416E-06
   66.8700027        -5.06300557E-06
   67.0350037        -4.84866723E-06
   67.1999969        -6.12786835E-06
   67.3649979        -7.98080418E-06
   67.5299988        -9.31111390E-06
   67.6949997        -9.09981100E-06
   67.8600006        -6.63905485E-06
   68.0250015        -1.69665884E-06
   68.1900024         5.42078305E-06
   68.3550034         1.39150598E-05
   68.5199966         2.26392658E-05
   68.6849976         3.03029083E-05
   68.8499985         3.56950404E-05
   69.0149994         3.78803561E-05
   69.1800003         3.63317849E-05
   69.3450012         3.09785974E-05
   69.5100021         2.21679202E-05
   69.6750031         1.05560011E-05
   69.8399963        -3.04052082E-06
   70.0049973        -1.77963793E-05
   70.1699982        -3.29976465E-05
   70.3349991        -4.81052302E-05
   70.5000000        -6.27534027E-05
   70.6650009        -7.66922603E-05
   70.8300018        -8.96982747E-05
   70.9950027        -1.01485173E-04
   71.1600037        -1.11646630E-04
   71.3249969        -1.19653108E-04
   71.4899979        -1.24909711E-04
   71.6549988        -1.26864106E-04
   71.8199997        -1.25138831E-04
   71.9850006        -1.19653552E-04
   72.1500015        -1.10702800E-04
   72.3150024        -9.89634864E-05
   72.4800034        -8.54223763E-05
   72.6449966        -7.12325855E-05
   72.8099976        -5.75265694E-05
   72.9749985        -4.52256718E-05
   73.1399994        -3.48902358E-05
   73.3050003        -2.66472289E-05
   73.4700012        -2.02155225E-05
   73.6350021        -1.50253600E-05
   73.8000031        -1.04042128E-05
   73.9649963        -5.78243908E-06
   74.1299973        -8.64721017E-07
   74.2949982         4.27986924E-06
   74.4599991         9.23603056E-06
   74.6250000         1.33668063E-05
   74.7900009         1.60132658E-05
   74.9550018         1.67159906E-05
   75.1200027         1.53970886E-05
   75.2850037         1.24498247E-05
   75.4499969         8.70566146E-06
   75.6149979         5.27973089E-06
   75.7799988         3.32709328E-06
   75.9449997         3.76579601E-06
   76.1100006         7.03280466E-06
   76.2750015         1.29330301E-05
   76.4400024         2.06217992E-05
   76.6050034         2.87312432E-05
   76.7699966         3.56187775E-05
   76.9349976         3.96875730E-05
   77.0999985         3.97114891E-05
   77.2649994         3.50941009E-05
   77.4300003         2.60044599E-05
   77.5950012         1.33584599E-05
   77.7600021        -1.35151777E-06
   77.9250031        -1.63421719E-05
   78.0899963        -2.98779487E-05
   78.2549973        -4.05894352E-05
   78.4199982        -4.77041758E-05
   78.5849991        -5.11443068E-05
   78.7500000        -5.14768726E-05
   78.9150009        -4.97363799E-05
   79.0800018        -4.71659660E-05
   79.2450027        -4.49380896E-05
   79.4100037        -4.39151190E-05
   79.5749969        -4.44962243E-05
   79.7399979        -4.65744561E-05
   79.9049988        -4.96027278E-05
   80.0699997        -5.27455159E-05
   80.2350006        -5.50782825E-05
   80.4000015        -5.57913409E-05
   80.5650024        -5.43579881E-05
   80.7300034        -5.06372307E-05
   80.8949966        -4.48964965E-05
   81.0599976        -3.77558172E-05
   81.2249985        -3.00699412E-05
   81.3899994        -2.27753226E-05
   81.5550003        -1.67334729E-05
   81.7200012        -1.25999213E-05
   81.8850021        -1.07400838E-05
   82.0500031        -1.12016141E-05
   82.2149963        -1.37406678E-05
   82.3799973        -1.78896062E-05
   82.5449982        -2.30481855E-05
   82.7099991        -2.85796759E-05
   82.8750000        -3.38966311E-05
   83.0400009        -3.85263702E-05
   83.2050018        -4.21517361E-05
   83.3700027        -4.46272024E-05
   83.5350037        -4.59733128E-05
   83.6999969        -4.63541328E-05
   83.8649979        -4.60432821E-05
   84.0299988        -4.53842586E-05
   84.1949997        -4.47504208E-05
   84.3600006        -4.45085861E-05
   84.5250015        -4.49880172E-05
   84.6900024        -4.64544028E-05
   84.8550034        -4.90868042E-05
   85.0199966        -5.29558056E-05
   85.1849976        -5.80030828E-05
   85.3499985        -6.40257349E-05
   85.5149994        -7.06716673E-05
   85.6800003        -7.74530490E-05
   85.8450012        -8.37827829E-05
   86.0100021        -8.90339143E-05
   86.1750031        -9.26153589E-05
   86.3399963        -9.40515674E-05
   86.5049973        -9.30505557E-05
   86.6699982        -8.95456906E-05
   86.8349991        -8.37013067E-05
   87.0000000        -7.58797469E-05
   87.1650009        -6.65759071E-05
   87.3300018        -5.63323956E-05
   87.4950027        -4.56533780E-05
   87.6600037        -3.49357433E-05
   87.8249969        -2.44334788E-05
   87.9899979        -1.42642439E-05
   88.1549988        -4.45746900E-06
   88.3199997         4.96732946E-06
   88.4850006         1.39130070E-05
   88.6500015         2.21346363E-05
   88.8150024         2.92127024E-05
   88.9800034         3.45874687E-05
   89.1449966         3.76577518E-05
   89.3099976         3.79292069E-05
   89.4749985         3.51804047E-05
   89.6399994         2.96045964E-05
   89.8050003         2.18847072E-05
   89.9700012         1.31703491E-05
   90.1350021         4.94604046E-06
   90.3000031        -1.19481342E-06
   90.4649963        -3.83186534E-06
   90.6299973        -2.00081536E-06
   90.7949982         4.58231534E-06
   90.9599991         1.54073441E-05
   91.1250000         2.91984506E-05
   91.2900009         4.40892290E-05
   91.4550018         5.79185944E-05
   91.6200027         6.85952546E-05
   91.7850037         7.44616336E-05
   91.9499969         7.45845464E-05
   92.1149979         6.89117296E-05
   92.2799988         5.82591383E-05
   92.4449997         4.41287011E-05
   92.6100006         2.83931040E-05
   92.7750015         1.29142036E-05
   92.9400024        -8.22654442E-07
   93.1050034        -1.19790720E-05
   93.2699966        -2.04811276E-05
   93.4349976        -2.69613884E-05
   93.5999985        -3.25432375E-05
   93.7649994        -3.85205785E-05
   93.9300003        -4.60085903E-05
   94.0950012        -5.56456325E-05
   94.2600021        -6.74127368E-05
   94.4250031        -8.06094540E-05
   94.5899963        -9.39895617E-05
   94.7549973        -1.06025378E-04
   94.9199982        -1.15241812E-04
   95.0849991        -1.20546654E-04
   95.2500000        -1.21484380E-04
   95.4150009        -1.18356525E-04
   95.5800018        -1.12180176E-04
   95.7450027        -1.04491381E-04
   95.9100037        -9.70344117E-05
   96.0749969        -9.14043267E-05
   96.2399979        -8.87210044E-05
   96.4049988        -8.94061595E-05
   96.5699997        -9.31109025E-05
   96.7350006        -9.88069369E-05
   96.9000015        -1.05016996E-04
   97.0650024        -1.10130190E-04
   97.2300034        -1.12731359E-04
   97.3949966        -1.11874360E-04
   97.5599976        -1.07245316E-04
   97.7249985        -9.91886191E-05
   97.8899994        -8.85991030E-05
   98.0550003        -7.67106103E-05
   98.2200012        -6.48309942E-05
   98.3850021        -5.40810688E-05
   98.5500031        -4.51919768E-05
   98.7149963        -3.84004488E-05
   98.8799973        -3.34596589E-05
   99.0449982        -2.97571805E-05
   99.2099991        -2.65073450E-05
   99.3750000        -2.29683974E-05
   99.5400009        -1.86297693E-05
   99.7050018        -1.33236390E-05
   99.8700027        -7.23574749E-06
   100.035004        -8.18023011E-07
   100.199997         5.36795324E-06
   100.364998         1.08298336E-05
   100.529999         1.52946523E-05
   100.695000         1.87894402E-05
   100.860001         2.16324279E-05
   101.025002         2.43403592E-05
   101.190002         2.74796639E-05
   101.355003         3.15030193E-05
   101.519997         3.66152199E-05
   101.684998         4.27035047E-05
   101.849998         4.93508887E-05
   102.014999         5.59299624E-05
   102.180000         6.17544283E-05
   102.345001         6.62500242E-05
   102.510002         6.90993184E-05
   102.675003         7.03187252E-05
   102.839996         7.02407488E-05
   103.004997         6.93987386E-05
   103.169998         6.83383987E-05
   103.334999         6.74044932E-05
   103.500000         6.65631887E-05
   103.665001         6.53171446E-05
   103.830002         6.27490735E-05
   103.995003         5.76966631E-05
   104.160004         4.90247839E-05
   104.324997         3.59318474E-05
   104.489998         1.82130370E-05
   104.654999        -3.58985790E-06
   104.820000        -2.81973589E-05
   104.985001        -5.37679225E-05
   105.150002        -7.82083298E-05
   105.315002        -9.95541268E-05
   105.480003        -1.16337462E-04
   105.644997        -1.27859763E-04
   105.809998        -1.34306087E-04
   105.974998        -1.36670875E-04
   106.139999        -1.36506511E-04
   106.305000        -1.35546405E-04
   106.470001        -1.35284965E-04
   106.635002        -1.36610135E-04
   106.800003        -1.39575757E-04
   106.964996        -1.43371057E-04
   107.129997        -1.46499180E-04
   107.294998        -1.47127459E-04
   107.459999        -1.43529600E-04
   107.625000        -1.34517570E-04
   107.790001        -1.19763019E-04
   107.955002        -9.99344702E-05
   108.120003        -7.66207741E-05
   108.285004        -5.20598587E-05
   108.449997        -2.87349867E-05
   108.614998        -8.92656408E-06
   108.779999         5.68665200E-06
   108.945000         1.42978915E-05
   109.110001         1.70650328E-05
   109.275002         1.50142087E-05
   109.440002         9.78114349E-06
   109.605003         3.24853636E-06
   109.769997        -2.84282987E-06
   109.934998        -7.22797995E-06
   110.099998        -9.32831881E-06
   110.264999        -9.29851103E-06
   110.430000        -7.90611193E-06
   110.595001        -6.27860300E-06
   110.760002        -5.58229658E-06
   110.925003        -6.71155203E-06
   111.089996        -1.00611733E-05
   111.254997        -1.54312238E-05
   111.419998        -2.20788879E-05
   111.584999        -2.88959800E-05
   111.750000        -3.46626912E-05
   111.915001        -3.83148654E-05
   112.080002        -3.91649119E-05
   112.245003        -3.70321177E-05
   112.410004        -3.22622363E-05
   112.574997        -2.56403036E-05
   112.739998        -1.82221065E-05
   112.904999        -1.11233348E-05
   113.070000        -5.31132173E-06
   113.235001        -1.44160924E-06
   113.400002         2.29028331E-07
   113.565002        -1.61608952E-07
   113.730003        -2.17026854E-06
   113.894997        -5.19566174E-06
   114.059998        -8.64289177E-06
   114.224998        -1.20591631E-05
   114.389999        -1.52036582E-05
   114.555000        -1.80341976E-05
   114.720001        -2.06189943E-05
   114.885002        -2.30056248E-05
   115.050003        -2.50934609E-05
   115.214996        -2.65557956E-05
   115.379997        -2.68434651E-05
   115.544998        -2.52776754E-05
   115.709999        -2.12133509E-05
   115.875000        -1.42332237E-05
   116.040001        -4.32292290E-06
   116.205002         8.02016075E-06
   116.370003         2.17770066E-05
   116.535004         3.55074262E-05
   116.699997         4.75481102E-05
   116.864998         5.62736459E-05
   117.029999         6.03707704E-05
   117.195000         5.90702730E-05
   117.360001         5.22864793E-05
   117.525002         4.06307518E-05
   117.690002         2.52912196E-05
   117.855003         7.80035316E-06
   118.019997        -1.02607610E-05
   118.184998        -2.75558050E-05
   118.349998        -4.32164597E-05
   118.514999        -5.69433068E-05
   118.680000        -6.89612425E-05
   118.845001        -7.98428955E-05
   119.010002        -9.02469474E-05
   119.175003        -1.00640529E-04
   119.339996        -1.11079295E-04
   119.504997        -1.21104444E-04
   119.669998        -1.29786931E-04
   119.834999        -1.35912254E-04
   120.000000        -1.38263960E-04
   120.165001        -1.35938477E-04
   120.330002        -1.28614687E-04
   120.495003        -1.16709663E-04
   120.660004        -1.01376914E-04
   120.824997        -8.43390153E-05
   120.989998        -6.75851552E-05
   121.154999        -5.29969584E-05
   121.320000        -4.19848693E-05
   121.485001        -3.52177776E-05
   121.650002        -3.25088331E-05
   121.815002        -3.28854512E-05
   121.980003        -3.48289032E-05
   122.144997        -3.66291715E-05
   122.309998        -3.67738867E-05
   122.474998        -3.42825042E-05
   122.639999        -2.89106665E-05
   122.805000        -2.11808765E-05
   122.970001        -1.22366346E-05
   123.135002        -3.55786983E-06
   123.300003         3.39365147E-06
   123.464996         7.51621701E-06
   123.629997         8.31981833E-06
   123.794998         6.03284661E-06
   123.959999         1.54357690E-06
   124.125000        -3.80563392E-06
   124.290001        -8.52066751E-06
   124.455002        -1.12833650E-05
   124.620003        -1.12301859E-05
   124.785004        -8.12146391E-06
   124.949997        -2.36861638E-06
   125.114998         5.07891991E-06
   125.279999         1.29529753E-05
   125.445000         1.99356818E-05
   125.610001         2.49143486E-05
   125.775002         2.71670669E-05
   125.940002         2.64452101E-05
   126.105003         2.29467041E-05
   126.269997         1.72003729E-05
   126.434998         9.90010085E-06
   126.599998         1.73450189E-06
   126.764999        -6.74717012E-06
   126.930000        -1.52061466E-05
   127.095001        -2.35141506E-05
   127.260002        -3.16920305E-05
   127.425003        -3.98103075E-05
   127.589996        -4.78815928E-05
   127.754997        -5.57740823E-05
   127.919998        -6.31683070E-05
   128.085007        -6.95677591E-05
   128.250000        -7.43609708E-05
   128.414993        -7.69208054E-05
   128.580002        -7.67183810E-05
   128.744995        -7.34266287E-05
   128.910004        -6.69919609E-05
   129.074997        -5.76610291E-05
   129.240005        -4.59608164E-05
   129.404999        -3.26407971E-05
   129.570007        -1.85927693E-05
   129.735001        -4.76565856E-06
   129.899994         7.91094772E-06
   130.065002         1.85876761E-05
   130.229996         2.65408780E-05
   130.395004         3.12076518E-05
   130.559998         3.22160813E-05
   130.725006         2.94134206E-05
   130.889999         2.28902009E-05
   131.054993         1.29939162E-05
   131.220001         3.24256689E-07
   131.384995        -1.42968056E-05