  -2.09999990         0.00000000    
  -1.93499994         0.00000000    
  -1.76999998         0.00000000    
  -1.60500002        -1.08551634E-14
  -1.44000006        -4.67169367E-14
  -1.27499998        -4.35497992E-14
  -1.11000001         3.64152881E-13
 -0.944999993         2.31007422E-12
 -0.779999971         8.58987447E-12
 -0.615000010         2.52767425E-11
 -0.449999988         6.44249376E-11
 -0.284999996         1.48124055E-10
 -0.119999997         3.13639031E-10
   4.50000018E-02     6.18091245E-10
  0.209999993         1.13892706E-09
  0.375000000         1.96363548E-09
  0.540000021         3.16000182E-09
  0.704999983         4.71861084E-09
  0.870000005         6.46461196E-09
   1.03499997         7.94736277E-09
   1.20000005         8.33369196E-09
   1.36500001         6.34884234E-09
   1.52999997         3.21020377E-10
   1.69500005        -1.16180994E-08
   1.86000001        -3.11504280E-08
   2.02500010        -5.92275562E-08
   2.19000006        -9.54485415E-08
   2.35500002        -1.37498603E-07
   2.51999998        -1.80818489E-07
   2.68499994        -2.18661881E-07
   2.84999990        -2.42636560E-07
   3.01500010        -2.43725793E-07
   3.18000007        -2.13672649E-07
   3.34500003        -1.46515092E-07
   3.50999999        -4.00083913E-08
   3.67499995         1.03319017E-07
   3.83999991         2.75668043E-07
   4.00500011         4.64121740E-07
   4.17000008         6.51434618E-07
   4.33500004         8.17354248E-07
   4.50000000         9.40316113E-07
   4.66499996         9.99334134E-07
   4.82999992         9.75921012E-07
   4.99499989         8.55905057E-07
   5.15999985         6.31040507E-07
   5.32499981         3.00338655E-07
   5.48999977        -1.28948969E-07
   5.65500021        -6.40771589E-07
   5.82000017        -1.21024505E-06
   5.98500013        -1.80427139E-06
   6.15000010        -2.38294183E-06
   6.31500006        -2.90182265E-06
   6.48000002        -3.31512933E-06
   6.64499998        -3.57964223E-06
   6.80999994        -3.65903634E-06
   6.97499990        -3.52811503E-06
   7.13999987        -3.17632794E-06
   7.30499983        -2.60994489E-06
   7.46999979        -1.85241140E-06
   7.63500023        -9.42690235E-07
   7.80000019         6.82412704E-08
   7.96500015         1.12218436E-06
   8.13000011         2.15898376E-06
   8.29500008         3.12135421E-06
   8.46000004         3.95850202E-06
   8.62500000         4.62813796E-06
   8.78999996         5.09694883E-06
   8.95499992         5.34006676E-06
   9.11999989         5.34036008E-06
   9.28499985         5.08838411E-06
   9.44999981         4.58355407E-06
   9.61499977         3.83657289E-06
   9.77999973         2.87257330E-06
   9.94499969         1.73398314E-06
   10.1099997         4.81946984E-07
   10.2749996        -8.04679701E-07
   10.4399996        -2.03327932E-06
   10.6049995        -3.10425821E-06
   10.7700005        -3.91998128E-06
   10.9350004        -4.39477208E-06
   11.1000004        -4.46475133E-06
   11.2650003        -4.09636323E-06
   11.4300003        -3.29268869E-06
   11.5950003        -2.09687869E-06
   11.7600002        -5.92293134E-07
   11.9250002         1.10089616E-06
   12.0900002         2.83268992E-06
   12.2550001         4.43368981E-06
   12.4200001         5.72853332E-06
   12.5850000         6.55157919E-06
   12.7500000         6.76373747E-06
   12.9150000         6.26900555E-06
   13.0799999         5.02904049E-06
   13.2449999         3.07394930E-06
   13.4099998         5.07486163E-07
   13.5749998        -2.49493996E-06
   13.7399998        -5.69655731E-06
   13.9049997        -8.81810956E-06
   14.0699997        -1.15644470E-05
   14.2349997        -1.36565732E-05
   14.3999996        -1.48655336E-05
   14.5649996        -1.50435217E-05
   14.7299995        -1.41472547E-05
   14.8950005        -1.22492711E-05
   15.0600004        -9.53441031E-06
   15.2250004        -6.28095495E-06
   15.3900003        -2.82856240E-06
   15.5550003         4.62659102E-07
   15.7200003         3.25608244E-06
   15.8850002         5.27929797E-06
   16.0499992         6.35624383E-06
   16.2150002         6.42693294E-06
   16.3799992         5.55306860E-06
   16.5450001         3.90973764E-06
   16.7099991         1.76493995E-06
   16.8750000        -5.50376797E-07
   17.0400009        -2.67857376E-06
   17.2049999        -4.27444138E-06
   17.3700008        -5.04358513E-06
   17.5349998        -4.77634649E-06
   17.7000008        -3.37361348E-06
   17.8649998        -8.61378396E-07
   18.0300007         2.60803699E-06
   18.1949997         6.76855507E-06
   18.3600006         1.12653688E-05
   18.5249996         1.56894166E-05
   18.6900005         1.96173078E-05
   18.8549995         2.26524335E-05
   19.0200005         2.44634084E-05
   19.1849995         2.48167053E-05
   19.3500004         2.36009491E-05
   19.5149994         2.08407528E-05
   19.6800003         1.66981608E-05
   19.8449993         1.14604336E-05
   20.0100002         5.51395806E-06
   20.1749992        -6.93823949E-07
   20.3400002        -6.70028385E-06
   20.5049992        -1.20749983E-05
   20.6700001        -1.64615612E-05
   20.8349991        -1.96075471E-05
   21.0000000        -2.13788862E-05
   21.1650009        -2.17583492E-05
   21.3299999        -2.08309611E-05
   21.4950008        -1.87611622E-05
   21.6599998        -1.57664963E-05
   21.8250008        -1.20915165E-05
   21.9899998        -7.98337351E-06
   22.1550007        -3.66940071E-06
   22.3199997         6.63422725E-07
   22.4850006         4.88619435E-06
   22.6499996         8.94077039E-06
   22.8150005         1.28443153E-05
   22.9799995         1.66831705E-05
   23.1450005         2.05956676E-05
   23.3099995         2.47460775E-05
   23.4750004         2.92944478E-05
   23.6399994         3.43678948E-05
   23.8050003         4.00382196E-05
   23.9699993         4.63082433E-05
   24.1350002         5.31067963E-05
   24.2999992         6.02906512E-05
   24.4650002         6.76513446E-05
   24.6299992         7.49260071E-05
   24.7950001         8.18125991E-05
   24.9599991         8.79906584E-05
   25.1250000         9.31474860E-05
   25.2900009         9.70072870E-05
   25.4549999         9.93586000E-05
   25.6200008         1.00073354E-04
   25.7849998         9.91126653E-05
   25.9500008         9.65173313E-05
   26.1149998         9.23861007E-05
   26.2800007         8.68484858E-05
   26.4449997         8.00408743E-05
   26.6100006         7.20928074E-05
   26.7749996         6.31262228E-05
   26.9400005         5.32649901E-05
   27.1049995         4.26482984E-05
   27.2700005         3.14403987E-05
   27.4349995         1.98312409E-05
   27.6000004         8.02691557E-06
   27.7649994        -3.76715684E-06
   27.9300003        -1.53646615E-05
   28.0949993        -2.66133229E-05
   28.2600002        -3.74036899E-05
   28.4249992        -4.76722598E-05
   28.5900002        -5.74016085E-05
   28.7549992        -6.66199849E-05
   28.9200001        -7.54009161E-05
   29.0849991        -8.38608030E-05
   29.2500000        -9.21510145E-05
   29.4150009        -1.00441815E-04
   29.5799999        -1.08898465E-04
   29.7450008        -1.17653712E-04
   29.9099998        -1.26783343E-04
   30.0750008        -1.36291535E-04
   30.2399998        -1.46109916E-04
   30.4050007        -1.56109163E-04
   30.5699997        -1.66118407E-04
   30.7350006        -1.75945170E-04
   30.8999996        -1.85390454E-04
   31.0650005        -1.94257111E-04
   31.2299995        -2.02353956E-04
   31.3950005        -2.09500489E-04
   31.5599995        -2.15536798E-04
   31.7250004        -2.20339411E-04
   31.8899994        -2.23839757E-04
   32.0550003        -2.26038363E-04
   32.2200012        -2.27007913E-04
   32.3849983        -2.26881399E-04
   32.5499992        -2.25827054E-04
   32.7150002        -2.24016534E-04
   32.8800011        -2.21595357E-04
   33.0449982        -2.18663583E-04
   33.2099991        -2.15270324E-04
   33.3750000        -2.11420818E-04
   33.5400009        -2.07090139E-04
   33.7050018        -2.02236683E-04
   33.8699989        -1.96810332E-04
   34.0349998        -1.90753650E-04
   34.2000008        -1.83998607E-04
   34.3650017        -1.76463014E-04
   34.5299988        -1.68051236E-04
   34.6949997        -1.58661336E-04
   34.8600006        -1.48197869E-04
   35.0250015        -1.36587507E-04
   35.1899986        -1.23793812E-04
   35.3549995        -1.09828048E-04
   35.5200005        -9.47541048E-05
   35.6850014        -7.86872697E-05
   35.8499985        -6.17867699E-05
   36.0149994        -4.42425844E-05
   36.1800003        -2.62566227E-05
   36.3450012        -8.01938586E-06
   36.5099983         1.03159609E-05
   36.6749992         2.86582344E-05
   36.8400002         4.69965998E-05
   37.0050011         6.54069081E-05
   37.1699982         8.40420907E-05
   37.3349991         1.03104947E-04
   37.5000000         1.22806392E-04
   37.6650009         1.43314726E-04
   37.8300018         1.64705722E-04
   37.9949989         1.86923004E-04
   38.1599998         2.09757287E-04
   38.3250008         2.32848761E-04
   38.4900017         2.55712977E-04
   38.6549988         2.77784566E-04
   38.8199997         2.98470346E-04
   38.9850006         3.17201804E-04
   39.1500015         3.33478412E-04
   39.3149986         3.46896384E-04
   39.4799995         3.57162295E-04
   39.6450005         3.64093925E-04
   39.8100014         3.67612141E-04
   39.9749985         3.67728469E-04
   40.1399994         3.64529871E-04
   40.3050003         3.58161808E-04
   40.4700012         3.48809263E-04
   40.6349983         3.36677418E-04
   40.7999992         3.21974512E-04
   40.9650002         3.04901478E-04
   41.1300011         2.85651564E-04
   41.2949982         2.64420989E-04
   41.4599991         2.41427202E-04
   41.6250000         2.16927729E-04
   41.7900009         1.91232088E-04
   41.9550018         1.64700323E-04
   42.1199989         1.37726718E-04
   42.2849998         1.10712288E-04
   42.4500008         8.40325083E-05
   42.6150017         5.80071646E-05
   42.7799988         3.28767273E-05
   42.9449997         8.78623723E-06
   43.1100006        -1.42245317E-05
   43.2750015        -3.62257269E-05
   43.4399986        -5.73954931E-05
   43.6049995        -7.80075206E-05
   43.7700005        -9.84025246E-05
   43.9350014        -1.18941280E-04
   44.0999985        -1.39941505E-04
   44.2649994        -1.61607284E-04
   44.4300003        -1.83964527E-04
   44.5950012        -2.06816883E-04
   44.7599983        -2.29732919E-04
   44.9249992        -2.52069352E-04
   45.0900002        -2.73027836E-04
   45.2550011        -2.91737291E-04
   45.4199982        -3.07350128E-04
   45.5849991        -3.19139624E-04
   45.7500000        -3.26585781E-04
   45.9150009        -3.29438044E-04
   46.0800018        -3.27744900E-04
   46.2449989        -3.21844389E-04
   46.4099998        -3.12315009E-04
   46.5750008        -2.99894076E-04
   46.7400017        -2.85377784E-04
   46.9049988        -2.69521523E-04
   47.0699997        -2.52959377E-04
   47.2350006        -2.36155567E-04
   47.4000015        -2.19392372E-04
   47.5649986        -2.02790528E-04
   47.7299995        -1.86350619E-04
   47.8950005        -1.70003041E-04
   48.0600014        -1.53655419E-04
   48.2249985        -1.37231196E-04
   48.3899994        -1.20696677E-04
   48.5550003        -1.04076433E-04
   48.7200012        -8.74574325E-05
   48.8849983        -7.09824599E-05
   49.0499992        -5.48336502E-05
   49.2150002        -3.92088659E-05
   49.3800011        -2.42952847E-05
   49.5449982        -1.02455188E-05
   49.7099991         2.83956729E-06
   49.8750000         1.49200259E-05
   50.0400009         2.60197521E-05
   50.2050018         3.62264873E-05
   50.3699989         4.56908674E-05
   50.5349998         5.46236588E-05
   50.7000008         6.32868905E-05
   50.8650017         7.19739910E-05
   51.0299988         8.09774501E-05
   51.1949997         9.05483103E-05
   51.3600006         1.00858022E-04
   51.5250015         1.11975256E-04
   51.6899986         1.23867285E-04
   51.8549995         1.36426665E-04
   52.0200005         1.49514177E-04
   52.1850014         1.63001052E-04
   52.3499985         1.76793226E-04
   52.5149994         1.90826482E-04
   52.6800003         2.05033037E-04
   52.8450012         2.19291425E-04
   53.0099983         2.33377781E-04
   53.1749992         2.46936979E-04
   53.3400002         2.59484455E-04
   53.5050011         2.70440127E-04
   53.6699982         2.79187167E-04
   53.8349991         2.85142771E-04
   54.0000000         2.87829025E-04
   54.1650009         2.86932685E-04
   54.3300018         2.82346475E-04
   54.4949989         2.74185644E-04
   54.6599998         2.62775662E-04
   54.8250008         2.48608470E-04
   54.9900017         2.32271079E-04
   55.1549988         2.14357104E-04
   55.3199997         1.95379136E-04
   55.4850006         1.75702968E-04
   55.6500015         1.55521149E-04
   55.8149986         1.34872404E-04
   55.9799995         1.13700065E-04
   56.1450005         9.19300364E-05
   56.3100014         6.95440176E-05
   56.4749985         4.66278725E-05
   56.6399994         2.33857991E-05
   56.8050003         1.24194685E-07
   56.9700012        -2.27823803E-05
   57.1349983        -4.49292129E-05
   57.2999992        -6.59151701E-05
   57.4650002        -8.53719248E-05
   57.6300011        -1.02993821E-04
   57.7949982        -1.18572621E-04
   57.9599991        -1.32034576E-04
   58.1250000        -1.43469253E-04
   58.2900009        -1.53135028E-04
   58.4550018        -1.61429416E-04
   58.6199989        -1.68822735E-04
   58.7849998        -1.75766516E-04
   58.9500008        -1.82598087E-04
   59.1150017        -1.89464656E-04
   59.2799988        -1.96283712E-04
   59.4449997        -2.02745985E-04
   59.6100006        -2.08355894E-04
   59.7750015        -2.12499232E-04
   59.9399986        -2.14527376E-04
   60.1049995        -2.13849533E-04
   60.2700005        -2.10026410E-04
   60.4350014        -2.02855357E-04
   60.5999985        -1.92431951E-04
   60.7649994        -1.79169278E-04
   60.9300003        -1.63759309E-04
   61.0950012        -1.47072831E-04
   61.2599983        -1.30013228E-04
   61.4249992        -1.13356720E-04
   61.5900002        -9.76201773E-05
   61.7550011        -8.29923520E-05
   61.9199982        -6.93451366E-05
   62.0849991        -5.63170543E-05
   62.2500000        -4.34403373E-05
   62.4150009        -3.02741009E-05
   62.5800018        -1.65109450E-05
   62.7449989        -2.03932427E-06
   62.9099998         1.30395274E-05
   63.0750008         2.84303824E-05
   63.2400017         4.36867267E-05
   63.4049988         5.82694047E-05
   63.5699997         7.16181676E-05
   63.7350006         8.32330115E-05
   63.9000015         9.27567380E-05
   64.0650024         1.00042518E-04
   64.2300034         1.05186293E-04
   64.3949966         1.08508655E-04
   64.5599976         1.10484223E-04
   64.7249985         1.11633628E-04
   64.8899994         1.12406633E-04
   65.0550003         1.13087932E-04
   65.2200012         1.13748654E-04
   65.3850021         1.14250375E-04
   65.5500031         1.14292197E-04
   65.7149963         1.13482041E-04
   65.8799973         1.11413094E-04
   66.0449982         1.07733838E-04
   66.2099991         1.02207909E-04
   66.3750000         9.47646913E-05
   66.5400009         8.55388425E-05
   66.7050018         7.48912862E-05
   66.8700027         6.33999516E-05
   67.0350037         5.18104571E-05
   67.1999969         4.09465247E-05
   67.3649979         3.15931320E-05
   67.5299988         2.43762879E-05
   67.6949997         1.96663441E-05
   67.8600006         1.75251625E-05
   68.0250015         1.77040511E-05
   68.1900024         1.96859146E-05
   68.3550034         2.27564306E-05
   68.5199966         2.60887027E-05
   68.6849976         2.88312367E-05
   68.8499985         3.01953933E-05
   69.0149994         2.95412647E-05
   69.1800003         2.64579066E-05
   69.3450012         2.08274778E-05
   69.5100021         1.28579586E-05
   69.6750031         3.07015080E-06
   69.8399963        -7.76689012E-06
   70.0049973        -1.87444675E-05
   70.1699982        -2.89467789E-05
   70.3349991        -3.75804884E-05
   70.5000000        -4.40765325E-05
   70.6650009        -4.81482020E-05
   70.8300018        -4.98013796E-05
   70.9950027        -4.93025218E-05
   71.1600037        -4.71147832E-05
   71.3249969        -4.38136885E-05
   71.4899979        -3.99931378E-05
   71.6549988        -3.61733073E-05
   71.8199997        -3.27244488E-05
   71.9850006        -2.98222949E-05
   72.1500015        -2.74481208E-05
   72.3150024        -2.54372408E-05
   72.4800034        -2.35649586E-05
   72.6449966        -2.16445951E-05
   72.8099976        -1.96043675E-05
   72.9749985        -1.75144032E-05
   73.1399994        -1.55518137E-05
   73.3050003        -1.39147087E-05
   73.4700012        -1.27163948E-05
   73.6350021        -1.18995695E-05
   73.8000031        -1.12036641E-05
   73.9649963        -1.01991282E-05
   74.1299973        -8.37899006E-06
   74.2949982        -5.27997736E-06
   74.4599991        -5.99369969E-07
   74.6250000         5.71982127E-06
   74.7900009         1.34492420E-05
   74.9550018         2.20817128E-05
   75.1200027         3.08769122E-05
   75.2850037         3.89386041E-05
   75.4499969         4.53179164E-05
   75.6149979         4.91370556E-05
   75.7799988         4.97221845E-05
   75.9449997         4.67249411E-05
   76.1100006         4.02048609E-05
   76.2750015         3.06467991E-05
   76.4400024         1.89010480E-05
   76.6050034         6.05567129E-06
   76.7699966        -6.72748911E-06
   76.9349976        -1.83708253E-05
   77.0999985        -2.79958986E-05
   77.2649994        -3.49783295E-05
   77.4300003        -3.89509987E-05
   77.5950012        -3.97824151E-05
   77.7600021        -3.75594609E-05
   77.9250031        -3.25895744E-05
   78.0899963        -2.54142597E-05
   78.2549973        -1.68074275E-05
   78.4199982        -7.72846852E-06
   78.5849991         7.84747215E-07
   78.7500000         7.77099285E-06
   78.9150009         1.25114238E-05
   79.0800018         1.46572620E-05
   79.2450027         1.42797953E-05
   79.4100037         1.18288408E-05
   79.5749969         8.01598981E-06
   79.7399979         3.66055087E-06
   79.9049988        -4.59341834E-07
   80.0699997        -3.71997157E-06
   80.2350006        -5.71892360E-06
   80.4000015        -6.30140130E-06
   80.5650024        -5.55762426E-06
   80.7300034        -3.79792959E-06
   80.8949966        -1.50365292E-06
   81.0599976         7.51574476E-07
   81.2249985         2.40839472E-06
   81.3899994         3.03917454E-06
   81.5550003         2.44497573E-06
   81.7200012         6.97424070E-07
   81.8850021        -1.89580237E-06
   82.0500031        -4.89620561E-06
   82.2149963        -7.87594672E-06
   82.3799973        -1.05440495E-05
   82.5449982        -1.28099464E-05
   82.7099991        -1.47617984E-05
   82.8750000        -1.65717120E-05
   83.0400009        -1.83695829E-05
   83.2050018        -2.01377388E-05
   83.3700027        -2.16672524E-05
   83.5350037        -2.25887616E-05
   83.6999969        -2.24609175E-05
   83.8649979        -2.08807833E-05
   84.0299988        -1.75797795E-05
   84.1949997        -1.24832450E-05
   84.3600006        -5.73168154E-06
   84.5250015         2.32481148E-06
   84.6900024         1.11453683E-05
   84.8550034         2.00261802E-05
   85.0199966         2.81441553E-05
   85.1849976         3.46278939E-05
   85.3499985         3.86607862E-05
   85.5149994         3.96052928E-05
   85.6800003         3.71222777E-05
   85.8450012         3.12528027E-05
   86.0100021         2.24377072E-05
   86.1750031         1.14692220E-05
   86.3399963        -6.10057441E-07
   86.5049973        -1.26324539E-05
   86.6699982        -2.34268173E-05
   86.8349991        -3.19204446E-05
   87.0000000        -3.72208306E-05
   87.1650009        -3.86856336E-05
   87.3300018        -3.59866572E-05
   87.4950027        -2.91616889E-05
   87.6600037        -1.86348061E-05
   87.8249969        -5.18227262E-06
   87.9899979         1.01687874E-05
   88.1549988         2.62993890E-05
   88.3199997         4.21819605E-05
   88.4850006         5.70404081E-05
   88.6500015         7.04434206E-05
   88.8150024         8.23074879E-05
   88.9800034         9.28148438E-05
   89.1449966         1.02275531E-04
   89.3099976         1.10974222E-04
   89.4749985         1.19038152E-04
   89.6399994         1.26349085E-04
   89.8050003         1.32507717E-04
   89.9700012         1.36850445E-04
   90.1350021         1.38516640E-04
   90.3000031         1.36564195E-04
   90.4649963         1.30126544E-04
   90.6299973         1.18592303E-04
   90.7949982         1.01773039E-04
   90.9599991         8.00146445E-05
   91.1250000         5.42123125E-05
   91.2900009         2.57116026E-05
   91.4550018        -3.88874605E-06
   91.6200027        -3.29839677E-05
   91.7850037        -6.01964057E-05
   91.9499969        -8.45374598E-05
   92.1149979        -1.05468709E-04
   92.2799988        -1.22867190E-04
   92.4449997        -1.36927410E-04
   92.6100006        -1.48040941E-04
   92.7750015        -1.56685346E-04
   92.9400024        -1.63334800E-04
   93.1050034        -1.68389204E-04
   93.2699966        -1.72115411E-04
   93.4349976        -1.74602552E-04
   93.5999985        -1.75745532E-04
   93.7649994        -1.75274006E-04
   93.9300003        -1.72834232E-04
   94.0950012        -1.68108687E-04
   94.2600021        -1.60937168E-04
   94.4250031        -1.51395041E-04
   94.5899963        -1.39796932E-04
   94.7549973        -1.26623330E-04
   94.9199982        -1.12399684E-04
   95.0849991        -9.75759758E-05
   95.2500000        -8.24507952E-05
   95.4150009        -6.71590824E-05
   95.5800018        -5.17110857E-05
   95.7450027        -3.60486847E-05
   95.9100037        -2.00845116E-05
   96.0749969        -3.70936459E-06
   96.2399979         1.32195155E-05
   96.4049988         3.08785420E-05
   96.5699997         4.94379856E-05
   96.7350006         6.89767476E-05
   96.9000015         8.93762117E-05
   97.0650024         1.10237874E-04
   97.2300034         1.30867804E-04
   97.3949966         1.50346430E-04
   97.5599976         1.67667429E-04
   97.7249985         1.81902346E-04
   97.8899994         1.92340405E-04
   98.0550003         1.98569571E-04
   98.2200012         2.00493567E-04
   98.3850021         1.98304275E-04
   98.5500031         1.92437554E-04
   98.7149963         1.83528784E-04
   98.8799973         1.72364627E-04
   99.0449982         1.59812233E-04
   99.2099991         1.46709732E-04
   99.3750000         1.33722613E-04
   99.5400009         1.21198813E-04
   99.7050018         1.09073997E-04
   99.8700027         9.68743479E-05
   100.035004         8.38356500E-05
   100.199997         6.91158857E-05
   100.364998         5.20426474E-05
   100.529999         3.23230415E-05
   100.695000         1.01588448E-05
   100.860001        -1.37554971E-05
   101.025002        -3.83352271E-05
   101.190002        -6.22662337E-05
   101.355003        -8.41791916E-05
   101.519997        -1.02806596E-04
   101.684998        -1.17113705E-04
   101.849998        -1.26407016E-04
   102.014999        -1.30423097E-04
   102.180000        -1.29387277E-04
   102.345001        -1.24019760E-04
   102.510002        -1.15465824E-04
   102.675003        -1.05143139E-04
   102.839996        -9.45271750E-05
   103.004997        -8.49217467E-05
   103.169998        -7.72721978E-05
   103.334999        -7.20668104E-05
   103.500000        -6.93419061E-05
   103.665001        -6.87711217E-05
   103.830002        -6.97953510E-05
   103.995003        -7.17465373E-05
   104.160004        -7.39353272E-05
   104.324997        -7.56994632E-05
   104.489998        -7.64310098E-05
   104.654999        -7.56072186E-05
   104.820000        -7.28385276E-05
   104.985001        -6.79272271E-05
   105.150002        -6.09133422E-05
   105.315002        -5.20811664E-05
   105.480003        -4.19118624E-05
   105.644997        -3.09897841E-05
   105.809998        -1.98897706E-05
   105.974998        -9.08034508E-06
   106.139999         1.12990892E-06
   106.305000         1.05942390E-05
   106.470001         1.92892112E-05
   106.635002         2.72585366E-05
   106.800003         3.45612534E-05
   106.964996         4.12361587E-05
   107.129997         4.72823813E-05
   107.294998         5.26494041E-05
   107.459999         5.72319805E-05
   107.625000         6.08726696E-05
   107.790001         6.33808231E-05
   107.955002         6.45758992E-05
   108.120003         6.43531021E-05
   108.285004         6.27550617E-05
   108.449997         6.00233252E-05
   108.614998         5.66030067E-05
   108.779999         5.30870202E-05
   108.945000         5.01065988E-05
   109.110001         4.81950665E-05
   109.275002         4.76624482E-05
   109.440002         4.85157179E-05
   109.605003         5.04449199E-05
   109.769997         5.28756864E-05
   109.934998         5.50716250E-05
   110.099998         5.62607675E-05
   110.264999         5.57601197E-05
   110.430000         5.30776415E-05
   110.595001         4.79787159E-05
   110.760002         4.05107021E-05
   110.925003         3.09847201E-05
   111.089996         1.99195019E-05
   111.254997         7.95827782E-06
   111.419998        -4.22451103E-06
   111.584999        -1.60072650E-05
   111.750000        -2.68798703E-05
   111.915001        -3.64699954E-05
   112.080002        -4.45417609E-05
   112.245003        -5.09804486E-05
   112.410004        -5.57786698E-05
   112.574997        -5.90317541E-05
   112.739998        -6.09384442E-05
   112.904999        -6.17925980E-05
   113.070000        -6.19497077E-05
   113.235001        -6.17610058E-05
   113.400002        -6.14835371E-05
   113.565002        -6.11900832E-05
   113.730003        -6.07092807E-05
   113.894997        -5.96206482E-05
   114.059998        -5.73129037E-05
   114.224998        -5.30947145E-05
   114.389999        -4.63325123E-05
   114.555000        -3.65859523E-05
   114.720001        -2.37169097E-05
   114.885002        -7.95799770E-06
   115.050003         1.00650777E-05
   115.214996         2.93596786E-05
   115.379997         4.86434838E-05
   115.544998         6.64744293E-05
   115.709999         8.14275918E-05
   115.875000         9.22989420E-05
   116.040001         9.82995844E-05
   116.205002         9.91943525E-05
   116.370003         9.53433846E-05
   116.535004         8.76268386E-05
   116.699997         7.72657222E-05
   116.864998         6.55833355E-05
   117.029999         5.37697961E-05
   117.195000         4.27087361E-05
   117.360001         3.29015493E-05
   117.525002         2.44906096E-05
   117.690002         1.73524622E-05
   117.855003         1.12165308E-05
   118.019997         5.76828188E-06
   118.184998         7.13834424E-07
   118.349998        -4.19496291E-06
   118.514999        -9.16021509E-06
   118.680000        -1.43439238E-05
   118.845001        -1.98687012E-05
   119.010002        -2.58129676E-05
   119.175003        -3.22078558E-05
   119.339996        -3.90427012E-05
   119.504997        -4.62784919E-05
   119.669998        -5.38601198E-05
   119.834999        -6.17148035E-05
   120.000000        -6.97295181E-05
   120.165001        -7.77123132E-05
   120.330002        -8.53555830E-05
   120.495003        -9.22246109E-05
   120.660004        -9.77893287E-05
   120.824997        -1.01500496E-04
   120.989998        -1.02892220E-04
   121.154999        -1.01678044E-04
   121.320000        -9.78071985E-05
   121.485001        -9.14605262E-05
   121.650002        -8.29886121E-05
   121.815002        -7.28165833E-05
   121.980003        -6.13524608E-05
   122.144997        -4.89323393E-05
   122.309998        -3.58181533E-05
   122.474998        -2.22405215E-05
   122.639999        -8.45928116E-06
   122.805000         5.19238984E-06
   122.970001         1.83062311E-05
   123.135002         3.04462937E-05
   123.300003         4.12306690E-05
   123.464996         5.04180389E-05
   123.629997         5.79673615E-05
   123.794998         6.40493381E-05
   123.959999         6.90056258E-05
   124.125000         7.32686167E-05
   124.290001         7.72643398E-05
   124.455002         8.13218430E-05
   124.620003         8.56054903E-05
   124.785004         9.00778905E-05
   124.949997         9.44942076E-05
   125.114998         9.84260259E-05
   125.279999         1.01313519E-04
   125.445000         1.02544815E-04
   125.610001         1.01558129E-04
   125.775002         9.79551041E-05
   125.940002         9.16050485E-05
   126.105003         8.27141266E-05
   126.269997         7.18358860E-05
   126.434998         5.98104125E-05
   126.599998         4.76378191E-05
   126.764999         3.63106046E-05
   126.930000         2.66427942E-05
   127.095001         1.91359868E-05
   127.260002         1.39124659E-05
   127.425003         1.07264786E-05
   127.589996         9.04328044E-06
   127.754997         8.15894055E-06
   127.919998         7.32722219E-06
   128.085007         5.86473152E-06
   128.250000         3.21860261E-06
   128.414993        -1.00301611E-06
   128.580002        -7.02541229E-06
   128.744995        -1.49103607E-05
   128.910004        -2.45561878E-05
   129.074997        -3.56934070E-05
   129.240005        -4.78846923E-05
   129.404999        -6.05427158E-05
   129.570007        -7.29758831E-05
   129.735001        -8.44615497E-05
   129.899994        -9.43339983E-05
   130.065002        -1.02065373E-04
   130.229996        -1.07318279E-04
   130.395004        -1.09957226E-04
   130.559998        -1.10021268E-04
   130.725006        -1.07673128E-04
   130.889999        -1.03146711E-04
   131.054993        -9.67109518E-05
   131.220001        -8.86566195E-05
   131.384995        -7.92993960E-05