  -2.09999990         0.00000000    
  -1.93499994         0.00000000    
  -1.76999998         0.00000000    
  -1.60500002         0.00000000    
  -1.44000006         0.00000000    
  -1.27499998         0.00000000    
  -1.11000001         0.00000000    
 -0.944999993         0.00000000    
 -0.779999971         0.00000000    
 -0.615000010         0.00000000    
 -0.449999988         0.00000000    
 -0.284999996         0.00000000    
 -0.119999997         0.00000000    
   4.50000018E-02     0.00000000    
  0.209999993         0.00000000    
  0.375000000         0.00000000    
  0.540000021         0.00000000    
  0.704999983         0.00000000    
  0.870000005         0.00000000    
   1.03499997         0.00000000    
   1.20000005         0.00000000    
   1.36500001         0.00000000    
   1.52999997         0.00000000    
   1.69500005         0.00000000    
   1.86000001         0.00000000    
   2.02500010         0.00000000    
   2.19000006         0.00000000    
   2.35500002         0.00000000    
   2.51999998         0.00000000    
   2.68499994         0.00000000    
   2.84999990         0.00000000    
   3.01500010         0.00000000    
   3.18000007         0.00000000    
   3.34500003         0.00000000    
   3.50999999         0.00000000    
   3.67499995         0.00000000    
   3.83999991         0.00000000    
   4.00500011         0.00000000    
   4.17000008         0.00000000    
   4.33500004         0.00000000    
   4.50000000         0.00000000    
   4.66499996         0.00000000    
   4.82999992         0.00000000    
   4.99499989         0.00000000    
   5.15999985         0.00000000    
   5.32499981        -1.19905677E-33
   5.48999977        -5.11424495E-33
   5.65500021        -1.24692091E-32
   5.82000017        -2.20810560E-32
   5.98500013        -3.43228334E-32
   6.15000010        -5.64382051E-32
   6.31500006        -9.99821775E-32
   6.48000002        -1.57799725E-31
   6.64499998        -2.27282797E-31
   6.80999994         1.75754673E-31
   6.97499990         1.17798311E-30
   7.13999987         7.41970680E-30
   7.30499983         2.19552102E-29
   7.46999979         4.32699373E-29
   7.63500023         6.46985109E-29
   7.80000019         8.09868287E-29
   7.96500015         7.14580134E-29
   8.13000011         2.69706266E-29
   8.29500008        -5.69202456E-29
   8.46000004        -1.92900192E-28
   8.62500000        -3.81542298E-28
   8.78999996        -6.22260984E-28
   8.95499992        -9.26569615E-28
   9.11999989        -1.32752598E-27
   9.28499985        -1.91178014E-27
   9.44999981        -2.83411742E-27
   9.61499977        -4.28481549E-27
   9.77999973        -6.45128946E-27
   9.94499969        -9.41413354E-27
   10.1099997        -1.30169799E-26
   10.2749996        -1.67287585E-26
   10.4399996        -1.95575906E-26
   10.6049995        -2.00612274E-26
   10.7700005        -1.65286728E-26
   10.9350004        -7.37839477E-27
   11.1000004         8.21802088E-27
   11.2650003         2.95613113E-26
   11.4300003         5.37018109E-26
   11.5950003         7.51852667E-26
   11.7600002         8.68472809E-26
   11.9250002         8.22694533E-26
   12.0900002         6.01611211E-26
   12.2550001         3.00327543E-26
   12.4200001         1.70899458E-26
   12.5850000         6.27491827E-26
   12.7500000         2.16426257E-25
   12.9150000         5.15496739E-25
   13.0799999         9.54437090E-25
   13.2449999         1.45093224E-24
   13.4099998         1.82409254E-24
   13.5749998         1.80392452E-24
   13.7399998         1.08720366E-24
   13.9049997        -5.59931597E-25
   14.0699997        -3.17605596E-24
   14.2349997        -6.50268575E-24
   14.3999996        -9.96459198E-24
   14.5649996        -1.27732168E-23
   14.7299995        -1.41446878E-23
   14.8950005        -1.35543690E-23
   15.0600004        -1.08916952E-23
   15.2250004        -6.37592646E-24
   15.3900003        -1.78508512E-25
   15.5550003         8.13138257E-24
   15.7200003         2.00021788E-23
   15.8850002         3.77410558E-23
   16.0499992         6.34276669E-23
   16.2150002         9.68989972E-23
   16.3799992         1.33367387E-22
   16.5450001         1.61801190E-22
   16.7099991         1.65438760E-22
   16.8750000         1.25418534E-22
   17.0400009         2.73840221E-23
   17.2049999        -1.30678015E-22
   17.3700008        -3.32536375E-22
   17.5349998        -5.43316450E-22
   17.7000008        -7.16845755E-22
   17.8649998        -8.09896910E-22
   18.0300007        -7.98504951E-22
   18.1949997        -6.88459233E-22
   18.3600006        -5.11927763E-22
   18.5249996        -3.06339075E-22
   18.6900005        -7.97738935E-23
   18.8549995         2.23426992E-22
   19.0200005         7.36653661E-22
   19.1849995         1.64554436E-21
   19.3500004         3.11509534E-21
   19.5149994         5.18089431E-21
   19.6800003         7.63740706E-21
   19.8449993         9.96990856E-21
   20.0100002         1.13735331E-20
   20.1749992         1.08795229E-20
   20.3400002         7.57033677E-21
   20.5049992         8.26520090E-22
   20.6700001        -9.47207347E-21
   20.8349991        -2.28544559E-20
   21.0000000        -3.82911728E-20
   21.1650009        -5.42990822E-20
   21.3299999        -6.90133393E-20
   21.4950008        -8.01211471E-20
   21.6599998        -8.46253330E-20
   21.8250008        -7.85442177E-20
   21.9899998        -5.68064864E-20
   22.1550007        -1.36883803E-20
   22.3199997         5.59149860E-20
   22.4850006         1.54329362E-19
   22.6499996         2.78379984E-19
   22.8150005         4.16843892E-19
   22.9799995         5.49066774E-19
   23.1450005         6.45670251E-19
   23.3099995         6.71817120E-19
   23.4750004         5.92732139E-19
   23.6399994         3.80346977E-19
   23.8050003         1.94122100E-20
   23.9699993        -4.88475743E-19
   24.1350002        -1.12362477E-18
   24.2999992        -1.84904252E-18
   24.4650002        -2.61111865E-18
   24.6299992        -3.33737826E-18
   24.7950001        -3.92929775E-18
   24.9599991        -4.25078067E-18
   25.1250000        -4.11687543E-18
   25.2900009        -3.29152578E-18
   25.4549999        -1.50578263E-18
   25.6200008         1.49290363E-18
   25.7849998         5.85525091E-18
   25.9500008         1.15139670E-17
   26.1149998         1.80559532E-17
   26.2800007         2.46159239E-17
   26.4449997         2.98343169E-17
   26.6100006         3.19237453E-17
   26.7749996         2.88780432E-17
   26.9400005         1.88345816E-17
   27.1049995         5.66433328E-19
   27.2700005        -2.59598575E-17
   27.4349995        -5.90646331E-17
   27.6000004        -9.50065506E-17
   27.7649994        -1.27947437E-16
   27.9300003        -1.50353907E-16
   28.0949993        -1.53906945E-16
   28.2600002        -1.30905302E-16
   28.4249992        -7.60369632E-17
   28.5900002         1.17294351E-17
   28.7549992         1.27491111E-16
   28.9200001         2.59421787E-16
   29.0849991         3.88868803E-16
   29.2500000         4.91859962E-16
   29.4150009         5.42138832E-16
   29.5799999         5.15549833E-16
   29.7450008         3.95250746E-16
   29.9099998         1.76894652E-16
   30.0750008        -1.27303626E-16
   30.2399998        -4.86752301E-16
   30.4050007        -8.53854527E-16
   30.5699997        -1.16904427E-15
   30.7350006        -1.36927693E-15
   30.8999996        -1.39897094E-15
   31.0650005        -1.22164661E-15
   31.2299995        -8.29993503E-16
   31.3950005        -2.51989337E-16
   31.5599995         4.48895116E-16
   31.7250004         1.18043581E-15
   31.8899994         1.83502234E-15
   32.0550003         2.30781199E-15
   32.2200012         2.51646606E-15
   32.3849983         2.41839955E-15
   32.5499992         2.02140644E-15
   32.7150002         1.38443872E-15
   32.8800011         6.07125423E-16
   33.0449982        -1.90898568E-16
   33.2099991        -8.97150193E-16
   33.3750000        -1.43404277E-15
   33.5400009        -1.78020173E-15
   33.7050018        -1.97875960E-15
   33.8699989        -2.12819823E-15
   34.0349998        -2.35501460E-15
   34.2000008        -2.77207075E-15
   34.3650017        -3.43101410E-15
   34.5299988        -4.28048566E-15
   34.6949997        -5.14283720E-15
   34.8600006        -5.72014224E-15
   35.0250015        -5.63523693E-15
   35.1899986        -4.50604926E-15
   35.3549995        -2.04289312E-15
   35.5200005         1.84935859E-15
   35.6850014         6.98731751E-15
   35.8499985         1.28669234E-14
   36.0149994         1.86817741E-14
   36.1800003         2.34105660E-14
   36.3450012         2.59684801E-14
   36.5099983         2.54023605E-14
   36.6749992         2.10966973E-14
   36.8400002         1.29497167E-14
   37.0050011         1.47894049E-15
   37.1699982        -1.21754650E-14
   37.3349991        -2.63644172E-14
   37.5000000        -3.91531629E-14
   37.6650009        -4.86229506E-14
   37.8300018        -5.32001404E-14
   37.9949989        -5.19503094E-14
   38.1599998        -4.47755541E-14
   38.3250008        -3.24667864E-14
   38.4900017        -1.65885050E-14
   38.6549988         7.93389980E-16
   38.8199997         1.74956824E-14
   38.9850006         3.16403669E-14
   39.1500015         4.20263528E-14
   39.3149986         4.83634908E-14
   39.4799995         5.13032847E-14
   39.6450005         5.22391341E-14
   39.8100014         5.28980919E-14
   39.9749985         5.47962724E-14
   40.1399994         5.86712346E-14
   40.3050003         6.40261024E-14
   40.4700012         6.89153528E-14
   40.6349983         7.00680087E-14
   40.7999992         6.33849798E-14
   40.9650002         4.47702585E-14
   41.1300011         1.11766709E-14
   41.2949982        -3.83202516E-14
   41.4599991        -1.01645248E-13
   41.6250000        -1.73267352E-13
   41.7900009        -2.44342253E-13
   41.9550018        -3.03541345E-13
   42.1199989        -3.38535271E-13
   42.2849998        -3.37967339E-13
   42.4500008        -2.93632008E-13
   42.6150017        -2.02489962E-13
   42.7799988        -6.81275240E-14
   42.9449997         9.86867990E-14
   43.1100006         2.80575991E-13
   43.2750015         4.55312003E-13
   43.4399986         5.98601518E-13
   43.6049995         6.87544043E-13
   43.7700005         7.04248346E-13
   43.9350014         6.39014883E-13
   44.0999985         4.92515154E-13
   44.2649994         2.76529749E-13
   44.4300003         1.30255990E-14
   44.5950012        -2.68373892E-13
   44.7599983        -5.34192590E-13
   44.9249992        -7.51619307E-13
   45.0900002        -8.93042151E-13
   45.2550011        -9.39889551E-13
   45.4199982        -8.85186022E-13
   45.5849991        -7.34446900E-13
   45.7500000        -5.04821337E-13
   45.9150009        -2.22678972E-13
   46.0800018         7.99273435E-14
   46.2449989         3.69346508E-13
   46.4099998         6.14360179E-13
   46.5750008         7.89638754E-13
   46.7400017         8.78261765E-13
   46.9049988         8.73140536E-13
   47.0699997         7.77352846E-13
   47.2350006         6.03527536E-13
   47.4000015         3.72461393E-13
   47.5649986         1.11136089E-13
   47.7299995        -1.49752633E-13
   47.8950005        -3.78691978E-13
   48.0600014        -5.46607573E-13
   48.2249985        -6.30348855E-13
   48.3899994        -6.16136536E-13
   48.5550003        -5.02534971E-13
   48.7200012        -3.02376668E-13
   48.8849983        -4.30144777E-14
   49.0499992         2.35614994E-13
   49.2150002         4.85345162E-13
   49.3800011         6.56350462E-13
   49.5449982         7.05208895E-13
   49.7099991         6.03251715E-13
   49.8750000         3.43659942E-13
   50.0400009        -5.42898076E-14
   50.2050018        -5.45094514E-13
   50.3699989        -1.06170021E-12
   50.5349998        -1.52471352E-12
   50.7000008        -1.85495477E-12
   50.8650017        -1.98725888E-12
   51.0299988        -1.88291353E-12
   51.1949997        -1.53808119E-12
   51.3600006        -9.86079924E-13
   51.5250015        -2.92486602E-13
   51.6899986         4.56622750E-13
   51.8549995         1.17137018E-12
   52.0200005         1.77661651E-12
   52.1850014         2.22842881E-12
   52.3499985         2.52460357E-12
   52.5149994         2.70617404E-12
   52.6800003         2.84845259E-12
   52.8450012         3.04218521E-12
   53.0099983         3.36760242E-12
   53.1749992         3.86601168E-12
   53.3400002         4.51472236E-12
   53.5050011         5.21121427E-12
   53.6699982         5.77141156E-12
   53.8349991         5.94493768E-12
   54.0000000         5.44724509E-12
   54.1650009         4.00554676E-12
   54.3300018         1.41254705E-12
   54.4949989        -2.42019035E-12
   54.6599998        -7.41813989E-12
   54.8250008        -1.33173915E-11
   54.9900017        -1.96622198E-11
   55.1549988        -2.58297515E-11
   55.3199997        -3.10809850E-11
   55.4850006        -3.46332199E-11
   55.6500015        -3.57458056E-11
   55.8149986        -3.38087926E-11
   55.9799995        -2.84235187E-11
   56.1450005        -1.94652489E-11
   56.3100014        -7.12054070E-12
   56.4749985         8.10419353E-12
   56.6399994         2.54027719E-11
   56.8050003         4.37140948E-11
   56.9700012         6.17855628E-11
   57.1349983         7.82479220E-11
   57.2999992         9.16949225E-11
   57.4650002         1.00763363E-10
   57.6300011         1.04211320E-10
   57.7949982         1.00995011E-10
   57.9599991         9.03459599E-11
   58.1250000         7.18501925E-11
   58.2900009         4.55286989E-11
   58.4550018         1.19153706E-11
   58.6199989        -2.78762968E-11
   58.7849998        -7.21105536E-11
   58.9500008        -1.18426213E-10
   59.1150017        -1.63888556E-10
   59.2799988        -2.05108722E-10
   59.4449997        -2.38436382E-10
   59.6100006        -2.60221594E-10
   59.7750015        -2.67131206E-10
   59.9399986        -2.56493493E-10
   60.1049995        -2.26636737E-10
   60.2700005        -1.77181450E-10
   60.4350014        -1.09247653E-10
   60.5999985        -2.55430000E-11
   60.7649994         6.96904409E-11
   60.9300003         1.70878367E-10
   61.0950012         2.71456108E-10
   61.2599983         3.64325070E-10
   61.4249992         4.42384102E-10
   61.5900002         4.99088937E-10
   61.7550011         5.28986577E-10
   61.9199982         5.28177557E-10
   62.0849991         4.94663532E-10
   62.2500000         4.28552444E-10
   62.4150009         3.32105038E-10
   62.5800018         2.09624165E-10
   62.7449989         6.71991421E-11
   62.9099998        -8.76689971E-11
   63.0750008        -2.46529852E-10
   63.2400017        -4.00496220E-10
   63.4049988        -5.40770151E-10
   63.5699997        -6.59147792E-10
   63.7350006        -7.48473783E-10
   63.9000015        -8.03022815E-10
   64.0650024        -8.18792534E-10
   64.2300034        -7.93700161E-10
   64.3949966        -7.27682137E-10
   64.5599976        -6.22700835E-10
   64.7249985        -4.82664464E-10
   64.8899994        -3.13270548E-10
   65.0550003        -1.21779739E-10
   65.2200012         8.32740613E-11
   65.3850021         2.92431607E-10
   65.5500031         4.95712527E-10
   65.7149963         6.83070378E-10
   65.8799973         8.44890491E-10
   66.0449982         9.72514180E-10
   66.2099991         1.05876463E-09
   66.3750000         1.09843634E-09
   66.5400009         1.08870646E-09
   66.7050018         1.02941533E-09
   66.8700027         9.23173149E-10
   67.0350037         7.75254805E-10
   67.1999969         5.93269933E-10
   67.3649979         3.86618321E-10
   67.5299988         1.65771008E-10
   67.6949997        -5.85542032E-11
   67.8600006        -2.76233925E-10
   68.0250015        -4.78500184E-10
   68.1900024        -6.58527899E-10
   68.3550034        -8.11776646E-10
   68.5199966        -9.36046018E-10
   68.6849976        -1.03124354E-09
   68.8499985        -1.09890119E-09
   69.0149994        -1.14151799E-09
   69.1800003        -1.16182264E-09
   69.3450012        -1.16206089E-09
   69.5100021        -1.14341070E-09
   69.6750031        -1.10559695E-09
   69.8399963        -1.04675879E-09
   70.0049973        -9.63580438E-10
   70.1699982        -8.51665849E-10
   70.3349991        -7.06114944E-10
   70.5000000        -5.22238308E-10
   70.6650009        -2.96343033E-10
   70.8300018        -2.65240763E-11
   70.9950027         2.86595636E-10
   71.1600037         6.39225894E-10
   71.3249969         1.02391162E-09
   71.4899979         1.42921774E-09
   71.6549988         1.83963633E-09
   71.8199997         2.23576024E-09
   71.9850006         2.59477106E-09
   72.1500015         2.89128077E-09
   72.3150024         3.09855386E-09
   72.4800034         3.19010529E-09
   72.6449966         3.14163184E-09
   72.8099976         2.93318414E-09
   72.9749985         2.55142640E-09
   73.1399994         1.99180206E-09
   73.3050003         1.26037536E-09
   73.4700012         3.75123543E-10
   73.6350021        -6.33533448E-10
   73.8000031        -1.72313019E-09
   73.9649963        -2.84056734E-09
   74.1299973        -3.92454602E-09
   74.2949982        -4.90892038E-09
   74.4599991        -5.72678127E-09
   74.6250000        -6.31499830E-09
   74.7900009        -6.61888189E-09
   74.9550018        -6.59660282E-09
   75.1200027        -6.22300478E-09
   75.2850037        -5.49249046E-09
   75.4499969        -4.42070114E-09
   75.6149979        -3.04482550E-09
   75.7799988        -1.42245393E-09
   75.9449997         3.70991293E-10
   76.1100006         2.24610663E-09
   76.2750015         4.10440704E-09
   76.4400024         5.84396931E-09
   76.6050034         7.36544292E-09
   76.7699966         8.57804050E-09
   76.9349976         9.40512113E-09
   77.0999985         9.78898029E-09
   77.2649994         9.69457581E-09
   77.4300003         9.11191744E-09
   77.5950012         8.05701106E-09
   77.7600021         6.57130617E-09
   77.9250031         4.71970107E-09
   78.0899963         2.58726085E-09
   78.2549973         2.74852086E-10
   78.4199982        -2.10603446E-09
   78.5849991        -4.43897763E-09
   78.7500000        -6.60855193E-09
   78.9150009        -8.50619575E-09
   79.0800018        -1.00357660E-08
   79.2450027        -1.11185363E-08
   79.4100037        -1.16974430E-08
   79.5749969        -1.17403580E-08
   79.7399979        -1.12422258E-08
   79.9049988        -1.02258815E-08
   80.0699997        -8.74140227E-09
   80.2350006        -6.86388280E-09
   80.4000015        -4.68958872E-09
   80.5650024        -2.33056729E-09
   80.7300034         9.21072593E-11
   80.8949966         2.45608867E-09
   81.0599976         4.64601513E-09
   81.2249985         6.56162191E-09
   81.3899994         8.12497447E-09
   81.5550003         9.28608657E-09
   81.7200012         1.00262474E-08
   81.8850021         1.03585709E-08
   82.0500031         1.03255129E-08
   82.2149963         9.99346117E-09
   82.3799973         9.44477563E-09
   82.5449982         8.76804140E-09
   82.7099991         8.04750844E-09
   82.8750000         7.35282590E-09
   83.0400009         6.73021106E-09
   83.2050018         6.19606810E-09
   83.3700027         5.73380765E-09
   83.5350037         5.29431965E-09
   83.6999969         4.80012963E-09
   83.8649979         4.15291668E-09
   84.0299988         3.24371574E-09
   84.1949997         1.96488470E-09
   84.3600006         2.22744420E-10
   84.5250015        -2.05024353E-09
   84.6900024        -4.88478324E-09
   84.8550034        -8.26647995E-09
   85.0199966        -1.21307115E-08
   85.1849976        -1.63610370E-08
   85.3499985        -2.07913349E-08
   85.5149994        -2.52116230E-08
   85.6800003        -2.93771620E-08
   85.8450012        -3.30203882E-08
   86.0100021        -3.58649359E-08
   86.1750031        -3.76409872E-08
   86.3399963        -3.81010565E-08
   86.5049973        -3.70352993E-08
   86.6699982        -3.42855628E-08
   86.8349991        -2.97573592E-08
   87.0000000        -2.34291182E-08
   87.1650009        -1.53583244E-08
   87.3300018        -5.68412650E-09
   87.4950027         5.37364953E-09
   87.6600037         1.75190937E-08
   87.8249969         3.03881897E-08
   87.9899979         4.35599752E-08
   88.1549988         5.65705527E-08
   88.3199997         6.89294239E-08
   88.4850006         8.01378306E-08
   88.6500015         8.97085286E-08
   88.8150024         9.71862946E-08
   88.9800034         1.02168833E-07
   89.1449966         1.04326972E-07
   89.3099976         1.03423588E-07
   89.4749985         9.93303146E-08
   89.6399994         9.20413115E-08
   89.8050003         8.16830976E-08
   89.9700012         6.85200590E-08
   90.1350021         5.29550590E-08
   90.3000031         3.55249448E-08
   90.4649963         1.68913399E-08
   90.6299973        -2.17313501E-09
   90.7949982        -2.08022648E-08
   90.9599991        -3.80564664E-08
   91.1250000        -5.29447242E-08
   91.2900009        -6.44471640E-08
   91.4550018        -7.15372650E-08
   91.6200027        -7.32029832E-08
   91.7850037        -6.84659582E-08
   91.9499969        -5.63986653E-08
   92.1149979        -3.61395855E-08
   92.2799988        -6.90630131E-09
   92.4449997         3.19925846E-08
   92.6100006         8.11466165E-08
   92.7750015         1.41032743E-07
   92.9400024         2.12004934E-07
   93.1050034         2.94283666E-07
   93.2699966         3.87945448E-07
   93.4349976         4.92913614E-07
   93.5999985         6.08951723E-07
   93.7649994         7.35660535E-07
   93.9300003         8.72480882E-07
   94.0950012         1.01870330E-06
   94.2600021         1.17348702E-06
   94.4250031         1.33588662E-06
   94.5899963         1.50488836E-06
   94.7549973         1.67945257E-06
   94.9199982         1.85856061E-06
   95.0849991         2.04126331E-06
   95.2500000         2.22672520E-06
   95.4150009         2.41426142E-06
   95.5800018         2.60336287E-06
   95.7450027         2.79370784E-06
   95.9100037         2.98515533E-06
   96.0749969         3.17772174E-06
   96.2399979         3.37154142E-06
   96.4049988         3.56681630E-06
   96.5699997         3.76375351E-06
   96.7350006         3.96250380E-06
   96.9000015         4.16309695E-06
   97.0650024         4.36538812E-06
   97.2300034         4.56901444E-06
   97.3949966         4.77336744E-06
   97.5599976         4.97758174E-06
   97.7249985         5.18054549E-06
   97.8899994         5.38092672E-06
   98.0550003         5.57721387E-06
   98.2200012         5.76777620E-06
   98.3850021         5.95092888E-06
   98.5500031         6.12500980E-06
   98.7149963         6.28845510E-06
   98.8799973         6.43987732E-06
   99.0449982         6.57813507E-06
   99.2099991         6.70239478E-06
   99.3750000         6.81218353E-06
   99.5400009         6.90741945E-06
   99.7050018         6.98843223E-06
   99.8700027         7.05596040E-06
   100.035004         7.11112807E-06
   100.199997         7.15540546E-06
   100.364998         7.19055379E-06
   100.529999         7.21854576E-06
   100.695000         7.24148776E-06
   100.860001         7.26152348E-06
   101.025002         7.28074701E-06
   101.190002         7.30111060E-06
   101.355003         7.32434637E-06
   101.519997         7.35190179E-06
   101.684998         7.38488825E-06
   101.849998         7.42405655E-06
   102.014999         7.46978822E-06
   102.180000         7.52211372E-06
   102.345001         7.58074839E-06
   102.510002         7.64514607E-06
   102.675003         7.71456689E-06
   102.839996         7.78815593E-06
   103.004997         7.86502733E-06
   103.169998         7.94433709E-06
   103.334999         8.02536579E-06
   103.500000         8.10757228E-06
   103.665001         8.19064371E-06
   103.830002         8.27452459E-06
   103.995003         8.35942046E-06
   104.160004         8.44578426E-06
   104.324997         8.53428719E-06
   104.489998         8.62575871E-06
   104.654999         8.72112287E-06
   104.820000         8.82131371E-06
   104.985001         8.92718799E-06
   105.150002         9.03942146E-06
   105.315002         9.15842520E-06
   105.480003         9.28424924E-06
   105.644997         9.41650887E-06
   105.809998         9.55432733E-06
   105.974998         9.69629309E-06
   106.139999         9.84045528E-06
   106.305000         9.98433552E-06
   106.470001         1.01249789E-05
   106.635002         1.02590302E-05
   106.800003         1.03828479E-05
   106.964996         1.04926257E-05
   107.129997         1.05845520E-05
   107.294998         1.06549678E-05
   107.459999         1.07005390E-05
   107.625000         1.07184196E-05
   107.790001         1.07064025E-05
   107.955002         1.06630578E-05
   108.120003         1.05878353E-05
   108.285004         1.04811370E-05
   108.449997         1.03443444E-05
   108.614998         1.01798105E-05
   108.779999         9.99079475E-06
   108.945000         9.78135540E-06
   109.110001         9.55619271E-06
   109.275002         9.32045532E-06
   109.440002         9.07951198E-06
   109.605003         8.83869325E-06
   109.769997         8.60303862E-06
   109.934998         8.37703647E-06
   110.099998         8.16439479E-06
   110.264999         7.96784479E-06
   110.430000         7.78899630E-06
   110.595001         7.62826085E-06
   110.760002         7.48483353E-06
   110.925003         7.35674939E-06
   111.089996         7.24100255E-06
   111.254997         7.13371992E-06
   111.419998         7.03037722E-06
   111.584999         6.92604408E-06
   111.750000         6.81563733E-06
   111.915001         6.69417432E-06
   112.080002         6.55700615E-06
   112.245003         6.40003145E-06
   112.410004         6.21986555E-06
   112.574997         6.01398187E-06
   112.739998         5.78080835E-06
   112.904999         5.51978519E-06
   113.070000         5.23138215E-06
   113.235001         4.91708124E-06
   113.400002         4.57931719E-06
   113.565002         4.22138373E-06
   113.730003         3.84730538E-06
   113.894997         3.46166985E-06
   114.059998         3.06943639E-06
   114.224998         2.67571318E-06
   114.389999         2.28551767E-06
   114.555000         1.90353069E-06
   114.720001         1.53385372E-06
   114.885002         1.17978539E-06
   115.050003         8.43632904E-07
   115.214996         5.26567419E-07
   115.379997         2.28542561E-07
   115.544998        -5.17192476E-08
   115.709999        -3.16665705E-07
   115.875000        -5.69777683E-07
   116.040001        -8.15362228E-07
   116.205002        -1.05828360E-06
   116.370003        -1.30364720E-06
   116.535004        -1.55645489E-06
   116.699997        -1.82125757E-06
   116.864998        -2.10182020E-06
   117.029999        -2.40082636E-06
   117.195000        -2.71964768E-06
   117.360001        -3.05818867E-06
   117.525002        -3.41482155E-06
   117.690002        -3.78641994E-06
   117.855003        -4.16848889E-06
   118.019997        -4.55537929E-06
   118.184998        -4.94057986E-06
   118.349998        -5.31705791E-06
   118.514999        -5.67763664E-06
   118.680000        -6.01537567E-06
   118.845001        -6.32393449E-06
   119.010002        -6.59790294E-06
   119.175003        -6.83306826E-06
   119.339996        -7.02662055E-06
   119.504997        -7.17728017E-06
   119.669998        -7.28534769E-06
   119.834999        -7.35268350E-06
   120.000000        -7.38261360E-06
   120.165001        -7.37977825E-06
   120.330002        -7.34993228E-06
   120.495003        -7.29970134E-06
   120.660004        -7.23631365E-06
   120.824997        -7.16730483E-06
   120.989998        -7.10021959E-06
   121.154999        -7.04230843E-06
   121.320000        -7.00022747E-06
   121.485001        -6.97975747E-06
   121.650002        -6.98554368E-06
   121.815002        -7.02087027E-06
   121.980003        -7.08748121E-06
   122.144997        -7.18545243E-06
   122.309998        -7.31313412E-06
   122.474998        -7.46715932E-06
   122.639999        -7.64253673E-06
   122.805000        -7.83281484E-06
   122.970001        -8.03032981E-06
   123.135002        -8.22650873E-06
   123.300003        -8.41223118E-06
   123.464996        -8.57821487E-06
   123.629997        -8.71541306E-06
   123.794998        -8.81540018E-06
   123.959999        -8.87070928E-06
   124.125000        -8.87512761E-06
   124.290001        -8.82390668E-06
   124.455002        -8.71390966E-06
   124.620003        -8.54366044E-06
   124.785004        -8.31333818E-06
   124.949997        -8.02468185E-06
   125.114998        -7.68085738E-06
   125.279999        -7.28627265E-06
   125.445000        -6.84636552E-06
   125.610001        -6.36737741E-06
   125.775002        -5.85611633E-06
   125.940002        -5.31972228E-06
   126.105003        -4.76543892E-06
   126.269997        -4.20039987E-06
   126.434998        -3.63143408E-06
   126.599998        -3.06489483E-06
   126.764999        -2.50651829E-06
   126.930000        -1.96132055E-06
   127.095001        -1.43352997E-06
   127.260002        -9.26562336E-07
   127.425003        -4.43034168E-07
   127.589996         1.51919384E-08
   127.754997         4.46935786E-07
   127.919998         8.51615312E-07
   128.085007         1.22915742E-06
   128.250000         1.57992054E-06
   128.414993         1.90463447E-06
   128.580002         2.20436368E-06
   128.744995         2.48049969E-06
   128.910004         2.73477417E-06
   129.074997         2.96929807E-06
   129.240005         3.18660568E-06
   129.404999         3.38970153E-06
   129.570007         3.58210468E-06
   129.735001         3.76786534E-06
   129.899994         3.95156212E-06
   130.065002         4.13825910E-06
   130.229996         4.33343030E-06
   130.395004         4.54283281E-06
   130.559998         4.77233698E-06
   130.725006         5.02770945E-06
   130.889999         5.31435262E-06
   131.054993         5.63700496E-06
   131.220001         5.99941586E-06
   131.384995         6.40400822E-06