  -2.09999990         0.00000000    
  -1.93499994         0.00000000    
  -1.76999998         0.00000000    
  -1.60500002         0.00000000    
  -1.44000006         0.00000000    
  -1.27499998         0.00000000    
  -1.11000001         0.00000000    
 -0.944999993         0.00000000    
 -0.779999971         0.00000000    
 -0.615000010         0.00000000    
 -0.449999988         0.00000000    
 -0.284999996         0.00000000    
 -0.119999997         0.00000000    
   4.50000018E-02     0.00000000    
  0.209999993         0.00000000    
  0.375000000         0.00000000    
  0.540000021         0.00000000    
  0.704999983         0.00000000    
  0.870000005         0.00000000    
   1.03499997         0.00000000    
   1.20000005         0.00000000    
   1.36500001         0.00000000    
   1.52999997         0.00000000    
   1.69500005         0.00000000    
   1.86000001         0.00000000    
   2.02500010         0.00000000    
   2.19000006         0.00000000    
   2.35500002         0.00000000    
   2.51999998         0.00000000    
   2.68499994         0.00000000    
   2.84999990         0.00000000    
   3.01500010         0.00000000    
   3.18000007         0.00000000    
   3.34500003         0.00000000    
   3.50999999         0.00000000    
   3.67499995         0.00000000    
   3.83999991         0.00000000    
   4.00500011         0.00000000    
   4.17000008         0.00000000    
   4.33500004         0.00000000    
   4.50000000         0.00000000    
   4.66499996         0.00000000    
   4.82999992         0.00000000    
   4.99499989         0.00000000    
   5.15999985         0.00000000    
   5.32499981         0.00000000    
   5.48999977         0.00000000    
   5.65500021         0.00000000    
   5.82000017         0.00000000    
   5.98500013         0.00000000    
   6.15000010         0.00000000    
   6.31500006         0.00000000    
   6.48000002         0.00000000    
   6.64499998         0.00000000    
   6.80999994         0.00000000    
   6.97499990         2.19629938E-34
   7.13999987         2.91923332E-33
   7.30499983        -5.35337466E-33
   7.46999979        -2.32792785E-32
   7.63500023        -3.56549830E-32
   7.80000019         2.77886982E-32
   7.96500015         3.98511187E-32
   8.13000011        -2.55098202E-32
   8.29500008        -1.04319070E-31
   8.46000004        -1.27604520E-31
   8.62500000         6.61333416E-32
   8.78999996         6.26004862E-31
   8.95499992         1.72595861E-30
   9.11999989         2.20415892E-30
   9.28499985         2.24596101E-30
   9.44999981        -3.75488029E-30
   9.61499977        -7.59562545E-30
   9.77999973        -1.86037941E-29
   9.94499969        -3.92663773E-29
   10.1099997        -6.22304257E-29
   10.2749996        -5.97148362E-29
   10.4399996        -1.44159197E-29
   10.6049995         1.12139787E-28
   10.7700005         3.18363659E-28
   10.9350004         5.52244571E-28
   11.1000004         6.73943169E-28
   11.2650003         4.70159270E-28
   11.4300003        -2.96712547E-28
   11.5950003        -1.77637185E-27
   11.7600002        -3.86740869E-27
   11.9250002        -6.07113862E-27
   12.0900002        -7.40166771E-27
   12.2550001        -6.50554714E-27
   12.4200001        -2.02669556E-27
   12.5850000         6.78788154E-27
   12.7500000         1.93717337E-26
   12.9150000         3.32586839E-26
   13.0799999         4.39497182E-26
   13.2449999         4.55077956E-26
   13.4099998         3.19601264E-26
   13.5749998        -6.57849906E-28
   13.7399998        -5.20874872E-26
   13.9049997        -1.16079711E-25
   14.0699997        -1.79682509E-25
   14.2349997        -2.23956970E-25
   14.3999996        -2.26193859E-25
   14.5649996        -1.63509566E-25
   14.7299995        -1.77379735E-26
   14.8950005         2.18225994E-25
   15.0600004         5.32359676E-25
   15.2250004         8.83954537E-25
   15.3900003         1.19433896E-24
   15.5550003         1.34220147E-24
   15.7200003         1.17051112E-24
   15.8850002         5.13221466E-25
   16.0499992        -7.52459708E-25
   16.2150002        -2.62980746E-24
   16.3799992        -4.91594569E-24
   16.5450001        -7.13231233E-24
   16.7099991        -8.51011154E-24
   16.8750000        -8.06918720E-24
   17.0400009        -4.81469421E-24
   17.2049999         1.95364973E-24
   17.3700008         1.22647755E-23
   17.5349998         2.51165345E-23
   17.7000008         3.82436138E-23
   17.8649998         4.81251695E-23
   18.0300007         5.03168302E-23
   18.1949997         4.01402374E-23
   18.3600006         1.36993869E-23
   18.5249996        -3.08703203E-23
   18.6900005        -9.20688461E-23
   18.8549995        -1.63812066E-22
   19.0200005        -2.34576411E-22
   19.1849995        -2.87222337E-22
   19.3500004        -2.99877786E-22
   19.5149994        -2.48293856E-22
   19.6800003        -1.10014075E-22
   19.8449993         1.29546107E-22
   20.0100002         4.69480988E-22
   20.1749992         8.85281064E-22
   20.3400002         1.32202102E-21
   20.5049992         1.69127224E-21
   20.6700001         1.87440036E-21
   20.8349991         1.73451697E-21
   21.0000000         1.13823637E-21
   21.1650009        -1.34121279E-23
   21.3299999        -1.74775812E-21
   21.4950008        -3.98203858E-21
   21.6599998        -6.49070169E-21
   21.8250008        -8.88671717E-21
   21.9899998        -1.06256035E-20
   22.1550007        -1.10405428E-20
   22.3199997        -9.41546976E-21
   22.4850006        -5.10024500E-21
   22.6499996         2.33308675E-21
   22.8150005         1.29018066E-20
   22.9799995         2.60120321E-20
   23.1450005         4.02805034E-20
   23.3099995         5.34275570E-20
   23.4750004         6.23015183E-20
   23.6399994         6.30971691E-20
   23.8050003         5.18190397E-20
   23.9699993         2.50095021E-20
   24.1350002        -1.92886370E-20
   24.2999992        -8.04324966E-20
   24.4650002        -1.54113455E-19
   24.6299992        -2.31564999E-19
   24.7950001        -2.99329082E-19
   24.9599991        -3.39870626E-19
   25.1250000        -3.33279780E-19
   25.2900009        -2.60181519E-19
   25.4549999        -1.05782164E-19
   25.6200008         1.35276445E-19
   25.7849998         4.53884807E-19
   25.9500008         8.22192920E-19
   26.1149998         1.19127750E-18
   26.2800007         1.49203747E-18
   26.4449997         1.64047317E-18
   26.6100006         1.54806252E-18
   26.7749996         1.13715280E-18
   26.9400005         3.60163900E-19
   27.1049995        -7.79887647E-19
   27.2700005        -2.21128477E-18
   27.4349995        -3.78251538E-18
   27.6000004        -5.26290356E-18
   27.7649994        -6.35877891E-18
   27.9300003        -6.74694623E-18
   28.0949993        -6.12418014E-18
   28.2600002        -4.26778791E-18
   28.4249992        -1.09875393E-18
   28.5900002         3.26369963E-18
   28.7549992         8.46819121E-18
   28.9200001         1.39286644E-17
   29.0849991         1.88603516E-17
   29.2500000         2.23556033E-17
   29.4150009         2.34944556E-17
   29.5799999         2.14783336E-17
   29.7450008         1.57706682E-17
   29.9099998         6.22590599E-18
   30.0750008        -6.81083270E-18
   30.2399998        -2.24478852E-17
   30.4050007        -3.92448265E-17
   30.5699997        -5.52690090E-17
   30.7350006        -6.82127941E-17
   30.8999996        -7.55716443E-17
   31.0650005        -7.48832580E-17
   31.2299995        -6.40267242E-17
   31.3950005        -4.15763277E-17
   31.5599995        -7.19410973E-18
   31.7250004         3.79726094E-17
   31.8899994         9.09469135E-17
   32.0550003         1.46714894E-16
   32.2200012         1.98258596E-16
   32.3849983         2.36934915E-16
   32.5499992         2.53282809E-16
   32.7150002         2.38282253E-16
   32.8800011         1.85000175E-16
   33.0449982         9.04429488E-17
   33.2099991        -4.26786848E-17
   33.3750000        -2.04658102E-16
   33.5400009        -3.78390926E-16
   33.7050018        -5.40227238E-16
   33.8699989        -6.62288020E-16
   34.0349998        -7.16207014E-16
   34.2000008        -6.77948442E-16
   34.3650017        -5.33029152E-16
   34.5299988        -2.81215283E-16
   34.6949997         6.03552334E-17
   34.8600006         4.56593745E-16
   35.0250015         8.57084634E-16
   35.1899986         1.20204817E-15
   35.3549995         1.43111479E-15
   35.5200005         1.49370194E-15
   35.6850014         1.35921810E-15
   35.8499985         1.02504624E-15
   36.0149994         5.20373368E-16
   36.1800003        -9.55127785E-17
   36.3450012        -7.40874202E-16
   36.5099983        -1.32432892E-15
   36.6749992        -1.76079695E-15
   36.8400002        -1.98760241E-15
   37.0050011        -1.97730503E-15
   37.1699982        -1.74411167E-15
   37.3349991        -1.34175493E-15
   37.5000000        -8.52409595E-16
   37.6650009        -3.68231613E-16
   37.8300018         3.09408926E-17
   37.9949989         2.98802439E-16
   38.1599998         4.37357654E-16
   38.3250008         5.00697639E-16
   38.4900017         5.85203417E-16
   38.6549988         8.06473992E-16
   38.8199997         1.26654751E-15
   38.9850006         2.01784614E-15
   39.1500015         3.03209377E-15
   39.3149986         4.18261735E-15
   39.4799995         5.24671859E-15
   39.6450005         5.93131052E-15
   39.8100014         5.92039777E-15
   39.9749985         4.93797084E-15
   40.1399994         2.81574377E-15
   40.3050003        -4.47367280E-16
   40.4700012        -4.64712853E-15
   40.6349983        -9.36773716E-15
   40.7999992        -1.40129328E-14
   40.9650002        -1.78734879E-14
   41.1300011        -2.02232047E-14
   41.2949982        -2.04297401E-14
   41.4599991        -1.80629437E-14
   41.6250000        -1.29828331E-14
   41.7900009        -5.39193688E-15
   41.9550018         4.15771840E-15
   42.1199989         1.48054888E-14
   42.2849998         2.54656779E-14
   42.4500008         3.49421013E-14
   42.6150017         4.20577032E-14
   42.7799988         4.57822562E-14
   42.9449997         4.53431136E-14
   43.1100006         4.03084379E-14
   43.2750015         3.06378221E-14
   43.4399986         1.67006708E-14
   43.6049995        -7.33840599E-16
   43.7700005        -2.05298306E-14
   43.9350014        -4.12367894E-14
   44.0999985        -6.11593092E-14
   44.2649994        -7.84463572E-14
   44.4300003        -9.12038728E-14
   44.5950012        -9.76338151E-14
   44.7599983        -9.61989955E-14
   44.9249992        -8.58062062E-14
   45.0900002        -6.59922149E-14
   45.2550011        -3.70890317E-14
   45.4199982        -3.40471458E-16
   45.5849991         4.20586587E-14
   45.7500000         8.70232231E-14
   45.9150009         1.30750364E-13
   46.0800018         1.69000203E-13
   46.2449989         1.97464969E-13
   46.4099998         2.12192067E-13
   46.5750008         2.10015829E-13
   46.7400017         1.88949483E-13
   46.9049988         1.48491937E-13
   47.0699997         8.98140137E-14
   47.2350006         1.58024686E-14
   47.4000015        -6.90430447E-14
   47.5649986        -1.58851434E-13
   47.7299995        -2.46739830E-13
   47.8950005        -3.25264284E-13
   48.0600014        -3.86934029E-13
   48.2249985        -4.24761355E-13
   48.3899994        -4.32822344E-13
   48.5550003        -4.06805530E-13
   48.7200012        -3.44520636E-13
   48.8849983        -2.46336155E-13
   49.0499992        -1.15503920E-13
   49.2150002         4.16782257E-14
   49.3800011         2.15919161E-13
   49.5449982         3.95251513E-13
   49.7099991         5.65645729E-13
   49.8750000         7.11925527E-13
   50.0400009         8.18948696E-13
   50.2050018         8.72974436E-13
   50.3699989         8.63094318E-13
   50.5349998         7.82574797E-13
   50.7000008         6.29946453E-13
   50.8650017         4.09689616E-13
   51.0299988         1.32404247E-13
   51.1949997        -1.85588985E-13
   51.3600006        -5.23199539E-13
   51.5250015        -8.55985205E-13
   51.6899986        -1.15789865E-12
   51.8549995        -1.40319689E-12
   52.0200005        -1.56834821E-12
   52.1850014        -1.63379846E-12
   52.3499985        -1.58550495E-12
   52.5149994        -1.41619117E-12
   52.6800003        -1.12631139E-12
   52.8450012        -7.24721552E-13
   53.0099983        -2.29030526E-13
   53.1749992         3.34438748E-13
   53.3400002         9.31207693E-13
   53.5050011         1.51988676E-12
   53.6699982         2.05427689E-12
   53.8349991         2.48643684E-12
   54.0000000         2.77069448E-12
   54.1650009         2.86839411E-12
   54.3300018         2.75294457E-12
   54.4949989         2.41453233E-12
   54.6599998         1.86371469E-12
   54.8250008         1.13309535E-12
   54.9900017         2.76416693E-13
   55.1549988        -6.35307887E-13
   55.3199997        -1.52055950E-12
   55.4850006        -2.29641566E-12
   55.6500015        -2.88892629E-12
   55.8149986        -3.24333876E-12
   55.9799995        -3.33254800E-12
   56.1450005        -3.16225561E-12
   56.3100014        -2.77167156E-12
   56.4749985        -2.22921724E-12
   56.6399994        -1.62343977E-12
   56.8050003        -1.05015833E-12
   56.9700012        -5.97538620E-13
   57.1349983        -3.31253037E-13
   57.2999992        -2.82008005E-13
   57.4650002        -4.37477284E-13
   57.6300011        -7.40135926E-13
   57.7949982        -1.09165997E-12
   57.9599991        -1.36365517E-12
   58.1250000        -1.41360599E-12
   58.2900009        -1.10421535E-12
   58.4550018        -3.23883146E-13
   58.6199989         9.94061604E-13
   58.7849998         2.85555585E-12
   58.9500008         5.19523313E-12
   59.1150017         7.87232259E-12
   59.2799988         1.06736529E-11
   59.4449997         1.33238811E-11
   59.6100006         1.55025923E-11
   59.7750015         1.68675386E-11
   59.9399986         1.70829774E-11
   60.1049995         1.58517210E-11
   60.2700005         1.29491418E-11
   60.4350014         8.25687522E-12
   60.5999985         1.79356887E-12
   60.7649994        -6.26061919E-12
   60.9300003        -1.55491349E-11
   61.0950012        -2.55372008E-11
   61.2599983        -3.55259086E-11
   61.4249992        -4.46841557E-11
   61.5900002        -5.20986969E-11
   61.7550011        -5.68408064E-11
   61.9199982        -5.80456516E-11
   62.0849991        -5.49988492E-11
   62.2500000        -4.72225870E-11
   62.4150009        -3.45529855E-11
   62.5800018        -1.72001562E-11
   62.7449989         4.21698527E-12
   62.9099998         2.86670392E-11
   63.0750008         5.47373293E-11
   63.2400017         8.07005712E-11
   63.4049988         1.04614442E-10
   63.5699997         1.24448410E-10
   63.7350006         1.38229941E-10
   63.9000015         1.44199389E-10
   64.0650024         1.40962908E-10
   64.2300034         1.27631419E-10
   64.3949966         1.03934875E-10
   64.5599976         7.03021530E-11
   64.7249985         2.78988291E-11
   64.8899994        -2.13827289E-11
   65.0550003        -7.49836998E-11
   65.2200012        -1.29789499E-10
   65.3850021        -1.82287963E-10
   65.5500031        -2.28768865E-10
   65.7149963        -2.65555716E-10
   65.8799973        -2.89257646E-10
   66.0449982        -2.97026820E-10
   66.2099991        -2.86804080E-10
   66.3750000        -2.57534438E-10
   66.5400009        -2.09333717E-10
   66.7050018        -1.43588405E-10
   66.8700027        -6.29739663E-11
   67.0350037         2.86186873E-11
   67.1999969         1.26252800E-10
   67.3649979         2.24207708E-10
   67.5299988         3.16321108E-10
   67.6949997         3.96391198E-10
   67.8600006         4.58610983E-10
   68.0250015         4.98001473E-10
   68.1900024         5.10807396E-10
   68.3550034         4.94820740E-10
   68.5199966         4.49601106E-10
   68.6849976         3.76569498E-10
   68.8499985         2.78964019E-10
   69.0149994         1.61656993E-10
   69.1800003         3.08471478E-11
   69.3450012        -1.06348576E-10
   69.5100021        -2.42369652E-10
   69.6750031        -3.69712622E-10
   69.8399963        -4.81416906E-10
   70.0049973        -5.71496628E-10
   70.1699982        -6.35287711E-10
   70.3349991        -6.69686473E-10
   70.5000000        -6.73270328E-10
   70.6650009        -6.46299569E-10
   70.8300018        -5.90610283E-10
   70.9950027        -5.09416120E-10
   71.1600037        -4.07041068E-10
   71.3249969        -2.88606583E-10
   71.4899979        -1.59695840E-10
   71.6549988        -2.60162013E-11
   71.8199997         1.06921659E-10
   71.9850006         2.34094050E-10
   72.1500015         3.51208673E-10
   72.3150024         4.54891375E-10
   72.4800034         5.42802414E-10
   72.6449966         6.13671558E-10
   72.8099976         6.67242595E-10
   72.9749985         7.04125092E-10
   73.1399994         7.25556448E-10
   73.3050003         7.33089311E-10
   73.4700012         7.28230642E-10
   73.6350021         7.12068460E-10
   73.8000031         6.84934220E-10
   73.9649963         6.46148191E-10
   74.1299973         5.93897320E-10
   74.2949982         5.25282540E-10
   74.4599991         4.36557235E-10
   74.6250000         3.23556487E-10
   74.7900009         1.82292015E-10
   74.9550018         9.66501445E-12
   75.1200027        -1.95773758E-10
   75.2850037        -4.33097225E-10
   75.4499969        -6.98394675E-10
   75.6149979        -9.84364590E-10
   75.7799988        -1.28017152E-09
   75.9449997        -1.57161084E-09
   76.1100006        -1.84159643E-09
   76.2750015        -2.07096140E-09
   76.4400024        -2.23953234E-09
   76.6050034        -2.32741915E-09
   76.7699966        -2.31644393E-09
   76.9349976        -2.19162244E-09
   77.0999985        -1.94260497E-09
   77.2649994        -1.56497937E-09
   77.4300003        -1.06134712E-09
   77.5950012        -4.42079040E-10
   77.7600021         2.74329809E-10
   77.9250031         1.06137776E-09
   78.0899963         1.88519911E-09
   78.2549973         2.70576161E-09
   78.4199982         3.47861251E-09
   78.5849991         4.15713419E-09
   78.7500000         4.69521311E-09
   78.9150009         5.05019138E-09
   79.0800018         5.18591481E-09
   79.2450027         5.07566078E-09
   79.4100037         4.70471218E-09
   79.5749969         4.07234113E-09
   79.7399979         3.19298721E-09
   79.9049988         2.09647988E-09
   80.0699997         8.27197699E-10
   80.2350006        -5.57827395E-10
   80.4000015        -1.99178385E-09
   80.5650024        -3.40175621E-09
   80.7300034        -4.71295047E-09
   80.8949966        -5.85317039E-09
   81.0599976        -6.75722234E-09
   81.2249985        -7.37092121E-09
   81.3899994        -7.65443442E-09
   81.5550003        -7.58473195E-09
   81.7200012        -7.15701942E-09
   81.8850021        -6.38509112E-09
   82.0500031        -5.30064748E-09
   82.2149963        -3.95165856E-09
   82.3799973        -2.39993647E-09
   82.5449982        -7.18082149E-10
   82.7099991         1.01401187E-09
   82.8750000         2.71292722E-09
   83.0400009         4.29560743E-09
   83.2050018         5.68322989E-09
   83.3700027         6.80495305E-09
   83.5350037         7.60141816E-09
   83.6999969         8.02789835E-09
   83.8649979         8.05695954E-09
   84.0299988         7.68048647E-09
   84.1949997         6.91093049E-09
   84.3600006         5.78160364E-09
   84.5250015         4.34591829E-09
   84.6900024         2.67546740E-09
   84.8550034         8.56960003E-10
   85.0199966        -1.01192499E-09
   85.1849976        -2.82757417E-09
   85.3499985        -4.48609638E-09
   85.5149994        -5.88925131E-09
   85.6800003        -6.95024838E-09
   85.8450012        -7.59901386E-09
   86.0100021        -7.78654474E-09
   86.1750031        -7.48804041E-09
   86.3399963        -6.70459155E-09
   86.5049973        -5.46334178E-09
   86.6699982        -3.81612253E-09
   86.8349991        -1.83671212E-09
   87.0000000         3.83068827E-10
   87.1650009         2.73812839E-09
   87.3300018         5.11541653E-09
   87.4950027         7.39945705E-09
   87.6600037         9.47777234E-09
   87.8249969         1.12459340E-08
   87.9899979         1.26120119E-08
   88.1549988         1.35002480E-08
   88.3199997         1.38538292E-08
   88.4850006         1.36367069E-08
   88.6500015         1.28344375E-08
   88.8150024         1.14540777E-08
   88.9800034         9.52322399E-09
   89.1449966         7.08830994E-09
   89.3099976         4.21231627E-09
   89.4749985         9.72084413E-10
   89.6399994        -2.54457100E-09
   89.8050003        -6.24176222E-09
   89.9700012        -1.00182813E-08
   90.1350021        -1.37700757E-08
   90.3000031        -1.73924182E-08
   90.4649963        -2.07817514E-08
   90.6299973        -2.38373232E-08
   90.7949982        -2.64627005E-08
   90.9599991        -2.85673334E-08
   91.1250000        -3.00683212E-08
   91.2900009        -3.08924228E-08
   91.4550018        -3.09783807E-08
   91.6200027        -3.02794376E-08
   91.7850037        -2.87659461E-08
   91.9499969        -2.64277755E-08
   92.1149979        -2.32762467E-08
   92.2799988        -1.93453449E-08
   92.4449997        -1.46919552E-08
   92.6100006        -9.39499945E-09
   92.7750015        -3.55346597E-09
   92.9400024         2.71653877E-09
   93.1050034         9.28548793E-09
   93.2699966         1.60145035E-08
   93.4349976         2.27594832E-08
   93.5999985         2.93748794E-08
   93.7649994         3.57168908E-08
   93.9300003         4.16459010E-08
   94.0950012         4.70281449E-08
   94.2600021         5.17367233E-08
   94.4250031         5.56521087E-08
   94.5899963         5.86624793E-08
   94.7549973         6.06639787E-08
   94.9199982         6.15611313E-08
   95.0849991         6.12673219E-08
   95.2500000         5.97053216E-08
   95.4150009         5.68075045E-08
   95.5800018         5.25154960E-08
   95.7450027         4.67789718E-08
   95.9100037         3.95532815E-08
   96.0749969         3.07958956E-08
   96.2399979         2.04617727E-08
   96.4049988         8.49804582E-09
   96.5699997        -5.16145038E-09
   96.7350006        -2.06010284E-08
   96.9000015        -3.79265792E-08
   97.0650024        -5.72668668E-08
   97.2300034        -7.87720964E-08
   97.3949966        -1.02609356E-07
   97.5599976        -1.28955094E-07
   97.7249985        -1.57984928E-07
   97.8899994        -1.89861581E-07
   98.0550003        -2.24721973E-07
   98.2200012        -2.62664798E-07
   98.3850021        -3.03739796E-07
   98.5500031        -3.47939846E-07
   98.7149963        -3.95197219E-07
   98.8799973        -4.45384273E-07
   99.0449982        -4.98318741E-07
   99.2099991        -5.53773816E-07
   99.3750000        -6.11492055E-07
   99.5400009        -6.71201860E-07
   99.7050018        -7.32635840E-07
   99.8700027        -7.95548772E-07
   100.035004        -8.59734428E-07
   100.199997        -9.25039956E-07
   100.364998        -9.91375487E-07
   100.529999        -1.05871970E-06
   100.695000        -1.12712064E-06
   100.860001        -1.19669005E-06
   101.025002        -1.26759301E-06
   101.190002        -1.34003415E-06
   101.355003        -1.41423800E-06
   101.519997        -1.49042728E-06
   101.684998        -1.56879946E-06
   101.849998        -1.64950131E-06
   102.014999        -1.73260469E-06
   102.180000        -1.81808468E-06
   102.345001        -1.90579885E-06
   102.510002        -1.99547344E-06
   102.675003        -2.08669394E-06
   102.839996        -2.17890602E-06
   103.004997        -2.27142141E-06
   103.169998        -2.36343772E-06
   103.334999        -2.45406568E-06
   103.500000        -2.54236602E-06
   103.665001        -2.62739695E-06
   103.830002        -2.70826467E-06
   103.995003        -2.78418042E-06
   104.160004        -2.85451461E-06
   104.324997        -2.91884930E-06
   104.489998        -2.97701877E-06
   104.654999        -3.02914077E-06
   104.820000        -3.07562914E-06
   104.985001        -3.11718918E-06
   105.150002        -3.15479360E-06
   105.315002        -3.18963657E-06
   105.480003        -3.22307346E-06
   105.644997        -3.25654514E-06
   105.809998        -3.29149293E-06
   105.974998        -3.32927061E-06
   106.139999        -3.37105826E-06
   106.305000        -3.41778605E-06
   106.470001        -3.47007222E-06
   106.635002        -3.52817619E-06
   106.800003        -3.59197884E-06
   106.964996        -3.66097879E-06
   107.129997        -3.73431544E-06
   107.294998        -3.81081054E-06
   107.459999        -3.88902663E-06
   107.625000        -3.96734049E-06
   107.790001        -4.04402454E-06
   107.955002        -4.11733481E-06
   108.120003        -4.18559739E-06
   108.285004        -4.24729524E-06
   108.449997        -4.30114369E-06
   108.614998        -4.34616413E-06
   108.779999        -4.38173811E-06
   108.945000        -4.40764870E-06
   109.110001        -4.42411101E-06
   109.275002        -4.43177169E-06
   109.440002        -4.43170120E-06
   109.605003        -4.42535202E-06
   109.769997        -4.41450402E-06
   109.934998        -4.40118265E-06
   110.099998        -4.38756206E-06
   110.264999        -4.37585049E-06
   110.430000        -4.36817118E-06
   110.595001        -4.36643631E-06
   110.760002        -4.37222980E-06
   110.925003        -4.38670349E-06
   111.089996        -4.41049269E-06
   111.254997        -4.44366106E-06
   111.419998        -4.48568107E-06
   111.584999        -4.53544408E-06
   111.750000        -4.59131070E-06
   111.915001        -4.65119183E-06
   112.080002        -4.71265776E-06
   112.245003        -4.77306730E-06
   112.410004        -4.82971063E-06
   112.574997        -4.87995339E-06
   112.739998        -4.92137815E-06
   112.904999        -4.95190989E-06
   113.070000        -4.96992243E-06
   113.235001        -4.97431938E-06
   113.400002        -4.96458642E-06
   113.565002        -4.94081087E-06
   113.730003        -4.90367484E-06
   113.894997        -4.85441478E-06
   114.059998        -4.79475602E-06
   114.224998        -4.72682177E-06
   114.389999        -4.65302173E-06
   114.555000        -4.57592432E-06
   114.720001        -4.49811705E-06
   114.885002        -4.42205919E-06
   115.050003        -4.34993763E-06
   115.214996        -4.28352951E-06
   115.379997        -4.22408220E-06
   115.544998        -4.17221236E-06
   115.709999        -4.12784266E-06
   115.875000        -4.09017457E-06
   116.040001        -4.05770470E-06
   116.205002        -4.02828937E-06
   116.370003        -3.99925284E-06
   116.535004        -3.96753785E-06
   116.699997        -3.92989023E-06
   116.864998        -3.88306398E-06
   117.029999        -3.82403596E-06
   117.195000        -3.75021227E-06
   117.360001        -3.65961273E-06
   117.525002        -3.55101770E-06
   117.690002        -3.42406565E-06
   117.855003        -3.27929320E-06
   118.019997        -3.11811414E-06
   118.184998        -2.94273809E-06
   118.349998        -2.75603543E-06
   118.514999        -2.56135581E-06
   118.680000        -2.36231790E-06
   118.845001        -2.16258354E-06
   119.010002        -1.96562860E-06
   119.175003        -1.77453614E-06
   119.339996        -1.59181627E-06
   119.504997        -1.41927069E-06
   119.669998        -1.25790746E-06
   119.834999        -1.10790916E-06
   120.000000        -9.68658924E-07
   120.165001        -8.38816447E-07
   120.330002        -7.16439615E-07
   120.495003        -5.99141117E-07
   120.660004        -4.84270970E-07
   120.824997        -3.69108420E-07
   120.989998        -2.51054985E-07
   121.154999        -1.27813010E-07
   121.320000         2.45781084E-09
   121.485001         1.41016528E-07
   121.650002         2.88455453E-07
   121.815002         4.44657047E-07
   121.980003         6.08793414E-07
   122.144997         7.79369600E-07
   122.309998         9.54305165E-07
   122.474998         1.13104898E-06
   122.639999         1.30672470E-06
   122.805000         1.47829348E-06
   122.970001         1.64273024E-06
   123.135002         1.79720394E-06
   123.300003         1.93925166E-06
   123.464996         2.06693812E-06
   123.629997         2.17899378E-06
   123.794998         2.27491978E-06
   123.959999         2.35505536E-06
   124.125000         2.42059969E-06
   124.290001         2.47358366E-06
   124.455002         2.51679057E-06
   124.620003         2.55362693E-06
   124.785004         2.58794307E-06
   124.949997         2.62381764E-06
   125.114998         2.66531288E-06
   125.279999         2.71621388E-06
   125.445000         2.77977233E-06
   125.610001         2.85846909E-06
   125.775002         2.95381460E-06
   125.940002         3.06620473E-06
   126.105003         3.19484229E-06
   126.269997         3.33773573E-06
   126.434998         3.49177958E-06
   126.599998         3.65290862E-06
   126.764999         3.81632572E-06
   126.930000         3.97678195E-06
   127.095001         4.12889358E-06
   127.260002         4.26747920E-06
   127.425003         4.38788220E-06
   127.589996         4.48627225E-06
   127.754997         4.55988811E-06
   127.919998         4.60722458E-06
   128.085007         4.62813250E-06
   128.250000         4.62384423E-06
   128.414993         4.59690773E-06
   128.580002         4.55104919E-06
   128.744995         4.49096024E-06
   128.910004         4.42203327E-06
   129.074997         4.35005222E-06
   129.240005         4.28086514E-06
   129.404999         4.22004632E-06
   129.570007         4.17257343E-06
   129.735001         4.14253100E-06
   129.899994         4.13285943E-06
   130.065002         4.14515989E-06
   130.229996         4.17956289E-06
   130.395004         4.23467782E-06
   130.559998         4.30761702E-06
   130.725006         4.39409951E-06
   130.889999         4.48863830E-06
   131.054993         4.58478826E-06
   131.220001         4.67545851E-06
   131.384995         4.75326351E-06