  -2.09999990         0.00000000    
  -1.93499994         0.00000000    
  -1.76999998         0.00000000    
  -1.60500002         0.00000000    
  -1.44000006         0.00000000    
  -1.27499998         0.00000000    
  -1.11000001         0.00000000    
 -0.944999993         0.00000000    
 -0.779999971         0.00000000    
 -0.615000010         0.00000000    
 -0.449999988         0.00000000    
 -0.284999996         0.00000000    
 -0.119999997         0.00000000    
   4.50000018E-02     0.00000000    
  0.209999993         0.00000000    
  0.375000000         0.00000000    
  0.540000021         0.00000000    
  0.704999983         0.00000000    
  0.870000005         0.00000000    
   1.03499997         0.00000000    
   1.20000005         0.00000000    
   1.36500001         0.00000000    
   1.52999997         0.00000000    
   1.69500005         0.00000000    
   1.86000001         0.00000000    
   2.02500010         0.00000000    
   2.19000006         0.00000000    
   2.35500002         0.00000000    
   2.51999998         0.00000000    
   2.68499994         0.00000000    
   2.84999990         0.00000000    
   3.01500010         0.00000000    
   3.18000007         0.00000000    
   3.34500003         0.00000000    
   3.50999999         0.00000000    
   3.67499995         0.00000000    
   3.83999991         0.00000000    
   4.00500011         0.00000000    
   4.17000008         0.00000000    
   4.33500004         0.00000000    
   4.50000000         0.00000000    
   4.66499996         0.00000000    
   4.82999992         0.00000000    
   4.99499989         0.00000000    
   5.15999985         0.00000000    
   5.32499981         0.00000000    
   5.48999977         0.00000000    
   5.65500021         0.00000000    
   5.82000017         0.00000000    
   5.98500013         0.00000000    
   6.15000010         0.00000000    
   6.31500006         0.00000000    
   6.48000002         0.00000000    
   6.64499998         0.00000000    
   6.80999994         0.00000000    
   6.97499990        -5.97493998E-34
   7.13999987        -2.54173488E-33
   7.30499983        -4.63175962E-33
   7.46999979        -2.71551420E-32
   7.63500023        -5.74090929E-32
   7.80000019        -3.25979645E-33
   7.96500015         9.26701442E-32
   8.13000011         2.53417892E-31
   8.29500008         4.44222607E-31
   8.46000004         5.42633818E-31
   8.62500000         5.68373853E-31
   8.78999996         5.59589995E-31
   8.95499992         3.93746197E-31
   9.11999989        -1.23126921E-30
   9.28499985        -3.62185571E-30
   9.44999981        -5.50215992E-30
   9.61499977        -6.41535314E-30
   9.77999973        -1.21168889E-29
   9.94499969        -2.27014463E-29
   10.1099997        -4.37273276E-29
   10.2749996        -7.87601829E-29
   10.4399996        -1.13918949E-28
   10.6049995        -1.14791275E-28
   10.7700005        -3.28216139E-29
   10.9350004         1.90229168E-28
   11.1000004         6.09403090E-28
   11.2650003         1.22722808E-27
   11.4300003         1.92949426E-27
   11.5950003         2.39979904E-27
   11.7600002         2.10721561E-27
   11.9250002         3.42870154E-28
   12.0900002        -3.54790654E-27
   12.2550001        -9.76906163E-27
   12.4200001        -1.74935391E-26
   12.5850000        -2.43025735E-26
   12.7500000        -2.59633876E-26
   12.9150000        -1.68789101E-26
   13.0799999         8.39782416E-27
   13.2449999         5.25029272E-26
   13.4099998         1.11793916E-25
   13.5749998         1.73039622E-25
   13.7399998         2.11807896E-25
   13.9049997         1.94402456E-25
   14.0699997         8.49410972E-26
   14.2349997        -1.41861559E-25
   14.3999996        -4.83483037E-25
   14.5649996        -8.91660328E-25
   14.7299995        -1.25991608E-24
   14.8950005        -1.42445541E-24
   15.0600004        -1.18633419E-24
   15.2250004        -3.60073884E-25
   15.3900003         1.15219278E-24
   15.5550003         3.27138152E-24
   15.7200003         5.65878681E-24
   15.8850002         7.67282562E-24
   16.0499992         8.40372891E-24
   16.2150002         6.82010169E-24
   16.3799992         2.04146040E-24
   16.5450001        -6.28576676E-24
   16.7099991        -1.75805036E-23
   16.8750000        -3.00088305E-23
   17.0400009        -4.04076202E-23
   17.2049999        -4.45926283E-23
   17.3700008        -3.81274840E-23
   17.5349998        -1.75068840E-23
   17.7000008         1.84493172E-23
   17.8649998         6.73372489E-23
   18.0300007         1.22459119E-22
   18.1949997         1.73017707E-22
   18.3600006         2.05369637E-22
   18.5249996         2.05193021E-22
   18.6900005         1.60129020E-22
   18.8549995         6.23003468E-23
   19.0200005        -8.97971097E-23
   19.1849995        -2.90173182E-22
   19.3500004        -5.24629913E-22
   19.5149994        -7.69703374E-22
   19.6800003        -9.90554943E-22
   19.8449993        -1.13783116E-21
   20.0100002        -1.14489027E-21
   20.1749992        -9.28445917E-22
   20.3400002        -3.96859740E-22
   20.5049992         5.29903745E-22
   20.6700001         1.88695205E-21
   20.8349991         3.62062730E-21
   21.0000000         5.54301443E-21
   21.1650009         7.29942220E-21
   21.3299999         8.36674368E-21
   21.4950008         8.09926061E-21
   21.6599998         5.83142743E-21
   21.8250008         1.03490321E-21
   21.9899998        -6.48795276E-21
   22.1550007        -1.64063875E-20
   22.3199997        -2.77015905E-20
   22.4850006        -3.85904054E-20
   22.6499996        -4.65733510E-20
   22.8150005        -4.86375285E-20
   22.9799995        -4.16308435E-20
   23.1450005        -2.28078090E-20
   23.3099995         9.47267204E-21
   23.4750004         5.49442508E-20
   23.6399994         1.10611587E-19
   23.8050003         1.70052398E-19
   23.9699993         2.23051010E-19
   24.1350002         2.55830291E-19
   24.2999992         2.52172550E-19
   24.4650002         1.95670918E-19
   24.6299992         7.31995647E-20
   24.7950001        -1.20585110E-19
   24.9599991        -3.78277759E-19
   25.1250000        -6.75279698E-19
   25.2900009        -9.67226530E-19
   25.4549999        -1.19080911E-18
   25.6200008        -1.26935559E-18
   25.7849998        -1.12396175E-18
   25.9500008        -6.89937700E-19
   26.1149998         6.30579426E-20
   26.2800007         1.11036465E-18
   26.4449997         2.35568941E-18
   26.6100006         3.62384931E-18
   26.7749996         4.66805772E-18
   26.9400005         5.19546435E-18
   27.1049995         4.91181543E-18
   27.2700005         3.58203781E-18
   27.4349995         1.09889652E-18
   27.6000004        -2.45251876E-18
   27.7649994        -6.74966931E-18
   27.9300003        -1.12223379E-17
   28.0949993        -1.50897414E-17
   28.2600002        -1.74505777E-17
   28.4249992        -1.74216909E-17
   28.5900002        -1.43095744E-17
   28.7549992        -7.78835049E-18
   28.9200001         1.94923250E-18
   29.0849991         1.41023442E-17
   29.2500000         2.72625330E-17
   29.4150009         3.95194736E-17
   29.5799999         4.86693022E-17
   29.7450008         5.25040354E-17
   29.9099998         4.91448218E-17
   30.0750008         3.73733568E-17
   30.2399998         1.69165053E-17
   30.4050007        -1.13517172E-17
   30.5699997        -4.53126264E-17
   30.7350006        -8.16183875E-17
   30.8999996        -1.15821737E-16
   31.0650005        -1.42623871E-16
   31.2299995        -1.56254629E-16
   31.3950005        -1.51012806E-16
   31.5599995        -1.21998301E-16
   31.7250004        -6.60515763E-17
   31.8899994         1.71310064E-17
   32.0550003         1.23817079E-16
   32.2200012         2.45205318E-16
   32.3849983         3.66851002E-16
   32.5499992         4.68924639E-16
   32.7150002         5.27664204E-16
   32.8800011         5.18260815E-16
   33.0449982         4.19172836E-16
   33.2099991         2.17511298E-16
   33.3750000        -8.52662805E-17
   33.5400009        -4.68494717E-16
   33.7050018        -8.89652469E-16
   33.8699989        -1.28529648E-15
   34.0349998        -1.57661451E-15
   34.2000008        -1.67993400E-15
   34.3650017        -1.52153280E-15
   34.5299988        -1.05494481E-15
   34.6949997        -2.77861667E-16
   34.8600006         7.55015100E-16
   35.0250015         1.92697200E-15
   35.1899986         3.06527819E-15
   35.3549995         3.95981847E-15
   35.5200005         4.39375810E-15
   35.6850014         4.18295193E-15
   35.8499985         3.21821634E-15
   36.0149994         1.50262374E-15
   36.1800003        -8.24745763E-16
   36.3450012        -3.48623197E-15
   36.5099983        -6.08910471E-15
   36.6749992        -8.17575598E-15
   36.8400002        -9.29586303E-15
   37.0050011        -9.09047617E-15
   37.1699982        -7.37373351E-15
   37.3349991        -4.19582768E-15
   37.5000000         1.28232874E-16
   37.6650009         5.03523267E-15
   37.8300018         9.77965606E-15
   37.9949989         1.35435825E-14
   38.1599998         1.55757179E-14
   38.3250008         1.53367207E-14
   38.4900017         1.26235870E-14
   38.6549988         7.64627399E-15
   38.8199997         1.03581425E-15
   38.9850006        -6.22590180E-15
   39.1500015        -1.29500868E-14
   39.3149986        -1.79391092E-14
   39.4799995        -2.02061031E-14
   39.6450005        -1.91759535E-14
   39.8100014        -1.48271711E-14
   39.9749985        -7.74195398E-15
   40.1399994         9.53218797E-16
   40.3050003         9.75416884E-15
   40.4700012         1.70295567E-14
   40.6349983         2.13141306E-14
   40.7999992         2.15925436E-14
   40.9650002         1.75200464E-14
   41.1300011         9.53530315E-15
   41.2949982        -1.16155629E-15
   41.4599991        -1.27688514E-14
   41.6250000        -2.31594868E-14
   41.7900009        -3.02300570E-14
   41.9550018        -3.22658533E-14
   42.1199989        -2.82608545E-14
   42.2849998        -1.81389446E-14
   42.4500008        -2.83828649E-15
   42.6150017         1.57572624E-14
   42.7799988         3.50324357E-14
   42.9449997         5.19724102E-14
   43.1100006         6.35684607E-14
   43.2750015         6.72455323E-14
   43.4399986         6.12589339E-14
   43.6049995         4.50123066E-14
   43.7700005         1.92585070E-14
   43.9350014        -1.38441276E-14
   44.0999985        -5.08355056E-14
   44.2649994        -8.72213136E-14
   44.4300003        -1.17895724E-13
   44.5950012        -1.37696929E-13
   44.7599983        -1.42057373E-13
   44.9249992        -1.27692846E-13
   45.0900002        -9.32566199E-14
   45.2550011        -3.98692987E-14
   45.4199982         2.85722848E-14
   45.5849991         1.05399454E-13
   45.7500000         1.81559818E-13
   45.9150009         2.46420180E-13
   46.0800018         2.88957741E-13
   46.2449989         2.99244977E-13
   46.4099998         2.70065166E-13
   46.5750008         1.98437173E-13
   46.7400017         8.67966655E-14
   46.9049988        -5.64123401E-14
   47.0699997        -2.16932930E-13
   47.2350006        -3.75780814E-13
   47.4000015        -5.11194928E-13
   47.5649986        -6.01284376E-13
   47.7299995        -6.27067246E-13
   47.8950005        -5.75491152E-13
   48.0600014        -4.41981467E-13
   48.2249985        -2.32084697E-13
   48.3899994         3.81259525E-14
   48.5550003         3.43052491E-13
   48.7200012         6.49951013E-13
   48.8849983         9.22444738E-13
   49.0499992         1.12474851E-12
   49.2150002         1.22606092E-12
   49.3800011         1.20454200E-12
   49.5449982         1.05035154E-12
   49.7099991         7.67353086E-13
   49.8750000         3.73284655E-13
   50.0400009        -1.01592793E-13
   50.2050018        -6.17160403E-13
   50.3699989        -1.12706654E-12
   50.5349998        -1.58288237E-12
   50.7000008        -1.93835724E-12
   50.8650017        -2.15341026E-12
   51.0299988        -2.19759172E-12
   51.1949997        -2.05285225E-12
   51.3600006        -1.71553928E-12
   51.5250015        -1.19757437E-12
   51.6899986        -5.26744718E-13
   51.8549995         2.53993658E-13
   52.0200005         1.08835412E-12
   52.1850014         1.90985921E-12
   52.3499985         2.64636837E-12
   52.5149994         3.22593688E-12
   52.6800003         3.58369736E-12
   52.8450012         3.66918778E-12
   53.0099983         3.45327304E-12
   53.1749992         2.93363554E-12
   53.3400002         2.13779407E-12
   53.5050011         1.12279142E-12
   53.6699982        -2.89132189E-14
   53.8349991        -1.21724365E-12
   54.0000000        -2.33525916E-12
   54.1650009        -3.28151677E-12
   54.3300018        -3.97227216E-12
   54.4949989        -4.35160675E-12
   54.6599998        -4.39777511E-12
   54.8250008        -4.12462686E-12
   54.9900017        -3.57777761E-12
   55.1549988        -2.82616183E-12
   55.3199997        -1.95049771E-12
   55.4850006        -1.03082798E-12
   55.6500015        -1.35540681E-13
   55.8149986         6.85986858E-13
   55.9799995         1.40571723E-12
   56.1450005         2.01393524E-12
   56.3100014         2.51179568E-12
   56.4749985         2.90146813E-12
   56.6399994         3.17664731E-12
   56.8050003         3.31635002E-12
   56.9700012         3.28441831E-12
   57.1349983         3.03598596E-12
   57.2999992         2.53058425E-12
   57.4650002         1.74980874E-12
   57.6300011         7.15953121E-13
   57.7949982        -4.92941625E-13
   57.9599991        -1.73627193E-12
   58.1250000        -2.81606032E-12
   58.2900009        -3.49610336E-12
   58.4550018        -3.53452749E-12
   58.6199989        -2.72643388E-12
   58.7849998        -9.50769628E-13
   58.9500008         1.78626666E-12
   59.1150017         5.31961628E-12
   59.2799988         9.31311972E-12
   59.4449997         1.32720319E-11
   59.6100006         1.65823813E-11
   59.7750015         1.85751709E-11
   59.9399986         1.86093450E-11
   60.1049995         1.61639521E-11
   60.2700005         1.09276702E-11
   60.4350014         2.87322141E-12
   60.5999985        -7.69463226E-12
   60.7649994        -2.01259825E-11
   60.9300003        -3.34519565E-11
   61.0950012        -4.64498821E-11
   61.2599983        -5.77424185E-11
   61.4249992        -6.59216431E-11
   61.5900002        -6.96863400E-11
   61.7550011        -6.79791987E-11
   61.9199982        -6.01108746E-11
   62.0849991        -4.58590145E-11
   62.2500000        -2.55328189E-11
   62.4150009         3.70571366E-15
   62.5800018         2.93533114E-11
   62.7449989         6.06525316E-11
   62.9099998         9.16815027E-11
   63.0750008         1.20011126E-10
   63.2400017         1.43178969E-10
   63.4049988         1.58882366E-10
   63.5699997         1.65174860E-10
   63.7350006         1.60649924E-10
   63.9000015         1.44594878E-10
   64.0650024         1.17098956E-10
   64.2300034         7.91015101E-11
   64.3949966         3.23716852E-11
   64.5599976        -2.05837101E-11
   64.7249985        -7.66787606E-11
   64.8899994        -1.32461195E-10
   65.0550003        -1.84359736E-10
   65.2200012        -2.28942060E-10
   65.3850021        -2.63158079E-10
   65.5500031        -2.84545026E-10
   65.7149963        -2.91376312E-10
   65.8799973        -2.82744494E-10
   66.0449982        -2.58577881E-10
   66.2099991        -2.19598881E-10
   66.3750000        -1.67240152E-10
   66.5400009        -1.03536804E-10
   66.7050018        -3.10139761E-11
   66.8700027         4.74160260E-11
   67.0350037         1.28539540E-10
   67.1999969         2.08911527E-10
   67.3649979         2.84918839E-10
   67.5299988         3.52851387E-10
   67.6949997         4.08998335E-10
   67.8600006         4.49782600E-10
   68.0250015         4.71941985E-10
   68.1900024         4.72753336E-10
   68.3550034         4.50286003E-10
   68.5199966         4.03659300E-10
   68.6849976         3.33271327E-10
   68.8499985         2.40962333E-10
   69.0149994         1.30079197E-10
   69.1800003         5.41409105E-12
   69.3450012        -1.26994887E-10
   69.5100021        -2.60198724E-10
   69.6750031        -3.86786159E-10
   69.8399963        -4.99409736E-10
   70.0049973        -5.91338090E-10
   70.1699982        -6.56978638E-10
   70.3349991        -6.92313595E-10
   70.5000000        -6.95200619E-10
   70.6650009        -6.65504041E-10
   70.8300018        -6.05042294E-10
   70.9950027        -5.17359267E-10
   71.1600037        -4.07349932E-10
   71.3249969        -2.80788781E-10
   71.4899979        -1.43822038E-10
   71.6549988        -2.48700171E-12
   71.8199997         1.37682019E-10
   71.9850006         2.71918210E-10
   72.1500015         3.96334493E-10
   72.3150024         5.07886344E-10
   72.4800034         6.04213179E-10
   72.6449966         6.83405166E-10
   72.8099976         7.43756778E-10
   72.9749985         7.83567211E-10
   73.1399994         8.01041233E-10
   73.3050003         7.94321831E-10
   73.4700012         7.61663288E-10
   73.6350021         7.01722125E-10
   73.8000031         6.13919804E-10
   73.9649963         4.98813602E-10
   74.1299973         3.58404695E-10
   74.2949982         1.96319960E-10
   74.4599991         1.78212514E-11
   74.6250000        -1.70375561E-10
   74.7900009        -3.60459995E-10
   74.9550018        -5.44022216E-10
   75.1200027        -7.12620463E-10
   75.2850037        -8.58344507E-10
   75.4499969        -9.74305858E-10
   75.6149979        -1.05499698E-09
   75.7799988        -1.09649190E-09
   75.9449997        -1.09648879E-09
   76.1100006        -1.05422715E-09
   76.2750015        -9.70333036E-10
   76.4400024        -8.46653414E-10
   76.6050034        -6.86142865E-10
   76.7699966        -4.92838659E-10
   76.9349976        -2.71936917E-10
   77.0999985        -2.99463961E-11
   77.2649994         2.25135730E-10
   77.4300003         4.83704410E-10
   77.5950012         7.34570349E-10
   77.7600021         9.65202585E-10
   77.9250031         1.16223997E-09
   78.0899963         1.31227995E-09
   78.2549973         1.40289935E-09
   78.4199982         1.42382017E-09
   78.5849991         1.36808520E-09
   78.7500000         1.23309085E-09
   78.9150009         1.02132236E-09
   79.0800018         7.40658257E-10
   79.2450027         4.04165285E-10
   79.4100037         2.93584913E-11
   79.5749969        -3.63018421E-10
   79.7399979        -7.50576212E-10
   79.9049988        -1.11105070E-09
   80.0699997        -1.42405454E-09
   80.2350006        -1.67260250E-09
   80.4000015        -1.84422544E-09
   80.5650024        -1.93154981E-09
   80.7300034        -1.93228344E-09
   80.8949966        -1.84864390E-09
   81.0599976        -1.68633596E-09
   81.2249985        -1.45325862E-09
   81.3899994        -1.15815679E-09
   81.5550003        -8.09442458E-10
   81.7200012        -4.14380946E-10
   81.8850021         2.12184107E-11
   82.0500031         4.92751451E-10
   82.2149963         9.96048577E-10
   82.3799973         1.52620949E-09
   82.5449982         2.07625228E-09
   82.7099991         2.63582245E-09
   82.8750000         3.19021343E-09
   83.0400009         3.71992415E-09
   83.2050018         4.20088986E-09
   83.3700027         4.60544447E-09
   83.5350037         4.90393859E-09
   83.6999969         5.06684161E-09
   83.8649979         5.06707121E-09
   84.0299988         4.88224705E-09
   84.1949997         4.49656712E-09
   84.3600006         3.90206223E-09
   84.5250015         3.09908121E-09
   84.6900024         2.09599160E-09
   84.8550034         9.08204567E-10
   85.0199966        -4.43226456E-10
   85.1849976        -1.93312300E-09
   85.3499985        -3.53345930E-09
   85.5149994        -5.21409671E-09
   85.6800003        -6.94276725E-09
   85.8450012        -8.68425687E-09
   86.0100021        -1.03989208E-08
   86.1750031        -1.20408297E-08
   86.3399963        -1.35560185E-08
   86.5049973        -1.48813450E-08
   86.6699982        -1.59444919E-08
   86.8349991        -1.66655330E-08
   87.0000000        -1.69602838E-08
   87.1650009        -1.67454459E-08
   87.3300018        -1.59452327E-08
   87.4950027        -1.44989496E-08
   87.6600037        -1.23687398E-08
   87.8249969        -9.54665680E-09
   87.9899979        -6.06016393E-09
   88.1549988        -1.97530658E-09
   88.3199997         2.60300048E-09
   88.4850006         7.53379936E-09
   88.6500015         1.26459474E-08
   88.8150024         1.77465918E-08
   88.9800034         2.26315642E-08
   89.1449966         2.70967924E-08
   89.3099976         3.09497601E-08
   89.4749985         3.40200970E-08
   89.6399994         3.61684798E-08
   89.8050003         3.72933009E-08
   89.9700012         3.73348144E-08
   90.1350021         3.62766919E-08
   90.3000031         3.41453017E-08
   90.4649963         3.10070192E-08
   90.6299973         2.69641287E-08
   90.7949982         2.21497203E-08
   90.9599991         1.67220602E-08
   91.1250000         1.08586402E-08
   91.2900009         4.75002926E-09
   91.4550018        -1.40651557E-09
   91.6200027        -7.41378647E-09
   91.7850037        -1.30818192E-08
   91.9499969        -1.82356530E-08
   92.1149979        -2.27234960E-08
   92.2799988        -2.64249991E-08
   92.4449997        -2.92590983E-08
   92.6100006        -3.11907122E-08
   92.7750015        -3.22353770E-08
   92.9400024        -3.24610490E-08
   93.1050034        -3.19862217E-08
   93.2699966        -3.09739683E-08
   93.4349976        -2.96217912E-08
   93.5999985        -2.81475803E-08
   93.7649994        -2.67725877E-08
   93.9300003        -2.57025867E-08
   94.0950012        -2.51088625E-08
   94.2600021        -2.51105945E-08
   94.4250031        -2.57603965E-08
   94.5899963        -2.70342859E-08
   94.7549973        -2.88270261E-08
   94.9199982        -3.09532204E-08
   95.0849991        -3.31539347E-08
   95.2500000        -3.51079308E-08
   95.4150009        -3.64463126E-08
   95.5800018        -3.67689630E-08
   95.7450027        -3.56609924E-08
   95.9100037        -3.27076677E-08
   96.0749969        -2.75065197E-08
   96.2399979        -1.96757561E-08
   96.4049988        -8.85870932E-09
   96.5699997         5.27551336E-09
   96.7350006         2.30345094E-08
   96.9000015         4.47070789E-08
   97.0650024         7.05685679E-08
   97.2300034         1.00885799E-07
   97.3949966         1.35920288E-07
   97.5599976         1.75929216E-07
   97.7249985         2.21163461E-07
   97.8899994         2.71862575E-07
   98.0550003         3.28247211E-07
   98.2200012         3.90509570E-07
   98.3850021         4.58803214E-07
   98.5500031         5.33232708E-07
   98.7149963         6.13844918E-07
   98.8799973         7.00622365E-07
   99.0449982         7.93479785E-07
   99.2099991         8.92263870E-07
   99.3750000         9.96756626E-07
   99.5400009         1.10668088E-06
   99.7050018         1.22170923E-06
   99.8700027         1.34147160E-06
   100.035004         1.46556545E-06
   100.199997         1.59356318E-06
   100.364998         1.72501836E-06
   100.529999         1.85947033E-06
   100.695000         1.99644660E-06
   100.860001         2.13546582E-06
   101.025002         2.27603823E-06
   101.190002         2.41767111E-06
   101.355003         2.55987402E-06
   101.519997         2.70217015E-06
   101.684998         2.84410771E-06
   101.849998         2.98527902E-06
   102.014999         3.12533666E-06
   102.180000         3.26401414E-06
   102.345001         3.40113843E-06
   102.510002         3.53664200E-06
   102.675003         3.67056236E-06
   102.839996         3.80303663E-06
   103.004997         3.93428218E-06
   103.169998         4.06457048E-06
   103.334999         4.19419348E-06
   103.500000         4.32342404E-06
   103.665001         4.45247861E-06
   103.830002         4.58148270E-06
   103.995003         4.71044359E-06
   104.160004         4.83923668E-06
   104.324997         4.96760458E-06
   104.489998         5.09516440E-06
   104.654999         5.22143591E-06
   104.820000         5.34587070E-06
   104.985001         5.46789443E-06
   105.150002         5.58694364E-06
   105.315002         5.70250222E-06
   105.480003         5.81412905E-06
   105.644997         5.92148172E-06
   105.809998         6.02432237E-06
   105.974998         6.12252006E-06
   106.139999         6.21604204E-06
   106.305000         6.30494560E-06
   106.470001         6.38936490E-06
   106.635002         6.46950502E-06
   106.800003         6.54563837E-06
   106.964996         6.61811055E-06
   107.129997         6.68734992E-06
   107.294998         6.75388037E-06
   107.459999         6.81833444E-06
   107.625000         6.88145929E-06
   107.790001         6.94411574E-06
   107.955002         7.00725968E-06
   108.120003         7.07191157E-06
   108.285004         7.13910777E-06
   108.449997         7.20983826E-06
   108.614998         7.28497844E-06
   108.779999         7.36521770E-06
   108.945000         7.45099169E-06
   109.110001         7.54242910E-06
   109.275002         7.63931894E-06
   109.440002         7.74109867E-06
   109.605003         7.84687109E-06
   109.769997         7.95544474E-06
   109.934998         8.06539356E-06
   110.099998         8.17513683E-06
   110.264999         8.28302382E-06
   110.430000         8.38742108E-06
   110.595001         8.48679156E-06
   110.760002         8.57976465E-06
   110.925003         8.66518440E-06
   111.089996         8.74214038E-06
   111.254997         8.80998869E-06
   111.419998         8.86834368E-06
   111.584999         8.91706441E-06
   111.750000         8.95623452E-06
   111.915001         8.98612325E-06
   112.080002         9.00715895E-06
   112.245003         9.01988642E-06
   112.410004         9.02493775E-06
   112.574997         9.02298689E-06
   112.739998         9.01472413E-06
   112.904999         9.00080886E-06
   113.070000         8.98184317E-06
   113.235001         8.95833364E-06
   113.400002         8.93066499E-06
   113.565002         8.89907733E-06
   113.730003         8.86365888E-06
   113.894997         8.82434051E-06
   114.059998         8.78091305E-06
   114.224998         8.73305635E-06
   114.389999         8.68037387E-06
   114.555000         8.62244178E-06
   114.720001         8.55885719E-06
   114.885002         8.48929267E-06
   115.050003         8.41352994E-06
   115.214996         8.33149443E-06
   115.379997         8.24326980E-06
   115.544998         8.14908617E-06
   115.709999         8.04930642E-06
   115.875000         7.94437983E-06
   116.040001         7.83479754E-06
   116.205002         7.72103613E-06
   116.370003         7.60350031E-06
   116.535004         7.48247612E-06
   116.699997         7.35808771E-06
   116.864998         7.23027460E-06
   117.029999         7.09878350E-06
   117.195000         6.96317602E-06
   117.360001         6.82285508E-06
   117.525002         6.67709992E-06
   117.690002         6.52511653E-06
   117.855003         6.36608956E-06
   118.019997         6.19923640E-06
   118.184998         6.02386308E-06
   118.349998         5.83940937E-06
   118.514999         5.64549009E-06
   118.680000         5.44192608E-06
   118.845001         5.22876235E-06
   119.010002         5.00627630E-06
   119.175003         4.77497724E-06
   119.339996         4.53559323E-06
   119.504997         4.28905241E-06
   119.669998         4.03645618E-06
   119.834999         3.77904803E-06
   120.000000         3.51817857E-06
   120.165001         3.25526707E-06
   120.330002         2.99176236E-06
   120.495003         2.72910052E-06
   120.660004         2.46866148E-06
   120.824997         2.21172240E-06
   120.989998         1.95940970E-06
   121.154999         1.71264833E-06
   121.320000         1.47211153E-06
   121.485001         1.23817188E-06
   121.650002         1.01085777E-06
   121.815002         7.89820206E-07
   121.980003         5.74314470E-07
   122.144997         3.63202219E-07
   122.309998         1.54976846E-07
   122.474998        -5.21839070E-08
   122.639999        -2.60337544E-07
   122.805000        -4.71670631E-07
   122.970001        -6.88371074E-07
   123.135002        -9.12487167E-07
   123.300003        -1.14578165E-06
   123.464996        -1.38959319E-06
   123.629997        -1.64471510E-06
   123.794998        -1.91130152E-06
   123.959999        -2.18881291E-06
   124.125000        -2.47600110E-06
   124.290001        -2.77094250E-06
   124.455002        -3.07111145E-06
   124.620003        -3.37349547E-06
   124.785004        -3.67473399E-06
   124.949997        -3.97128133E-06
   125.114998        -4.25957160E-06
   125.279999        -4.53617895E-06
   125.445000        -4.79795790E-06
   125.610001        -5.04215996E-06
   125.775002        -5.26651365E-06
   125.940002        -5.46927322E-06
   126.105003        -5.64922993E-06
   126.269997        -5.80569213E-06
   126.434998        -5.93844652E-06
   126.599998        -6.04770094E-06
   126.764999        -6.13402244E-06
   126.930000        -6.19827370E-06
   127.095001        -6.24156519E-06
   127.260002        -6.26521432E-06
   127.425003        -6.27072131E-06
   127.589996        -6.25975463E-06
   127.754997        -6.23414599E-06
   127.919998        -6.19588900E-06
   128.085007        -6.14712872E-06
   128.250000        -6.09014432E-06
   128.414993        -6.02731279E-06
   128.580002        -5.96105474E-06
   128.744995        -5.89376214E-06
   128.910004        -5.82771145E-06
   129.074997        -5.76496632E-06
   129.240005        -5.70728071E-06
   129.404999        -5.65600703E-06
   129.570007        -5.61202660E-06
   129.735001        -5.57569956E-06
   129.899994        -5.54685221E-06
   130.065002        -5.52479150E-06
   130.229996        -5.50835648E-06
   130.395004        -5.49599554E-06
   130.559998        -5.48586650E-06
   130.725006        -5.47594436E-06
   130.889999        -5.46413548E-06
   131.054993        -5.44837849E-06
   131.220001        -5.42673433E-06
   131.384995        -5.39744906E-06