  -2.09999990         0.00000000    
  -1.93499994         0.00000000    
  -1.76999998         0.00000000    
  -1.60500002         0.00000000    
  -1.44000006         0.00000000    
  -1.27499998         0.00000000    
  -1.11000001         0.00000000    
 -0.944999993         0.00000000    
 -0.779999971         0.00000000    
 -0.615000010         0.00000000    
 -0.449999988         0.00000000    
 -0.284999996         0.00000000    
 -0.119999997         0.00000000    
   4.50000018E-02     0.00000000    
  0.209999993         0.00000000    
  0.375000000         0.00000000    
  0.540000021         0.00000000    
  0.704999983         0.00000000    
  0.870000005         0.00000000    
   1.03499997         0.00000000    
   1.20000005         0.00000000    
   1.36500001         0.00000000    
   1.52999997         0.00000000    
   1.69500005         0.00000000    
   1.86000001         0.00000000    
   2.02500010         0.00000000    
   2.19000006         0.00000000    
   2.35500002         0.00000000    
   2.51999998         0.00000000    
   2.68499994         0.00000000    
   2.84999990         1.18721339E-33
   3.01500010         8.63471277E-33
   3.18000007         3.52959165E-32
   3.34500003         7.41747691E-32
   3.50999999         8.85259682E-32
   3.67499995         1.05498436E-32
   3.83999991        -2.59752019E-31
   4.00500011        -8.04758479E-31
   4.17000008        -5.65488466E-30
   4.33500004        -9.82052217E-30
   4.50000000         1.91889789E-29
   4.66499996         1.00750987E-28
   4.82999992         2.38899813E-28
   4.99499989         4.11001298E-28
   5.15999985         5.44514803E-28
   5.32499981         5.01085227E-28
   5.48999977         5.14425638E-29
   5.65500021        -1.11048119E-27
   5.82000017        -3.25955015E-27
   5.98500013        -6.44097341E-27
   6.15000010        -1.01283354E-26
   6.31500006        -1.28897692E-26
   6.48000002        -1.23160994E-26
   6.64499998        -5.55881507E-27
   6.80999994         9.25080929E-27
   6.97499990         3.09841298E-26
   7.13999987         5.40503703E-26
   7.30499983         6.94818825E-26
   7.46999979         7.04623318E-26
   7.63500023         6.20322252E-26
   7.80000019         7.02702996E-26
   7.96500015         1.40935658E-25
   8.13000011         3.15452558E-25
   8.29500008         5.78650921E-25
   8.46000004         7.91325208E-25
   8.62500000         6.47790241E-25
   8.78999996        -2.80434801E-25
   8.95499992        -2.36240708E-24
   9.11999989        -5.59363834E-24
   9.28499985        -9.26344530E-24
   9.44999981        -1.18269316E-23
   9.61499977        -1.12305118E-23
   9.77999973        -5.78780856E-24
   9.94499969         4.65597303E-24
   10.1099997         1.79800775E-23
   10.2749996         3.04140810E-23
   10.4399996         3.91326758E-23
   10.6049995         4.62379144E-23
   10.7700005         6.17588096E-23
   10.9350004         1.01801604E-22
   11.1000004         1.78225565E-22
   11.2650003         2.79547415E-22
   11.4300003         3.49347115E-22
   11.5950003         2.76177603E-22
   11.7600002        -8.66987985E-23
   11.9250002        -8.58224826E-22
   12.0900002        -2.02728316E-21
   12.2550001        -3.34390691E-21
   12.4200001        -4.26523606E-21
   12.5850000        -4.02822337E-21
   12.7500000        -1.89527758E-21
   12.9150000         2.45126816E-21
   13.0799999         8.49042172E-21
   13.2449999         1.46334325E-20
   13.4099998         1.84177466E-20
   13.5749998         1.72558503E-20
   13.7399998         9.63901855E-21
   13.9049997        -3.60530507E-21
   14.0699997        -1.86424894E-20
   14.2349997        -2.91977049E-20
   14.3999996        -2.86779189E-20
   14.5649996        -1.34983242E-20
   14.7299995         1.35365797E-20
   14.8950005         4.15148895E-20
   15.0600004         5.30162608E-20
   15.2250004         2.97498803E-20
   15.3900003        -3.87300988E-20
   15.5550003        -1.46078545E-19
   15.7200003        -2.64055051E-19
   15.8850002        -3.45060590E-19
   16.0499992        -3.33958275E-19
   16.2150002        -1.87212699E-19
   16.3799992         1.06406155E-19
   16.5450001         5.11527302E-19
   16.7099991         9.45444899E-19
   16.8750000         1.29387860E-18
   17.0400009         1.43974746E-18
   17.2049999         1.29551435E-18
   17.3700008         8.27146646E-19
   17.5349998         6.06739500E-20
   17.7000008        -9.29707168E-19
   17.8649998        -2.04324116E-18
   18.0300007        -3.16860777E-18
   18.1949997        -4.18030446E-18
   18.3600006        -4.91231505E-18
   18.5249996        -5.12332097E-18
   18.6900005        -4.48373954E-18
   18.8549995        -2.61987932E-18
   19.0200005         7.62756323E-19
   19.1849995         5.68689649E-18
   19.3500004         1.16932452E-17
   19.5149994         1.76992845E-17
   19.6800003         2.20240891E-17
   19.8449993         2.26489563E-17
   20.0100002         1.77189631E-17
   20.1749992         6.20429672E-18
   20.3400002        -1.14409501E-17
   20.5049992        -3.28302493E-17
   20.6700001        -5.36032128E-17
   20.8349991        -6.79167031E-17
   21.0000000        -6.94784797E-17
   21.1650009        -5.30040991E-17
   21.3299999        -1.58665550E-17
   21.4950008         4.03632838E-17
   21.6599998         1.08813730E-16
   21.8250008         1.76967431E-16
   21.9899998         2.27363839E-16
   22.1550007         2.39579802E-16
   22.3199997         1.93615135E-16
   22.4850006         7.46103611E-17
   22.6499996        -1.21498843E-16
   22.8150005        -3.82235449E-16
   22.9799995        -6.74088195E-16
   23.1450005        -9.41012735E-16
   23.3099995        -1.10775646E-15
   23.4750004        -1.08939353E-15
   23.6399994        -8.07384817E-16
   23.8050003        -2.10818560E-16
   23.9699993         7.00472954E-16
   24.1350002         1.85599827E-15
   24.2999992         3.10396579E-15
   24.4650002         4.21567324E-15
   24.6299992         4.90872745E-15
   24.7950001         4.88945068E-15
   24.9599991         3.91037546E-15
   25.1250000         1.83428034E-15
   25.2900009        -1.30716178E-15
   25.4549999        -5.27333575E-15
   25.6200008        -9.60500126E-15
   25.7849998        -1.36526346E-14
   25.9500008        -1.66443431E-14
   26.1149998        -1.77879291E-14
   26.2800007        -1.63954018E-14
   26.4449997        -1.20136690E-14
   26.6100006        -4.54310229E-15
   26.7749996         5.67380319E-15
   26.9400005         1.78088897E-14
   27.1049995         3.05614366E-14
   27.2700005         4.22350211E-14
   27.4349995         5.08806593E-14
   27.6000004         5.45033548E-14
   27.7649994         5.13224818E-14
   27.9300003         4.00678907E-14
   28.0949993         2.02831560E-14
   28.2600002        -7.40309252E-15
   28.4249992        -4.10858413E-14
   28.5900002        -7.75237147E-14
   28.7549992        -1.12257331E-13
   28.9200001        -1.39938110E-13
   29.0849991        -1.54875001E-13
   29.2500000        -1.51773884E-13
   29.4150009        -1.26608725E-13
   29.5799999        -7.75284378E-14
   29.7450008        -5.67564506E-15
   29.9099998         8.42232845E-14
   30.0750008         1.83639738E-13
   30.2399998         2.80524139E-13
   30.4050007         3.60179145E-13
   30.5699997         4.06760834E-13
   30.7350006         4.05361698E-13
   30.8999996         3.44524810E-13
   31.0650005         2.18922428E-13
   31.2299995         3.18131853E-14
   31.3950005        -2.03198678E-13
   31.5599995        -4.61611706E-13
   31.7250004        -7.09139344E-13
   31.8899994        -9.04775278E-13
   32.0550003        -1.00582422E-12
   32.2200012        -9.74537400E-13
   32.3849983        -7.85590939E-13
   32.5499992        -4.33275377E-13
   32.7150002         6.29652716E-14
   32.8800011         6.56029051E-13
   33.0449982         1.27282559E-12
   33.2099991         1.82074017E-12
   33.3750000         2.19876851E-12
   33.5400009         2.31233067E-12
   33.7050018         2.08993716E-12
   33.8699989         1.49921091E-12
   34.0349998         5.59450273E-13
   34.2000008        -6.51961612E-13
   34.3650017        -2.00139536E-12
   34.5299988        -3.31009547E-12
   34.6949997        -4.37422928E-12
   34.8600006        -4.99199770E-12
   35.0250015        -4.99451348E-12
   35.1899986        -4.27610725E-12
   35.3549995        -2.81926370E-12
   35.5200005        -7.09657485E-13
   35.6850014         1.86215561E-12
   35.8499985         4.61411768E-12
   36.0149994         7.20062811E-12
   36.1800003         9.25232981E-12
   36.3450012         1.04229802E-11
   36.5099983         1.04373576E-11
   36.6749992         9.13378921E-12
   36.8400002         6.49548384E-12
   37.0050011         2.66638166E-12
   37.1699982        -2.05076581E-12
   37.3349991        -7.21416069E-12
   37.5000000        -1.22787596E-11
   37.6650009        -1.66449719E-11
   37.8300018        -1.97164039E-11
   37.9949989        -2.09625980E-11
   38.1599998        -1.99826718E-11
   38.3250008        -1.65654799E-11
   38.4900017        -1.07412603E-11
   38.6549988        -2.81858608E-12
   38.8199997         6.60072084E-12
   38.9850006         1.66366452E-11
   39.1500015         2.61830592E-11
   39.3149986         3.40009652E-11
   39.4799995         3.88516927E-11
   39.6450005         3.96613818E-11
   39.8100014         3.56997730E-11
   39.9749985         2.67483900E-11
   40.1399994         1.32283099E-11
   40.3050003        -3.74293478E-12
   40.4700012        -2.23902476E-11
   40.6349983        -4.04289657E-11
   40.7999992        -5.53186143E-11
   40.9650002        -6.45994855E-11
   41.1300011        -6.62704544E-11
   41.2949982        -5.91522109E-11
   41.4599991        -4.31740407E-11
   41.6250000        -1.95264690E-11
   41.7900009         9.36205280E-12
   41.9550018         4.00415708E-11
   42.1199989         6.84363191E-11
   42.2849998         9.03742775E-11
   42.4500008         1.02179064E-10
   42.6150017         1.01236568E-10
   42.7799988         8.64474742E-11
   42.9449997         5.84902127E-11
   43.1100006         1.98458663E-11
   43.2750015        -2.54273373E-11
   43.4399986        -7.21439852E-11
   43.6049995        -1.14605950E-10
   43.7700005        -1.47297438E-10
   43.9350014        -1.65566935E-10
   44.0999985        -1.66207784E-10
   44.2649994        -1.47866747E-10
   44.4300003        -1.11237408E-10
   44.5950012        -5.90242022E-11
   44.7599983         4.30832887E-12
   44.9249992         7.29647731E-11
   45.0900002         1.40375780E-10
   45.2550011         1.99824879E-10
   45.4199982         2.45086368E-10
   45.5849991         2.71018735E-10
   45.7500000         2.74062939E-10
   45.9150009         2.52602772E-10
   46.0800018         2.07153877E-10
   46.2449989         1.40360487E-10
   46.4099998         5.67966958E-11
   46.5750008        -3.74120179E-11
   46.7400017        -1.35109382E-10
   46.9049988        -2.28715338E-10
   47.0699997        -3.10852566E-10
   47.2350006        -3.74924036E-10
   47.4000015        -4.15584706E-10
   47.5649986        -4.29071501E-10
   47.7299995        -4.13382772E-10
   47.8950005        -3.68324260E-10
   48.0600014        -2.95457547E-10
   48.2249985        -1.97990055E-10
   48.3899994        -8.06374550E-11
   48.5550003         5.05338341E-11
   48.7200012         1.88301069E-10
   48.8849983         3.24554106E-10
   49.0499992         4.50679799E-10
   49.2150002         5.58087965E-10
   49.3800011         6.38866293E-10
   49.5449982         6.86502688E-10
   49.7099991         6.96565750E-10
   49.8750000         6.67203293E-10
   50.0400009         5.99321426E-10
   50.2050018         4.96353680E-10
   50.3699989         3.63608421E-10
   50.5349998         2.07292322E-10
   50.7000008         3.34102572E-11
   50.8650017        -1.53182911E-10
   51.0299988        -3.49289597E-10
   51.1949997        -5.53204149E-10
   51.3600006        -7.63776209E-10
   51.5250015        -9.78791159E-10
   51.6899986        -1.19295573E-09
   51.8549995        -1.39594925E-09
   52.0200005        -1.57109248E-09
   52.1850014        -1.69516057E-09
   52.3499985        -1.73972614E-09
   52.5149994        -1.67415293E-09
   52.6800003        -1.47003987E-09
   52.8450012        -1.10657983E-09
   53.0099983        -5.76027392E-10
   53.1749992         1.11675960E-10
   53.3400002         9.26055732E-10
   53.5050011         1.81578386E-09
   53.6699982         2.71129252E-09
   53.8349991         3.53030494E-09
   54.0000000         4.18580504E-09
   54.1650009         4.59557814E-09
   54.3300018         4.69217065E-09
   54.4949989         4.43200143E-09
   54.6599998         3.80242104E-09
   54.8250008         2.82573187E-09
   54.9900017         1.55953417E-09
   55.1549988         9.31751135E-11
   55.3199997        -1.45947976E-09
   55.4850006        -2.97033043E-09
   55.6500015        -4.30941682E-09
   55.8149986        -5.35816547E-09
   55.9799995        -6.02215167E-09
   56.1450005        -6.24198515E-09
   56.3100014        -6.00102767E-09
   56.4749985        -5.32886890E-09
   56.6399994        -4.29985203E-09
   56.8050003        -3.02640935E-09
   56.9700012        -1.64755820E-09
   57.1349983        -3.13515269E-10
   57.2999992         8.32009572E-10
   57.4650002         1.66980851E-09
   57.6300011         2.12116946E-09
   57.7949982         2.15960538E-09
   57.9599991         1.81643012E-09
   58.1250000         1.17896837E-09
   58.2900009         3.81143089E-10
   58.4550018        -4.12760187E-10
   58.6199989        -1.02931053E-09
   58.7849998        -1.30946509E-09
   58.9500008        -1.13128573E-09
   59.1150017        -4.28678398E-10
   59.2799988         7.96535227E-10
   59.4449997         2.47104937E-09
   59.6100006         4.45567450E-09
   59.7750015         6.55952137E-09
   59.9399986         8.56099813E-09
   60.1049995         1.02329576E-08
   60.2700005         1.13687983E-08
   60.4350014         1.18062662E-08
   60.5999985         1.14460503E-08
   60.7649994         1.02630224E-08
   60.9300003         8.30890290E-09
   61.0950012         5.70622483E-09
   61.2599983         2.63446975E-09
   61.4249992        -6.89837132E-10
   61.5900002        -4.03667233E-09
   61.7550011        -7.18689819E-09
   61.9199982        -9.95464333E-09
   62.0849991        -1.22050485E-08
   62.2500000        -1.38652707E-08
   62.4150009        -1.49273749E-08
   62.5800018        -1.54427209E-08
   62.7449989        -1.55084248E-08
   62.9099998        -1.52476147E-08
   63.0750008        -1.47860186E-08
   63.2400017        -1.42281538E-08
   63.4049988        -1.36366074E-08
   63.5699997        -1.30177025E-08
   63.7350006        -1.23161463E-08
   63.9000015        -1.14200960E-08
   64.0650024        -1.01766160E-08
   64.2300034        -8.41593462E-09
   64.3949966        -5.98145311E-09
   64.5599976        -2.76141154E-09
   64.7249985         1.28240607E-09
   64.8899994         6.09335737E-09
   65.0550003         1.15095986E-08
   65.2200012         1.72669257E-08
   65.3850021         2.30151578E-08
   65.5500031         2.83466974E-08
   65.7149963         3.28341088E-08
   65.8799973         3.60724215E-08
   66.0449982         3.77212146E-08
   66.2099991         3.75414970E-08
   66.3750000         3.54231275E-08
   66.5400009         3.13997361E-08
   66.7050018         2.56494168E-08
   66.8700027         1.84813480E-08
   67.0350037         1.03098712E-08
   67.1999969         1.61898750E-09
   67.3649979        -7.07876868E-09
   67.5299988        -1.52846251E-08
   67.6949997        -2.25524754E-08
   67.8600006        -2.85203008E-08
   68.0250015        -3.29308740E-08
   68.1900024        -3.56398893E-08
   68.3550034        -3.66112154E-08
   68.5199966        -3.59007046E-08
   68.6849976        -3.36316184E-08
   68.8499985        -2.99660172E-08
   69.0149994        -2.50771848E-08
   69.1800003        -1.91280911E-08
   69.3450012        -1.22600534E-08
   69.5100021        -4.59402649E-09
   69.6750031         3.75522857E-09
   69.8399963         1.26543727E-08
   70.0049973         2.19207550E-08
   70.1699982         3.12918971E-08
   70.3349991         4.04022629E-08
   70.5000000         4.87736678E-08
   70.6650009         5.58240707E-08
   70.8300018         6.08967170E-08
   70.9950027         6.33083417E-08
   71.1600037         6.24117291E-08
   71.3249969         5.76654458E-08
   71.4899979         4.87017182E-08
   71.6549988         3.53834686E-08
   71.8199997         1.78426536E-08
   71.9850006        -3.50520768E-09
   72.1500015        -2.79721153E-08
   72.3150024        -5.46324017E-08
   72.4800034        -8.23761752E-08
   72.6449966        -1.09974060E-07
   72.8099976        -1.36145104E-07
   72.9749985        -1.59620043E-07
   73.1399994        -1.79194302E-07
   73.3050003        -1.93767363E-07
   73.4700012        -2.02368938E-07
   73.6350021        -2.04174327E-07
   73.8000031        -1.98514499E-07
   73.9649963        -1.84886417E-07
   74.1299973        -1.62969528E-07
   74.2949982        -1.32652389E-07
   74.4599991        -9.40708560E-08
   74.6250000        -4.76561972E-08
   74.7900009         5.81190607E-09
   74.9550018         6.51552270E-08
   75.1200027         1.28759027E-07
   75.2850037         1.94556364E-07
   75.4499969         2.60042953E-07
   75.6149979         3.22328475E-07
   75.7799988         3.78225877E-07
   75.9449997         4.24375173E-07
   76.1100006         4.57393242E-07
   76.2750015         4.74036540E-07
   76.4400024         4.71360863E-07
   76.6050034         4.46861151E-07
   76.7699966         3.98575850E-07
   76.9349976         3.25144498E-07
   77.0999985         2.25812457E-07
   77.2649994         1.00384433E-07
   77.4300003        -5.08654345E-08
   77.5950012        -2.27312952E-07
   77.7600021        -4.28115101E-07
   77.9250031        -6.52334563E-07
   78.0899963        -8.99040856E-07
   78.2549973        -1.16737624E-06
   78.4199982        -1.45658089E-06
   78.5849991        -1.76597894E-06
   78.7500000        -2.09493055E-06
   78.9150009        -2.44276544E-06
   79.0800018        -2.80871041E-06
   79.2450027        -3.19182050E-06
   79.4100037        -3.59093224E-06
   79.5749969        -4.00463568E-06
   79.7399979        -4.43127283E-06
   79.9049988        -4.86895624E-06
   80.0699997        -5.31560272E-06
   80.2350006        -5.76897173E-06
   80.4000015        -6.22670268E-06
   80.5650024        -6.68634902E-06
   80.7300034        -7.14540283E-06
   80.8949966        -7.60131252E-06
   81.0599976        -8.05149830E-06
   81.2249985        -8.49336902E-06
   81.3899994        -8.92434491E-06
   81.5550003        -9.34188938E-06
   81.7200012        -9.74355771E-06
   81.8850021        -1.01270507E-05
   82.0500031        -1.04902765E-05
   82.2149963        -1.08314180E-05
   82.3799973        -1.11489917E-05
   82.5449982        -1.14418963E-05
   82.7099991        -1.17094487E-05
   82.8750000        -1.19513888E-05
   83.0400009        -1.21678604E-05
   83.2050018        -1.23593763E-05
   83.3700027        -1.25267461E-05
   83.5350037        -1.26709920E-05
   83.6999969        -1.27932599E-05
   83.8649979        -1.28947240E-05
   84.0299988        -1.29765185E-05
   84.1949997        -1.30396911E-05
   84.3600006        -1.30852013E-05
   84.5250015        -1.31139659E-05
   84.6900024        -1.31269526E-05
   84.8550034        -1.31253255E-05
   85.0199966        -1.31106053E-05
   85.1849976        -1.30848521E-05
   85.3499985        -1.30508188E-05
   85.5149994        -1.30120652E-05
   85.6800003        -1.29730006E-05
   85.8450012        -1.29388391E-05
   86.0100021        -1.29154469E-05
   86.1750031        -1.29091122E-05
   86.3399963        -1.29262207E-05
   86.5049973        -1.29728778E-05
   86.6699982        -1.30545050E-05
   86.8349991        -1.31754523E-05
   87.0000000        -1.33386538E-05
   87.1650009        -1.35453620E-05
   87.3300018        -1.37949755E-05
   87.4950027        -1.40849925E-05
   87.6600037        -1.44110618E-05
   87.8249969        -1.47671635E-05
   87.9899979        -1.51458808E-05
   88.1549988        -1.55387479E-05
   88.3199997        -1.59366555E-05
   88.4850006        -1.63302902E-05
   88.6500015        -1.67105718E-05
   88.8150024        -1.70690582E-05
   88.9800034        -1.73983062E-05
   89.1449966        -1.76921476E-05
   89.3099976        -1.79458748E-05
   89.4749985        -1.81563082E-05
   89.6399994        -1.83217544E-05
   89.8050003        -1.84418532E-05
   89.9700012        -1.85173230E-05
   90.1350021        -1.85496519E-05
   90.3000031        -1.85407353E-05
   90.4649963        -1.84925266E-05
   90.6299973        -1.84067358E-05
   90.7949982        -1.82845833E-05
   90.9599991        -1.81266805E-05
   91.1250000        -1.79330145E-05
   91.2900009        -1.77030597E-05
   91.4550018        -1.74359793E-05
   91.6200027        -1.71309184E-05
   91.7850037        -1.67873259E-05
   91.9499969        -1.64052726E-05
   92.1149979        -1.59857227E-05
   92.2799988        -1.55307225E-05
   92.4449997        -1.50434726E-05
   92.6100006        -1.45282993E-05
   92.7750015        -1.39904851E-05
   92.9400024        -1.34360180E-05
   93.1050034        -1.28712718E-05
   93.2699966        -1.23026639E-05
   93.4349976        -1.17363188E-05
   93.5999985        -1.11778054E-05
   93.7649994        -1.06319458E-05
   93.9300003        -1.01027290E-05
   94.0950012        -9.59333011E-06
   94.2600021        -9.10622020E-06
   94.4250031        -8.64332742E-06
   94.5899963        -8.20623609E-06
   94.7549973        -7.79636503E-06
   94.9199982        -7.41509575E-06
   95.0849991        -7.06382070E-06
   95.2500000        -6.74389867E-06
   95.4150009        -6.45650243E-06
   95.5800018        -6.20238734E-06
   95.7450027        -5.98159204E-06
   95.9100037        -5.79311290E-06
   96.0749969        -5.63458616E-06
   96.2399979        -5.50202321E-06
   96.4049988        -5.38963286E-06
   96.5699997        -5.28975534E-06
   96.7350006        -5.19293235E-06
   96.9000015        -5.08811172E-06
   97.0650024        -4.96299072E-06
   97.2300034        -4.80447079E-06
   97.3949966        -4.59920102E-06
   97.5599976        -4.33417745E-06
   97.7249985        -3.99735791E-06
   97.8899994        -3.57824979E-06
   98.0550003        -3.06844345E-06
   98.2200012        -2.46204831E-06
   98.3850021        -1.75601974E-06
   98.5500031        -9.50355457E-07
   98.7149963        -4.81658162E-08
   98.8799973         9.44378428E-07
   99.0449982         2.01820262E-06
   99.2099991         3.16157116E-06
   99.3750000         4.36039136E-06
   99.5400009         5.59856562E-06
   99.7050018         6.85837131E-06
   99.8700027         8.12087183E-06
   100.035004         9.36634569E-06
   100.199997         1.05747504E-05
   100.364998         1.17262198E-05
   100.529999         1.28015981E-05
   100.695000         1.37830102E-05
   100.860001         1.46544462E-05
   101.025002         1.54023528E-05
   101.190002         1.60161744E-05
   101.355003         1.64888424E-05
   101.519997         1.68171373E-05
   101.684998         1.70019121E-05
   101.849998         1.70481508E-05
   102.014999         1.69648411E-05
   102.180000         1.67646722E-05
   102.345001         1.64635621E-05
   102.510002         1.60800519E-05
   102.675003         1.56345923E-05
   102.839996         1.51487629E-05
   103.004997         1.46444554E-05
   103.169998         1.41430655E-05
   103.334999         1.36647031E-05
   103.500000         1.32274672E-05
   103.665001         1.28467764E-05
   103.830002         1.25347933E-05
   103.995003         1.22999490E-05
   104.160004         1.21465800E-05
   104.324997         1.20746909E-05
   104.489998         1.20798713E-05
   104.654999         1.21533712E-05
   104.820000         1.22823658E-05
   104.985001         1.24504113E-05
   105.150002         1.26380883E-05
   105.315002         1.28238498E-05
   105.480003         1.29850323E-05
   105.644997         1.30990193E-05
   105.809998         1.31444713E-05
   105.974998         1.31025918E-05
   106.139999         1.29583022E-05
   106.305000         1.27012772E-05
   106.470001         1.23266964E-05
   106.635002         1.18356711E-05
   106.800003         1.12352545E-05
   106.964996         1.05380050E-05
   107.129997         9.76112733E-06
   107.294998         8.92523531E-06
   107.459999         8.05283344E-06
   107.625000         7.16666409E-06
   107.790001         6.28806174E-06
   107.955002         5.43548049E-06
   108.120003         4.62333219E-06
   108.285004         3.86123429E-06
   108.449997         3.15372017E-06
   108.614998         2.50041376E-06
   108.779999         1.89659715E-06
   108.945000         1.33408253E-06
   109.110001         8.02255272E-07
   109.275002         2.89151956E-07
   109.440002        -2.17538002E-07
   109.605003        -7.29639794E-07
   109.769997        -1.25787506E-06
   109.934998        -1.81146572E-06
   110.099998        -2.39792325E-06
   110.264999        -3.02297235E-06
   110.430000        -3.69054010E-06
   110.595001        -4.40275699E-06
   110.760002        -5.15992770E-06
   110.925003        -5.96046402E-06
   111.089996        -6.80080211E-06
   111.254997        -7.67533675E-06
   111.419998        -8.57643681E-06
   111.584999        -9.49459263E-06
   111.750000        -1.04187220E-05
   111.915001        -1.13366759E-05
   112.080002        -1.22358988E-05
   112.245003        -1.31042125E-05
   112.410004        -1.39306503E-05
   112.574997        -1.47062447E-05
   112.739998        -1.54246809E-05
   112.904999        -1.60827312E-05
   113.070000        -1.66804057E-05
   113.235001        -1.72207820E-05
   113.400002        -1.77095408E-05
   113.565002        -1.81541982E-05
   113.730003        -1.85631616E-05
   113.894997        -1.89446400E-05
   114.059998        -1.93055694E-05
   114.224998        -1.96506244E-05
   114.389999        -1.99814222E-05
   114.555000        -2.02960073E-05
   114.720001        -2.05886663E-05
   114.885002        -2.08500842E-05
   115.050003        -2.10678591E-05
   115.214996        -2.12273062E-05
   115.379997        -2.13125277E-05
   115.544998        -2.13076164E-05
   115.709999        -2.11979386E-05
   115.875000        -2.09713562E-05
   116.040001        -2.06192908E-05
   116.205002        -2.01375315E-05
   116.370003        -1.95266857E-05
   116.535004        -1.87922487E-05
   116.699997        -1.79442159E-05
   116.864998        -1.69963187E-05
   117.029999        -1.59649026E-05
   117.195000        -1.48675726E-05
   117.360001        -1.37217503E-05
   117.525002        -1.25433044E-05
   117.690002        -1.13454407E-05
   117.855003        -1.01379819E-05
   118.019997        -8.92716889E-06
   118.184998        -7.71602299E-06
   118.349998        -6.50526044E-06
   118.514999        -5.29464614E-06
   118.680000        -4.08462756E-06
   118.845001        -2.87803005E-06
   119.010002        -1.68156703E-06
   119.175003        -5.06930519E-07
   119.339996         6.28719818E-07
   119.504997         1.70299586E-06
   119.669998         2.68927761E-06
   119.834999         3.55839870E-06
   120.000000         4.28086787E-06
   120.165001         4.82941141E-06
   120.330002         5.18156776E-06
   120.495003         5.32207559E-06
   120.660004         5.24480538E-06
   120.824997         4.95404720E-06
   120.989998         4.46502281E-06
   121.154999         3.80358301E-06
   121.320000         3.00510919E-06
   121.485001         2.11271117E-06
   121.650002         1.17486741E-06
   121.815002         2.42679334E-07
   121.980003        -6.33062427E-07
   122.144997        -1.40480211E-06
   122.309998        -2.03093691E-06
   122.474998        -2.47816297E-06
   122.639999        -2.72328748E-06
   122.805000        -2.75439766E-06
   122.970001        -2.57130341E-06
   123.135002        -2.18522337E-06
   123.300003        -1.61773607E-06
   123.464996        -8.99070471E-07
   123.629997        -6.58640147E-08
   123.794998         8.41435110E-07
   123.959999         1.78132382E-06
   124.125000         2.71393083E-06
   124.290001         3.60343233E-06
   124.455002         4.42001237E-06
   124.620003         5.14122848E-06
   124.785004         5.75271542E-06
   124.949997         6.24821087E-06
   125.114998         6.62895582E-06
   125.279999         6.90258003E-06
   125.445000         7.08160405E-06
   125.610001         7.18173851E-06
   125.775002         7.22013056E-06
   125.940002         7.21372589E-06
   126.105003         7.17786861E-06
   126.269997         7.12523752E-06
   126.434998         7.06518085E-06
   126.599998         7.00346709E-06
   126.764999         6.94245000E-06
   126.930000         6.88158525E-06
   127.095001         6.81824940E-06
   127.260002         6.74873945E-06
   127.425003         6.66935603E-06
   127.589996         6.57743749E-06
   127.754997         6.47220804E-06
   127.919998         6.35533343E-06
   128.085007         6.23108326E-06
   128.250000         6.10604866E-06
   128.414993         5.98841098E-06
   128.580002         5.88682360E-06
   128.744995         5.80901497E-06
   128.910004         5.76027969E-06
   129.074997         5.74205569E-06
   129.240005         5.75077229E-06
   129.404999         5.77716719E-06
   129.570007         5.80618689E-06
   129.735001         5.81754966E-06
   129.899994         5.78695244E-06
   130.065002         5.68784344E-06
   130.229996         5.49360357E-06
   130.395004         5.17995522E-06
   130.559998         4.72736065E-06
   130.725006         4.12320242E-06
   130.889999         3.36354333E-06
   131.054993         2.45429533E-06
   131.220001         1.41168096E-06
   131.384995         2.61920547E-07