  -2.09999990         0.00000000    
  -1.93499994         0.00000000    
  -1.76999998         0.00000000    
  -1.60500002         0.00000000    
  -1.44000006         0.00000000    
  -1.27499998         0.00000000    
  -1.11000001         0.00000000    
 -0.944999993         0.00000000    
 -0.779999971         0.00000000    
 -0.615000010         0.00000000    
 -0.449999988         0.00000000    
 -0.284999996         0.00000000    
 -0.119999997         0.00000000    
   4.50000018E-02     0.00000000    
  0.209999993         0.00000000    
  0.375000000         0.00000000    
  0.540000021         0.00000000    
  0.704999983         0.00000000    
  0.870000005         0.00000000    
   1.03499997         0.00000000    
   1.20000005         0.00000000    
   1.36500001         0.00000000    
   1.52999997         0.00000000    
   1.69500005         0.00000000    
   1.86000001         0.00000000    
   2.02500010         0.00000000    
   2.19000006         0.00000000    
   2.35500002         0.00000000    
   2.51999998         0.00000000    
   2.68499994         0.00000000    
   2.84999990         0.00000000    
   3.01500010         0.00000000    
   3.18000007         0.00000000    
   3.34500003         0.00000000    
   3.50999999         0.00000000    
   3.67499995         0.00000000    
   3.83999991         0.00000000    
   4.00500011         0.00000000    
   4.17000008         0.00000000    
   4.33500004         0.00000000    
   4.50000000         0.00000000    
   4.66499996         0.00000000    
   4.82999992         0.00000000    
   4.99499989         0.00000000    
   5.15999985         0.00000000    
   5.32499981         0.00000000    
   5.48999977         0.00000000    
   5.65500021         0.00000000    
   5.82000017         0.00000000    
   5.98500013         0.00000000    
   6.15000010         0.00000000    
   6.31500006         0.00000000    
   6.48000002         0.00000000    
   6.64499998         0.00000000    
   6.80999994         0.00000000    
   6.97499990         0.00000000    
   7.13999987         0.00000000    
   7.30499983         0.00000000    
   7.46999979         0.00000000    
   7.63500023         0.00000000    
   7.80000019         0.00000000    
   7.96500015         0.00000000    
   8.13000011         0.00000000    
   8.29500008         0.00000000    
   8.46000004         0.00000000    
   8.62500000         0.00000000    
   8.78999996         0.00000000    
   8.95499992         0.00000000    
   9.11999989         0.00000000    
   9.28499985         0.00000000    
   9.44999981         0.00000000    
   9.61499977         0.00000000    
   9.77999973         0.00000000    
   9.94499969         0.00000000    
   10.1099997         0.00000000    
   10.2749996        -0.00000000    
   10.4399996         1.82579045E-34
   10.6049995         6.44041187E-34
   10.7700005         1.40828365E-33
   10.9350004         2.31455223E-33
   11.1000004         9.14467106E-34
   11.2650003        -3.54847802E-33
   11.4300003        -9.40086252E-33
   11.5950003        -2.03505373E-32
   11.7600002        -3.95826152E-32
   11.9250002        -5.55328863E-32
   12.0900002        -4.07734792E-32
   12.2550001        -2.39419762E-30
   12.4200001        -4.67980814E-30
   12.5850000        -6.93152042E-30
   12.7500000        -1.10441941E-29
   12.9150000        -1.10042860E-29
   13.0799999        -8.08799998E-30
   13.2449999        -2.46768745E-30
   13.4099998         1.65894979E-30
   13.5749998        -4.42499407E-30
   13.7399998        -2.37997696E-29
   13.9049997        -6.09176817E-29
   14.0699997        -1.09483857E-28
   14.2349997        -1.32491751E-28
   14.3999996        -1.01089667E-28
   14.5649996         2.77259583E-29
   14.7299995         2.61477297E-28
   14.8950005         5.33525302E-28
   15.0600004         7.12987114E-28
   15.2250004         6.35238574E-28
   15.3900003         1.97715318E-28
   15.5550003        -5.75876405E-28
   15.7200003        -1.48200463E-27
   15.8850002        -2.12569857E-27
   16.0499992        -2.04739045E-27
   16.2150002        -9.26295170E-28
   16.3799992         1.15920606E-27
   16.5450001         3.54035767E-27
   16.7099991         5.01498021E-27
   16.8750000         4.19951952E-27
   17.0400009         1.39876934E-28
   17.2049999        -6.96302253E-27
   17.3700008        -1.52797982E-26
   17.5349998        -2.14592892E-26
   17.7000008        -2.15207649E-26
   17.8649998        -1.24455504E-26
   18.0300007         6.04882172E-27
   18.1949997         3.03606678E-26
   18.3600006         5.32731328E-26
   18.5249996         6.60498753E-26
   18.6900005         6.19485998E-26
   18.8549995         3.98752116E-26
   19.0200005         6.35310440E-27
   19.1849995        -2.58150032E-26
   19.3500004        -4.26753104E-26
   19.5149994        -3.66902843E-26
   19.6800003        -1.35785118E-26
   19.8449993         5.59155896E-27
   20.0100002        -9.86401306E-27
   20.1749992        -8.64225471E-26
   20.3400002        -2.28285918E-25
   20.5049992        -4.02471903E-25
   20.6700001        -5.35715638E-25
   20.8349991        -5.29323005E-25
   21.0000000        -2.91922711E-25
   21.1650009         2.17951076E-25
   21.3299999         9.54090484E-25
   21.4950008         1.76604224E-24
   21.6599998         2.41512133E-24
   21.8250008         2.62362298E-24
   21.9899998         2.14525418E-24
   22.1550007         8.36054410E-25
   22.3199997        -1.29499672E-24
   22.4850006        -4.06672785E-24
   22.6499996        -7.13331733E-24
   22.8150005        -1.00009711E-23
   22.9799995        -1.20346521E-23
   23.1450005        -1.24511731E-23
   23.3099995        -1.03237201E-23
   23.4750004        -4.65219872E-24
   23.6399994         5.43522639E-24
   23.8050003         2.03080234E-23
   23.9699993         3.93097057E-23
   24.1350002         6.01998374E-23
   24.2999992         7.87657103E-23
   24.4650002         8.88532408E-23
   24.6299992         8.30346469E-23
   24.7950001         5.40071972E-23
   24.9599991        -3.37758685E-24
   25.1250000        -8.97742958E-23
   25.2900009        -1.99193399E-22
   25.4549999        -3.17624733E-22
   25.6200008        -4.22980326E-22
   25.7849998        -4.86746919E-22
   25.9500008        -4.77507124E-22
   26.1149998        -3.66219777E-22
   26.2800007        -1.32875100E-22
   26.4449997         2.26150013E-22
   26.6100006         6.91037458E-22
   26.7749996         1.21314892E-21
   26.9400005         1.71305450E-21
   27.1049995         2.08389657E-21
   27.2700005         2.20182918E-21
   27.4349995         1.94445040E-21
   27.6000004         1.21659669E-21
   27.7649994        -1.93192935E-23
   27.9300003        -1.71364257E-21
   28.0949993        -3.70762465E-21
   28.2600002        -5.72719863E-21
   28.4249992        -7.39902233E-21
   28.5900002        -8.29213506E-21
   28.7549992        -7.98366293E-21
   28.9200001        -6.14138186E-21
   29.0849991        -2.61092977E-21
   29.2500000         2.50761459E-21
   29.4150009         8.80948564E-21
   29.5799999         1.55746202E-20
   29.7450008         2.18053921E-20
   29.9099998         2.63157091E-20
   30.0750008         2.78684257E-20
   30.2399998         2.53523798E-20
   30.4050007         1.79844058E-20
   30.5699997         5.51583864E-21
   30.7350006        -1.15837670E-20
   30.8999996        -3.19988099E-20
   31.0650005        -5.35321986E-20
   31.2299995        -7.31962172E-20
   31.3950005        -8.74523067E-20
   31.5599995        -9.26018356E-20
   31.7250004        -8.53018245E-20
   31.8899994        -6.31499859E-20
   32.0550003        -2.52602024E-20
   32.2200012         2.72598373E-20
   32.3849983         9.10093643E-20
   32.5499992         1.60229434E-19
   32.7150002         2.26996222E-19
   32.8800011         2.81668647E-19
   33.0449982         3.13572641E-19
   33.2099991         3.11910319E-19
   33.3750000         2.66900397E-19
   33.5400009         1.71172620E-19
   33.7050018         2.14266436E-20
   33.8699989        -1.79690590E-19
   34.0349998        -4.21647769E-19
   34.2000008        -6.84347355E-19
   34.3650017        -9.37177022E-19
   34.5299988        -1.13939528E-18
   34.6949997        -1.24246685E-18
   34.8600006        -1.19483200E-18
   35.0250015        -9.49274746E-19
   35.1899986        -4.72578107E-19
   35.3549995         2.43445225E-19
   35.5200005         1.17109026E-18
   35.6850014         2.23813029E-18
   35.8499985         3.32381457E-18
   36.0149994         4.26184503E-18
   36.1800003         4.85221087E-18
   36.3450012         4.88278636E-18
   36.5099983         4.16016799E-18
   36.6749992         2.54742595E-18
   36.8400002         4.54846101E-21
   37.0050011        -3.37438198E-18
   37.1699982        -7.33442520E-18
   37.3349991        -1.14508374E-17
   37.5000000        -1.51444263E-17
   37.6650009        -1.77254184E-17
   37.8300018        -1.84665971E-17
   37.9949989        -1.67020206E-17
   38.1599998        -1.19428866E-17
   38.3250008        -3.99760136E-18
   38.4900017         6.92033817E-18
   38.6549988         2.01148752E-17
   38.8199997         3.43782318E-17
   38.9850006         4.80252031E-17
   39.1500015         5.90009204E-17
   39.3149986         6.50646241E-17
   39.4799995         6.40429700E-17
   39.6450005         5.41360528E-17
   39.8100014         3.42490592E-17
   39.9749985         4.31301939E-18
   40.1399994        -3.44489755E-17
   40.3050003        -7.93570147E-17
   40.4700012        -1.26256389E-16
   40.6349983        -1.69683662E-16
   40.7999992        -2.03239547E-16
   40.9650002        -2.20170372E-16
   41.1300011        -2.14133119E-16
   41.2949982        -1.80090375E-16
   41.4599991        -1.15251591E-16
   41.6250000        -1.99525278E-17
   41.7900009         1.01652133E-16
   41.9550018         2.41212034E-16
   42.1199989         3.86238157E-16
   42.2849998         5.20682323E-16
   42.4500008         6.26081491E-16
   42.6150017         6.83247057E-16
   42.7799988         6.74409062E-16
   42.9449997         5.85647844E-16
   43.1100006         4.09377694E-16
   43.2750015         1.46593372E-16
   43.4399986        -1.91440034E-16
   43.6049995        -5.82367233E-16
   43.7700005        -9.93062910E-16
   43.9350014        -1.38127801E-15
   44.0999985        -1.69867365E-15
   44.2649994        -1.89515533E-15
   44.4300003        -1.92424667E-15
   44.5950012        -1.74907497E-15
   44.7599983        -1.34839207E-15
   44.9249992        -7.21941428E-16
   45.0900002         1.05558358E-16
   45.2550011         1.08252399E-15
   45.4199982         2.13130070E-15
   45.5849991         3.15202601E-15
   45.7500000         4.02967031E-15
   45.9150009         4.64401441E-15
   46.0800018         4.88194681E-15
   46.2449989         4.65110069E-15
   46.4099998         3.89351696E-15
   46.5750008         2.59782104E-15
   46.7400017         8.08288125E-16
   46.9049988        -1.37070207E-15
   47.0699997        -3.77607627E-15
   47.2350006        -6.19410503E-15
   47.4000015        -8.37521784E-15
   47.5649986        -1.00550070E-14
   47.7299995        -1.09800483E-14
   47.8950005        -1.09364481E-14
   48.0600014        -9.77841262E-15
   48.2249985        -7.45375441E-15
   48.3899994        -4.02316425E-15
   48.5550003         3.29689364E-16
   48.7200012         5.29957556E-15
   48.8849983         1.04740571E-14
   49.0499992         1.53610052E-14
   49.2150002         1.94281254E-14
   49.3800011         2.21519478E-14
   49.5449982         2.30723440E-14
   49.7099991         2.18476767E-14
   49.8750000         1.83049156E-14
   50.0400009         1.24789654E-14
   50.2050018         4.63592948E-15
   50.3699989        -4.72400354E-15
   50.5349998        -1.48866583E-14
   50.7000008        -2.49676124E-14
   50.8650017        -3.39778898E-14
   51.0299988        -4.09076391E-14
   51.1949997        -4.48215616E-14
   51.3600006        -4.49582490E-14
   51.5250015        -4.08242098E-14
   51.6899986        -3.22730564E-14
   51.8549995        -1.95606962E-14
   52.0200005        -3.36862102E-15
   52.1850014         1.52104349E-14
   52.3499985         3.47272497E-14
   52.5149994         5.34706861E-14
   52.6800003         6.95975192E-14
   52.8450012         8.12893250E-14
   53.0099983         8.69247233E-14
   53.1749992         8.52524838E-14
   53.3400002         7.55495587E-14
   53.5050011         5.77475622E-14
   53.6699982         3.25124889E-14
   53.8349991         1.26533583E-15
   54.0000000        -3.38648245E-14
   54.1650009        -7.01580517E-14
   54.3300018        -1.04487565E-13
   54.4949989        -1.33560453E-13
   54.6599998        -1.54198526E-13
   54.8250008        -1.63636994E-13
   54.9900017        -1.59814978E-13
   55.1549988        -1.41630211E-13
   55.3199997        -1.09130512E-13
   55.4850006        -6.36192826E-14
   55.6500015        -7.65803419E-15
   55.8149986         5.50426234E-14
   55.9799995         1.19841555E-13
   56.1450005         1.81483802E-13
   56.3100014         2.34493740E-13
   56.4749985         2.73615549E-13
   56.6399994         2.94266347E-13
   56.8050003         2.92964844E-13
   56.9700012         2.67699572E-13
   57.1349983         2.18204049E-13
   57.2999992         1.46113224E-13
   57.4650002         5.49838868E-14
   57.6300011        -4.98286850E-14
   57.7949982        -1.61435020E-13
   57.9599991        -2.71804470E-13
   58.1250000        -3.72265912E-13
   58.2900009        -4.54088481E-13
   58.4550018        -5.09108435E-13
   58.6199989        -5.30367091E-13
   58.7849998        -5.12721213E-13
   58.9500008        -4.53387843E-13
   59.1150017        -3.52385954E-13
   59.2799988        -2.12838915E-13
   59.4449997        -4.11022534E-14
   59.6100006         1.53313926E-13
   59.7750015         3.58052780E-13
   59.9399986         5.58465817E-13
   60.1049995         7.38417628E-13
   60.2700005         8.81323877E-13
   60.4350014         9.71384973E-13
   60.5999985         9.94949349E-13
   60.7649994         9.41917226E-13
   60.9300003         8.07066382E-13
   61.0950012         5.91170721E-13
   61.2599983         3.01769921E-13
   61.4249992        -4.65414077E-14
   61.5900002        -4.32412407E-13
   61.7550011        -8.28688843E-13
   61.9199982        -1.20403047E-12
   62.0849991        -1.52513169E-12
   62.2500000        -1.75941347E-12
   62.4150009        -1.87798171E-12
   62.5800018        -1.85859292E-12
   62.7449989        -1.68832981E-12
   62.9099998        -1.36568838E-12
   63.0750008        -9.01805432E-13
   63.2400017        -3.20624332E-13
   63.4049988         3.42115659E-13
   63.5699997         1.04105234E-12
   63.7350006         1.72441022E-12
   63.9000015         2.33799200E-12
   64.0650024         2.82960504E-12
   64.2300034         3.15351478E-12
   64.3949966         3.27449699E-12
   64.5599976         3.17108948E-12
   64.7249985         2.83772658E-12
   64.8899994         2.28554111E-12
   65.0550003         1.54177224E-12
   65.2200012         6.47848908E-13
   65.3850021        -3.43638041E-13
   65.5500031        -1.37275954E-12
   65.7149963        -2.37647966E-12
   65.8799973        -3.29290328E-12
   66.0449982        -4.06516834E-12
   66.2099991        -4.64469348E-12
   66.3750000        -4.99360275E-12
   66.5400009        -5.08626257E-12
   66.7050018        -4.90997217E-12
   66.8700027        -4.46494664E-12
   67.0350037        -3.76377532E-12
   67.1999969        -2.83052856E-12
   67.3649979        -1.69968044E-12
   67.5299988        -4.14920973E-13
   67.6949997         9.72123966E-13
   67.8600006         2.40332689E-12
   68.0250015         3.81574503E-12
   68.1900024         5.14367498E-12
   68.3550034         6.32113589E-12
   68.5199966         7.28478129E-12
   68.6849976         7.97713545E-12
   68.8499985         8.34994573E-12
   69.0149994         8.36734154E-12
   69.1800003         8.00848970E-12
   69.3450012         7.26938475E-12
   69.5100021         6.16353539E-12
   69.6750031         4.72142507E-12
   69.8399963         2.98877242E-12
   70.0049973         1.02379769E-12
   70.1699982        -1.10615521E-12
   70.3349991        -3.32819146E-12
   70.5000000        -5.56718864E-12
   70.6650009        -7.74847374E-12
   70.8300018        -9.79960384E-12
   70.9950027        -1.16511687E-11
   71.1600037        -1.32367867E-11
   71.3249969        -1.44925651E-11
   71.4899979        -1.53565008E-11
   71.6549988        -1.57682825E-11
   71.8199997        -1.56698959E-11
   71.9850006        -1.50073582E-11
   72.1500015        -1.37336644E-11
   72.3150024        -1.18128242E-11
   72.4800034        -9.22470173E-12
   72.6449966        -5.97020003E-12
   72.8099976        -2.07624976E-12
   72.9749985         2.39992141E-12
   73.1399994         7.36766897E-12
   73.3050003         1.27012975E-11
   73.4700012         1.82400726E-11
   73.6350021         2.37899041E-11
   73.8000031         2.91266455E-11
   73.9649963         3.40008889E-11
   74.1299973         3.81441545E-11
   74.2949982         4.12765030E-11
   74.4599991         4.31156326E-11
   74.6250000         4.33876095E-11
   74.7900009         4.18394833E-11
   74.9550018         3.82539105E-11
   75.1200027         3.24657939E-11
   75.2850037         2.43806798E-11
   75.4499969         1.39942233E-11
   75.6149979         1.41173531E-12
   75.7799988        -1.31337953E-11
   75.9449997        -2.92670332E-11
   76.1100006        -4.64611682E-11
   76.2750015        -6.40366163E-11
   76.4400024        -8.11696751E-11
   76.6050034        -9.69129152E-11
   76.7699966        -1.10228410E-10
   76.9349976        -1.20034177E-10
   77.0999985        -1.25262870E-10
   77.2649994        -1.24930830E-10
   77.4300003        -1.18214202E-10
   77.5950012        -1.04527630E-10
   77.7600021        -8.36000574E-11
   77.9250031        -5.55416095E-11
   78.0899963        -2.08948726E-11
   78.2549973         1.93354378E-11
   78.4199982         6.36799433E-11
   78.5849991         1.10233232E-10
   78.7500000         1.56715724E-10
   78.9150009         2.00568728E-10
   79.0800018         2.39079645E-10
   79.2450027         2.69531980E-10
   79.4100037         2.89372498E-10
   79.5749969         2.96384639E-10
   79.7399979         2.88857577E-10
   79.9049988         2.65738376E-10
   80.0699997         2.26755267E-10
   80.2350006         1.72501916E-10
   80.4000015         1.04474006E-10
   80.5650024         2.50529718E-11
   80.7300034        -6.25652793E-11
   80.8949966        -1.54494570E-10
   81.0599976        -2.46330595E-10
   81.2249985        -3.33361866E-10
   81.3899994        -4.10808942E-10
   81.5550003        -4.74078554E-10
   81.7200012        -5.19018550E-10
   81.8850021        -5.42160261E-10
   82.0500031        -5.40934741E-10
   82.2149963        -5.13850740E-10
   82.3799973        -4.60624872E-10
   82.5449982        -3.82255283E-10
   82.7099991        -2.81034335E-10
   82.8750000        -1.60496769E-10
   83.0400009        -2.53038805E-11
   83.2050018         1.18933710E-10
   83.3700027         2.65888284E-10
   83.5350037         4.08793055E-10
   83.6999969         5.40754497E-10
   83.8649979         6.55083765E-10
   84.0299988         7.45632001E-10
   84.1949997         8.07110323E-10
   84.3600006         8.35378988E-10
   84.5250015         8.27688806E-10
   84.6900024         7.82860166E-10
   84.8550034         7.01390501E-10
   85.0199966         5.85482385E-10
   85.1849976         4.38990649E-10
   85.3499985         2.67290773E-10
   85.5149994         7.70743608E-11
   85.6800003        -1.23918223E-10
   85.8450012        -3.27216365E-10
   86.0100021        -5.23974086E-10
   86.1750031        -7.05347003E-10
   86.3399963        -8.62875826E-10
   86.5049973        -9.88860771E-10
   86.6699982        -1.07671305E-09
   86.8349991        -1.12126852E-09
   87.0000000        -1.11905252E-09
   87.1650009        -1.06848252E-09
   87.3300018        -9.70000968E-10
   87.4950027        -8.26130275E-10
   87.6600037        -6.41445730E-10
   87.8249969        -4.22464425E-10
   87.9899979        -1.77451873E-10
   88.1549988         8.38491637E-11
   88.3199997         3.50559803E-10
   88.4850006         6.11067030E-10
   88.6500015         8.53474347E-10
   88.8150024         1.06608711E-09
   88.9800034         1.23791899E-09
   89.1449966         1.35920208E-09
   89.3099976         1.42188439E-09
   89.4749985         1.42009537E-09
   89.6399994         1.35055878E-09
   89.8050003         1.21293064E-09
   89.9700012         1.01003883E-09
   90.1350021         7.48000994E-10
   90.3000031         4.36197967E-10
   90.4649963         8.70857275E-11
   90.6299973        -2.84167440E-10
   90.7949982        -6.60220045E-10
   90.9599991        -1.02226527E-09
   91.1250000        -1.35088618E-09
   91.2900009        -1.62702229E-09
   91.4550018        -1.83300175E-09
   91.6200027        -1.95357996E-09
   91.7850037        -1.97692107E-09
   91.9499969        -1.89545712E-09
   92.1149979        -1.70655878E-09
   92.2799988        -1.41297063E-09
   92.4449997        -1.02296505E-09
   92.6100006        -5.50200052E-10
   92.7750015        -1.32747919E-11
   92.9400024         5.64994107E-10
   93.1050034         1.15853960E-09
   93.2699966         1.73919923E-09
   93.4349976         2.27799735E-09
   93.5999985         2.74648237E-09
   93.7649994         3.11805581E-09
   93.9300003         3.36922312E-09
   94.0950012         3.48071971E-09
   94.2600021         3.43846285E-09
   94.4250031         3.23430016E-09
   94.5899963         2.86653301E-09
   94.7549973         2.34020270E-09
   94.9199982         1.66713354E-09
   95.0849991         8.65731209E-10
   95.2500000        -3.94572743E-11
   95.4150009        -1.01841813E-09
   95.5800018        -2.03656958E-09
   95.7450027        -3.05586689E-09
   95.9100037        -4.03609413E-09
   96.0749969        -4.93630647E-09
   96.2399979        -5.71638203E-09
   96.4049988        -6.33862696E-09
   96.5699997        -6.76937217E-09
   96.7350006        -6.98048197E-09
   96.9000015        -6.95070801E-09
   97.0650024        -6.66680666E-09
   97.2300034        -6.12435747E-09
   97.3949966        -5.32823075E-09
   97.5599976        -4.29266400E-09
   97.7249985        -3.04094572E-09
   97.8899994        -1.60470981E-09
   98.0550003        -2.28850064E-11
   98.2200012         1.65964864E-09
   98.3850021         3.39361339E-09
   98.5500031         5.12701348E-09
   98.7149963         6.80685508E-09
   98.8799973         8.38081160E-09
   99.0449982         9.79877335E-09
   99.2099991         1.10142206E-08
   99.3750000         1.19853887E-08
   99.5400009         1.26762307E-08
   99.7050018         1.30571784E-08
   99.8700027         1.31057343E-08
   100.035004         1.28069395E-08
   100.199997         1.21537411E-08
   100.364998         1.11473009E-08
   100.529999         9.79722792E-09
   100.695000         8.12174417E-09
   100.860001         6.14774098E-09
   101.025002         3.91066290E-09
   101.190002         1.45417034E-09
   101.355003        -1.17048027E-09
   101.519997        -3.90538579E-09
   101.684998        -6.68729472E-09
   101.849998        -9.44923517E-09
   102.014999        -1.21224311E-08
   102.180000        -1.46384238E-08
   102.345001        -1.69312706E-08
   102.510002        -1.89397085E-08
   102.675003        -2.06091677E-08
   102.839996        -2.18934559E-08
   103.004997        -2.27561046E-08
   103.169998        -2.31712214E-08
   103.334999        -2.31239117E-08
   103.500000        -2.26101875E-08
   103.665001        -2.16364864E-08
   103.830002        -2.02188239E-08
   103.995003        -1.83816518E-08
   104.160004        -1.61565268E-08
   104.324997        -1.35806886E-08
   104.489998        -1.06955707E-08
   104.654999        -7.54537144E-09
   104.820000        -4.17572421E-09
   104.985001        -6.32498054E-10
   105.150002         3.03918801E-09
   105.315002         6.79572310E-09
   105.480003         1.05955023E-08
   105.644997         1.43991370E-08
   105.809998         1.81693665E-08
   105.974998         2.18707008E-08
   106.139999         2.54687915E-08
   106.305000         2.89295894E-08
   106.470001         3.22183595E-08
   106.635002         3.52986049E-08
   106.800003         3.81310201E-08
   106.964996         4.06725142E-08
   107.129997         4.28754383E-08
   107.294998         4.46870274E-08
   107.459999         4.60491876E-08
   107.625000         4.68985668E-08
   107.790001         4.71670560E-08
   107.955002         4.67826347E-08
   108.120003         4.56705855E-08
   108.285004         4.37551080E-08
   108.449997         4.09612433E-08
   108.614998         3.72171627E-08
   108.779999         3.24566862E-08
   108.945000         2.66220344E-08
   109.110001         1.96666985E-08
   109.275002         1.15583205E-08
   109.440002         2.28145680E-09
   109.605003        -8.15992873E-09
   109.769997        -1.97404226E-08
   109.934998        -3.24116556E-08
   110.099998        -4.61014942E-08
   110.264999        -6.07139938E-08
   110.430000        -7.61300853E-08
   110.595001        -9.22090422E-08
   110.760002        -1.08790495E-07
   110.925003        -1.25696971E-07
   111.089996        -1.42736653E-07
   111.254997        -1.59706318E-07
   111.419998        -1.76394224E-07
   111.584999        -1.92582689E-07
   111.750000        -2.08050764E-07
   111.915001        -2.22576332E-07
   112.080002        -2.35938501E-07
   112.245003        -2.47919729E-07
   112.410004        -2.58308148E-07
   112.574997        -2.66900201E-07
   112.739998        -2.73503503E-07
   112.904999        -2.77939932E-07
   113.070000        -2.80048994E-07
   113.235001        -2.79691278E-07
   113.400002        -2.76751337E-07
   113.565002        -2.71140749E-07
   113.730003        -2.62800086E-07
   113.894997        -2.51700271E-07
   114.059998        -2.37843182E-07
   114.224998        -2.21261303E-07
   114.389999        -2.02016565E-07
   114.555000        -1.80198839E-07
   114.720001        -1.55923729E-07
   114.885002        -1.29330573E-07
   115.050003        -1.00580266E-07
   115.214996        -6.98534919E-08
   115.379997        -3.73492739E-08
   115.544998        -3.28404659E-09
   115.709999         3.21090070E-08
   115.875000         6.85800998E-08
   116.040001         1.05862952E-07
   116.205002         1.43674512E-07
   116.370003         1.81715052E-07
   116.535004         2.19668181E-07
   116.699997         2.57201407E-07
   116.864998         2.93967076E-07
   117.029999         3.29603978E-07
   117.195000         3.63739900E-07
   117.360001         3.95994533E-07
   117.525002         4.25983984E-07
   117.690002         4.53326066E-07
   117.855003         4.77646324E-07
   118.019997         4.98585564E-07
   118.184998         5.15808210E-07
   118.349998         5.29011004E-07
   118.514999         5.37932806E-07
   118.680000         5.42364205E-07
   118.845001         5.42157693E-07
   119.010002         5.37236133E-07
   119.175003         5.27602083E-07
   119.339996         5.13344276E-07
   119.504997         4.94643416E-07
   119.669998         4.71775792E-07
   119.834999         4.45113841E-07
   120.000000         4.15124532E-07
   120.165001         3.82364533E-07
   120.330002         3.47472223E-07
   120.495003         3.11155929E-07
   120.660004         2.74179740E-07
   120.824997         2.37345546E-07
   120.989998         2.01473128E-07
   121.154999         1.67377934E-07
   121.320000         1.35847884E-07
   121.485001         1.07619840E-07
   121.650002         8.33569871E-08
   121.815002         6.36281854E-08
   121.980003         4.88903531E-08
   122.144997         3.94747843E-08
   122.309998         3.55784877E-08
   122.474998         3.72606905E-08
   122.639999         4.44450272E-08
   122.805000         5.69270995E-08
   122.970001         7.43868895E-08
   123.135002         9.64055218E-08
   123.300003         1.22484906E-07
   123.464996         1.52069390E-07
   123.629997         1.84568037E-07
   123.794998         2.19376346E-07
   123.959999         2.55896481E-07
   124.125000         2.93554990E-07
   124.290001         3.31817716E-07
   124.455002         3.70201690E-07
   124.620003         4.08283626E-07
   124.785004         4.45705609E-07
   124.949997         4.82177938E-07
   125.114998         5.17479748E-07
   125.279999         5.51456651E-07
   125.445000         5.84017187E-07
   125.610001         6.15125998E-07
   125.775002         6.44796103E-07
   125.940002         6.73077693E-07
   126.105003         7.00045632E-07
   126.269997         7.25784673E-07
   126.434998         7.50373488E-07
   126.599998         7.73867782E-07
   126.764999         7.96284382E-07
   126.930000         8.17586624E-07
   127.095001         8.37673156E-07
   127.260002         8.56370946E-07
   127.425003         8.73434146E-07
   127.589996         8.88548186E-07
   127.754997         9.01341366E-07
   127.919998         9.11401230E-07
   128.085007         9.18296507E-07
   128.250000         9.21602066E-07
   128.414993         9.20925459E-07
   128.580002         9.15933072E-07
   128.744995         9.06373771E-07
   128.910004         8.92098285E-07
   129.074997         8.73073475E-07
   129.240005         8.49389835E-07
   129.404999         8.21262915E-07
   129.570007         7.89028377E-07
   129.735001         7.53131019E-07
   129.899994         7.14110058E-07
   130.065002         6.72579631E-07
   130.229996         6.29207875E-07
   130.395004         5.84693566E-07
   130.559998         5.39742587E-07
   130.725006         4.95043480E-07
   130.889999         4.51244148E-07
   131.054993         4.08928628E-07
   131.220001         3.68595551E-07
   131.384995         3.30638585E-07