  -30.00000        9.8404830E-18
  -29.85750        9.8575444E-18
  -29.71500        9.8833699E-18
  -29.57250        9.9064259E-18
  -29.43000        9.9186086E-18
  -29.28750        9.9197774E-18
  -29.14500        9.9174489E-18
  -29.00250        9.9218892E-18
  -28.86000        9.9395884E-18
  -28.71750        9.9690790E-18
  -28.57500        1.0001606E-17
  -28.43250        1.0026268E-17
  -28.29000        1.0036499E-17
  -28.14750        1.0034007E-17
  -28.00500        1.0027774E-17
  -27.86250        1.0028725E-17
  -27.72000        1.0043264E-17
  -27.57750        1.0069542E-17
  -27.43500        1.0098689E-17
  -27.29250        1.0120226E-17
  -27.15000        1.0128383E-17
  -27.00750        1.0125524E-17
  -26.86500        1.0120624E-17
  -26.72250        1.0123781E-17
  -26.58000        1.0140061E-17
  -26.43750        1.0166439E-17
  -26.29500        1.0193658E-17
  -26.15250        1.0211856E-17
  -26.01000        1.0216557E-17
  -25.86750        1.0211386E-17
  -25.72500        1.0205864E-17
  -25.58250        1.0209645E-17
  -25.44000        1.0226680E-17
  -25.29750        1.0252831E-17
  -25.15500        1.0278396E-17
  -25.01250        1.0293985E-17
  -24.87000        1.0296193E-17
  -24.72750        1.0289635E-17
  -24.58500        1.0284119E-17
  -24.44250        1.0288684E-17
  -24.30000        1.0306125E-17
  -24.15750        1.0331333E-17
  -24.01500        1.0354447E-17
  -23.87250        1.0366903E-17
  -23.73000        1.0366695E-17
  -23.58750        1.0359634E-17
  -23.44500        1.0355836E-17
  -23.30250        1.0363557E-17
  -23.16000        1.0384113E-17
  -23.01750        1.0410983E-17
  -22.87500        1.0433671E-17
  -22.73250        1.0443992E-17
  -22.59000        1.0441004E-17
  -22.44750        1.0431578E-17
  -22.30500        1.0426262E-17
  -22.16250        1.0432916E-17
  -22.02000        1.0451975E-17
  -21.87750        1.0476191E-17
  -21.73500        1.0495052E-17
  -21.59250        1.0501160E-17
  -21.45000        1.0494761E-17
  -21.30750        1.0483615E-17
  -21.16500        1.0478318E-17
  -21.02250        1.0485834E-17
  -20.88000        1.0505204E-17
  -20.73750        1.0527998E-17
  -20.59500        1.0543316E-17
  -20.45250        1.0544317E-17
  -20.31000        1.0532379E-17
  -20.16750        1.0516371E-17
  -20.02500        1.0507448E-17
  -19.88250        1.0512499E-17
  -19.74000        1.0530165E-17
  -19.59750        1.0551795E-17
  -19.45500        1.0566777E-17
  -19.31250        1.0568994E-17
  -19.17000        1.0560536E-17
  -19.02750        1.0550395E-17
  -18.88500        1.0548959E-17
  -18.74250        1.0561598E-17
  -18.60000        1.0585228E-17
  -18.45750        1.0609939E-17
  -18.31500        1.0624731E-17
  -18.17250        1.0623936E-17
  -18.03000        1.0610490E-17
  -17.88750        1.0594119E-17
  -17.74500        1.0585535E-17
  -17.60250        1.0590136E-17
  -17.46000        1.0604992E-17
  -17.31750        1.0620875E-17
  -17.17500        1.0628078E-17
  -17.03250        1.0622486E-17
  -16.89000        1.0608216E-17
  -16.74750        1.0595231E-17
  -16.60500        1.0593386E-17
  -16.46250        1.0606489E-17
  -16.32000        1.0629964E-17
  -16.17750        1.0653522E-17
  -16.03500        1.0667234E-17
  -15.89250        1.0667335E-17
  -15.75000        1.0658299E-17
  -15.60750        1.0649959E-17
  -15.46500        1.0651450E-17
  -15.32250        1.0665640E-17
  -15.18000        1.0687416E-17
  -15.03750        1.0706840E-17
  -14.89500        1.0715223E-17
  -14.75250        1.0710430E-17
  -14.61000        1.0698193E-17
  -14.46750        1.0688637E-17
  -14.32500        1.0690146E-17
  -14.18250        1.0704281E-17
  -14.04000        1.0724846E-17
  -13.89750        1.0741654E-17
  -13.75500        1.0746721E-17
  -13.61250        1.0739120E-17
  -13.47000        1.0725560E-17
  -13.32750        1.0716334E-17
  -13.18500        1.0719108E-17
  -13.04250        1.0734296E-17
  -12.90000        1.0754851E-17
  -12.75750        1.0770572E-17
  -12.61500        1.0774330E-17
  -12.47250        1.0766412E-17
  -12.33000        1.0754351E-17
  -12.18750        1.0748330E-17
  -12.04500        1.0754949E-17
  -11.90250        1.0773150E-17
  -11.76000        1.0794780E-17
  -11.61750        1.0809487E-17
  -11.47500        1.0810999E-17
  -11.33250        1.0800971E-17
  -11.19000        1.0788067E-17
  -11.04750        1.0782801E-17
  -10.90500        1.0791224E-17
  -10.76250        1.0811288E-17
  -10.62000        1.0834064E-17
  -10.47750        1.0849116E-17
  -10.33500        1.0850770E-17
  -10.19250        1.0841521E-17
  -10.05000        1.0830488E-17
  -9.907500        1.0827857E-17
  -9.765000        1.0838662E-17
  -9.622500        1.0859663E-17
  -9.480000        1.0881237E-17
  -9.337500        1.0893154E-17
  -9.195000        1.0890772E-17
  -9.052500        1.0877916E-17
  -8.910000        1.0864691E-17
  -8.767500        1.0861496E-17
  -8.625000        1.0872858E-17
  -8.482500        1.0894738E-17
  -8.340000        1.0916949E-17
  -8.197500        1.0929230E-17
  -8.055000        1.0927327E-17
  -7.912500        1.0915432E-17
  -7.770000        1.0903551E-17
  -7.627500        1.0901375E-17
  -7.485000        1.0912393E-17
  -7.342500        1.0931766E-17
  -7.200000        1.0949264E-17
  -7.057500        1.0955492E-17
  -6.915000        1.0947647E-17
  -6.772500        1.0931339E-17
  -6.630000        1.0917383E-17
  -6.487500        1.0915464E-17
  -6.345000        1.0928482E-17
  -6.202500        1.0950951E-17
  -6.060000        1.0972374E-17
  -5.917500        1.0983556E-17
  -5.775000        1.0982029E-17
  -5.632500        1.0973362E-17
  -5.490000        1.0967585E-17
  -5.347500        1.0972941E-17
  -5.205000        1.0990755E-17
  -5.062500        1.1014529E-17
  -4.920000        1.1033806E-17
  -4.777500        1.1040458E-17
  -4.635000        1.1033588E-17
  -4.492500        1.1020091E-17
  -4.350000        1.1010542E-17
  -4.207500        1.1012899E-17
  -4.065000        1.1027812E-17
  -3.922500        1.1048367E-17
  -3.780000        1.1064375E-17
  -3.637500        1.1068605E-17
  -3.495000        1.1061152E-17
  -3.352500        1.1049332E-17
  -3.210000        1.1043172E-17
  -3.067500        1.1049249E-17
  -2.925000        1.1066643E-17
  -2.782500        1.1087461E-17
  -2.640000        1.1101612E-17
  -2.497500        1.1102935E-17
  -2.355000        1.1092967E-17
  -2.212500        1.1080034E-17
  -2.070000        1.1074230E-17
  -1.927500        1.1081313E-17
  -1.785000        1.1099217E-17
  -1.642500        1.1119305E-17
  -1.500000        1.1131609E-17
  -1.357500        1.1130885E-17
  -1.215000        1.1119796E-17
  -1.072500        1.1107313E-17
 -0.9300000        1.1103270E-17
 -0.7875000        1.1112387E-17
 -0.6450000        1.1131384E-17
 -0.5025000        1.1150956E-17
 -0.3600000        1.1161415E-17
 -0.2175000        1.1158604E-17
 -7.5000003E-02    1.1146480E-17
  6.7500003E-02    1.1134784E-17
  0.2100000        1.1133184E-17
  0.3525000        1.1145405E-17
  0.4950000        1.1166924E-17
  0.6375000        1.1187612E-17
  0.7800000        1.1197777E-17
  0.9225000        1.1193971E-17
   1.065000        1.1181052E-17
   1.207500        1.1169272E-17
   1.350000        1.1168105E-17
   1.492500        1.1180562E-17
   1.635000        1.1201396E-17
   1.777500        1.1220290E-17
   1.920000        1.1228121E-17
   2.062500        1.1222516E-17
   2.205000        1.1209341E-17
   2.347500        1.1199221E-17
   2.490000        1.1201160E-17
   2.632500        1.1217096E-17
   2.775000        1.1240671E-17
   2.917500        1.1260957E-17
   3.060000        1.1268906E-17
   3.202500        1.1262679E-17
   3.345000        1.1248643E-17
   3.487500        1.1237481E-17
   3.630000        1.1237742E-17
   3.772500        1.1250742E-17
   3.915000        1.1269844E-17
   4.057500        1.1284558E-17
   4.200000        1.1286965E-17
   4.342500        1.1276580E-17
   4.485000        1.1260730E-17
   4.627500        1.1250225E-17
   4.770000        1.1252921E-17
   4.912500        1.1269060E-17
   5.055000        1.1291161E-17
   5.197500        1.1308525E-17
   5.340000        1.1313632E-17
   5.482500        1.1306562E-17
   5.625000        1.1294825E-17
   5.767500        1.1288714E-17
   5.910000        1.1295031E-17
   6.052500        1.1312971E-17
   6.195000        1.1334638E-17
   6.337500        1.1349868E-17
   6.480000        1.1352400E-17
   6.622500        1.1343682E-17
   6.765000        1.1331976E-17
   6.907500        1.1327353E-17
   7.050000        1.1335600E-17
   7.192500        1.1354714E-17
   7.335000        1.1376135E-17
   7.477500        1.1389924E-17
   7.620000        1.1390758E-17
   7.762500        1.1381112E-17
   7.905000        1.1369698E-17
   8.047500        1.1366140E-17
   8.190000        1.1375103E-17
   8.332500        1.1393460E-17
   8.475000        1.1412204E-17
   8.617500        1.1421937E-17
   8.760000        1.1418601E-17
   8.902500        1.1405968E-17
   9.045000        1.1393356E-17
   9.187500        1.1389969E-17
   9.330000        1.1399291E-17
   9.472500        1.1416938E-17
   9.615000        1.1433302E-17
   9.757500        1.1439386E-17
   9.900000        1.1432305E-17
   10.04250        1.1417124E-17
   10.18500        1.1403875E-17
   10.32750        1.1401576E-17
   10.47000        1.1412838E-17
   10.61250        1.1432330E-17
   10.75500        1.1450046E-17
   10.89750        1.1457389E-17
   11.04000        1.1452413E-17
   11.18250        1.1441017E-17
   11.32500        1.1433364E-17
   11.46750        1.1437683E-17
   11.61000        1.1455181E-17
   11.75250        1.1479180E-17
   11.89500        1.1499010E-17
   12.03750        1.1506349E-17
   12.18000        1.1500199E-17
   12.32250        1.1487492E-17
   12.46500        1.1478948E-17
   12.60750        1.1482667E-17
   12.75000        1.1499288E-17
   12.89250        1.1521631E-17
   13.03500        1.1539036E-17
   13.17750        1.1543776E-17
   13.32000        1.1535695E-17
   13.46250        1.1522274E-17
   13.60500        1.1514087E-17
   13.74750        1.1518382E-17
   13.89000        1.1534667E-17
   14.03250        1.1554952E-17
   14.17500        1.1568521E-17
   14.31750        1.1568371E-17
   14.46000        1.1555441E-17
   14.60250        1.1538119E-17
   14.74500        1.1527301E-17
   14.88750        1.1529977E-17
   15.03000        1.1545191E-17
   15.17250        1.1564761E-17
   15.31500        1.1578313E-17
   15.45750        1.1579557E-17
   15.60000        1.1570046E-17
   15.74250        1.1558151E-17
   15.88500        1.1553908E-17
   16.02750        1.1562862E-17
   16.17000        1.1582629E-17
   16.31250        1.1604244E-17
   16.45500        1.1617491E-17
   16.59750        1.1616973E-17
   16.74000        1.1605287E-17
   16.88250        1.1591405E-17
   17.02500        1.1585256E-17
   17.16750        1.1591794E-17
   17.31000        1.1608120E-17
   17.45250        1.1625377E-17
   17.59500        1.1634229E-17
   17.73750        1.1630604E-17
   17.88000        1.1618191E-17
   18.02250        1.1606224E-17
   18.16500        1.1603886E-17
   18.30750        1.1614742E-17
   18.45000        1.1634586E-17
   18.59250        1.1653989E-17
   18.73500        1.1664004E-17
   18.87750        1.1661554E-17
   19.02000        1.1651250E-17
   19.16250        1.1642526E-17
   19.30500        1.1643852E-17
   19.44750        1.1657538E-17
   19.59000        1.1678280E-17
   19.73250        1.1696345E-17
   19.87500        1.1703458E-17
   20.01750        1.1697816E-17
   20.16000        1.1685196E-17
   20.30250        1.1675461E-17
   20.44500        1.1676594E-17
   20.58750        1.1689874E-17
   20.73000        1.1709111E-17
   20.87250        1.1724440E-17
   21.01500        1.1728343E-17
   21.15750        1.1720283E-17
   21.30000        1.1707089E-17
   21.44250        1.1698862E-17
   21.58500        1.1702857E-17
   21.72750        1.1719035E-17
   21.87000        1.1739996E-17
   22.01250        1.1755361E-17
   22.15500        1.1757972E-17
   22.29750        1.1748169E-17
   22.44000        1.1733582E-17
   22.58250        1.1724523E-17
   22.72500        1.1727772E-17
   22.86750        1.1742495E-17
   23.01000        1.1760766E-17
   23.15250        1.1772385E-17
   23.29500        1.1771098E-17
   23.43750        1.1758458E-17
   23.58000        1.1742989E-17
   23.72250        1.1735135E-17
   23.86500        1.1741023E-17
   24.00750        1.1758784E-17
   24.15000        1.1779650E-17
   24.29250        1.1793185E-17
   24.43500        1.1793503E-17
   24.57750        1.1782751E-17
   24.72000        1.1769783E-17
   24.86250        1.1764805E-17
   25.00500        1.1773243E-17
   25.14750        1.1792494E-17
   25.29000        1.1813524E-17
   25.43250        1.1826327E-17
   25.57500        1.1825963E-17
   25.71750        1.1815534E-17
   25.86000        1.1804312E-17
   26.00250        1.1802159E-17
   26.14500        1.1813586E-17
   26.28750        1.1835020E-17
   26.43000        1.1856922E-17
   26.57250        1.1869446E-17
   26.71500        1.1868255E-17
   26.85750        1.1856995E-17
   27.00000        1.1844973E-17
   27.14250        1.1841469E-17
   27.28500        1.1850127E-17
   27.42750        1.1866807E-17
   27.57000        1.1882171E-17
   27.71250        1.1887423E-17
   27.85500        1.1879710E-17
   27.99750        1.1863926E-17
   28.14000        1.1849839E-17
   28.28250        1.1846278E-17
   28.42500        1.1855902E-17
   28.56750        1.1873697E-17
   28.71000        1.1890082E-17
   28.85250        1.1896734E-17
   28.99500        1.1891583E-17
   29.13750        1.1879985E-17
   29.28000        1.1871356E-17
   29.42250        1.1873360E-17
   29.56500        1.1887163E-17
   29.70750        1.1906651E-17
   29.85000        1.1922092E-17
   29.99250        1.1925988E-17
   30.13500        1.1917599E-17
   30.27750        1.1903370E-17
   30.42000        1.1893017E-17
   30.56250        1.1893637E-17
   30.70500        1.1905423E-17
   30.84750        1.1921586E-17
   30.99000        1.1932520E-17
   31.13250        1.1931693E-17
   31.27500        1.1919685E-17
   31.41750        1.1903898E-17
   31.56000        1.1894122E-17
   31.70250        1.1896612E-17
   31.84500        1.1910291E-17
   31.98750        1.1927355E-17
   32.13000        1.1937968E-17
   32.27250        1.1936172E-17
   32.41500        1.1923478E-17
   32.55750        1.1907915E-17
   32.70000        1.1899143E-17
   32.84250        1.1902552E-17
   32.98500        1.1915940E-17
   33.12750        1.1930791E-17
   33.27000        1.1937421E-17
   33.41250        1.1930874E-17
   33.55500        1.1914036E-17
   33.69750        1.1896051E-17
   33.84000        1.1886971E-17
   33.98250        1.1891853E-17
   34.12500        1.1907824E-17
   34.26750        1.1925904E-17
   34.41000        1.1936461E-17
   34.55250        1.1935035E-17
   34.69500        1.1925011E-17
   34.83750        1.1915534E-17
   34.98000        1.1915921E-17
   35.12250        1.1929931E-17
   35.26500        1.1953372E-17
   35.40750        1.1976473E-17
   35.55000        1.1989638E-17
   35.69250        1.1989121E-17
   35.83500        1.1979221E-17
   35.97750        1.1969681E-17
   36.12000        1.1969854E-17
   36.26250        1.1983127E-17
   36.40500        1.2004932E-17
   36.54750        1.2025529E-17
   36.69000        1.2035851E-17
   36.83250        1.2032913E-17
   36.97500        1.2021507E-17
   37.11750        1.2011219E-17
   37.26000        1.2010559E-17
   37.40250        1.2021766E-17
   37.54500        1.2039416E-17
   37.68750        1.2053673E-17
   37.83000        1.2056192E-17
   37.97250        1.2045151E-17
   38.11500        1.2026364E-17
   38.25750        1.2009832E-17
   38.40000        1.2003814E-17
   38.54250        1.2009999E-17
   38.68500        1.2022652E-17
   38.82750        1.2032233E-17
   38.97000        1.2031266E-17
   39.11250        1.2018905E-17
   39.25500        1.2001453E-17
   39.39750        1.1988526E-17
   39.54000        1.1987233E-17
   39.68250        1.1997877E-17
   39.82500        1.2013790E-17
   39.96750        1.2025389E-17
   40.11000        1.2025979E-17
   40.25250        1.2015794E-17
   40.39500        1.2001820E-17
   40.53750        1.1993519E-17
   40.68000        1.1997065E-17
   40.82250        1.2011569E-17
   40.96500        1.2029599E-17
   41.10750        1.2041667E-17
   41.25000        1.2041966E-17
   41.39250        1.2031882E-17
   41.53500        1.2019147E-17
   41.67750        1.2013163E-17
   41.82000        1.2019321E-17
   41.96250        1.2035774E-17
   42.10500        1.2054608E-17
   42.24750        1.2066713E-17
   42.39000        1.2067374E-17
   42.53250        1.2059192E-17
   42.67500        1.2050526E-17
   42.81750        1.2050402E-17
   42.96000        1.2062934E-17
   43.10250        1.2084675E-17
   43.24500        1.2106508E-17
   43.38750        1.2118970E-17
   43.53000        1.2117826E-17
   43.67250        1.2106521E-17
   43.81500        1.2094051E-17
   43.95750        1.2089513E-17
   44.10000        1.2096645E-17
   44.24250        1.2111620E-17
   44.38500        1.2125464E-17
   44.52750        1.2129610E-17
   44.67000        1.2121241E-17
   44.81250        1.2105168E-17
   44.95500        1.2091083E-17
   45.09750        1.2087818E-17
   45.24000        1.2098044E-17
   45.38250        1.2116624E-17
   45.52500        1.2133608E-17
   45.66750        1.2140113E-17
   45.81000        1.2133564E-17
   45.95250        1.2119162E-17
   46.09500        1.2106704E-17
   46.23750        1.2104672E-17
   46.38000        1.2115153E-17
   46.52250        1.2132612E-17
   46.66500        1.2147282E-17
   46.80750        1.2151090E-17
   46.95000        1.2142569E-17
   47.09250        1.2127775E-17
   47.23500        1.2116684E-17
   47.37750        1.2117203E-17
   47.52000        1.2130418E-17
   47.66250        1.2149926E-17
   47.80500        1.2165640E-17
   47.94750        1.2169794E-17
   48.09000        1.2161540E-17
   48.23250        1.2147393E-17
   48.37500        1.2137272E-17
   48.51750        1.2138537E-17
   48.66000        1.2151628E-17
   48.80250        1.2169874E-17
   48.94500        1.2183597E-17
   49.08750        1.2185988E-17
   49.23000        1.2177214E-17
   49.37250        1.2164276E-17
   49.51500        1.2156738E-17
   49.65750        1.2160902E-17
   49.80000        1.2175970E-17
   49.94250        1.2194501E-17
   50.08500        1.2206868E-17
   50.22750        1.2207038E-17
   50.37000        1.2196165E-17
   50.51250        1.2181854E-17
   50.65500        1.2173551E-17
   50.79750        1.2176862E-17
   50.94000        1.2190233E-17
   51.08250        1.2205976E-17
   51.22500        1.2215014E-17
   51.36750        1.2212424E-17
   51.51000        1.2200438E-17
   51.65250        1.2187062E-17
   51.79500        1.2181177E-17
   51.93750        1.2187094E-17
   52.08000        1.2201880E-17
   52.22250        1.2217098E-17
   52.36500        1.2223899E-17
   52.50750        1.2218404E-17
   52.65000        1.2204092E-17
   52.79250        1.2189760E-17
   52.93500        1.2184264E-17
   53.07750        1.2191216E-17
   53.22000        1.2206868E-17
   53.36250        1.2222424E-17
   53.50500        1.2229412E-17
   53.64750        1.2224836E-17
   53.79000        1.2212984E-17
   53.93250        1.2202795E-17
   54.07500        1.2202357E-17
   54.21750        1.2213893E-17
   54.36000        1.2232278E-17
   54.50250        1.2248035E-17
   54.64500        1.2253002E-17
   54.78750        1.2245299E-17
   54.93000        1.2230542E-17
   55.07250        1.2218592E-17
   55.21500        1.2217733E-17
   55.35750        1.2229800E-17
   55.50000        1.2249152E-17
   55.64250        1.2266131E-17
   55.78500        1.2272901E-17
   55.92750        1.2268162E-17
   56.07000        1.2257875E-17
   56.21250        1.2251576E-17
   56.35500        1.2256476E-17
   56.49750        1.2272950E-17
   56.64000        1.2294114E-17
   56.78250        1.2309809E-17
   56.92500        1.2312607E-17
   57.06750        1.2302244E-17
   57.21000        1.2285810E-17
   57.35250        1.2273587E-17
   57.49500        1.2272998E-17
   57.63750        1.2284305E-17
   57.78000        1.2300594E-17
   57.92250        1.2312047E-17
   58.06500        1.2311918E-17
   58.20750        1.2300602E-17
   58.35000        1.2285377E-17
   58.49250        1.2275968E-17
   58.63500        1.2278642E-17
   58.77750        1.2292380E-17
   58.92000        1.2309453E-17
   59.06250        1.2320050E-17
   59.20500        1.2318163E-17
   59.34750        1.2305212E-17
   59.49000        1.2289219E-17
   59.63250        1.2280035E-17
   59.77500        1.2283495E-17
   59.91750        1.2298005E-17
   60.06000        1.2315584E-17
   60.20250        1.2326706E-17
   60.34500        1.2326014E-17
   60.48750        1.2315450E-17
   60.63000        1.2302952E-17
   60.77250        1.2297535E-17
   60.91500        1.2303757E-17
   61.05750        1.2318925E-17
   61.20000        1.2334743E-17
   61.34250        1.2342380E-17
   61.48500        1.2337877E-17
   61.62750        1.2324623E-17
   61.77000        1.2311382E-17
   61.91250        1.2307061E-17
   62.05500        1.2315383E-17
   62.19750        1.2332670E-17
   62.34000        1.2350065E-17
   62.48250        1.2358848E-17
   62.62500        1.2355619E-17
   62.76750        1.2344221E-17
   62.91000        1.2333260E-17
   63.05250        1.2330757E-17
   63.19500        1.2339200E-17
   63.33750        1.2353992E-17
   63.48000        1.2366290E-17
   63.62250        1.2368461E-17
   63.76500        1.2358872E-17
   63.90750        1.2343053E-17
   64.05000        1.2330516E-17
   64.19250        1.2329107E-17
   64.33500        1.2340303E-17
   64.47750        1.2358307E-17
   64.62000        1.2373488E-17
   64.76250        1.2378122E-17
   64.90500        1.2370960E-17
   65.04750        1.2357891E-17
   65.19000        1.2348286E-17
   65.33250        1.2349261E-17
   65.47500        1.2361327E-17
   65.61750        1.2378080E-17
   65.76000        1.2390135E-17
   65.90250        1.2390912E-17
   66.04500        1.2380786E-17
   66.18750        1.2367029E-17
   66.33000        1.2359561E-17
   66.47250        1.2365018E-17
   66.61500        1.2382717E-17
   66.75750        1.2404934E-17
   66.90000        1.2421389E-17
   67.04250        1.2425230E-17
   67.18500        1.2416969E-17
   67.32750        1.2404010E-17
   67.47000        1.2396067E-17
   67.61250        1.2399252E-17
   67.75500        1.2412381E-17
   67.89750        1.2427744E-17
   68.04000        1.2435843E-17
   68.18250        1.2431272E-17
   68.32500        1.2416135E-17
   68.46750        1.2398956E-17
   68.61000        1.2389699E-17
   68.75250        1.2393872E-17
   68.89500        1.2409258E-17
   69.03750        1.2427226E-17
   69.18000        1.2437853E-17
   69.32250        1.2435784E-17
   69.46500        1.2423319E-17
   69.60750        1.2408932E-17
   69.75000        1.2402097E-17
   69.89250        1.2407582E-17
   70.03500        1.2422628E-17
   70.17750        1.2438697E-17
   70.32000        1.2446693E-17
   70.46250        1.2442515E-17
   70.60500        1.2429553E-17
   70.74750        1.2416634E-17
   70.89000        1.2412678E-17
   71.03250        1.2421266E-17
   71.17500        1.2438428E-17
   71.31750        1.2454963E-17
   71.46000        1.2461901E-17
   71.60250        1.2455818E-17
   71.74500        1.2440808E-17
   71.88750        1.2425953E-17
   72.03000        1.2419839E-17
   72.17250        1.2425440E-17
   72.31500        1.2438453E-17
   72.45750        1.2450061E-17
   72.60000        1.2452406E-17
   72.74250        1.2443458E-17
   72.88500        1.2428282E-17
   73.02750        1.2415963E-17
   73.17000        1.2414038E-17
   73.31250        1.2423844E-17
   73.45500        1.2439604E-17
   73.59750        1.2451824E-17
   73.74000        1.2452967E-17
   73.88250        1.2441970E-17
   74.02500        1.2424885E-17
   74.16750        1.2411240E-17
   74.31000        1.2408354E-17
   74.45250        1.2417009E-17
   74.59500        1.2431126E-17
   74.73750        1.2441594E-17
   74.88000        1.2441932E-17
   75.02250        1.2432318E-17
   75.16500        1.2419521E-17
   75.30750        1.2412767E-17
   75.45000        1.2418023E-17
   75.59250        1.2434209E-17
   75.73500        1.2453634E-17
   75.87750        1.2466468E-17
   76.02000        1.2466559E-17
   76.16250        1.2455105E-17
   76.30500        1.2439963E-17
   76.44750        1.2430987E-17
   76.59000        1.2434194E-17
   76.73250        1.2448267E-17
   76.87500        1.2465489E-17
   77.01750        1.2476533E-17
   77.16000        1.2476195E-17
   77.30250        1.2466601E-17
   77.44500        1.2455922E-17
   77.58750        1.2453352E-17
   77.73000        1.2463396E-17
   77.87250        1.2482914E-17
   78.01500        1.2502762E-17
   78.15750        1.2513070E-17
   78.30000        1.2509023E-17
   78.44250        1.2493685E-17
   78.58500        1.2476174E-17
   78.72750        1.2466277E-17
   78.87000        1.2468720E-17
   79.01250        1.2480529E-17
   79.15500        1.2493035E-17
   79.29750        1.2497276E-17
   79.44000        1.2489557E-17
   79.58250        1.2473758E-17
   79.72500        1.2459038E-17
   79.86750        1.2454291E-17
   80.01000        1.2462718E-17
   80.15250        1.2479789E-17
   80.29500        1.2495831E-17
   80.43750        1.2501716E-17
   80.58000        1.2494221E-17
   80.72250        1.2477877E-17
   80.86500        1.2462201E-17
   81.00750        1.2455984E-17
   81.15000        1.2462086E-17
   81.29250        1.2475841E-17
   81.43500        1.2488004E-17
   81.57750        1.2490427E-17
   81.72000        1.2481038E-17
   81.86250        1.2465088E-17
   82.00500        1.2451975E-17
   82.14750        1.2449533E-17
   82.29000        1.2459305E-17
   82.43250        1.2475607E-17
   82.57500        1.2488995E-17
   82.71750        1.2491976E-17
   82.86000        1.2483557E-17
   83.00250        1.2469844E-17
   83.14500        1.2460348E-17
   83.28750        1.2462243E-17
   83.43000        1.2476023E-17
   83.57250        1.2495200E-17
   83.71500        1.2510187E-17
   83.85750        1.2514018E-17
   84.00000        1.2506432E-17
   84.14250        1.2493873E-17
   84.28500        1.2485426E-17
   84.42750        1.2487180E-17
   84.57000        1.2498468E-17
   84.71250        1.2512281E-17
   84.85500        1.2519594E-17
   84.99750        1.2514994E-17
   85.14000        1.2500164E-17
   85.28250        1.2483077E-17
   85.42500        1.2473360E-17
   85.56750        1.2476607E-17
   85.71000        1.2491064E-17
   85.85250        1.2508694E-17
   85.99500        1.2519977E-17
   86.13750        1.2519556E-17
   86.28000        1.2509321E-17
   86.42250        1.2497080E-17
   86.56500        1.2491641E-17
   86.70750        1.2497306E-17
   86.85000        1.2511154E-17
   86.99250        1.2524764E-17
   87.13500        1.2529377E-17
   87.27750        1.2521364E-17
   87.42000        1.2504667E-17
   87.56250        1.2488688E-17
   87.70500        1.2482849E-17
   87.84750        1.2491073E-17
   87.99000        1.2509471E-17
   88.13250        1.2528647E-17
   88.27500        1.2539241E-17
   88.41750        1.2537378E-17
   88.56000        1.2526777E-17
   88.70250        1.2516258E-17
   88.84500        1.2514193E-17
   88.98750        1.2523256E-17
   89.13000        1.2538679E-17
   89.27250        1.2551084E-17
   89.41500        1.2552185E-17
   89.55750        1.2539944E-17
   89.70000        1.2520032E-17
   89.84250        1.2502698E-17
   89.98500        1.2496881E-17
   90.12750        1.2505072E-17
   90.27000        1.2521998E-17
   90.41250        1.2537869E-17
   90.55500        1.2544259E-17
   90.69750        1.2539068E-17
   90.84000        1.2527611E-17
   90.98250        1.2519207E-17
   91.12500        1.2521373E-17
   91.26750        1.2535115E-17
   91.41000        1.2554201E-17
   91.55250        1.2568829E-17
   91.69500        1.2571478E-17
   91.83750        1.2561427E-17
   91.98000        1.2545202E-17
   92.12250        1.2532688E-17
   92.26500        1.2531249E-17
   92.40750        1.2541385E-17
   92.55000        1.2556531E-17
   92.69250        1.2567079E-17
   92.83500        1.2566196E-17
   92.97750        1.2553927E-17
   93.12000        1.2537113E-17
   93.26250        1.2525226E-17
   93.40500        1.2524634E-17
   93.54750        1.2534804E-17
   93.69000        1.2548696E-17
   93.83250        1.2557120E-17
   93.97500        1.2554373E-17
   94.11750        1.2541731E-17
   94.26000        1.2526692E-17
   94.40250        1.2518416E-17
   94.54500        1.2522137E-17
   94.68750        1.2535948E-17
   94.83000        1.2551889E-17
   94.97250        1.2560715E-17
   95.11500        1.2557429E-17
   95.25750        1.2544259E-17
   95.40000        1.2529279E-17
   95.54250        1.2521517E-17
   95.68500        1.2525524E-17
   95.82750        1.2538696E-17
   95.97000        1.2552962E-17
   96.11250        1.2559796E-17
   96.25500        1.2555501E-17
   96.39750        1.2543521E-17
   96.54000        1.2532379E-17
   96.68250        1.2530461E-17
   96.82500        1.2540811E-17
   96.96750        1.2559121E-17
   97.11000        1.2576159E-17
   97.25250        1.2583192E-17
   97.39500        1.2577175E-17
   97.53750        1.2562543E-17
   97.68000        1.2548554E-17
   97.82250        1.2543754E-17
   97.96500        1.2550907E-17
   98.10750        1.2565455E-17
   98.25000        1.2578409E-17
   98.39250        1.2581942E-17
   98.53500        1.2574255E-17
   98.67750        1.2560781E-17
   98.82000        1.2550945E-17
   98.96250        1.2552443E-17
   99.10500        1.2566474E-17
   99.24750        1.2586828E-17
   99.39000        1.2603424E-17