   0.00000000       0.00000000    
  0.165000007       0.00000000    
  0.330000013       0.00000000    
  0.495000005       0.00000000    
  0.660000026       0.00000000    
  0.824999988       0.00000000    
  0.990000010       0.00000000    
   1.15499997       0.00000000    
   1.32000005       0.00000000    
   1.48500001       0.00000000    
   1.64999998       0.00000000    
   1.81500006       0.00000000    
   1.98000002       0.00000000    
   2.14499998       0.00000000    
   2.30999994       0.00000000    
   2.47499990       0.00000000    
   2.64000010       0.00000000    
   2.80500007       0.00000000    
   2.97000003       0.00000000    
   3.13499999       1.92946187E-40
   3.29999995       3.13952513E-40
   3.46499991       5.25335584E-40
   3.63000011       1.13369014E-37
   3.79500008       4.33971059E-37
   3.96000004       1.04000085E-36
   4.12500000       1.93640022E-36
   4.28999996       2.86808479E-36
   4.45499992       3.85658251E-36
   4.61999989       4.39998893E-36
   4.78499985       4.16328150E-36
   4.94999981       1.68832188E-36
   5.11499977      -3.34008713E-36
   5.28000021      -1.07846950E-35
   5.44500017      -1.63424795E-35
   5.61000013      -1.14133334E-35
   5.77500010       1.53398770E-35
   5.94000006       7.86907774E-35
   6.10500002       1.88892426E-34
   6.26999998       3.47626488E-34
   6.43499994       5.43868726E-34
   6.59999990       7.56611485E-34
   6.76499987       9.65026679E-34
   6.92999983       1.16138787E-33
   7.09499979       1.36357795E-33
   7.26000023       1.61235838E-33
   7.42500019       1.96125686E-33
   7.59000015       2.45620408E-33
   7.75500011       3.10794535E-33
   7.92000008       3.79738748E-33
   8.08500004       4.04017225E-33
   8.25000000       2.51082397E-33
   8.41499996      -3.63630214E-33
   8.57999992      -1.93093153E-32
   8.74499989      -5.11738653E-32
   8.90999985      -1.05576731E-31
   9.07499981      -1.84134396E-31
   9.23999977      -2.77633381E-31
   9.40499973      -3.60755478E-31
   9.56999969      -3.91760811E-31
   9.73499966      -3.21158810E-31
   9.89999962      -1.10247476E-31
   10.0649996       2.45740550E-31
   10.2299995       7.01808825E-31
   10.3950005       1.16925831E-30
   10.5600004       1.55213186E-30
   10.7250004       1.80646455E-30
   10.8900003       1.99389947E-30
   11.0550003       2.28728405E-30
   11.2200003       2.89254497E-30
   11.3850002       3.88527289E-30
   11.5500002       5.01388627E-30
   11.7150002       5.56932785E-30
   11.8800001       4.43188077E-30
   12.0450001       3.57755264E-31
   12.2100000      -7.53059673E-30
   12.3750000      -1.91945416E-29
   12.5400000      -3.32744903E-29
   12.7049999      -4.70105416E-29
   12.8699999      -5.65722120E-29
   13.0349998      -5.77762613E-29
   13.1999998      -4.71299944E-29
   13.3649998      -2.31603729E-29
   13.5299997       1.20309955E-29
   13.6949997       5.12941408E-29
   13.8599997       8.19078806E-29
   14.0249996       8.75480989E-29
   14.1899996       5.44550974E-29
   14.3549995      -1.76554407E-29
   14.5200005      -1.02380606E-28
   14.6850004      -1.37796460E-28
   14.8500004      -3.20580669E-29
   15.0150003       3.07250706E-28
   15.1800003       9.18443924E-28
   15.3450003       1.71905579E-27
   15.5100002       2.45789414E-27
   15.6750002       2.72699605E-27
   15.8400002       2.06689839E-27
   16.0049992       1.65888218E-28
   16.1700001      -2.89914260E-27
   16.3349991      -6.48620773E-27
   16.5000000      -9.40513482E-27
   16.6650009      -1.02198486E-26
   16.8299999      -7.82111753E-27
   16.9950008      -2.10380922E-27
   17.1599998       5.54930829E-27
   17.3250008       1.23072285E-26
   17.4899998       1.46548740E-26
   17.6550007       9.79545380E-27
   17.8199997      -2.75081364E-27
   17.9850006      -2.00548194E-26
   18.1499996      -3.58924994E-26
   18.3150005      -4.24035817E-26
   18.4799995      -3.29871463E-26
   18.6450005      -5.43556672E-27
   18.8099995       3.60854036E-26
   18.9750004       8.14124299E-26
   19.1399994       1.17481209E-25
   19.3050003       1.33279541E-25
   19.4699993       1.24691336E-25
   19.6350002       9.68778199E-26
   19.7999992       6.25184347E-26
   19.9650002       3.58796435E-26
   20.1299992       2.46906453E-26
   20.2950001       2.32843975E-26
   20.4599991       1.06152089E-26
   20.6250000      -4.47152985E-26
   20.7900009      -1.72983872E-25
   20.9549999      -3.88863782E-25
   21.1200008      -6.79195434E-25
   21.2849998      -9.98120657E-25
   21.4500008      -1.27241410E-24
   21.6149998      -1.41615718E-24
   21.7800007      -1.35020821E-24
   21.9449997      -1.01975211E-24
   22.1100006      -4.03700752E-25
   22.2749996       4.86914533E-25
   22.4400005       1.61908307E-24
   22.6049995       2.94860686E-24
   22.7700005       4.42071262E-24
   22.9349995       5.95141555E-24
   23.1000004       7.38806892E-24
   23.2649994       8.45968834E-24
   23.4300003       8.74064352E-24
   23.5949993       7.65956092E-24
   23.7600002       4.58280894E-24
   23.9249992      -1.01455608E-24
   24.0900002      -9.30689419E-24
   24.2549992      -1.98561386E-23
   24.4200001      -3.14098128E-23
   24.5849991      -4.18487807E-23
   24.7500000      -4.83581327E-23
   24.9150009      -4.78516935E-23
   25.0799999      -3.76190285E-23
   25.2450008      -1.60988998E-23
   25.4099998       1.63700408E-23
   25.5750008       5.69984379E-23
   25.7399998       1.00368856E-22
   25.9050007       1.38768534E-22
   26.0699997       1.63101321E-22
   26.2350006       1.64349817E-22
   26.3999996       1.35441321E-22
   26.5650005       7.32431855E-23
   26.7299995      -1.96986993E-23
   26.8950005      -1.34126410E-22
   27.0599995      -2.54164370E-22
   27.2250004      -3.58824503E-22
   27.3899994      -4.24953034E-22
   27.5550003      -4.31319608E-22
   27.7199993      -3.63213725E-22
   27.8850002      -2.16663513E-22
   28.0499992      -1.30963345E-24
   28.2150002       2.58893118E-22
   28.3799992       5.27624808E-22
   28.5450001       7.60769934E-22
   28.7099991       9.13037760E-22
   28.8750000       9.45598404E-22
   29.0400009       8.33437933E-22
   29.2049999       5.71122118E-22
   29.3700008       1.75913268E-22
   29.5349998      -3.12389398E-22
   29.7000008      -8.34981576E-22
   29.8649998      -1.32056517E-21
   30.0300007      -1.69404762E-21
   30.1949997      -1.88639488E-21
   30.3600006      -1.84449079E-21
   30.5249996      -1.53984215E-21
   30.6900005      -9.75037229E-22
   30.8549995      -1.87002381E-22
   31.0200005       7.53656504E-22
   31.1849995       1.74756626E-21
   31.3500004       2.67559142E-21
   31.5149994       3.41121368E-21
   31.6800003       3.83504681E-21
   31.8449993       3.84989567E-21
   32.0099983       3.39464947E-21
   32.1749992       2.45541355E-21
   32.3400002       1.07256871E-21
   32.5050011      -6.57215999E-22
   32.6699982      -2.58467002E-21
   32.8349991      -4.51762955E-21
   33.0000000      -6.23672089E-21
   33.1650009      -7.51637374E-21
   33.3300018      -8.14980910E-21
   33.4949989      -7.97573120E-21
   33.6599998      -6.90364455E-21
   33.8250008      -4.93423898E-21
   33.9900017      -2.17125601E-21
   34.1549988       1.17808523E-21
   34.3199997       4.81582210E-21
   34.4850006       8.37921924E-21
   34.6500015       1.14781383E-20
   34.8149986       1.37401211E-20
   34.9799995       1.48578650E-20
   35.1450005       1.46328428E-20
   35.3100014       1.30084095E-20
   35.4749985       1.00867002E-20
   35.6399994       6.12523730E-21
   35.8050003       1.51186412E-21
   35.9700012      -3.28033174E-21
   36.1349983      -7.75335452E-21
   36.2999992      -1.14525830E-20
   36.4650002      -1.40337944E-20
   36.6300011      -1.53189762E-20
   36.7949982      -1.53313031E-20
   36.9599991      -1.43013793E-20
   37.1250000      -1.26397915E-20
   37.2900009      -1.08756875E-20
   37.4550018      -9.56641649E-21
   37.6199989      -9.18930856E-21
   37.7849998      -1.00314519E-20
   37.9500008      -1.20963985E-20
   38.1150017      -1.50462344E-20
   38.2799988      -1.81938408E-20
   38.4449997      -2.05534430E-20
   38.6100006      -2.09491940E-20
   38.7750015      -1.81725296E-20
   38.9399986      -1.11715419E-20
   39.1049995       7.50029360E-22
   39.2700005       1.77498678E-20
   39.4350014       3.93058649E-20
   39.5999985       6.41396105E-20
   39.7649994       9.02226509E-20
   39.9300003       1.14875470E-19
   40.0950012       1.34960359E-19
   40.2599983       1.47158804E-19
   40.4249992       1.48314311E-19
   40.5900002       1.35812885E-19
   40.7550011       1.07965856E-19
   40.9199982       6.43546775E-20
   41.0849991       6.09530531E-21
   41.2500000      -6.40202251E-20
   41.4150009      -1.41540529E-19
   41.5800018      -2.20554889E-19
   41.7449989      -2.94082870E-19
   41.9099998      -3.54637764E-19
   42.0750008      -3.94923580E-19
   42.2400017      -4.08601942E-19
   42.4049988      -3.91050901E-19
   42.5699997      -3.40028669E-19
   42.7350006      -2.56161757E-19
   42.9000015      -1.43187782E-19
   43.0649986      -7.90593299E-21
   43.2299995       1.40186370E-19
   43.3950005       2.89562354E-19
   43.5600014       4.27600575E-19
   43.7249985       5.41715206E-19
   43.8899994       6.20584138E-19
   44.0550003       6.55356950E-19
   44.2200012       6.40715646E-19
   44.3849983       5.75666421E-19
   44.5499992       4.63958575E-19
   44.7150002       3.14060032E-19
   44.8800011       1.38657856E-19
   45.0449982      -4.63009178E-20
   45.2099991      -2.22968240E-19
   45.3750000      -3.73251474E-19
   45.5400009      -4.80626109E-19
   45.7050018      -5.31939483E-19
   45.8699989      -5.19022540E-19
   46.0349998      -4.39932648E-19
   46.2000008      -2.99675387E-19
   46.3650017      -1.10295500E-19
   46.5299988       1.09711653E-19
   46.6949997       3.36648757E-19
   46.8600006       5.43439361E-19
   47.0250015       7.01880896E-19
   47.1899986       7.85142984E-19
   47.3549995       7.70305638E-19
   47.5200005       6.40726037E-19
   47.6850014       3.88041101E-19
   47.8499985       1.36471052E-20
   48.0149994      -4.70466987E-19
   48.1800003      -1.04159317E-18
   48.3450012      -1.66690046E-18
   48.5099983      -2.30471544E-18
   48.6749992      -2.90641468E-18
   48.8400002      -3.41883218E-18
   49.0050011      -3.78707810E-18
   49.1699982      -3.95765598E-18
   49.3349991      -3.88178491E-18
   49.5000000      -3.51880854E-18
   49.6650009      -2.83957807E-18
   49.8300018      -1.82968360E-18
   49.9949989      -4.92374245E-19
   50.1599998       1.14899099E-18
   50.3250008       3.04916103E-18
   50.4900017       5.14007344E-18
   50.6549988       7.33100150E-18
   50.8199997       9.50996977E-18
   50.9850006       1.15466051E-17
   51.1500015       1.32965421E-17
   51.3149986       1.46074273E-17
   51.4799995       1.53264441E-17
   51.6450005       1.53091775E-17
   51.8100014       1.44294511E-17
   51.9749985       1.25896988E-17
   52.1399994       9.73123645E-18
   52.3050003       5.84378494E-18
   52.4700012       9.73474328E-19
   52.6349983      -4.77138788E-18
   52.7999992      -1.12174765E-17
   52.9650002      -1.81271122E-17
   53.1300011      -2.52028185E-17
   53.2949982      -3.20959379E-17
   53.4599991      -3.84191976E-17
   53.6250000      -4.37628638E-17
   53.7900009      -4.77138060E-17
   53.9550018      -4.98766848E-17
   54.1199989      -4.98961136E-17
   54.2849998      -4.74787874E-17
   54.4500008      -4.24143212E-17
   54.6150017      -3.45937057E-17
   54.7799988      -2.40243872E-17
   54.9449997      -1.08410093E-17
   55.1100006       4.68876866E-18
   55.2750015       2.21638247E-17
   55.4399986       4.10546646E-17
   55.6049995       6.07139849E-17
   55.7700005       8.03923801E-17
   55.9350014       9.92587552E-17
   56.0999985       1.16424943E-16
   56.2649994       1.30973833E-16
   56.4300003       1.41990409E-16
   56.5950012       1.48595109E-16
   56.7599983       1.49978645E-16
   56.9249992       1.45437701E-16
   57.0900002       1.34410629E-16
   57.2550011       1.16512254E-16
   57.4199982       9.15666571E-17
   57.5849991       5.96369627E-17
   57.7500000       2.10506051E-17
   57.9150009      -2.35811541E-17
   58.0800018      -7.33509687E-17
   58.2449989      -1.27051792E-16
   58.4099998      -1.83183276E-16
   58.5750008      -2.39969066E-16
   58.7400017      -2.95386303E-16
   58.9049988      -3.47207514E-16
   59.0699997      -3.93055157E-16
   59.2350006      -4.30468999E-16
   59.4000015      -4.56985075E-16
   59.5649986      -4.70225523E-16
   59.7299995      -4.67996874E-16
   59.8950005      -4.48394837E-16
   60.0600014      -4.09911907E-16
   60.2249985      -3.51543766E-16
   60.3899994      -2.72890802E-16
   60.5550003      -1.74249050E-16
   60.7200012      -5.66864425E-17
   60.8849983       7.79011503E-17
   61.0499992       2.26758052E-16
   61.2150002       3.86265368E-16
   61.3800011       5.51968544E-16
   61.5449982       7.18638211E-16
   61.7099991       8.80365176E-16
   61.8750000       1.03068885E-15
   62.0400009       1.16275696E-15
   62.2050018       1.26951403E-15
   62.3699989       1.34391412E-15
   62.5349998       1.37915228E-15
   62.7000008       1.36890858E-15
   62.8650017       1.30759674E-15
   63.0299988       1.19061122E-15
   63.1949997       1.01456177E-15
   63.3600006       7.77490219E-16
   63.5250015       4.79059442E-16
   63.6899986       1.20707886E-16
   63.8549995      -2.94237091E-16
   64.0199966      -7.60492015E-16
   64.1849976      -1.27080046E-15
   64.3499985      -1.81596939E-15
   64.5149994      -2.38495912E-15
   64.6800003      -2.96502697E-15
   64.8450012      -3.54192227E-15
   65.0100021      -4.10013032E-15
   65.1750031      -4.62315919E-15
   65.3399963      -5.09386683E-15
   65.5049973      -5.49481538E-15
   65.6699982      -5.80865337E-15
   65.8349991      -6.01851087E-15
   66.0000000      -6.10839758E-15
   66.1650009      -6.06360013E-15
   66.3300018      -5.87106403E-15
   66.4950027      -5.51975330E-15
   66.6600037      -5.00098078E-15
   66.8249969      -4.30870160E-15
   66.9899979      -3.43976289E-15
   67.1549988      -2.39410983E-15
   67.3199997      -1.17494248E-15
   67.4850006       2.11177609E-16
   67.6500015       1.75427046E-15
   67.8150024       3.44093392E-15
   67.9800034       5.25438889E-15
   68.1449966       7.17457489E-15
   68.3099976       9.17830079E-15
   68.4749985       1.12394479E-14
   68.6399994       1.33292222E-14
   68.8050003       1.54164672E-14
   68.9700012       1.74680250E-14
   69.1350021       1.94491623E-14
   69.3000031       2.13240375E-14
   69.4649963       2.30562385E-14
   69.6299973       2.46093564E-14
   69.7949982       2.59476295E-14
   69.9599991       2.70366039E-14
   70.1250000       2.78438585E-14
   70.2900009       2.83397319E-14
   70.4550018       2.84980881E-14
   70.6200027       2.82970601E-14
   70.7850037       2.77197952E-14
   70.9499969       2.67551602E-14
   71.1149979       2.53983930E-14
   71.2799988       2.36516756E-14
   71.4449997       2.15246217E-14
   71.6100006       1.90346447E-14
   71.7750015       1.62072131E-14
   71.9400024       1.30759415E-14
   72.1050034       9.68254204E-15
   72.2699966       6.07661267E-15
   72.4349976       2.31524301E-15
   72.5999985      -1.53755199E-15
   72.7649994      -5.41156856E-15
   72.9300003      -9.23132420E-15
   73.0950012      -1.29171237E-14
   73.2600021      -1.63862894E-14
   73.4250031      -1.95545111E-14
   73.5899963      -2.23373193E-14
   73.7549973      -2.46516420E-14
   73.9199982      -2.64174143E-14
   74.0849991      -2.75592249E-14
   74.2500000      -2.80079406E-14
   74.4150009      -2.77022972E-14
   74.5800018      -2.65904157E-14
   74.7450027      -2.46311913E-14
   74.9100037      -2.17955503E-14
   75.0749969      -1.80675380E-14
   75.2399979      -1.34451979E-14
   75.4049988      -7.94123627E-15
   75.5699997      -1.58345303E-15
   75.7350006       5.58508919E-15
   75.9000015       1.35061479E-14
   76.0650024       2.21066502E-14
   76.2300034       3.12992938E-14
   76.3949966       4.09834418E-14
   76.5599976       5.10462068E-14
   76.7249985       6.13638236E-14
   76.8899994       7.18032201E-14
   77.0550003       8.22238057E-14
   77.2200012       9.24794163E-14
   77.3850021       1.02420405E-13
   77.5500031       1.11895932E-13
   77.7149963       1.20756283E-13
   77.8799973       1.28855246E-13
   78.0449982       1.36052641E-13
   78.2099991       1.42216642E-13
   78.3750000       1.47226307E-13
   78.5400009       1.50973824E-13
   78.7050018       1.53366726E-13
   78.8700027       1.54329918E-13
   79.0350037       1.53807522E-13
   79.1999969       1.51764479E-13
   79.3649979       1.48187872E-13
   79.5299988       1.43087948E-13
   79.6949997       1.36498831E-13
   79.8600006       1.28478825E-13
   80.0250015       1.19110505E-13
   80.1900024       1.08500306E-13
   80.3550034       9.67777358E-14
   80.5199966       8.40942577E-14
   80.6849976       7.06218260E-14
   80.8499985       5.65509926E-14
   81.0149994       4.20887012E-14
   81.1800003       2.74557886E-14
   81.3450012       1.28841648E-14
   81.5100021      -1.38628419E-15
   81.6750031      -1.51109577E-14
   81.8399963      -2.80440395E-14
   82.0049973      -3.99420893E-14
   82.1699982      -5.05677145E-14
   82.3349991      -5.96932646E-14
   82.5000000      -6.71044980E-14
   82.6650009      -7.26041745E-14
   82.8300018      -7.60155285E-14
   82.9950027      -7.71855182E-14
   83.1600037      -7.59878407E-14
   83.3249969      -7.23256904E-14
   83.4899979      -6.61341370E-14
   83.6549988      -5.73821521E-14
   83.8199997      -4.60742081E-14
   83.9850006      -3.22514435E-14
   84.1500015      -1.59923632E-14
   84.3150024       2.58696441E-15
   84.4800034       2.33332573E-14
   84.6449966       4.60568033E-14
   84.8099976       7.05328808E-14
   84.9749985       9.65036156E-14
   85.1399994       1.23680390E-13
   85.3050003       1.51746671E-13
   85.4700012       1.80361436E-13
   85.6350021       2.09162847E-13
   85.8000031       2.37772340E-13
   85.9649963       2.65799156E-13
   86.1299973       2.92844958E-13
   86.2949982       3.18508701E-13
   86.4599991       3.42391778E-13
   86.6250000       3.64102818E-13
   86.7900009       3.83262893E-13
   86.9550018       3.99510286E-13
   87.1200027       4.12505371E-13
   87.2850037       4.21934948E-13
   87.4499969       4.27516665E-13
   87.6149979       4.29002781E-13
   87.7799988       4.26183530E-13
   87.9449997       4.18890508E-13
   88.1100006       4.06999033E-13
   88.2750015       3.90430255E-13
   88.4400024       3.69152923E-13
   88.6050034       3.43184438E-13
   88.7699966       3.12591289E-13
   88.9349976       2.77489295E-13
   89.0999985       2.38043092E-13
   89.2649994       1.94465131E-13
   89.4300003       1.47014047E-13
   89.5950012       9.59928277E-14
   89.7600021       4.17462085E-14
   89.9250031      -1.53422586E-14
   90.0899963      -7.48536771E-14
   90.2549973      -1.36337610E-13
   90.4199982      -1.99316434E-13
   90.5849991      -2.63289770E-13
   90.7500000      -3.27739490E-13
   90.9150009      -3.92134919E-13
   91.0800018      -4.55938184E-13
   91.2450027      -5.18609840E-13
   91.4100037      -5.79614481E-13
   91.5749969      -6.38426378E-13
   91.7399979      -6.94535412E-13
   91.9049988      -7.47452339E-13
   92.0699997      -7.96714365E-13
   92.2350006      -8.41890360E-13
   92.4000015      -8.82585888E-13
   92.5650024      -9.18447501E-13
   92.7300034      -9.49167177E-13
   92.8949966      -9.74485683E-13
   93.0599976      -9.94196045E-13
   93.2249985      -1.00814593E-12
   93.3899994      -1.01623972E-12
   93.5550003      -1.01844000E-12
   93.7200012      -1.01476791E-12
   93.8850021      -1.00530359E-12
   94.0500031      -9.90185256E-13
   94.2149963      -9.69607749E-13
   94.3799973      -9.43820976E-13
   94.5449982      -9.13126671E-13
   94.7099991      -8.77875518E-13
   94.8750000      -8.38462980E-13
   95.0400009      -7.95324960E-13
   95.2050018      -7.48932546E-13
   95.3700027      -6.99786908E-13
   95.5350037      -6.48413018E-13
   95.6999969      -5.95353953E-13
   95.8649979      -5.41164336E-13
   96.0299988      -4.86403561E-13
   96.1949997      -4.31629206E-13
   96.3600006      -3.77390366E-13
   96.5250015      -3.24220983E-13
   96.6900024      -2.72633451E-13
   96.8550034      -2.23112490E-13
   97.0199966      -1.76109371E-13
   97.1849976      -1.32036431E-13
   97.3499985      -9.12621690E-14
   97.5149994      -5.41066825E-14
   97.6800003      -2.08377576E-14
   97.8450012       8.33222753E-15
   98.0100021       3.32488723E-14
   98.1750031       5.38175156E-14
   98.3399963       7.00041696E-14
   98.5049973       8.18359594E-14
   98.6699982       8.94005871E-14
   98.8349991       9.28451516E-14
   99.0000000       9.23744317E-14
   99.1650009       8.82481073E-14
   99.3300018       8.07776426E-14
   99.4950027       7.03222135E-14
   99.6600037       5.72842758E-14
   99.8249969       4.21043984E-14
   99.9899979       2.52560170E-14
   100.154999       7.23940171E-15
   100.320000      -1.14244704E-14
   100.485001      -3.02002177E-14
   100.650002      -4.85448609E-14
   100.815002      -6.59146471E-14
   100.980003      -8.17719441E-14
   101.144997      -9.55921066E-14
   101.309998      -1.06870303E-13
   101.474998      -1.15128217E-13
   101.639999      -1.19920214E-13
   101.805000      -1.20839509E-13
   101.970001      -1.17523816E-13
   102.135002      -1.09660626E-13
   102.300003      -9.69918861E-14
   102.464996      -7.93182590E-14
   102.629997      -5.65026711E-14
   102.794998      -2.84728770E-14
   102.959999       4.77650349E-15
   103.125000       4.31828374E-14
   103.290001       8.66153598E-14
   103.455002       1.34875672E-13
   103.620003       1.87699113E-13
   103.785004       2.44757041E-13
   103.949997       3.05659930E-13
   104.114998       3.69961115E-13
   104.279999       4.37161727E-13
   104.445000       5.06716034E-13
   104.610001       5.78037401E-13
   104.775002       6.50505312E-13
   104.940002       7.23472226E-13
   105.105003       7.96270981E-13
   105.269997       8.68222540E-13
   105.434998       9.38644453E-13
   105.599998       1.00685823E-12
   105.764999       1.07219821E-12
   105.930000       1.13401974E-12
   106.095001       1.19170667E-12
   106.260002       1.24467895E-12
   106.425003       1.29240011E-12
   106.589996       1.33438334E-12
   106.754997       1.37019747E-12
   106.919998       1.39947277E-12
   107.084999       1.42190448E-12
   107.250000       1.43725711E-12
   107.415001       1.44536737E-12
   107.580002       1.44614529E-12
   107.745003       1.43957578E-12
   107.910004       1.42571773E-12
   108.074997       1.40470296E-12
   108.239998       1.37673423E-12
   108.404999       1.34208226E-12
   108.570000       1.30108229E-12
   108.735001       1.25412929E-12
   108.900002       1.20167298E-12
   109.065002       1.14421255E-12
   109.230003       1.08228910E-12
   109.394997       1.01648030E-12
   109.559998       9.47392230E-13
   109.724998       8.75652469E-13
   109.889999       8.01903411E-13
   110.055000       7.26794493E-13
   110.220001       6.50974825E-13
   110.385002       5.75086474E-13
   110.550003       4.99756811E-13
   110.714996       4.25592341E-13
   110.879997       3.53172054E-13
   111.044998       2.83041521E-13
   111.209999       2.15707768E-13
   111.375000       1.51633927E-13
   111.540001       9.12352943E-14
   111.705002       3.48752297E-14
   111.870003      -1.71385055E-14
   112.035004      -6.45560604E-14
   112.199997      -1.07187859E-13
   112.364998      -1.44905789E-13
   112.529999      -1.77643924E-13
   112.695000      -2.05398429E-13
   112.860001      -2.28226915E-13
   113.025002      -2.46247196E-13
   113.190002      -2.59635304E-13
   113.355003      -2.68623123E-13
   113.519997      -2.73495040E-13
   113.684998      -2.74584175E-13
   113.849998      -2.72267668E-13
   114.014999      -2.66961827E-13
   114.180000      -2.59116865E-13
   114.345001      -2.49210890E-13
   114.510002      -2.37744178E-13
   114.675003      -2.25232634E-13
   114.839996      -2.12201635E-13
   115.004997      -1.99179323E-13
   115.169998      -1.86689910E-13
   115.334999      -1.75247471E-13
   115.500000      -1.65349546E-13
   115.665001      -1.57471299E-13
   115.830002      -1.52059937E-13
   115.995003      -1.49529369E-13
   116.160004      -1.50255351E-13
   116.324997      -1.54571058E-13
   116.489998      -1.62763005E-13
   116.654999      -1.75067521E-13
   116.820000      -1.91667930E-13
   116.985001      -2.12692223E-13
   117.150002      -2.38211279E-13
   117.315002      -2.68237933E-13
   117.480003      -3.02726404E-13
   117.644997      -3.41572311E-13
   117.809998      -3.84613402E-13
   117.974998      -4.31630778E-13
   118.139999      -4.82350596E-13
   118.305000      -5.36446755E-13
   118.470001      -5.93543660E-13
   118.635002      -6.53220208E-13
   118.800003      -7.15013606E-13
   118.964996      -7.78424146E-13
   119.129997      -8.42920026E-13
   119.294998      -9.07942883E-13
   119.459999      -9.72913373E-13
   119.625000      -1.03723703E-12
   119.790001      -1.10031060E-12
   119.955002      -1.16152791E-12
   120.120003      -1.22028657E-12
   120.285004      -1.27599396E-12
   120.449997      -1.32807339E-12
   120.614998      -1.37596976E-12
   120.779999      -1.41915592E-12
   120.945000      -1.45713682E-12
   121.110001      -1.48945624E-12
   121.275002      -1.51570022E-12
   121.440002      -1.53550198E-12
   121.605003      -1.54854558E-12
   121.769997      -1.55456973E-12
   121.934998      -1.55336963E-12
   122.099998      -1.54479988E-12
   122.264999      -1.52877548E-12
   122.430000      -1.50527312E-12
   122.595001      -1.47433151E-12
   122.760002      -1.43605082E-12
   122.925003      -1.39059207E-12
   123.089996      -1.33817534E-12
   123.254997      -1.27907786E-12
   123.419998      -1.21363076E-12
   123.584999      -1.14221620E-12
   123.750000      -1.06526322E-12
   123.915001      -9.83242676E-13
   124.080002      -8.96664199E-13
   124.245003      -8.06069404E-13
   124.410004      -7.12027767E-13
   124.574997      -6.15130614E-13
   124.739998      -5.15985421E-13
   124.904999      -4.15209804E-13
   125.070000      -3.13426206E-13
   125.235001      -2.11255723E-13
   125.400002      -1.09312793E-13
   125.565002      -8.19957200E-15
   125.730003       9.14994466E-14
   125.894997       1.89222620E-13
   126.059998       2.84436076E-13
   126.224998       3.76638607E-13
   126.389999       4.65365810E-13
   126.555000       5.50194330E-13
   126.720001       6.30745022E-13
   126.885002       7.06686608E-13
   127.050003       7.77738009E-13
   127.214996       8.43670565E-13
   127.379997       9.04309993E-13
   127.544998       9.59537679E-13
   127.709999       1.00929096E-12
   127.875000       1.05356349E-12
   128.039993       1.09240492E-12
   128.205002       1.12591934E-12
   128.369995       1.15426397E-12
   128.535004       1.17764631E-12
   128.699997       1.19632190E-12
   128.865005       1.21059055E-12
   129.029999       1.22079181E-12
   129.195007       1.22730125E-12
   129.360001       1.23052436E-12
   129.524994       1.23089212E-12
   129.690002       1.22885393E-12
   129.854996       1.22487209E-12
   130.020004       1.21941509E-12
   130.184998       1.21295064E-12
   130.350006       1.20593889E-12
   130.514999       1.19882511E-12
   130.679993       1.19203291E-12
   130.845001       1.18595693E-12
   131.009995       1.18095627E-12
   131.175003       1.17734837E-12
   131.339996       1.17540233E-12
   131.505005       1.17533392E-12
   131.669998       1.17729979E-12
   131.835007       1.18139418E-12
   132.000000       1.18764406E-12
   132.164993       1.19600684E-12
   132.330002       1.20636834E-12
   132.494995       1.21854133E-12
   132.660004       1.23226559E-12
   132.824997       1.24720904E-12
   132.990005       1.26296868E-12
   133.154999       1.27907450E-12
   133.320007       1.29499265E-12
   133.485001       1.31013061E-12
   133.649994       1.32384338E-12
   133.815002       1.33544076E-12
   133.979996       1.34419515E-12
   134.145004       1.34935054E-12
   134.309998       1.35013214E-12
   134.475006       1.34575662E-12
   134.639999       1.33544304E-12
   134.804993       1.31842454E-12
   134.970001       1.29395941E-12
   135.134995       1.26134368E-12
   135.300003       1.21992282E-12
   135.464996       1.16910333E-12
   135.630005       1.10836449E-12
   135.794998       1.03726869E-12
   135.960007       9.55472463E-13
   136.125000       8.62735610E-13
   136.289993       7.58929866E-13
   136.455002       6.44046990E-13
   136.619995       5.18204999E-13
   136.785004       3.81653178E-13
   136.949997       2.34775415E-13
   137.115005       7.80922703E-14
   137.279999      -8.77388846E-14
   137.445007      -2.61925627E-13
   137.610001      -4.43543395E-13
   137.774994      -6.31541314E-13
   137.940002      -8.24748689E-13
   138.104996      -1.02188451E-12
   138.270004      -1.22156874E-12
   138.434998      -1.42233469E-12
   138.600006      -1.62264343E-12
   138.764999      -1.82089933E-12
   138.929993      -2.01546635E-12
   139.095001      -2.20468674E-12
   139.259995      -2.38689840E-12
   139.425003      -2.56045575E-12
   139.589996      -2.72374874E-12
   139.755005      -2.87522285E-12
   139.919998      -3.01340008E-12
   140.085007      -3.13689721E-12
   140.250000      -3.24444616E-12
   140.414993      -3.33491112E-12
   140.580002      -3.40730634E-12
   140.744995      -3.46081302E-12
   140.910004      -3.49479321E-12
   141.074997      -3.50880349E-12
   141.240005      -3.50260576E-12